Membrane in water
40167
    1TCq1    O1    1   3.322   0.750  10.886 -0.2084  0.2591 -0.3973
    1TCq1    C1    2   3.436   0.713  10.944  0.0837 -0.0958  0.8175
    1TCq1    O2    3   3.465   0.599  10.974 -0.2861  0.0395  0.0558
    1TCq1    C2    4   3.494   0.826  11.011  0.1875 -0.1342  0.1142
    1TCq1    C3    5   3.512   0.944  10.946  0.0572 -0.2077  0.4876
    1TCq1    C4    6   3.570   1.052  11.010 -0.7930 -0.0658  0.3295
    1TCq1    C5    7   3.597   1.043  11.139 -0.5184 -0.3219  0.3590
    1TCq1    C6    8   3.585   0.918  11.200  0.0592 -0.0468 -0.4347
    1TCq1    C7    9   3.541   0.806  11.140 -0.4070  0.8866  0.0582
    1TCq1    C8   10   3.612   0.905  11.343 -0.1660  0.2857  0.3064
    1TCq1    O4   11   3.623   1.009  11.405 -0.1746 -0.3061  0.1725
    1TCq1    C9   12   3.611   1.171  10.931 -0.1349 -0.3860  0.5358
    1TCq1    O5   13   3.576   1.169  10.807  0.7995  0.3146  0.6455
    1TCq1    O6   14   3.678   1.262  10.985 -0.1293 -0.0879 -0.1541
    1TCq1    H1   15   3.307   0.846  10.892  1.6503  0.4261  1.7579
    1TCq1    H2   16   3.490   0.950  10.840 -1.3216 -1.3704  0.7108
    1TCq1    H3   17   3.643   1.126  11.192  0.0360 -0.3037 -0.1489
    1TCq1    H4   18   3.515   0.713  11.189  0.9275 -0.6451 -2.1237
    2MPD2     C   19   3.680   0.622  11.774 -0.2211  0.5511 -0.1589
    2MPD2    C1   20   3.655   0.756  11.754  0.2789 -0.0716  0.1086
    2MPD2    C2   21   3.639   0.806  11.625 -0.2889  0.3457  0.4065
    2MPD2    C3   22   3.652   0.725  11.516 -0.0106 -0.2205  0.3398
    2MPD2    C4   23   3.663   0.591  11.537  0.1495  0.9026  0.2746
    2MPD2    C5   24   3.679   0.541  11.665  0.6390  0.1211  0.0260
    2MPD2     H   25   3.616   0.912  11.619 -0.7287  0.3160  1.4500
    2MPD2    H1   26   3.669   0.523  11.452  0.6388  1.4943 -0.1692
    2MPD2    H2   27   3.710   0.575  11.867  1.5983 -0.5860 -1.3177
    2MPD2    H3   28   3.695   0.435  11.680 -0.6122 -0.3411 -1.8666
    2MPD2     N   29   3.633   0.770  11.379  0.2492  0.7205 -1.0056
    2MPD2    H5   30   3.661   0.709  11.303  4.0482 -0.9456  1.7524
    2MPD2    N1   31   3.642   0.845  11.861  0.2229  0.0166  0.1989
    2MPD2    H7   32   3.638   0.943  11.836  1.9631  0.4754  1.7424
    3TCq1    O1   33   4.156   3.611  11.919  0.0155  0.0757 -0.4210
    3TCq1    C1   34   4.045   3.558  11.862  0.1853 -0.0511  0.1821
    3TCq1    O2   35   3.962   3.491  11.922  0.4890 -0.1156  0.1587
    3TCq1    C2   36   4.047   3.555  11.712 -0.5025 -0.6036  0.3082
    3TCq1    C3   37   4.148   3.611  11.638 -0.5054  0.0788  0.8363
    3TCq1    C4   38   4.131   3.621  11.503 -0.1152  0.0711  0.2430
    3TCq1    C5   39   4.017   3.583  11.439  0.0111 -0.0966  0.3353
    3TCq1    C6   40   3.922   3.530  11.515 -0.4867  0.1752  0.2307
    3TCq1    C7   41   3.933   3.512  11.653 -0.0068  0.3188  0.7946
    3TCq1    C8   42   3.799   3.480  11.452 -0.3175 -0.0641 -0.5748
    3TCq1    O4   43   3.804   3.448  11.333  0.1456  0.1088 -0.4105
    3TCq1    C9   44   4.238   3.670  11.413  0.5920 -0.2383  0.1099
    3TCq1    O5   45   4.201   3.702  11.299 -0.4775  0.4513  0.1692
    3TCq1    O6   46   4.357   3.676  11.447 -0.4057  0.1177  0.3500
    3TCq1    H1   47   4.196   3.684  11.867  1.0133 -0.1115  0.0890
    3TCq1    H2   48   4.236   3.652  11.687 -2.3448  1.2767  3.0907
    3TCq1    H3   49   4.007   3.591  11.332  1.8670  0.9181  0.2431
    3TCq1    H4   50   3.851   3.474  11.712  0.8801 -1.9995  0.5163
    4MPD2     C   51   3.299   3.333  11.490 -0.0982  0.3563 -0.4024
    4MPD2    C1   52   3.332   3.412  11.599  0.7902  0.5680 -0.2087
    4MPD2    C2   53   3.460   3.469  11.606 -0.1235 -0.6396 -0.0751
    4MPD2    C3   54   3.562   3.434  11.515  0.3075  0.1629  0.1445
    4MPD2    C4   55   3.519   3.370  11.399 -0.2398 -0.3444 -0.0027
    4MPD2    C5   56   3.388   3.321  11.390 -0.3644 -0.0407 -0.2074
    4MPD2     H   57   3.481   3.535  11.689  0.2639 -1.1740  0.2504
    4MPD2    H1   58   3.587   3.352  11.317  1.2897  0.2791  1.1294
    4MPD2    H2   59   3.199   3.293  11.490  0.3675 -0.8352  1.8908
    4MPD2    H3   60   3.352   3.274  11.299  3.4677 -2.3674 -0.5288
    4MPD2     N   61   3.690   3.489  11.540 -0.2381  0.4308  0.4757
    4MPD2    H5   62   3.700   3.540  11.627 -0.0025  1.1089  0.0476
    4MPD2    N1   63   3.232   3.461  11.697  0.2721  0.2245 -0.0857
    4MPD2    H7   64   3.272   3.520  11.769 -1.2894 -0.1089  1.0480
    5TCq1    O1   65   3.944   4.306  11.919  0.6534 -0.5954 -0.2162
    5TCq1    C1   66   4.006   4.340  11.802 -0.0301  0.2347 -0.4270
    5TCq1    O2   67   3.975   4.442  11.746 -0.5630 -0.2685 -0.3022
    5TCq1    C2   68   4.038   4.220  11.725 -0.3580  0.0365 -0.9692
    5TCq1    C3   69   4.109   4.122  11.781 -0.2118  0.2282 -0.3011
    5TCq1    C4   70   4.181   4.035  11.698  0.2443  0.1177  0.2182
    5TCq1    C5   71   4.165   4.047  11.563 -0.4191  0.0149  0.3147
    5TCq1    C6   72   4.092   4.147  11.509  0.3765  0.2966  0.4910
    5TCq1    C7   73   4.021   4.238  11.588  0.1161 -0.2947  0.3430
    5TCq1    C8   74   4.073   4.146  11.367  0.0141 -0.8131  0.4510
    5TCq1    O4   75   4.093   4.044  11.304 -0.5195 -0.1486 -0.3012
    5TCq1    C9   76   4.257   3.917  11.750  0.0092 -0.1195  0.2197
    5TCq1    O5   77   4.338   3.877  11.663 -0.8234  0.4807  0.3179
    5TCq1    O6   78   4.204   3.856  11.848  0.5791  0.7330  0.4818
    5TCq1    H1   79   3.939   4.212  11.949 -2.1055 -0.2964  0.2471
    5TCq1    H2   80   4.125   4.120  11.888 -1.4385  1.3914 -0.0907
    5TCq1    H3   81   4.210   3.973  11.498  0.0914 -1.3829  2.2431
    5TCq1    H4   82   3.949   4.307  11.546 -2.0067 -3.6342 -1.5199
    6MPD2     C   83   3.940   4.434  11.182  0.0335 -0.8490  0.1270
    6MPD2    C1   84   3.988   4.308  11.199 -0.4259 -0.6429  0.3920
    6MPD2    C2   85   3.980   4.216  11.098  0.2535  0.3901  0.2820
    6MPD2    C3   86   3.942   4.247  10.973 -0.3152  0.0135  0.4067
    6MPD2    C4   87   3.907   4.373  10.951  0.5330 -0.3890 -0.3055
    6MPD2    C5   88   3.908   4.466  11.052  0.3528  0.5300 -0.2081
    6MPD2     H   89   4.023   4.117  11.110  1.7538  1.0600  0.4827
    6MPD2    H1   90   3.879   4.406  10.851  1.1595 -2.9514 -1.3496
    6MPD2    H2   91   3.940   4.508  11.261  1.3321 -0.0210 -0.6348
    6MPD2    H3   92   3.866   4.565  11.035 -3.8716 -1.3068 -0.4286
    6MPD2     N   93   3.964   4.151  10.872 -0.7618  0.4243  0.3075
    6MPD2    H5   94   4.020   4.075  10.909 -1.1979 -0.2412 -0.3971
    6MPD2    N1   95   4.014   4.265  11.333 -0.3430  0.4043  0.2139
    6MPD2    H7   96   4.007   4.337  11.404 -3.9092 -0.9954  1.2438
    7TCq1    O1   97   0.281   3.775  13.116 -0.3381  0.4090  0.2305
    7TCq1    C1   98   0.396   3.803  13.051 -0.3530  0.1399  0.1346
    7TCq1    O2   99   0.443   3.912  13.042  0.3263 -0.5539 -0.7287
    7TCq1    C2  100   0.438   3.678  12.987  0.0328  0.0541  0.5535
    7TCq1    C3  101   0.513   3.690  12.874 -0.5576 -0.5040 -0.0248
    7TCq1    C4  102   0.587   3.582  12.831  0.5963  0.1640 -0.3064
    7TCq1    C5  103   0.605   3.464  12.905  0.8471 -0.2392  0.2201
    7TCq1    C6  104   0.533   3.454  13.020  0.1853 -0.3827  0.1034
    7TCq1    C7  105   0.447   3.560  13.063 -0.4151  0.4597 -0.6983
    7TCq1    C8  106   0.592   3.367  13.124  0.1168 -0.6738  0.0538
    7TCq1    O4  107   0.669   3.283  13.077  0.1672 -0.2147  0.4670
    7TCq1    C9  108   0.670   3.590  12.707  0.3616 -0.1260  0.3375
    7TCq1    O5  109   0.727   3.487  12.669 -0.1600 -0.3544 -0.6503
    7TCq1    O6  110   0.663   3.695  12.636  0.1040 -0.2463  0.2425
    7TCq1    H1  111   0.242   3.686  13.104  1.5409 -0.2923 -0.7334
    7TCq1    H2  112   0.522   3.786  12.825  0.3243 -0.8766 -0.5862
    7TCq1    H3  113   0.675   3.390  12.869 -2.5964 -3.2219 -0.2694
    7TCq1    H4  114   0.404   3.553  13.162  0.1856  0.5887 -0.4315
    8MPD2     C  115   0.735   3.268  13.594 -0.2452 -0.2327 -0.4951
    8MPD2    C1  116   0.715   3.172  13.493 -0.2531 -0.8845  0.2007
    8MPD2    C2  117   0.668   3.230  13.373 -0.1653 -0.2001  0.2914
    8MPD2    C3  118   0.647   3.368  13.361 -0.9865  0.1016 -0.2015
    8MPD2    C4  119   0.668   3.451  13.464 -0.3307 -0.1100  0.2992
    8MPD2    C5  120   0.717   3.402  13.577  0.1880 -0.3228 -0.3086
    8MPD2     H  121   0.617   3.170  13.299 -1.2428  0.9299  0.1160
    8MPD2    H1  122   0.661   3.558  13.450 -0.8538 -0.4427 -2.1035
    8MPD2    H2  123   0.770   3.241  13.694  1.3271 -1.4674 -1.3752
    8MPD2    H3  124   0.734   3.467  13.663  0.0721 -1.0366  0.2540
    8MPD2     N  125   0.592   3.421  13.246  0.6217 -0.3852  0.6059
    8MPD2    H5  126   0.562   3.517  13.251 -0.4077 -0.7413  1.2324
    8MPD2    N1  127   0.734   3.031  13.514 -0.2506 -0.2105  0.3130
    8MPD2    H7  128   0.769   3.000  13.605 -1.5836 -0.3624  0.7659
    9TCq1    O1  129   3.448   1.830  10.482  0.1538  0.3884  0.5004
    9TCq1    C1  130   3.319   1.865  10.496 -0.5955  0.2315  0.6362
    9TCq1    O2  131   3.265   1.957  10.435  0.1250 -0.2646  0.5489
    9TCq1    C2  132   3.293   1.830  10.630 -0.3287 -0.6141 -0.2333
    9TCq1    C3  133   3.336   1.706  10.673  0.4995 -0.4413 -0.1645
    9TCq1    C4  134   3.344   1.700  10.808  0.1560  0.3786  0.3595
    9TCq1    C5  135   3.313   1.800  10.897 -0.0103  0.1556  0.6996
    9TCq1    C6  136   3.271   1.921  10.846  0.0821  0.2618 -1.1072
    9TCq1    C7  137   3.270   1.937  10.714 -0.2138  0.4081  0.0064
    9TCq1    C8  138   3.291   2.042  10.922  0.2929  0.6006 -0.4460
    9TCq1    O4  139   3.295   2.151  10.863  0.1345  0.7038 -0.2584
    9TCq1    C9  140   3.392   1.578  10.870  0.2062 -0.0863  0.1869
    9TCq1    O5  141   3.453   1.500  10.795  0.0600  0.5183  0.1751
    9TCq1    O6  142   3.426   1.590  10.991 -0.4937  0.2254  0.0133
    9TCq1    H1  143   3.494   1.787  10.557  0.3968  2.4089  1.5056
    9TCq1    H2  144   3.360   1.621  10.610 -0.9461  1.6214 -3.4878
    9TCq1    H3  145   3.325   1.781  11.003 -1.0194 -0.7425  0.6454
    9TCq1    H4  146   3.231   2.030  10.673 -0.2166  0.1975 -0.4748
   10MPD2     C  147   3.335   2.251  11.133  0.1715 -0.2455  0.2462
   10MPD2    C1  148   3.280   2.123  11.156 -0.1387  0.3339 -0.4651
   10MPD2    C2  149   3.251   2.097  11.286  0.1087  0.4483 -0.1773
   10MPD2    C3  150   3.266   2.185  11.389  0.8528 -0.0579 -0.4927
   10MPD2    C4  151   3.310   2.311  11.364 -0.1587 -0.1462 -0.1794
   10MPD2    C5  152   3.353   2.341  11.242  0.4487 -0.6007  0.8070
   10MPD2     H  153   3.239   1.994  11.318  1.3968  1.5984  3.9143
   10MPD2    H1  154   3.318   2.385  11.443 -1.5580 -0.7150  0.4908
   10MPD2    H2  155   3.366   2.283  11.034  0.3933  1.3562  0.8320
   10MPD2    H3  156   3.387   2.441  11.218 -0.6894 -0.7963 -1.6365
   10MPD2     N  157   3.247   2.148  11.519  0.1352  0.1343 -0.5260
   10MPD2    H5  158   3.283   2.212  11.589  1.0558 -0.9704  0.0059
   10MPD2    N1  159   3.274   2.017  11.054 -0.1046  0.8390  0.0146
   10MPD2    H7  160   3.248   1.924  11.084 -2.1676  0.7463 -2.0449
   11TCq1    O1  161   0.239   2.097  14.164 -0.2207  0.7432 -0.4243
   11TCq1    C1  162   0.196   1.982  14.221 -0.2560 -0.1572 -0.2502
   11TCq1    O2  163   0.128   1.902  14.160  0.3189 -0.1938 -0.1293
   11TCq1    C2  164   0.159   2.013  14.360 -0.3305 -0.1293 -0.1063
   11TCq1    C3  165   0.239   2.078  14.445 -0.6689  0.3369  0.2490
   11TCq1    C4  166   0.193   2.115  14.567  0.8482 -0.3260  0.4971
   11TCq1    C5  167   0.058   2.099  14.596 -0.3199 -0.4453 -0.6079
   11TCq1    C6  168   4.708   2.017  14.515  1.0613 -0.4561 -0.5276
   11TCq1    C7  169   0.034   1.969  14.402  0.0461 -0.9117 -0.1684
   11TCq1    C8  170   4.560   2.005  14.549  0.4306  0.1178  0.1469
   11TCq1    O4  171   4.537   2.045  14.661  0.8228  0.9796  1.0180
   11TCq1    C9  172   0.277   2.187  14.663  0.7184  0.0578 -0.2844
   11TCq1    O5  173   0.218   2.255  14.748  1.0742  0.0378 -0.3400
   11TCq1    O6  174   0.406   2.178  14.650 -0.1900  0.0475 -0.0201
   11TCq1    H1  175   0.275   2.162  14.228 -0.8988  0.4200  0.2844
   11TCq1    H2  176   0.341   2.107  14.424  0.0849 -1.4211  1.5390
   11TCq1    H3  177   0.010   2.153  14.676 -1.5870 -0.6850 -1.2062
   11TCq1    H4  178   4.692   1.906  14.342 -0.8541 -0.9432  0.8288
   12MPD2     C  179   4.274   1.975  14.563 -0.6363 -0.0599 -0.3545
   12MPD2    C1  180   4.353   1.919  14.466  0.3702  0.1276  0.4287
   12MPD2    C2  181   4.299   1.832  14.368 -0.4604  0.9849  0.2530
   12MPD2    C3  182   4.164   1.782  14.386  0.7406 -0.4018  0.0655
   12MPD2    C4  183   4.083   1.833  14.495  0.4665 -0.2349  0.5135
   12MPD2    C5  184   4.137   1.932  14.568  0.1179  0.9514  0.6487
   12MPD2     H  185   4.350   1.791  14.282 -0.0973 -0.1177  0.9909
   12MPD2    H1  186   3.980   1.806  14.514  0.7724 -1.8078 -0.0212
   12MPD2    H2  187   4.310   2.037  14.643 -0.5995  0.2823 -0.6365
   12MPD2    H3  188   4.076   1.982  14.642 -1.2349  2.1026 -1.2521
   12MPD2     N  189   4.125   1.692  14.287  0.6732  0.5475  0.1074
   12MPD2    H5  190   4.200   1.657  14.228  1.5371 -0.3179  1.7292
   12MPD2    N1  191   4.486   1.948  14.450  0.5366 -0.9161 -0.1222
   12MPD2    H7  192   4.526   1.919  14.361 -1.8471 -1.0702 -1.1400
   13TCq1    O1  193   3.149   1.182  11.416  0.6428 -0.7094 -0.0526
   13TCq1    C1  194   3.255   1.130  11.351 -0.6468  0.2978 -0.1177
   13TCq1    O2  195   3.287   1.010  11.356  0.2999 -0.2769 -0.0149
   13TCq1    C2  196   3.249   1.200  11.228  0.6679  0.1418  0.0781
   13TCq1    C3  197   3.254   1.129  11.113 -0.4765 -0.1535  0.3002
   13TCq1    C4  198   3.226   1.187  11.000 -0.4481  0.3148  0.2005
   13TCq1    C5  199   3.185   1.315  10.990 -0.4402  0.3514  0.9242
   13TCq1    C6  200   3.166   1.387  11.105 -0.7429 -0.2690 -0.1039
   13TCq1    C7  201   3.196   1.328  11.223 -1.1191 -0.2518  0.1049
   13TCq1    C8  202   3.118   1.523  11.111  0.4746  0.0442 -0.4416
   13TCq1    O4  203   3.084   1.573  11.218 -0.2089  0.0757 -0.0728
   13TCq1    C9  204   3.243   1.113  10.881  0.1273 -0.4122  0.2854
   13TCq1    O5  205   3.259   1.177  10.775  0.1622  0.0402  0.3664
   13TCq1    O6  206   3.231   0.989  10.887  0.3626  0.0224 -0.5280
   13TCq1    H1  207   3.136   1.278  11.401  0.7465 -0.6765  0.0658
   13TCq1    H2  208   3.304   1.033  11.109 -0.4997 -0.1543  0.0538
   13TCq1    H3  209   3.162   1.350  10.890  0.4530  0.0807  0.6227
   13TCq1    H4  210   3.218   1.389  11.310  1.0324 -1.5505  0.4778
   14MPD2     C  211   2.967   1.724  10.834  0.1640  0.0006 -0.2195
   14MPD2    C1  212   3.002   1.692  10.962 -0.0027  0.0152  0.5400
   14MPD2    C2  213   2.990   1.785  11.060  0.4685  0.2601  0.1019
   14MPD2    C3  214   2.943   1.914  11.044  0.2086 -0.5079  0.5976
   14MPD2    C4  215   2.907   1.946  10.926  0.4152  0.8888 -0.1872
   14MPD2    C5  216   2.905   1.850  10.820  0.0175  0.2499 -0.1042
   14MPD2     H  217   3.024   1.763  11.160 -2.1714  1.6601  1.3087
   14MPD2    H1  218   2.876   2.046  10.897  1.2428  0.7449 -1.6061
   14MPD2    H2  219   2.969   1.662  10.745  0.5789 -0.4692  0.1183
   14MPD2    H3  220   2.875   1.876  10.719  1.7410  1.8429 -0.1949
   14MPD2     N  221   2.946   2.005  11.159  0.1232  0.0712 -0.5443
   14MPD2    H5  222   2.941   1.962  11.251 -1.8528  0.3070 -0.5533
   14MPD2    N1  223   3.071   1.569  10.987  0.2798 -0.3050 -0.6323
   14MPD2    H7  224   3.077   1.502  10.911 -0.4091  0.5499 -1.4358
   15TCq1    O1  225   0.742   1.703   2.007 -0.0341  0.0817 -1.2192
   15TCq1    C1  226   0.771   1.589   1.945  0.3524 -0.4094 -0.2357
   15TCq1    O2  227   0.873   1.569   1.876 -0.6481  1.0762  1.5068
   15TCq1    C2  228   0.651   1.511   1.913 -0.1706 -0.3425  0.8350
   15TCq1    C3  229   0.529   1.569   1.913 -0.3860  0.6164  0.4103
   15TCq1    C4  230   0.424   1.513   1.845 -0.3286 -0.3475  0.3339
   15TCq1    C5  231   0.445   1.402   1.772  0.3969 -0.0362 -0.9383
   15TCq1    C6  232   0.567   1.348   1.766  0.5847 -0.1217  0.1052
   15TCq1    C7  233   0.668   1.397   1.837 -0.3979 -0.1097 -0.6676
   15TCq1    C8  234   0.596   1.231   1.678 -0.1446 -0.2807  0.3280
   15TCq1    O4  235   0.704   1.170   1.709 -0.1545  0.1011  0.7803
   15TCq1    C9  236   0.294   1.575   1.857 -0.0224  0.5169 -0.8269
   15TCq1    O5  237   0.204   1.525   1.783 -0.0841  0.0929 -0.1097
   15TCq1    O6  238   0.273   1.651   1.953  0.4130 -0.4353 -0.1879
   15TCq1    H1  239   0.664   1.696   2.066  1.1567 -1.1183  0.2339
   15TCq1    H2  240   0.506   1.650   1.981  0.3899  1.2604 -0.1050
   15TCq1    H3  241   0.362   1.377   1.707  0.1235  1.1982 -1.0552
   15TCq1    H4  242   0.769   1.359   1.832 -0.6682 -0.8398 -0.5974
   16MPD2     C  243   0.422   1.151   1.359  0.5480  0.2094  0.2271
   16MPD2    C1  244   0.508   1.127   1.469  0.1570 -0.4111 -0.1936
   16MPD2    C2  245   0.579   1.010   1.471 -0.1014  0.0103 -0.0458
   16MPD2    C3  246   0.564   0.908   1.387 -0.3223  0.6672  0.8493
   16MPD2    C4  247   0.472   0.930   1.276 -0.5740  0.6782  0.7208
   16MPD2    C5  248   0.406   1.049   1.261  0.3390 -0.0972 -0.0669
   16MPD2     H  249   0.652   1.001   1.550 -0.3336 -1.2100  0.0270
   16MPD2    H1  250   0.464   0.861   1.193  1.1705 -1.7968  2.6172
   16MPD2    H2  251   0.361   1.240   1.359  0.5748  0.2282  1.1231
   16MPD2    H3  252   0.332   1.059   1.183 -0.9653 -2.1928  0.9163
   16MPD2     N  253   0.649   0.793   1.402  0.2706  0.0374 -0.2719
   16MPD2    H5  254   0.708   0.793   1.485  1.3405  0.9813 -1.0336
   16MPD2    N1  255   0.512   1.226   1.569 -0.5267 -0.6201  0.3461
   16MPD2    H7  256   0.441   1.298   1.564  0.6183  0.4879  0.0995
   17TCq1    O1  257   3.704   4.694  11.216 -1.0900 -0.0388 -0.1304
   17TCq1    C1  258   3.788   0.077  11.216 -0.6463  0.4050 -0.4210
   17TCq1    O2  259   3.875   0.100  11.303 -0.2112 -0.4032  0.6888
   17TCq1    C2  260   3.745   0.177  11.120 -0.1233 -0.4530 -0.5244
   17TCq1    C3  261   3.702   0.130  10.998 -0.2291  0.0504  0.3187
   17TCq1    C4  262   3.660   0.224  10.909  0.0767 -0.5976  0.5533
   17TCq1    C5  263   3.676   0.357  10.936  0.5849  0.3952 -0.2717
   17TCq1    C6  264   3.712   0.395  11.059 -0.4381 -0.6629 -0.4245
   17TCq1    C7  265   3.754   0.307  11.156 -0.1861 -0.2361 -0.2645
   17TCq1    C8  266   3.734   0.535  11.090  0.1823 -0.1901  0.6756
   17TCq1    O4  267   3.756   0.553  11.209 -0.0277 -0.1106 -0.3057
   17TCq1    C9  268   3.589   0.185  10.789 -0.4108  0.2551 -0.2113
   17TCq1    O5  269   3.605   0.068  10.744  0.6713  0.1492  0.4045
   17TCq1    O6  270   3.564   0.283  10.711 -0.0264 -0.5234  0.0101
   17TCq1    H1  271   3.637   4.694  11.144 -1.6157 -0.5339  0.3600
   17TCq1    H2  272   3.680   0.025  10.985  1.1675 -0.1132 -0.6554
   17TCq1    H3  273   3.645   0.427  10.859 -2.4320 -1.7919 -1.0353
   17TCq1    H4  274   3.770   0.341  11.258 -1.6432 -1.1344  0.2609
   18MPD2     C  275   3.891   0.783  11.079 -0.7253 -0.4533  0.1727
   18MPD2    C1  276   3.830   0.732  10.972  0.0462 -0.3813  0.1488
   18MPD2    C2  277   3.850   0.797  10.851 -0.1108 -0.3410 -0.4154
   18MPD2    C3  278   3.913   0.919  10.843 -1.0991 -0.0864 -0.5700
   18MPD2    C4  279   3.973   0.975  10.954 -0.2993 -0.1463  0.6287
   18MPD2    C5  280   3.954   0.904  11.076 -0.8576  0.0030  0.1710
   18MPD2     H  281   3.812   0.743  10.766 -0.0350  1.0315 -1.3222
   18MPD2    H1  282   4.027   1.069  10.949  0.5526 -0.7452 -1.8200
   18MPD2    H2  283   3.869   0.756  11.181  0.8608  0.7204  0.8334
   18MPD2    H3  284   3.984   0.957  11.166 -0.6644 -0.8735  0.6223
   18MPD2     N  285   3.951   0.981  10.725  0.5916  0.6585 -0.0649
   18MPD2    H5  286   3.995   1.072  10.733  1.8964 -0.3724  4.2017
   18MPD2    N1  287   3.761   0.605  10.977 -0.0008  0.0137  0.2161
   18MPD2    H7  288   3.715   0.569  10.894  0.5622  0.4380 -0.2827
   19TMC2    C1  289   0.716   1.187  13.585 -1.3424  0.3988  0.3305
   19TMC2    C2  290   0.758   1.160  13.456 -0.3614  0.8006 -0.3449
   19TMC2    C3  291   0.698   1.054  13.398 -0.4325  0.0684  0.0136
   19TMC2    C4  292   0.619   1.112  13.646 -0.6309  0.1995 -0.1169
   19TMC2    C5  293   0.561   1.006  13.582  0.6407 -0.0398 -0.9511
   19TMC2    C6  294   0.605   0.975  13.459  0.5347 -0.5272 -0.2004
   19TMC2     C  295   0.779   1.300  13.642  0.1168 -0.3785 -0.0921
   19TMC2     O  296   0.869   1.351  13.576  0.8725 -0.6054  0.2624
   19TMC2     H  297   0.829   1.223  13.404  0.7717 -0.2190 -0.0243
   19TMC2    H1  298   0.580   1.142  13.743  1.2083 -1.4665  1.1245
   19TMC2    H2  299   0.554   0.896  13.405  0.8095 -1.1900  0.5189
   19TMC2    C7  300   0.440   0.944  13.634 -0.7615 -0.2828 -0.1119
   19TMC2    C8  301   0.752   1.005  13.279  0.1411  0.0460  0.0300
   19TMC2    O1  302   0.386   1.007  13.725 -0.2825 -0.4278  0.1591
   19TMC2    O2  303   0.735   0.896  13.229 -0.0689 -0.0505  0.1458
   19TMC2    O5  304   0.794   1.112  13.207  0.1699  0.6114  0.0087
   19TMC2    H5  305   0.769   1.205  13.225  0.3022  0.8047 -0.8177
   20MPD2     C  306   0.853   1.565  13.784 -0.2786 -0.9051 -0.7966
   20MPD2    C1  307   0.767   1.466  13.834  0.1512 -0.4618 -0.1139
   20MPD2    C2  308   0.707   1.492  13.954 -0.1039 -0.2521 -0.1438
   20MPD2    C3  309   0.736   1.601  14.037 -0.6367  0.1282 -0.2724
   20MPD2    C4  310   0.817   1.699  13.986  0.5542  0.1124  0.1395
   20MPD2    C5  311   0.875   1.680  13.862  0.0284 -0.6741  0.1502
   20MPD2     H  312   0.635   1.419  13.991  0.8443  0.4660  3.1329
   20MPD2    H1  313   0.823   1.796  14.033 -0.0241 -0.3803  1.2411
   20MPD2    H2  314   0.895   1.575  13.685 -0.0374 -2.3286 -0.8372
   20MPD2    H3  315   0.926   1.769  13.828 -0.1214  0.7937  3.7697
   20MPD2     N  316   0.699   1.621  14.170  0.5092  0.2300 -0.3881
   20MPD2    H5  317   0.733   1.702  14.220  1.1850 -0.2370 -0.0852
   20MPD2    N1  318   0.732   1.342  13.764  0.0145  0.2371  0.0353
   20MPD2    H7  319   0.663   1.289  13.815  0.2666  1.2917  1.4663
   21MPD2     C  320   2.787   1.961  14.147  0.6327 -0.8606  0.0380
   21MPD2    C1  321   2.848   1.916  14.262 -0.1534 -0.0689  0.8658
   21MPD2    C2  322   2.791   1.933  14.377  1.3557  0.4967 -0.5874
   21MPD2    C3  323   2.676   2.004  14.394  0.0146  0.8775 -0.3969
   21MPD2    C4  324   2.622   2.066  14.283  0.1724  0.0514  0.7293
   21MPD2    C5  325   2.683   2.048  14.165  0.3426 -0.0151 -0.5405
   21MPD2     H  326   2.847   1.894  14.461  1.9874 -0.4088 -1.4289
   21MPD2    H1  327   2.528   2.119  14.292  1.0767  1.8936 -0.7766
   21MPD2    H2  328   2.825   1.937  14.049  0.9508 -0.6558  0.1115
   21MPD2    H3  329   2.631   2.097  14.082  0.2788 -1.0076 -1.0823
   21MPD2     N  330   2.617   2.022  14.514 -0.1407  0.0035  0.3054
   21MPD2    H5  331   2.549   2.097  14.522 -1.3596 -0.9412 -1.2107
   21MPD2    N1  332   2.953   1.826  14.255  0.7091  0.2565 -0.4727
   21MPD2    H7  333   3.007   1.806  14.338 -1.1323 -0.8283  0.4548
   22TCq2    C1  334   2.665   1.969  14.636 -0.0675  0.7179  0.0171
   22TCq2    O2  335   2.752   1.889  14.657 -0.1734  0.1899 -0.2942
   22TCq2    C2  336   2.597   2.031  14.755  0.2751  0.6830  0.4401
   22TCq2    C3  337   2.595   1.960  14.873  0.3404  0.0194  0.3309
   22TCq2    C4  338   2.536   2.023  14.979 -0.5515  0.4836  0.0622
   22TCq2    C5  339   2.489   2.150  14.978  0.0265  0.0029 -0.3688
   22TCq2    C6  340   2.477   2.208  14.852 -1.3387  0.4257 -0.3360
   22TCq2    C7  341   2.540   2.159  14.742  0.0934  0.2485  0.5164
   22TCq2    C8  342   2.429   2.352  14.862  0.8491  0.5157  0.0354
   22TCq2    O4  343   2.417   2.404  14.973 -0.7147 -0.0008 -0.1612
   22TCq2    C9  344   2.532   1.961  15.110  0.0020  0.5428 -0.6151
   22TCq2    O5  345   2.467   2.008  15.201 -0.3162  0.3799 -0.2411
   22TCq2    O6  346   2.629   1.882  15.130 -0.0066  0.1290 -0.5822
   22TCq2    H2  347   2.640   1.862  14.875 -0.4074 -0.3421 -0.3496
   22TCq2    H3  348   2.436   2.195  15.061 -1.9312 -2.0596 -0.5265
   22TCq2    H4  349   2.563   2.226  14.661  0.2779  3.3255  3.0877
   23MPD2     C  350   4.533   2.761  14.922  0.2499 -0.4270  0.5981
   23MPD2    C1  351   4.410   2.735  14.984 -0.2377 -0.3893  0.5236
   23MPD2    C2  352   4.297   2.796  14.940  0.2994  0.1970  0.1913
   23MPD2    C3  353   4.304   2.868  14.827  0.7890 -0.0820 -0.3549
   23MPD2    C4  354   4.419   2.889  14.756  0.0072 -0.2185 -0.6734
   23MPD2    C5  355   4.532   2.829  14.800  0.0276 -0.6582  0.2255
   23MPD2     H  356   4.207   2.786  14.999  0.1140 -0.1138 -0.1480
   23MPD2    H1  357   4.424   2.949  14.665 -0.7809 -0.6045 -0.9777
   23MPD2    H2  358   4.622   2.723  14.970  0.4516  1.5276  1.7764
   23MPD2    H3  359   4.626   2.841  14.748  0.9081 -1.3396  1.6357
   23MPD2     N  360   4.184   2.925  14.764  0.4574  0.1640  0.6990
   23MPD2    H5  361   4.198   2.964  14.672 -1.1387 -0.0715  0.3446
   23MPD2    N1  362   4.398   2.661  15.103  0.2769  0.0055  0.2339
   23MPD2    H7  363   4.308   2.655  15.148 -0.9710 -0.0909 -2.2555
   24TCq2    C1  364   4.057   2.902  14.808  0.9196 -0.1121 -0.6461
   24TCq2    O2  365   4.021   2.851  14.918  0.1712  0.4957 -0.1512
   24TCq2    C2  366   3.957   2.953  14.722  0.7545 -0.4447  0.2212
   24TCq2    C3  367   3.984   3.057  14.635 -0.1341  0.6992 -0.4851
   24TCq2    C4  368   3.892   3.073  14.536 -0.0494  0.5193  0.2575
   24TCq2    C5  369   3.781   2.994  14.524 -0.4083  0.0752  0.1710
   24TCq2    C6  370   3.763   2.892  14.612  0.5017  0.1712  0.7271
   24TCq2    C7  371   3.856   2.862  14.709 -0.3367  0.4332  0.2788
   24TCq2    C8  372   3.653   2.810  14.605  0.2846 -0.4979  0.3684
   24TCq2    O4  373   3.648   2.712  14.675 -0.1401  0.0740 -0.0305
   24TCq2    C9  374   3.920   3.166  14.432 -0.6705 -0.7917  0.6140
   24TCq2    O5  375   3.852   3.147  14.328  0.1156 -0.1952  0.6853
   24TCq2    O6  376   4.031   3.221  14.428 -0.0576  0.7387 -0.0227
   24TCq2    H2  377   4.069   3.123  14.647  0.8865 -1.1671  2.4747
   24TCq2    H3  378   3.713   3.023  14.445 -0.8896 -0.8639  0.2391
   24TCq2    H4  379   3.825   2.789  14.782  0.5983 -0.8661 -0.6200
   25TMC2    C1  380   2.640   0.980  11.558 -0.4546 -0.1257 -0.8995
   25TMC2    C2  381   2.509   1.019  11.576  1.2348  0.0986 -0.2982
   25TMC2    C3  382   2.454   1.016  11.700 -0.3075  0.4947 -0.3824
   25TMC2    C4  383   2.712   0.940  11.673  0.2842 -0.0459 -0.1265
   25TMC2    C5  384   2.659   0.953  11.799 -0.1131 -0.4895  0.1272
   25TMC2    C6  385   2.526   0.984  11.817 -0.2918 -0.0591  0.8184
   25TMC2     C  386   2.665   0.908  11.436 -0.3754  0.0240 -0.3950
   25TMC2     O  387   2.580   0.862  11.359  0.1429  0.2032  0.1287
   25TMC2     H  388   2.457   1.047  11.485  1.0393  0.1305 -0.1773
   25TMC2    H1  389   2.812   0.901  11.655  1.0670  1.5932  0.6251
   25TMC2    H2  390   2.479   1.000  11.914  0.4536 -0.5136  1.2524
   25TMC2    C7  391   2.739   0.937  11.914  0.6701  0.1652  0.4679
   25TMC2    C8  392   2.338   1.105  11.723 -0.3003  0.1634  0.8108
   25TMC2    O1  393   2.684   0.914  12.017 -0.1085 -0.5770 -0.1821
   25TMC2    O2  394   2.335   1.217  11.669  0.4101  0.4105  0.3129
   25TMC2    O5  395   2.231   1.016  11.731 -0.0001  0.2571  0.0125
   25TMC2    H5  396   2.267   0.930  11.762 -0.0987 -1.4945 -4.7930
   26MPD2     C  397   3.028   0.669  11.150  0.0852 -0.2140  1.1006
   26MPD2    C1  398   2.894   0.636  11.172  0.2541 -0.2241 -0.0837
   26MPD2    C2  399   2.816   0.726  11.243 -0.6927  0.3034  0.2117
   26MPD2    C3  400   2.867   0.837  11.309  0.0298 -0.9232 -0.0257
   26MPD2    C4  401   3.000   0.865  11.293 -0.1724 -0.1029 -0.6718
   26MPD2    C5  402   3.079   0.787  11.205 -0.1462  0.0044 -0.2541
   26MPD2     H  403   2.709   0.714  11.244 -0.6149 -0.6569 -1.7851
   26MPD2    H1  404   3.044   0.947  11.348 -3.0952  0.1076  1.3526
   26MPD2    H2  405   3.084   0.608  11.080 -0.5158  1.1206 -0.5485
   26MPD2    H3  406   3.181   0.810  11.177 -0.4148  0.8399 -0.5635
   26MPD2     N  407   2.796   0.922  11.401  0.5827  0.6999 -0.2543
   26MPD2    H5  408   2.854   0.991  11.447  0.2551  0.0859  1.0924
   26MPD2    N1  409   2.851   0.515  11.121 -0.5318  0.3278 -0.0422
   26MPD2    H7  410   2.914   0.464  11.060  0.4696  0.3199  0.9874
   27TMC2    C1  411   1.968   2.627  12.163  0.1506  0.0180  0.6026
   27TMC2    C2  412   1.970   2.685  12.044 -0.5794  0.3731 -0.4436
   27TMC2    C3  413   1.998   2.819  12.045 -0.2770 -0.2036  0.4628
   27TMC2    C4  414   2.022   2.679  12.270 -0.0679 -0.7040 -0.3238
   27TMC2    C5  415   2.059   2.811  12.271  0.6177 -0.2004 -0.0654
   27TMC2    C6  416   2.041   2.886  12.154 -0.2189  0.1940 -0.0357
   27TMC2     C  417   1.917   2.498  12.193  0.4788  0.0130 -0.2597
   27TMC2     O  418   1.964   2.404  12.127 -0.1540 -1.1861 -0.0463
   27TMC2     H  419   1.943   2.634  11.953 -1.3161  0.0733 -0.0501
   27TMC2    H1  420   2.051   2.624  12.359 -0.7500  0.7590  0.8054
   27TMC2    H2  421   2.084   2.985  12.140 -1.7885  0.8234 -0.3368
   27TMC2    C7  422   2.055   2.898  12.388  0.8985  0.3539  0.0012
   27TMC2    C8  423   1.995   2.887  11.917 -0.2115  0.3140  0.2050
   27TMC2    O1  424   2.052   3.019  12.367  0.0970  0.0619  0.0576
   27TMC2    O2  425   2.028   2.835  11.812  0.0521 -1.1069 -0.8276
   27TMC2    O5  426   1.904   2.985  11.931  0.3487 -0.5625  0.1280
   27TMC2    H5  427   1.871   3.009  12.021 -3.0019  0.1486 -1.3041
   28MPD2     C  428   1.665   2.181  12.516 -0.2085 -0.0834  0.9272
   28MPD2    C1  429   1.639   2.312  12.552 -0.5767  0.4077 -0.7529
   28MPD2    C2  430   1.688   2.417  12.471  0.2076 -0.4683 -0.1665
   28MPD2    C3  431   1.767   2.387  12.364  1.1472  0.4605  0.3862
   28MPD2    C4  432   1.805   2.257  12.334 -0.1712  0.0602  0.0122
   28MPD2    C5  433   1.750   2.161  12.408 -0.4876 -0.5132 -0.6874
   28MPD2     H  434   1.661   2.519  12.496 -0.3141 -0.2555 -1.6354
   28MPD2    H1  435   1.872   2.234  12.252 -1.0804  2.8953 -1.5485
   28MPD2    H2  436   1.620   2.102  12.575  1.4273 -0.9358  1.0237
   28MPD2    H3  437   1.771   2.056  12.388  1.2076 -0.0091 -1.5456
   28MPD2     N  438   1.820   2.497  12.287 -0.3523 -0.2447 -0.1625
   28MPD2    H5  439   1.779   2.587  12.310 -2.0567 -0.7316 -1.2374
   28MPD2    N1  440   1.555   2.333  12.658  0.9024 -0.1975 -0.0452
   28MPD2    H7  441   1.515   2.254  12.707  0.9269 -0.0749  0.1706
   29MPD2     C  442   1.520   0.343  14.251 -1.0204  0.7212  0.0016
   29MPD2    C1  443   1.643   0.279  14.236  0.4281  0.2684  0.8788
   29MPD2    C2  444   1.760   0.347  14.282  0.1172 -0.9627  0.3116
   29MPD2    C3  445   1.751   0.463  14.359  0.0779 -0.0466 -0.5693
   29MPD2    C4  446   1.627   0.529  14.364  0.0316 -0.0158  0.1745
   29MPD2    C5  447   1.519   0.465  14.313  0.6800  0.1841 -0.1481
   29MPD2     H  448   1.854   0.292  14.285  0.3282 -0.6537 -0.4476
   29MPD2    H1  449   1.608   0.626  14.409 -0.1312 -0.8969  2.0238
   29MPD2    H2  450   1.425   0.307  14.212  0.1161 -0.4722 -1.6660
   29MPD2    H3  451   1.423   0.515  14.320 -0.3006 -1.4354 -1.9868
   29MPD2     N  452   1.855   0.531  14.424 -0.1273  0.2684  0.2145
   29MPD2    H5  453   1.826   0.622  14.460 -1.1848 -0.6998  1.7935
   29MPD2    N1  454   1.658   0.145  14.188  0.1015 -0.4902 -0.3357
   29MPD2    H7  455   1.755   0.118  14.173  0.3973 -0.0746  0.8551
   30TCq2    C1  456   1.988   0.502  14.445 -0.3161  0.0922  0.1894
   30TCq2    O2  457   2.035   0.391  14.448 -0.4132  0.3195  0.1893
   30TCq2    C2  458   2.051   0.603  14.531 -0.3871 -0.0931 -0.2495
   30TCq2    C3  459   1.973   0.642  14.635 -0.2668 -0.1631  0.1646
   30TCq2    C4  460   2.002   0.745  14.709 -0.0020 -0.5557  0.1092
   30TCq2    C5  461   2.108   0.824  14.682 -0.1218  0.1537 -0.1558
   30TCq2    C6  462   2.187   0.782  14.579 -0.0492 -0.1333 -0.0628
   30TCq2    C7  463   2.165   0.675  14.499  0.0077 -0.1445 -0.1438
   30TCq2    C8  464   2.283   0.882  14.527 -0.3439  0.0907 -0.8269
   30TCq2    O4  465   2.329   0.861  14.416  0.0123  0.2234  0.5432
   30TCq2    C9  466   1.912   0.795  14.811 -0.6997  0.4175  0.1538
   30TCq2    O5  467   1.802   0.732  14.821 -0.5711  0.2563 -0.2807
   30TCq2    O6  468   1.952   0.882  14.896  0.1982  0.2318  0.5275
   30TCq2    H2  469   1.892   0.579  14.669 -0.0552  0.5841  2.0836
   30TCq2    H3  470   2.123   0.912  14.744 -1.0469 -0.1502  0.4917
   30TCq2    H4  471   2.233   0.645  14.420  0.9523 -0.3884  0.7555
   31MPD2     C  472   4.077   3.745  14.771  0.6913 -0.0366  0.1494
   31MPD2    C1  473   3.962   3.754  14.706  0.4491 -0.0810  0.9531
   31MPD2    C2  474   3.848   3.707  14.769 -0.1568 -0.2490 -0.4766
   31MPD2    C3  475   3.855   3.637  14.884  0.9297  0.0713 -0.7254
   31MPD2    C4  476   3.973   3.629  14.950 -0.3872 -0.1218 -0.0200
   31MPD2    C5  477   4.085   3.688  14.897  0.2030 -1.0772  0.4488
   31MPD2     H  478   3.759   3.701  14.708 -0.9065  0.3375  0.5758
   31MPD2    H1  479   3.975   3.575  15.044 -2.8039 -0.0385  0.0960
   31MPD2    H2  480   4.170   3.785  14.733  1.6865 -2.0159  0.4876
   31MPD2    H3  481   4.179   3.673  14.950  1.2449  1.0909 -0.7962
   31MPD2     N  482   3.739   3.588  14.952 -0.2089 -0.3982  0.3847
   31MPD2    H5  483   3.755   3.529  15.033  1.0047 -1.0798 -0.3570
   31MPD2    N1  484   3.964   3.806  14.575 -0.3718 -0.0905  0.4197
   31MPD2    H7  485   4.048   3.857  14.550 -0.0262 -0.9054 -0.0609
   32TCq2    C1  486   3.613   3.583  14.892 -0.3322 -0.6239  0.3198
   32TCq2    O2  487   3.561   3.653  14.809 -0.3510  0.3178 -0.0804
   32TCq2    C2  488   3.520   3.500  14.970 -0.8329  0.1448 -0.1248
   32TCq2    C3  489   3.393   3.517  14.936  0.0413  0.5394  0.2216
   32TCq2    C4  490   3.299   3.436  14.987 -0.8093  0.2318  0.8198
   32TCq2    C5  491   3.331   3.341  15.078 -0.7791 -0.2941 -0.2626
   32TCq2    C6  492   3.465   3.329  15.113 -0.3766 -0.2345  0.9663
   32TCq2    C7  493   3.566   3.402  15.060  0.0146  0.3691 -0.2367
   32TCq2    C8  494   3.502   3.244  15.235 -0.0520 -0.1999 -0.7054
   32TCq2    O4  495   3.618   3.241  15.283 -0.1759 -0.0141 -0.0903
   32TCq2    C9  496   3.165   3.436  14.939  0.2309  0.5380  0.6907
   32TCq2    O5  497   3.134   3.510  14.840  0.1102  0.3354  0.1979
   32TCq2    O6  498   3.071   3.403  15.016  0.0193 -0.6088 -0.0734
   32TCq2    H2  499   3.359   3.593  14.866  1.1603  1.6173  0.8500
   32TCq2    H3  500   3.256   3.275  15.121  0.5640 -1.9798 -0.5033
   32TCq2    H4  501   3.670   3.381  15.080 -0.0397 -0.7228 -1.1358
   33MPD2     C  502   4.142   0.595  10.087  1.0504  0.4614 -0.9347
   33MPD2    C1  503   4.190   0.729  10.082  0.3175 -0.4809 -0.0678
   33MPD2    C2  504   4.228   0.787   9.961  0.2323 -0.6951 -0.0641
   33MPD2    C3  505   4.211   0.716   9.839  0.9828  0.1019  0.0803
   33MPD2    C4  506   4.146   0.593   9.846  0.2734 -0.2042  0.1106
   33MPD2    C5  507   4.112   0.538   9.966  0.0772 -0.1104  0.4282
   33MPD2     H  508   4.279   0.883   9.962 -0.6028 -0.2486  0.4018
   33MPD2    H1  509   4.110   0.544   9.756  0.6351 -0.4644  0.1075
   33MPD2    H2  510   4.126   0.540  10.179  1.9412 -1.9135 -2.2312
   33MPD2    H3  511   4.059   0.443   9.959  0.0129 -0.1510  1.4711
   33MPD2     N  512   4.257   0.762   9.713 -0.2635  0.4777 -0.4704
   33MPD2    H5  513   4.222   0.698   9.642  1.9266 -0.9136 -0.2785
   33MPD2    N1  514   4.193   0.791  10.211  0.4139  0.6861 -0.3290
   33MPD2    H7  515   4.138   0.737  10.277  1.4846  0.5417  0.4625
   34TCq2    C1  516   4.335   0.873   9.681 -0.5875  0.1269 -0.2000
   34TCq2    O2  517   4.379   0.956   9.759 -0.6212 -0.3959  0.1356
   34TCq2    C2  518   4.383   0.875   9.546  0.6457  0.0035  0.3426
   34TCq2    C3  519   4.354   0.776   9.459 -0.6434  0.1723  0.7068
   34TCq2    C4  520   4.425   0.769   9.338  0.3547  0.6875 -0.7630
   34TCq2    C5  521   4.495   0.885   9.290  0.1554 -0.5100 -0.6306
   34TCq2    C6  522   4.498   0.991   9.377  0.2590  0.0644  0.5490
   34TCq2    C7  523   4.448   0.990   9.504  0.7060  0.3355  0.4521
   34TCq2    C8  524   4.601   1.097   9.363 -0.0487  0.3311 -0.2591
   34TCq2    O4  525   4.606   1.181   9.453 -0.1545 -0.1631 -0.2056
   34TCq2    C9  526   4.400   0.656   9.250 -0.8482 -0.6724  0.0926
   34TCq2    O5  527   4.447   0.652   9.134  0.5275  0.7406 -0.0009
   34TCq2    O6  528   4.342   0.560   9.301 -0.8717  0.0935  0.3984
   34TCq2    H2  529   4.313   0.683   9.496  0.3458  0.2659  2.0447
   34TCq2    H3  530   4.533   0.886   9.189  0.7477 -1.1935 -0.4196
   34TCq2    H4  531   4.433   1.078   9.566  0.1655 -0.3449  1.2880
   35MPD2     C  532   1.282   3.162  11.985 -0.0392  0.1360  0.4721
   35MPD2    C1  533   1.262   3.030  11.998 -0.5413  0.1555 -0.4686
   35MPD2    C2  534   1.166   2.968  11.923  0.7801  0.1142  0.2293
   35MPD2    C3  535   1.094   3.046  11.826  1.0521  0.4994 -0.3015
   35MPD2    C4  536   1.114   3.179  11.805  0.8507 -0.7093 -0.3615
   35MPD2    C5  537   1.215   3.232  11.882  0.8980  0.2884 -0.1571
   35MPD2     H  538   1.127   2.871  11.951  1.0177 -0.3677 -1.0946
   35MPD2    H1  539   1.080   3.241  11.723 -0.2700 -1.9754 -0.8454
   35MPD2    H2  540   1.364   3.215  12.032 -0.8295  1.0404  0.8246
   35MPD2    H3  541   1.236   3.337  11.865  0.4769  0.1457 -1.5159
   35MPD2     N  542   0.994   2.970  11.754  0.2026 -0.0929  0.0696
   35MPD2    H5  543   0.978   2.881  11.801  0.0791 -0.4782 -0.7024
   35MPD2    N1  544   1.335   2.974  12.100  0.6415  0.3710 -0.0938
   35MPD2    H7  545   1.379   3.032  12.170  1.3410  0.1182 -0.3285
   36TCq2    C1  546   0.927   3.012  11.643 -0.0138 -0.5708 -0.5737
   36TCq2    O2  547   0.972   3.091  11.557 -0.8298 -0.1303 -0.4759
   36TCq2    C2  548   0.809   2.943  11.609  0.3135 -0.4410 -0.1802
   36TCq2    C3  549   0.772   2.941  11.478 -0.2996 -0.0853 -0.1450
   36TCq2    C4  550   0.660   2.869  11.448 -0.2505 -0.0322  0.4963
   36TCq2    C5  551   0.592   2.791  11.536 -0.0749 -0.8016  0.0664
   36TCq2    C6  552   0.638   2.786  11.666 -0.2616 -0.6972 -0.4005
   36TCq2    C7  553   0.746   2.866  11.707  0.2635  0.5701  0.4719
   36TCq2    C8  554   0.585   2.684  11.751  0.4005  0.4253  0.2918
   36TCq2    O4  555   0.486   2.622  11.718 -0.8524  0.2798  0.3303
   36TCq2    C9  556   0.616   2.886  11.309  0.1002  0.4583 -0.9037
   36TCq2    O5  557   0.547   2.790  11.268  0.0951  0.4787 -0.0559
   36TCq2    O6  558   0.676   2.967  11.240 -0.3206 -0.0852  0.2789
   36TCq2    H2  559   0.831   2.996  11.405 -1.6219  4.2578  2.0611
   36TCq2    H3  560   0.506   2.732  11.506 -0.6084  0.8689 -1.6662
   36TCq2    H4  561   0.765   2.880  11.812 -0.1952  0.8997  0.5066
   37TMC2    C1  562   2.868   2.683  12.039  0.3769  0.8744 -0.1018
   37TMC2    C2  563   2.774   2.690  11.934  1.2537 -0.3977 -0.5062
   37TMC2    C3  564   2.809   2.710  11.807 -0.6694  0.1944 -0.5154
   37TMC2    C4  565   2.998   2.686  12.012  0.2866  0.4909 -0.5070
   37TMC2    C5  566   3.035   2.716  11.875 -0.0133  0.0271  0.3476
   37TMC2    C6  567   2.947   2.730  11.778  0.3638 -0.0577  0.1710
   37TMC2     C  568   2.816   2.666  12.172  0.0582  0.0661  0.4435
   37TMC2     O  569   2.708   2.614  12.187 -0.3884  0.2010 -0.0649
   37TMC2     H  570   2.671   2.667  11.958  1.3348 -0.4625 -0.2130
   37TMC2    H1  571   3.078   2.652  12.076 -1.5107 -0.2192  1.3759
   37TMC2    H2  572   2.982   2.759  11.680 -1.7977  0.8667 -0.3174
   37TMC2    C7  573   3.186   2.730  11.861  0.4372  0.5972 -0.3007
   37TMC2    C8  574   2.706   2.694  11.714 -0.0139  0.0736  0.0514
   37TMC2    O1  575   3.252   2.754  11.967 -0.4542 -0.0213  0.2266
   37TMC2    O2  576   2.616   2.612  11.737 -0.4373 -0.3124 -0.0525
   37TMC2    O5  577   2.769   2.695  11.597  0.3550 -0.3039  0.6085
   37TMC2    H5  578   2.822   2.778  11.599  0.2136 -0.2094  0.3717
   38MPD2     C  579   2.912   2.675  12.684  0.0048  0.1515 -0.6639
   38MPD2    C1  580   3.022   2.717  12.613  0.4005  0.5723  0.6444
   38MPD2    C2  581   3.018   2.725  12.474 -0.1758 -0.1070  0.2149
   38MPD2    C3  582   2.910   2.678  12.402 -0.2010  0.2326  0.5599
   38MPD2    C4  583   2.807   2.620  12.476 -1.2330  0.5472  0.5001
   38MPD2    C5  584   2.813   2.619  12.608 -0.3350  0.0655 -0.7111
   38MPD2     H  585   3.088   2.785  12.418  0.8544 -2.4556 -1.0425
   38MPD2    H1  586   2.711   2.599  12.430 -0.0381  0.1815 -1.8146
   38MPD2    H2  587   2.904   2.668  12.792 -1.9460  1.8032 -0.7211
   38MPD2    H3  588   2.731   2.570  12.658  0.9416  0.6012  1.8684
   38MPD2     N  589   2.906   2.706  12.264 -0.4454 -0.1674  0.1979
   38MPD2    H5  590   2.978   2.759  12.215 -1.1612 -0.0768 -0.7577
   38MPD2    N1  591   3.136   2.775  12.678 -0.0359  0.6717 -0.1680
   38MPD2    H7  592   3.204   2.809  12.611  0.4790  1.4655  0.7629
   39MPD2     C  593   1.184   4.393   1.764  0.9576  0.5844 -0.0723
   39MPD2    C1  594   1.107   4.476   1.845  0.1723  0.1845  0.1015
   39MPD2    C2  595   1.004   4.557   1.785 -0.3740 -1.0874 -0.3811
   39MPD2    C3  596   0.975   4.539   1.650  0.6673 -0.1573  0.3545
   39MPD2    C4  597   1.039   4.435   1.576  0.0032 -0.3829 -0.1857
   39MPD2    C5  598   1.143   4.367   1.636 -0.0009  0.7091  0.6062
   39MPD2     H  599   0.958   4.633   1.847  1.3719 -1.1709  1.0286
   39MPD2    H1  600   1.033   4.423   1.469  0.8333  0.7679 -0.3615
   39MPD2    H2  601   1.266   4.333   1.803 -1.3173 -1.0670  2.2141
   39MPD2    H3  602   1.205   4.305   1.573  2.2421  1.9760  1.5722
   39MPD2     N  603   0.883   4.612   1.578  0.6062 -0.6815 -0.3907
   39MPD2    H5  604   0.870   4.575   1.484  1.7050 -0.6595 -0.5480
   39MPD2    N1  605   1.134   4.474   1.980  0.3493  0.1822 -0.0375
   39MPD2    H7  606   1.213   4.418   2.010  0.4717 -0.0377 -0.7684
   40TCq2    C1  607   1.078   4.558   2.075 -0.3382  0.0294 -0.4887
   40TCq2    O2  608   0.964   4.603   2.079  0.0979  0.9168 -0.2116
   40TCq2    C2  609   1.168   4.570   2.195 -0.0860 -0.3280 -0.1179
   40TCq2    C3  610   1.110   4.580   2.314  0.1553  0.0036  0.4289
   40TCq2    C4  611   1.183   4.561   2.427  0.2092 -0.1567 -0.4246
   40TCq2    C5  612   1.321   4.557   2.418 -0.1561 -0.1142  0.5006
   40TCq2    C6  613   1.376   4.558   2.288  0.5686  0.7074 -0.4749
   40TCq2    C7  614   1.305   4.566   2.179 -0.1279  0.2399  0.1900
   40TCq2    C8  615   1.523   4.586   2.280 -0.8672  0.0502 -0.0262
   40TCq2    O4  616   1.604   4.522   2.351 -0.8352 -0.2455  0.0827
   40TCq2    C9  617   1.125   4.591   2.552 -0.7109  1.0677 -0.8001
   40TCq2    O5  618   1.195   4.577   2.654 -0.3894 -0.3885  0.3780
   40TCq2    O6  619   1.007   4.619   2.555  0.0458 -0.1872 -0.4086
   40TCq2    H2  620   1.004   4.603   2.315  0.2532  0.5203 -1.8571
   40TCq2    H3  621   1.387   4.559   2.504  0.4297 -0.7886  0.0676
   40TCq2    H4  622   1.351   4.541   2.084 -0.9905 -1.7193  0.2812
   41TMC2    C1  623   0.384   2.657  13.276 -0.3896  0.4728  0.5228
   41TMC2    C2  624   0.397   2.566  13.169  0.6848  0.0067 -0.0418
   41TMC2    C3  625   0.436   2.614  13.046 -0.4876 -0.2492  0.3155
   41TMC2    C4  626   0.414   2.791  13.253 -0.3734  0.3896  0.3830
   41TMC2    C5  627   0.446   2.833  13.122 -0.2014 -0.0444  0.4513
   41TMC2    C6  628   0.463   2.745  13.017  0.2707  0.2583 -0.1762
   41TMC2     C  629   0.383   2.600  13.403 -0.3568 -0.5597  0.5595
   41TMC2     O  630   0.383   2.476  13.422 -0.1167 -0.2227 -0.0272
   41TMC2     H  631   0.382   2.459  13.181  1.9843  0.0754  2.0763
   41TMC2    H1  632   0.421   2.865  13.332 -0.0541  1.2396 -0.4444
   41TMC2    H2  633   0.490   2.763  12.913 -0.6180  0.8532 -0.3099
   41TMC2    C7  634   0.417   2.971  13.089 -0.2474  0.1802 -0.1451
   41TMC2    C8  635   0.494   2.519  12.962 -0.2526 -0.2779  0.1761
   41TMC2    O1  636   0.344   3.043  13.157 -0.2357 -1.0641 -0.1482
   41TMC2    O2  637   0.536   2.426  13.023  0.4396  0.0592  0.2231
   41TMC2    O5  638   0.404   2.514  12.860 -0.2869 -0.0426 -0.6371
   41TMC2    H5  639   0.382   2.605  12.832  1.3433 -0.3881 -3.0339
   42MPD2     C  640   0.409   2.572  13.696 -0.0471  0.9445 -0.6589
   42MPD2    C1  641   0.337   2.673  13.638  0.6954  0.6577 -0.5187
   42MPD2    C2  642   0.277   2.767  13.715 -0.2962  0.5133 -0.1475
   42MPD2    C3  643   0.269   2.751  13.851 -0.2245  0.1502  0.1234
   42MPD2    C4  644   0.324   2.641  13.904 -0.1836 -0.4765  0.1219
   42MPD2    C5  645   0.394   2.544  13.829 -0.2823 -0.3731  0.1371
   42MPD2     H  646   0.230   2.850  13.663 -3.0401 -0.5929  0.5773
   42MPD2    H1  647   0.324   2.635  14.013  1.5799 -0.6418  0.1136
   42MPD2    H2  648   0.473   2.504  13.640  0.1940  1.5937 -1.1731
   42MPD2    H3  649   0.447   2.468  13.885 -0.8547  0.9794  2.5294
   42MPD2     N  650   0.208   2.841  13.932 -0.1720  0.2485  0.0499
   42MPD2    H5  651   0.202   2.814  14.030  2.7737  1.6761  0.6319
   42MPD2    N1  652   0.349   2.695  13.497  0.0359  0.0146 -0.9438
   42MPD2    H7  653   0.325   2.787  13.461  2.4797  0.9010 -0.2992
   43MPD2     C  654   1.016   0.973   0.881  0.7622 -0.5041 -0.2047
   43MPD2    C1  655   1.141   0.958   0.933  0.4323 -0.2014 -0.2196
   43MPD2    C2  656   1.194   1.063   1.016 -0.4846  0.0315  0.5873
   43MPD2    C3  657   1.105   1.164   1.053 -0.0534  0.4352  0.6383
   43MPD2    C4  658   0.980   1.177   0.991  0.4337  0.3880  0.4258
   43MPD2    C5  659   0.941   1.086   0.896  0.2657 -0.3267  0.3819
   43MPD2     H  660   1.295   1.055   1.052  0.0025  0.4165 -0.6842
   43MPD2    H1  661   0.922   1.267   1.000 -0.7670 -0.4432  1.0399
   43MPD2    H2  662   0.977   0.902   0.810  0.5983 -0.2173 -0.4017
   43MPD2    H3  663   0.851   1.097   0.837  0.8502  0.7138 -0.3074
   43MPD2     N  664   1.144   1.272   1.136  0.5053 -0.9983 -0.6113
   43MPD2    H5  665   1.081   1.350   1.150  1.7545 -0.4872  2.2601
   43MPD2    N1  666   1.228   0.860   0.885 -0.1717 -0.5184 -0.2572
   43MPD2    H7  667   1.325   0.890   0.893 -0.4515  0.0280  1.0702
   44TCq2    C1  668   1.442   1.489   1.607 -0.3837 -1.0421 -0.1957
   44TCq2    O2  669   1.517   1.396   1.632  0.0745  0.7645  0.0712
   44TCq2    C2  670   1.337   1.469   1.509  0.1994 -0.8130  0.3732
   44TCq2    C3  671   1.231   1.560   1.514  0.2371  0.1688  0.4328
   44TCq2    C4  672   1.169   1.583   1.393 -0.3514 -0.2736 -0.8747
   44TCq2    C5  673   1.185   1.497   1.285 -0.6419  0.4807 -0.1882
   44TCq2    C6  674   1.278   1.391   1.293  0.0045  0.4830  0.1152
   44TCq2    C7  675   1.355   1.382   1.403 -0.3295 -0.0029  0.5527
   44TCq2    C8  676   1.270   1.277   1.204 -0.4414 -0.6058 -0.3388
   44TCq2    O4  677   1.360   1.196   1.213  0.5809  0.1770  0.1061
   44TCq2    C9  678   1.091   1.701   1.380 -0.0904  0.1572 -0.3905
   44TCq2    O5  679   1.108   1.788   1.469 -0.1678  0.1406  0.1434
   44TCq2    O6  680   1.018   1.708   1.274 -0.0240 -0.1842  0.1921
   44TCq2    H2  681   1.218   1.633   1.593 -2.6644 -0.7729  0.8421
   44TCq2    H3  682   1.143   1.518   1.187 -1.2157 -1.2614 -0.3129
   44TCq2    H4  683   1.436   1.311   1.401  2.1982  2.8571  0.8631
   45TMC2    C1  684   3.021   2.749  10.370 -0.1968 -0.0088 -0.0309
   45TMC2    C2  685   3.119   2.717  10.463 -0.6506  0.3954 -0.0210
   45TMC2    C3  686   3.165   2.823  10.540  1.0191 -0.8764 -0.3439
   45TMC2    C4  687   2.986   2.874  10.332 -0.2723 -0.8928 -0.5406
   45TMC2    C5  688   3.044   2.976  10.406 -0.6601  0.6374 -0.1933
   45TMC2    C6  689   3.121   2.954  10.521  0.1431 -0.5026  0.3290
   45TMC2     C  690   2.954   2.631  10.310  0.5558 -0.1709  0.9294
   45TMC2     O  691   2.942   2.529  10.380 -0.4242 -0.0808  0.0059
   45TMC2     H  692   3.145   2.613  10.483 -1.2292  0.2807  0.1353
   45TMC2    H1  693   2.903   2.896  10.265  1.3939  0.7071 -2.0806
   45TMC2    H2  694   3.170   3.033  10.578 -0.6261  0.4846 -0.3762
   45TMC2    C7  695   3.008   3.112  10.380  1.0358 -0.0717 -0.4731
   45TMC2    C8  696   3.249   2.809  10.657 -0.2366  0.3821 -0.4460
   45TMC2    O1  697   3.049   3.183  10.467 -0.3737 -0.1574  0.0241
   45TMC2    O2  698   3.305   2.900  10.718 -0.3912  0.2940 -0.1667
   45TMC2    O5  699   3.266   2.678  10.689 -0.3120  0.1308 -0.2946
   45TMC2    H5  700   3.187   2.624  10.669 -0.4220  0.9123 -1.9606
   46MPD2     C  701   2.756   2.444  10.180 -0.2584 -0.0976  0.0689
   46MPD2    C1  702   2.786   2.571  10.130 -0.4695  0.5124  0.3154
   46MPD2    C2  703   2.709   2.620  10.035  0.4587  0.0717 -0.7670
   46MPD2    C3  704   2.613   2.553   9.968 -0.4302 -0.1250  0.0472
   46MPD2    C4  705   2.591   2.421  10.004 -0.2853 -0.6523  0.6505
   46MPD2    C5  706   2.665   2.377  10.113 -0.1840 -0.4141  0.4939
   46MPD2     H  707   2.743   2.717  10.001 -1.5768  0.8779 -0.4920
   46MPD2    H1  708   2.526   2.349   9.955 -0.1844 -0.8436  0.7987
   46MPD2    H2  709   2.814   2.384  10.250  0.7486 -0.8273 -1.4027
   46MPD2    H3  710   2.650   2.272  10.131 -0.7757 -0.3227  0.5099
   46MPD2     N  711   2.543   2.607   9.857 -0.3545 -0.8100 -0.4007
   46MPD2    H5  712   2.562   2.705   9.836 -3.0963 -0.8644 -3.1033
   46MPD2    N1  713   2.885   2.660  10.192 -0.4631 -0.1133 -0.1668
   46MPD2    H7  714   2.923   2.741  10.143  0.4892 -0.6614 -0.3380
   47TMC2    C1  715   1.469   3.281   9.821 -0.5703 -0.0214  0.1721
   47TMC2    C2  716   1.603   3.254   9.841 -0.4814 -0.2726 -0.7324
   47TMC2    C3  717   1.683   3.212   9.730  0.1595  0.0288 -0.2219
   47TMC2    C4  718   1.412   3.248   9.695  0.6188  1.0589 -0.1887
   47TMC2    C5  719   1.488   3.190   9.589  0.1882 -0.1938 -0.7632
   47TMC2    C6  720   1.622   3.170   9.612 -1.2178 -0.3597 -0.2267
   47TMC2     C  721   1.384   3.244   9.933 -0.6507 -0.8028  0.0797
   47TMC2     O  722   1.420   3.277  10.042 -0.2944  0.2490 -0.5291
   47TMC2     H  723   1.642   3.270   9.941  0.6167 -1.7015 -0.9386
   47TMC2    H1  724   1.318   3.296   9.671 -0.2855  0.1229  1.4644
   47TMC2    H2  725   1.681   3.127   9.532 -0.4832 -1.3351  0.8342
   47TMC2    C7  726   1.432   3.179   9.458 -0.6930  0.2758 -0.2212
   47TMC2    C8  727   1.824   3.225   9.733  0.1346  0.4604  0.3204
   47TMC2    O1  728   1.311   3.193   9.446  0.0805 -0.2997 -0.2268
   47TMC2    O2  729   1.909   3.176   9.655  0.3256  0.0084  0.6736
   47TMC2    O5  730   1.852   3.327   9.811  0.2653  0.1085 -0.5458
   47TMC2    H5  731   1.788   3.368   9.874 -0.0506 -0.4149 -0.5279
   48MPD2     C  732   1.167   3.144  10.119  0.6469  0.0891 -1.2487
   48MPD2    C1  733   1.178   3.112   9.981 -0.8363 -0.0897  0.2443
   48MPD2    C2  734   1.078   3.038   9.926 -0.3197  0.3280  0.4804
   48MPD2    C3  735   0.976   2.988  10.000 -0.3121 -0.3880  0.1879
   48MPD2    C4  736   0.965   3.025  10.135 -0.1327  0.0686  0.4847
   48MPD2    C5  737   1.061   3.094  10.192  0.1462 -0.1208  0.7737
   48MPD2     H  738   1.081   3.006   9.822  0.3938 -1.7882  1.1602
   48MPD2    H1  739   0.883   2.984  10.193  0.1799  0.3699  1.1402
   48MPD2    H2  740   1.241   3.202  10.173 -2.1915  1.5929  1.0476
   48MPD2    H3  741   1.046   3.125  10.294  0.3788  1.0942  0.4351
   48MPD2     N  742   0.875   2.920   9.928 -0.1788  0.5569 -0.0218
   48MPD2    H5  743   0.869   2.945   9.829 -1.7008 -0.8343 -0.2758
   48MPD2    N1  744   1.281   3.160   9.894 -0.1894 -0.2669  0.4414
   48MPD2    H7  745   1.268   3.133   9.797 -1.7433  2.3247 -0.0844
   49MPD2     C  746   2.709   1.763   9.728 -0.4019  0.0564 -1.0710
   49MPD2    C1  747   2.604   1.725   9.811  0.8706  1.0320 -0.3598
   49MPD2    C2  748   2.630   1.675   9.938 -0.0727  0.3008 -0.9315
   49MPD2    C3  749   2.758   1.648   9.979 -0.2991 -0.5093  0.7765
   49MPD2    C4  750   2.862   1.688   9.901 -0.2255 -0.8782  0.1748
   49MPD2    C5  751   2.836   1.747   9.779  0.3438 -0.1122 -0.0899
   49MPD2     H  752   2.555   1.652  10.013 -0.2213  1.1693 -0.8218
   49MPD2    H1  753   2.966   1.673   9.929  0.6546  1.5317 -1.8428
   49MPD2    H2  754   2.701   1.802   9.627  2.3813 -2.6364 -2.3382
   49MPD2    H3  755   2.919   1.755   9.709  1.1335  1.0093  0.9717
   49MPD2     N  756   2.796   1.582  10.096  0.3205 -0.2472  0.1207
   49MPD2    H5  757   2.895   1.562  10.105  0.2609 -0.1495  1.0064
   49MPD2    N1  758   2.467   1.751   9.769  0.0402 -0.0662  0.0165
   49MPD2    H7  759   2.384   1.727   9.821 -0.6169 -0.7064 -1.3366
   50TCq2    C1  760   2.425   1.824   9.663  0.1390 -0.1750 -1.1471
   50TCq2    O2  761   2.487   1.907   9.603 -0.1699 -0.3257  0.3585
   50TCq2    C2  762   2.275   1.821   9.654  0.0158  0.0131 -0.4304
   50TCq2    C3  763   2.213   1.923   9.594 -0.1649  0.2375 -0.4769
   50TCq2    C4  764   2.082   1.942   9.600 -0.5909 -0.5178  0.1371
   50TCq2    C5  765   2.005   1.843   9.659 -0.1218 -0.6926 -0.0035
   50TCq2    C6  766   2.067   1.725   9.692  1.0318 -0.0141 -0.1135
   50TCq2    C7  767   2.200   1.712   9.704 -0.0525 -0.2201  0.0447
   50TCq2    C8  768   1.968   1.616   9.724  0.1869 -0.3896 -0.3958
   50TCq2    O4  769   1.847   1.636   9.702  0.6528  0.8015  0.1495
   50TCq2    C9  770   2.025   2.061   9.561  0.5946  0.2597 -0.1949
   50TCq2    O5  771   2.104   2.154   9.534 -0.3738  0.0891 -0.3788
   50TCq2    O6  772   1.904   2.045   9.529 -0.4447 -0.9404 -0.0749
   50TCq2    H2  773   2.274   2.003   9.553  0.4467 -0.0436 -0.1168
   50TCq2    H3  774   1.897   1.854   9.669 -0.3731 -0.7957 -2.4688
   50TCq2    H4  775   2.244   1.617   9.733 -0.8745 -0.9552 -1.1239
   51MPD2     C  776   3.251   4.554   1.263 -0.0862 -0.4184 -0.4047
   51MPD2    C1  777   3.362   4.493   1.307  0.1007 -0.4640  0.9580
   51MPD2    C2  778   3.431   4.547   1.419 -0.1934 -0.1910 -0.0716
   51MPD2    C3  779   3.373   4.653   1.496 -0.2024 -0.3071  0.0325
   51MPD2    C4  780   3.253   4.696   1.465 -0.2536 -0.0410 -0.4500
   51MPD2    C5  781   3.195   4.652   1.342 -0.4660  0.2325 -0.0747
   51MPD2     H  782   3.522   4.492   1.441 -1.3724 -2.0332  0.1992
   51MPD2    H1  783   3.203   0.057   1.512 -0.6352  0.3793 -1.5940
   51MPD2    H2  784   3.192   4.520   1.178 -0.9648 -2.6508  1.1101
   51MPD2    H3  785   3.101   4.700   1.315 -0.7814 -1.0888 -1.2969
   51MPD2     N  786   3.444   4.717   1.605 -0.2138  0.3913 -0.1853
   51MPD2    H5  787   3.405   0.079   1.644  0.3023 -0.0573  1.3024
   51MPD2    N1  788   3.422   4.386   1.243 -0.1479  0.3036 -0.1807
   51MPD2    H7  789   3.517   4.363   1.269 -0.4995 -0.4308  0.4545
   52TCq2    C1  790   3.574   4.684   1.646  0.4467  0.4347 -0.2908
   52TCq2    O2  791   3.636   4.580   1.626  0.3151 -0.0951 -0.3588
   52TCq2    C2  792   3.610   0.058   1.755 -0.0029  0.4505 -0.7111
   52TCq2    C3  793   3.700   0.020   1.855  0.3679 -0.0819 -0.5954
   52TCq2    C4  794   3.718   0.086   1.970  0.2413 -0.0865 -0.2482
   52TCq2    C5  795   3.655   0.208   1.986  0.1661  0.4894 -0.0798
   52TCq2    C6  796   3.571   0.249   1.880 -0.5255 -0.1957  0.3491
   52TCq2    C7  797   3.550   0.183   1.761  0.0532 -0.3281  0.0135
   52TCq2    C8  798   3.520   0.386   1.889  0.6938  0.4844  0.6990
   52TCq2    O4  799   3.589   0.456   1.963  0.1649 -0.4358 -0.2063
   52TCq2    C9  800   3.809   0.040   2.072  0.0334  0.3596 -0.5752
   52TCq2    O5  801   3.836   0.116   2.165 -0.0753 -0.1362  0.2875
   52TCq2    O6  802   3.878   4.660   2.041 -0.1003 -0.5768 -0.0596
   52TCq2    H2  803   3.758   4.653   1.839 -0.0015 -0.5380  0.6546
   52TCq2    H3  804   3.669   0.278   2.068 -3.6142 -0.6172  1.5092
   52TCq2    H4  805   3.484   0.229   1.689 -0.3898 -0.1254  0.5471
   53TMC2    C1  806   3.902   2.880  11.875  0.3289 -0.6103  0.3294
   53TMC2    C2  807   4.021   2.848  11.925  0.5568 -0.0295 -0.2825
   53TMC2    C3  808   4.033   2.870  12.060 -0.7120  0.1106  0.7514
   53TMC2    C4  809   3.811   2.947  11.953  0.3049  0.5515 -0.4769
   53TMC2    C5  810   3.832   2.963  12.086 -0.5021  0.4174 -0.2327
   53TMC2    C6  811   3.942   2.920  12.146 -0.6427  0.1612 -0.0801
   53TMC2     C  812   3.842   2.809  11.769 -0.3689  0.5105  0.4551
   53TMC2     O  813   3.908   2.774  11.670  0.4963 -0.1384 -0.3204
   53TMC2     H  814   4.106   2.800  11.877  0.6968  0.0148 -0.0781
   53TMC2    H1  815   3.725   2.992  11.905  0.8973  2.5367  0.3089
   53TMC2    H2  816   3.967   2.927  12.252 -1.2914 -2.2655  0.2384
   53TMC2    C7  817   3.713   3.000  12.151  0.5049  0.2064  0.4382
   53TMC2    C8  818   4.157   2.832  12.124  0.2490  0.0662  0.4645
   53TMC2    O1  819   3.608   3.005  12.086 -0.9951 -0.1768  0.5077
   53TMC2    O2  820   4.185   2.892  12.229 -0.1835 -0.1408 -0.1074
   53TMC2    O5  821   4.182   2.701  12.090 -0.2204 -0.2279 -0.1092
   53TMC2    H5  822   4.113   2.655  12.038  0.5142 -1.0888 -0.3179
   54MPD2     C  823   3.623   2.719  11.578 -1.1064 -0.5449  0.4800
   54MPD2    C1  824   3.602   2.753  11.712  0.0373 -1.1536 -0.1818
   54MPD2    C2  825   3.476   2.745  11.765 -0.2686 -0.4357  0.6102
   54MPD2    C3  826   3.365   2.707  11.688 -0.3807 -0.6281  0.0639
   54MPD2    C4  827   3.387   2.674  11.559  0.2992 -0.2949  0.0790
   54MPD2    C5  828   3.513   2.674  11.508  0.3706  0.1038 -0.7040
   54MPD2     H  829   3.459   2.793  11.861  3.1739  1.1997  0.3971
   54MPD2    H1  830   3.307   2.642  11.493  0.2516 -1.9278  0.9344
   54MPD2    H2  831   3.719   2.723  11.527 -1.2423  0.5160  0.3172
   54MPD2    H3  832   3.529   2.650  11.403 -1.2886 -0.1432 -0.9038
   54MPD2     N  833   3.231   2.706  11.732  0.1058 -0.2837  0.6631
   54MPD2    H5  834   3.161   2.683  11.662 -0.3753  1.0056  0.7141
   54MPD2    N1  835   3.706   2.800  11.799 -0.4393  0.0566 -0.1588
   54MPD2    H7  836   3.677   2.823  11.894 -1.9908 -2.5570 -0.0074
   55MPD2     C  837   0.014   0.129  17.317 -0.0447 -0.2089 -0.1126
   55MPD2    C1  838   4.642   0.152  17.404 -0.4599  0.1689 -0.5639
   55MPD2    C2  839   4.566   0.266  17.382 -0.3962  0.0831 -0.2633
   55MPD2    C3  840   4.578   0.340  17.270  0.4057 -0.0761 -0.0346
   55MPD2    C4  841   4.677   0.314  17.179  0.1013 -0.0176 -0.1508
   55MPD2    C5  842   0.034   0.204  17.200 -0.1077  0.4117  0.1136
   55MPD2     H  843   4.489   0.297  17.452  0.4933 -3.1531  2.1391
   55MPD2    H1  844   4.693   0.378  17.093 -2.7368  0.7846 -0.1020
   55MPD2    H2  845   0.079   0.043  17.310  0.8292  0.3302  1.4284
   55MPD2    H3  846   0.105   0.166  17.127  0.6789 -2.5996  2.4600
   55MPD2     N  847   4.497   0.451  17.269  0.5085 -0.0443 -0.2122
   55MPD2    H5  848   4.421   0.460  17.336  3.1141  0.9453  2.6008
   55MPD2    N1  849   4.635   0.073  17.517  0.5710  0.0110 -0.2569
   55MPD2    H7  850   4.696   4.716  17.507  2.2557  0.9994  2.0995
   56TCq2    C1  851   4.554   0.094  17.626  0.4498 -0.0079 -0.4597
   56TCq2    O2  852   4.477   0.182  17.654  0.4978  0.4371  0.2632
   56TCq2    C2  853   4.590   4.723   0.042  0.0534 -0.6787 -0.6352
   56TCq2    C3  854   4.674   4.618   0.027 -0.1328 -0.7740 -0.1160
   56TCq2    C4  855   0.005   4.560   0.142  0.1722 -0.5137 -0.4771
   56TCq2    C5  856   4.697   4.610   0.266  0.1298  0.0453 -0.1954
   56TCq2    C6  857   4.614   4.718   0.279 -0.2054  0.2380 -0.5061
   56TCq2    C7  858   4.556   0.054   0.169  0.4822  0.5397 -0.4238
   56TCq2    C8  859   4.602   0.051   0.409 -0.1051 -0.4166 -0.3424
   56TCq2    O4  860   4.651   4.706   0.496 -0.1137 -0.1567 -0.0228
   56TCq2    C9  861   0.087   4.439   0.128  0.1644 -0.2104  0.2557
   56TCq2    O5  862   0.087   4.376   0.024  0.0336  0.5313 -0.2515
   56TCq2    O6  863   0.164   4.413   0.225 -0.3111  0.4990 -0.2939
   56TCq2    H2  864   4.699   4.573  17.625 -0.0450 -4.4388  1.6275
   56TCq2    H3  865   0.008   4.561   0.356  1.5194  1.0286 -0.1855
   56TCq2    H4  866   4.488   0.137   0.182 -0.0361 -0.1915  1.5351
   57TMC2    C1  867   3.681   1.958  14.057  0.0728  0.4123 -0.0113
   57TMC2    C2  868   3.737   2.019  14.165  0.6674 -1.1813 -0.6457
   57TMC2    C3  869   3.872   2.022  14.184 -0.3446 -0.2968  0.3910
   57TMC2    C4  870   3.762   1.906  13.964  0.3892 -0.2165 -0.1723
   57TMC2    C5  871   3.901   1.916  13.980  0.6185  0.0037 -0.2783
   57TMC2    C6  872   3.961   1.967  14.097 -0.5772  0.0899  0.5333
   57TMC2     C  873   3.544   1.950  14.030 -0.7367 -0.4000  0.1010
   57TMC2     O  874   3.483   2.032  14.097  0.0050  0.7847  0.1751
   57TMC2     H  875   3.662   2.053  14.236 -0.6358 -2.6044 -1.3247
   57TMC2    H1  876   3.715   1.859  13.878 -1.0199 -1.3797  1.2195
   57TMC2    H2  877   4.068   1.967  14.107 -0.4424  1.4827 -0.8390
   57TMC2    C7  878   3.986   1.882  13.858 -0.0382  0.0401 -0.0964
   57TMC2    C8  879   3.925   2.127  14.268  0.1843 -0.3231  0.4741
   57TMC2    O1  880   4.093   1.837  13.888  0.3703 -0.2495  0.5467
   57TMC2    O2  881   4.040   2.176  14.268  0.0220 -0.1367 -0.3392
   57TMC2    O5  882   3.845   2.133  14.372  0.4053 -0.3469 -0.2537
   57TMC2    H5  883   3.779   2.060  14.375  1.0063 -0.9704 -2.3593
   58MPD2     C  884   3.121   1.807  13.764  0.4659 -0.3283 -0.2124
   58MPD2    C1  885   3.160   1.921  13.834  0.0795 -0.6764  0.5873
   58MPD2    C2  886   3.287   1.937  13.891 -0.0852  0.5626  0.8104
   58MPD2    C3  887   3.374   1.828  13.893 -0.1798  0.1226 -0.0543
   58MPD2    C4  888   3.337   1.711  13.829  0.1479 -0.3613 -0.1342
   58MPD2    C5  889   3.213   1.701  13.772 -0.2930 -0.0382 -0.0472
   58MPD2     H  890   3.318   2.037  13.919 -0.4256  0.3744  1.8748
   58MPD2    H1  891   3.396   1.622  13.846 -3.7066 -2.6679  1.1485
   58MPD2    H2  892   3.017   1.794  13.736  0.7420 -1.0464 -0.9262
   58MPD2    H3  893   3.188   1.604  13.732  3.6919 -0.7888 -0.7783
   58MPD2     N  894   3.502   1.843  13.951  0.1003 -0.5102 -0.4369
   58MPD2    H5  895   3.564   1.762  13.944  0.6983 -0.1066  0.1923
   58MPD2    N1  896   3.083   2.037  13.837  0.1809  0.9092 -0.1961
   58MPD2    H7  897   3.123   2.124  13.871 -0.8486  0.6549  1.6328
   59MPD2     C  898   1.015   2.095  13.111  0.4397 -0.2346  0.4724
   59MPD2    C1  899   1.111   2.003  13.070 -0.1684  0.1185  1.1274
   59MPD2    C2  900   1.225   1.988  13.147 -0.4192 -0.1381 -0.0490
   59MPD2    C3  901   1.245   2.061  13.261 -0.4344 -0.4325  0.6413
   59MPD2    C4  902   1.142   2.150  13.304 -0.2071 -0.6710 -0.0749
   59MPD2    C5  903   1.032   2.160  13.228  0.2978  0.2882  0.3535
   59MPD2     H  904   1.293   1.913  13.109  1.0734  1.7215 -1.0462
   59MPD2    H1  905   1.151   2.207  13.396 -0.6491 -1.5827  0.5294
   59MPD2    H2  906   0.922   2.111  13.057  0.1586  0.3118  1.1091
   59MPD2    H3  907   0.949   2.224  13.255 -0.5841 -0.6467 -0.1388
   59MPD2     N  908   1.362   2.057  13.339  0.7979  0.3593  0.1258
   59MPD2    H5  909   1.356   2.118  13.420 -1.8154 -2.0037  1.7177
   59MPD2    N1  910   1.098   1.921  12.949  0.4031  0.2264 -0.9378
   59MPD2    H7  911   1.188   1.886  12.919  0.6826 -0.3284  0.5531
   60TCq2    C1  912   0.983   1.872  12.894  0.4993  0.1278 -0.9989
   60TCq2    O2  913   0.868   1.862  12.938  0.7141 -0.3710  0.1093
   60TCq2    C2  914   1.014   1.801  12.769  0.3114  0.5014 -0.1038
   60TCq2    C3  915   0.920   1.697  12.742  0.5315  0.4760 -0.6841
   60TCq2    C4  916   0.927   1.640  12.616 -0.6208 -0.0367 -0.1282
   60TCq2    C5  917   1.018   1.677  12.523 -0.4347  0.1731  0.4007
   60TCq2    C6  918   1.093   1.782  12.560  0.2288 -0.6045 -0.2521
   60TCq2    C7  919   1.096   1.847  12.679  0.0802  0.0999 -0.3164
   60TCq2    C8  920   1.181   1.823  12.462  0.2815  0.1540  0.2780
   60TCq2    O4  921   1.256   1.732  12.424  0.2156  0.0477 -0.0796
   60TCq2    C9  922   0.854   1.524  12.585  0.4881  0.1721  0.0152
   60TCq2    O5  923   0.760   1.499  12.660  0.0283 -0.8899  0.1207
   60TCq2    O6  924   0.871   1.465  12.473  0.7693  0.3503  0.2937
   60TCq2    H2  925   0.848   1.669  12.818  0.7830  0.4012 -0.4733
   60TCq2    H3  926   1.039   1.616  12.436  1.8702  2.4064 -0.5857
   60TCq2    H4  927   1.177   1.915  12.706  0.4289 -0.5007  0.1592
   61MPD2     C  928   0.340   3.497  15.249  0.7097  0.4581 -0.3265
   61MPD2    C1  929   0.396   3.624  15.276  0.7169 -0.1994 -0.1713
   61MPD2    C2  930   0.463   3.687  15.173 -0.3197 -0.2104  0.4137
   61MPD2    C3  931   0.489   3.621  15.054  0.5079  0.2982  0.7352
   61MPD2    C4  932   0.441   3.491  15.041 -0.1513  0.2949  0.6159
   61MPD2    C5  933   0.354   3.434  15.132 -0.2408 -0.1266  0.4480
   61MPD2     H  934   0.504   3.785  15.192  2.0523 -1.8170  3.5120
   61MPD2    H1  935   0.466   3.434  14.952 -0.8962  1.3572 -0.2690
   61MPD2    H2  936   0.291   3.439  15.327  1.0072 -0.2198 -0.6507
   61MPD2    H3  937   0.314   3.335  15.116 -0.0185 -0.5039  2.2572
   61MPD2     N  938   0.562   3.674  14.946  0.2015 -0.1366 -0.2402
   61MPD2    H5  939   0.589   3.608  14.873 -0.6501 -0.5283 -0.1938
   61MPD2    N1  940   0.390   3.686  15.405 -0.0409  0.4609  0.2947
   61MPD2    H7  941   0.412   3.785  15.406  0.5608  0.3138  1.3439
   62TCq2    C1  942   0.351   3.628  15.516 -0.5281  0.3987 -0.7019
   62TCq2    O2  943   0.326   3.506  15.532 -0.4960 -0.9645  0.1181
   62TCq2    C2  944   0.337   3.718  15.632 -0.4564  0.0332  0.2538
   62TCq2    C3  945   0.319   3.670  15.763 -0.4289 -0.0784  0.2533
   62TCq2    C4  946   0.340   3.754  15.869  0.0949 -0.3446 -0.6178
   62TCq2    C5  947   0.352   3.892  15.857 -0.0488 -0.4589 -0.2009
   62TCq2    C6  948   0.364   3.935  15.730 -0.0935  0.0723  0.3779
   62TCq2    C7  949   0.371   3.853  15.618 -0.2912  0.0207 -0.2458
   62TCq2    C8  950   0.362   4.073  15.700 -0.0162 -0.0284  0.2376
   62TCq2    O4  951   0.418   4.108  15.599 -0.6317 -0.7294 -0.1717
   62TCq2    C9  952   0.310   3.702  15.998  0.3793 -0.3836  0.2443
   62TCq2    O5  953   0.295   3.779  16.100 -0.5563 -0.1320  0.8578
   62TCq2    O6  954   0.288   3.579  16.001 -0.0919 -0.8573 -0.2950
   62TCq2    H2  955   0.304   3.564  15.781  0.1330  0.0858  1.6952
   62TCq2    H3  956   0.361   3.951  15.947  2.1433 -0.3138 -0.5237
   62TCq2    H4  957   0.387   3.895  15.519  0.9641 -2.3316 -1.0666
   63TMC2    C1  958   0.383   3.714  10.434  0.1813 -0.5211  0.5278
   63TMC2    C2  959   0.392   3.678  10.567  0.3911 -0.6612 -0.0848
   63TMC2    C3  960   0.494   3.741  10.636  0.8579  0.2487  0.3235
   63TMC2    C4  961   0.461   3.806  10.382 -0.0183  1.1347 -0.1942
   63TMC2    C5  962   0.565   3.858  10.458 -0.4136 -0.0528 -0.3952
   63TMC2    C6  963   0.585   3.831  10.588 -0.3795  0.8635 -0.1192
   63TMC2     C  964   0.311   3.627  10.334  0.2910  0.7021 -0.5110
   63TMC2     O  965   0.304   3.664  10.215  0.2855 -0.2733  0.5164
   63TMC2     H  966   0.339   3.590  10.601 -1.1184 -0.3044 -1.4765
   63TMC2    H1  967   0.446   3.831  10.278 -2.3676  2.1656  0.4042
   63TMC2    H2  968   0.674   3.866  10.639  0.5603 -3.3679  1.1797
   63TMC2    C7  969   0.648   3.955  10.384 -0.2588  0.0614  0.4893
   63TMC2    C8  970   0.512   3.668  10.764  0.6997  0.9270  0.4274
   63TMC2    O1  971   0.620   3.958  10.265  0.2238 -0.2950  0.9580
   63TMC2    O2  972   0.435   3.577  10.788  0.0496 -0.1733 -0.3458
   63TMC2    O5  973   0.594   3.732  10.845 -0.4995 -0.0099  0.2211
   63TMC2    H5  974   0.632   3.818  10.814 -0.0908 -0.6093 -0.9599
   64MPD2     C  975   0.112   3.164  10.185 -0.0123  0.2833 -0.4420
   64MPD2    C1  976   0.165   3.151  10.317  0.4407  0.2965  0.2498
   64MPD2    C2  977   0.214   3.265  10.380 -0.6576  0.1421 -0.3616
   64MPD2    C3  978   0.221   3.391  10.318  0.4955 -0.1774 -1.1690
   64MPD2    C4  979   0.175   3.397  10.181 -0.2591 -0.3299  0.4134
   64MPD2    C5  980   0.121   3.289  10.123 -0.0424  0.2262  0.1004
   64MPD2     H  981   0.240   3.259  10.485 -2.8252  0.7916  0.2170
   64MPD2    H1  982   0.172   3.490  10.125 -0.2988 -1.5267 -1.5582
   64MPD2    H2  983   0.060   3.088  10.128  0.7017 -1.2222  0.9064
   64MPD2    H3  984   0.081   3.304  10.024  0.9937 -2.2492 -0.6950
   64MPD2     N  985   0.272   3.503  10.392 -0.1508 -0.0695 -0.1874
   64MPD2    H5  986   0.293   3.493  10.491  1.5348  0.6371 -0.4630
   64MPD2    N1  987   0.160   3.029  10.385  0.0427  0.0768  0.8519
   64MPD2    H7  988   0.214   3.023  10.470 -1.9044  0.0539  2.0965
   65MPD2     C  989   0.786   3.219  15.903 -0.4800  0.2324 -0.1953
   65MPD2    C1  990   0.792   3.214  15.765  0.2563  0.2956  0.4580
   65MPD2    C2  991   0.857   3.108  15.705 -0.2837 -0.3112 -0.0214
   65MPD2    C3  992   0.911   3.004  15.782  0.4136 -0.3831 -0.7465
   65MPD2    C4  993   0.893   3.002  15.922  0.4106 -0.4773 -0.3244
   65MPD2    C5  994   0.831   3.112  15.979 -0.6058  0.0546 -0.4179
   65MPD2     H  995   0.857   3.106  15.597 -0.7865 -1.3690  0.0025
   65MPD2    H1  996   0.933   2.926  15.988  0.7150 -1.4553 -1.6364
   65MPD2    H2  997   0.727   3.289  15.962 -0.3940 -0.7702  1.0931
   65MPD2    H3  998   0.823   3.117  16.087 -2.7088  2.5820 -0.6892
   65MPD2     N  999   0.966   2.887  15.726  0.0543  0.2524  0.5706
   65MPD2    H5 1000   0.995   2.819  15.795 -1.5011 -0.4985  0.4834
   65MPD2    N1 1001   0.740   3.316  15.676  0.0166  0.3236 -0.0910
   65MPD2    H7 1002   0.750   3.293  15.577 -0.0975 -1.0597  0.2332
   66TCq2    C1 1003   0.692   3.435  15.711  0.3114  0.3755  0.0491
   66TCq2    O2 1004   0.693   3.478  15.825 -0.3276 -0.2481  0.0553
   66TCq2    C2 1005   0.670   3.525  15.598 -0.1935  0.7243  0.9751
   66TCq2    C3 1006   0.682   3.458  15.476 -0.6267  0.5141  0.0474
   66TCq2    C4 1007   0.735   3.529  15.369  0.1473  0.3083 -0.6002
   66TCq2    C5 1008   0.766   3.661  15.379  0.0437 -0.2196 -0.1834
   66TCq2    C6 1009   0.754   3.722  15.502  0.8936  0.7960  0.4190
   66TCq2    C7 1010   0.717   3.653  15.614 -0.0234 -0.0894  0.3531
   66TCq2    C8 1011   0.805   3.859  15.500 -0.5540 -0.3277  0.0766
   66TCq2    O4 1012   0.845   3.912  15.398  0.6035 -0.1587  0.6944
   66TCq2    C9 1013   0.757   3.466  15.242  0.0457  0.1815  0.5991
   66TCq2    O5 1014   0.715   3.348  15.237 -0.4190 -0.0375 -0.6921
   66TCq2    O6 1015   0.807   3.534  15.146  0.1188  0.0258  0.5780
   66TCq2    H2 1016   0.639   3.360  15.458  0.5048 -0.0872  0.6045
   66TCq2    H3 1017   0.805   3.711  15.291 -2.9976 -1.7750 -2.4471
   66TCq2    H4 1018   0.728   3.682  15.718  4.6909  0.8690 -0.3939
   67MPD2     C 1019   1.439   2.315  14.076 -0.3518 -0.5340 -0.1760
   67MPD2    C1 1020   1.364   2.383  14.169 -0.3934  0.5071 -0.3693
   67MPD2    C2 1021   1.230   2.366  14.168 -0.3106 -0.6003  0.8588
   67MPD2    C3 1022   1.165   2.277  14.077  0.4453  0.1027  0.7871
   67MPD2    C4 1023   1.242   2.209  13.985  1.0499  0.5091  0.2030
   67MPD2    C5 1024   1.375   2.233  13.985 -0.4648  0.3235 -0.7644
   67MPD2     H 1025   1.171   2.433  14.229  0.0730  0.9394 -0.4606
   67MPD2    H1 1026   1.206   2.135  13.915  4.7834  0.4183 -1.6460
   67MPD2    H2 1027   1.547   2.324  14.068 -0.3840 -0.2543 -0.2871
   67MPD2    H3 1028   1.434   2.177  13.913  1.9729 -2.0065  3.0249
   67MPD2     N 1029   1.028   2.268  14.071  0.0516  0.1218 -0.2374
   67MPD2    H5 1030   0.991   2.218  13.991  1.8619  0.5285 -1.3236
   67MPD2    N1 1031   1.420   2.478  14.263  0.3262 -0.0106 -0.6313
   67MPD2    H7 1032   1.350   2.522  14.321  1.6315  0.8884  0.2462
   68TCq2    C1 1033   1.548   2.498  14.280  0.6429  0.4517 -0.2778
   68TCq2    O2 1034   1.640   2.417  14.266 -0.9813 -0.1682  0.3684
   68TCq2    C2 1035   1.572   2.619  14.355  0.2246  0.0246  0.5784
   68TCq2    C3 1036   1.471   2.716  14.357 -0.1024  0.1573  0.0525
   68TCq2    C4 1037   1.473   2.808  14.454 -0.3498  0.9230 -0.6861
   68TCq2    C5 1038   1.563   2.808  14.556  0.5507 -0.2766  0.5686
   68TCq2    C6 1039   1.662   2.713  14.546 -1.0379  0.3178  0.1410
   68TCq2    C7 1040   1.672   2.611  14.453 -0.3051  0.8583 -0.4770
   68TCq2    C8 1041   1.765   2.704  14.640 -0.0980 -0.3188  1.2282
   68TCq2    O4 1042   1.865   2.641  14.608  0.3863 -0.2790 -0.6705
   68TCq2    C9 1043   1.376   2.918  14.450 -1.1823  0.2592  0.1606
   68TCq2    O5 1044   1.345   2.977  14.554  0.7457 -0.2493 -0.0851
   68TCq2    O6 1045   1.347   2.957  14.333 -0.3720  0.7454 -0.2552
   68TCq2    H2 1046   1.408   2.741  14.272  0.6284  0.8583 -0.2881
   68TCq2    H3 1047   1.553   2.885  14.632 -0.4865 -0.2635  0.4191
   68TCq2    H4 1048   1.731   2.522  14.469 -1.1601  0.3853  0.0356
   69TMC2    C1 1049   3.335   3.227  11.961  0.0676 -0.1194  0.0828
   69TMC2    C2 1050   3.214   3.188  11.907  0.8949 -0.1032  0.3882
   69TMC2    C3 1051   3.216   3.119  11.789  0.6316 -0.1970 -0.2128
   69TMC2    C4 1052   3.452   3.211  11.903  0.6028 -0.6189 -0.4002
   69TMC2    C5 1053   3.453   3.137  11.786  0.5002 -0.3457  0.6602
   69TMC2    C6 1054   3.338   3.094  11.722 -0.4129  0.7527 -0.5167
   69TMC2     C 1055   3.321   3.301  12.085  0.5419 -0.1412 -0.1206
   69TMC2     O 1056   3.209   3.295  12.127 -0.3506  0.3445  0.3304
   69TMC2     H 1057   3.124   3.188  11.968  0.1888 -0.7499 -0.6490
   69TMC2    H1 1058   3.544   3.233  11.955 -0.0834  0.3708  0.3759
   69TMC2    H2 1059   3.340   3.033  11.633  4.5475  0.4080 -0.1835
   69TMC2    C7 1060   3.573   3.135  11.708 -1.0316  0.1030 -0.4866
   69TMC2    C8 1061   3.089   3.061  11.746  0.8337  0.2765 -0.0060
   69TMC2    O1 1062   3.560   3.080  11.600  0.5232  0.6702 -0.1154
   69TMC2    O2 1063   2.982   3.067  11.811 -0.7460  0.3545 -0.1400
   69TMC2    O5 1064   3.098   3.010  11.615 -0.0665 -0.0123  0.1454
   69TMC2    H5 1065   3.015   2.982  11.571 -1.1237 -0.3050  2.3460
   70MPD2     C 1066   3.582   3.397  12.316  0.3903 -0.7535 -0.4578
   70MPD2    C1 1067   3.451   3.386  12.273 -0.0691  0.0722 -0.2015
   70MPD2    C2 1068   3.352   3.414  12.363 -0.4444 -0.2152 -0.8344
   70MPD2    C3 1069   3.386   3.449  12.497  0.4958  0.1797  1.9091
   70MPD2    C4 1070   3.515   3.471  12.537  0.6813 -0.8423 -0.5602
   70MPD2    C5 1071   3.611   3.437  12.445 -0.3183 -0.0396 -0.5436
   70MPD2     H 1072   3.248   3.410  12.332 -0.6005  2.3463 -0.6886
   70MPD2    H1 1073   3.541   3.499  12.638 -0.6682 -1.3425 -0.0715
   70MPD2    H2 1074   3.661   3.375  12.246 -0.3799  0.2715 -1.6544
   70MPD2    H3 1075   3.719   3.443  12.460 -0.6074  0.8403  1.2513
   70MPD2     N 1076   3.284   3.456  12.600  0.0724 -0.2823  0.5151
   70MPD2    H5 1077   3.313   3.473  12.696  0.5642  1.6972  0.0198
   70MPD2    N1 1078   3.437   3.352  12.140  0.3252  0.1079 -0.7067
   70MPD2    H7 1079   3.525   3.359  12.092  0.9355 -0.6091  0.3138
   71TMC2    C1 1080   0.403   0.109   1.763  0.1845  0.9244 -0.2598
   71TMC2    C2 1081   0.483   0.122   1.870 -0.1391  0.0902 -0.2872
   71TMC2    C3 1082   0.487   0.245   1.931  0.2335 -0.0634 -0.4383
   71TMC2    C4 1083   0.322   0.205   1.717  0.4323 -0.1847  0.7135
   71TMC2    C5 1084   0.309   0.319   1.793  0.0835 -0.5263  0.3363
   71TMC2    C6 1085   0.387   0.334   1.904  0.3605  0.3879  0.3916
   71TMC2     C 1086   0.422   4.710   1.679 -0.3995 -0.1620 -0.0214
   71TMC2     O 1087   0.377   4.705   1.567  0.6709 -0.6473  0.7038
   71TMC2     H 1088   0.565   0.054   1.890 -1.0040 -0.2533  2.0995
   71TMC2    H1 1089   0.271   0.209   1.621  0.8366  1.0792  0.5522
   71TMC2    H2 1090   0.368   0.416   1.972  0.5640 -0.0663  1.0067
   71TMC2    C7 1091   0.189   0.398   1.787  0.5827  0.4640 -0.4405
   71TMC2    C8 1092   0.554   0.251   2.064  0.2568 -0.4098 -1.2447
   71TMC2    O1 1093   0.183   0.499   1.852  0.1400  0.0516 -0.1658
   71TMC2    O2 1094   0.589   0.361   2.095 -0.4669 -0.5089 -0.3127
   71TMC2    O5 1095   0.480   0.168   2.151 -0.2375 -0.2538  0.2972
   71TMC2    H5 1096   0.463   0.083   2.106  0.3541  1.1748 -2.6362
   72MPD2     C 1097   0.656   4.254   1.636 -0.5733  0.0925  0.3690
   72MPD2    C1 1098   0.602   4.334   1.541 -0.1148  0.5398  0.2139
   72MPD2    C2 1099   0.548   4.457   1.579 -0.0097 -0.0743 -0.4408
   72MPD2    C3 1100   0.534   4.485   1.718 -0.6567  0.7017 -0.8833
   72MPD2    C4 1101   0.601   4.403   1.811 -0.1492 -0.0156 -0.2375
   72MPD2    C5 1102   0.661   4.284   1.768  0.5544  0.2403 -0.4372
   72MPD2     H 1103   0.510   4.521   1.500 -1.5085  0.2947  0.5784
   72MPD2    H1 1104   0.611   4.415   1.918 -1.2370  0.1150 -0.1588
   72MPD2    H2 1105   0.699   4.156   1.617  2.6323  1.6643 -0.5794
   72MPD2    H3 1106   0.694   4.209   1.839  0.6546  0.9498  0.2572
   72MPD2     N 1107   0.471   4.606   1.760 -0.1413 -0.1818 -0.7275
   72MPD2    H5 1108   0.471   4.623   1.860 -0.2393  0.6795 -0.8745
   72MPD2    N1 1109   0.610   4.306   1.397 -0.6561  0.2462 -0.0763
   72MPD2    H7 1110   0.574   4.380   1.337  1.0218  0.4086 -0.8876
   73TMC2    C1 1111   1.115   1.081  14.813 -0.0741  0.2217  0.7747
   73TMC2    C2 1112   1.082   1.131  14.930 -0.4016  0.2338 -0.3324
   73TMC2    C3 1113   1.178   1.197  15.001 -0.5122 -0.0640  0.2571
   73TMC2    C4 1114   1.247   1.089  14.769 -0.6499  0.7754  0.4074
   73TMC2    C5 1115   1.347   1.149  14.843 -0.7235 -0.1428 -0.4732
   73TMC2    C6 1116   1.310   1.210  14.960 -0.1859 -0.2233  0.1843
   73TMC2     C 1117   1.035   1.127  14.700 -0.5613 -0.8327  0.4149
   73TMC2     O 1118   1.098   1.212  14.634  0.2134  0.5057  0.3551
   73TMC2     H 1119   0.980   1.123  14.967 -0.0381 -0.4760  0.5192
   73TMC2    H1 1120   1.273   1.056  14.669 -1.7785  0.0774  0.3489
   73TMC2    H2 1121   1.381   1.272  15.013 -1.0559  0.2521  0.7982
   73TMC2    C7 1122   1.430   1.232  14.755 -0.3133 -0.3731  0.4769
   73TMC2    C8 1123   1.141   1.273  15.111  0.0947 -0.2564 -0.0567
   73TMC2    O1 1124   1.529   1.281  14.812  0.2840  0.2914  0.6028
   73TMC2    O2 1125   1.032   1.332  15.104 -0.1319  0.2399 -0.3001
   73TMC2    O5 1126   1.232   1.296  15.203 -0.3140 -0.0564 -0.3453
   73TMC2    H5 1127   1.317   1.247  15.196  0.0428  0.5628 -0.3969
   74MPD2     C 1128   0.635   1.163  14.377 -0.0944  0.3152 -0.9906
   74MPD2    C1 1129   0.758   1.227  14.367  0.2895 -0.2715  0.3697
   74MPD2    C2 1130   0.842   1.207  14.477 -0.0091 -0.2712  0.0130
   74MPD2    C3 1131   0.808   1.126  14.587 -0.8191 -0.5339  0.1529
   74MPD2    C4 1132   0.684   1.065  14.588 -0.3212 -0.8913 -0.3979
   74MPD2    C5 1133   0.599   1.083  14.483  1.0016  0.4507 -0.2433
   74MPD2     H 1134   0.942   1.248  14.473 -0.0026 -0.1939  0.8710
   74MPD2    H1 1135   0.665   1.004  14.676  1.0265  2.4152  2.2155
   74MPD2    H2 1136   0.565   1.166  14.294 -1.9515 -1.6917  0.5209
   74MPD2    H3 1137   0.502   1.034  14.485  1.9965 -1.3370  3.3069
   74MPD2     N 1138   0.898   1.095  14.694  0.0463 -0.3517  0.5809
   74MPD2    H5 1139   0.870   1.028  14.765 -0.2619 -0.3583  0.4566
   74MPD2    N1 1140   0.796   1.297  14.252  0.1144 -0.2068  0.1705
   74MPD2    H7 1141   0.735   1.282  14.173  0.8823 -1.9080 -0.0856
   75TCq2    C1 1142   0.946   2.309  14.171  0.1739  0.0251 -0.5982
   75TCq2    O2 1143   0.971   2.358  14.281 -0.1216  0.2457  0.1618
   75TCq2    C2 1144   0.804   2.300  14.127  0.7563 -0.4499  0.3635
   75TCq2    C3 1145   0.706   2.294  14.225  0.1473 -0.5953  0.2490
   75TCq2    C4 1146   0.580   2.288  14.194 -0.2980 -0.5514  0.6088
   75TCq2    C5 1147   0.537   2.276  14.064  0.1594  0.3577  0.1436
   75TCq2    C6 1148   0.639   2.277  13.964  0.2261  0.1522  0.0334
   75TCq2    C7 1149   0.773   2.289  13.995 -0.0091  0.4320  1.0403
   75TCq2    C8 1150   0.609   2.246  13.827 -0.3147  0.7024  0.6040
   75TCq2    O4 1151   0.674   2.281  13.728 -0.1756  0.0266 -0.1747
   75TCq2    C9 1152   0.500   2.287  14.312 -0.5575 -0.6667  0.3878
   75TCq2    O5 1153   0.378   2.292  14.289 -0.3044  0.4056 -0.4216
   75TCq2    O6 1154   0.557   2.277  14.426  0.3642 -0.0714  0.4493
   75TCq2    H2 1155   0.745   2.293  14.327 -0.9578  0.6222  0.6873
   75TCq2    H3 1156   0.431   2.261  14.045  0.3204  0.8226 -1.1762
   75TCq2    H4 1157   0.844   2.281  13.914 -0.1382 -1.1025  1.0777
   76MPD2     C 1158   4.619   2.655  11.254 -0.3491 -0.5655  0.2467
   76MPD2    C1 1159   4.489   2.630  11.293 -0.4318  0.1376  0.1579
   76MPD2    C2 1160   4.455   2.523  11.368 -0.0162 -0.2783  0.7747
   76MPD2    C3 1161   4.551   2.438  11.413 -0.0621  0.2941 -0.6915
   76MPD2    C4 1162   4.675   2.455  11.368  0.0197 -0.1501  0.1707
   76MPD2    C5 1163   4.706   2.560  11.290  0.2401 -0.0408 -0.2425
   76MPD2     H 1164   4.352   2.511  11.403 -1.0145  2.6984 -1.1881
   76MPD2    H1 1165   0.031   2.389  11.400  0.6673  0.2422 -0.5894
   76MPD2    H2 1166   4.661   2.736  11.197 -1.2411 -0.0904  0.2664
   76MPD2    H3 1167   0.087   2.572  11.262 -0.0152 -1.1569 -1.6682
   76MPD2     N 1168   4.534   2.342  11.517  0.0253  0.3196 -0.1608
   76MPD2    H5 1169   4.622   2.296  11.542  1.4314  1.4966 -3.0330
   76MPD2    N1 1170   4.382   2.716  11.256  0.5112  0.4137  0.1144
   76MPD2    H7 1171   4.287   2.687  11.280  0.5164 -0.9104 -1.4433
   77TCq2    C1 1172   4.416   2.303  11.579  0.0913 -0.1572 -0.1570
   77TCq2    O2 1173   4.300   2.310  11.537 -0.0775  0.3125 -0.5777
   77TCq2    C2 1174   4.431   2.208  11.686  0.5637 -0.0926 -0.0656
   77TCq2    C3 1175   4.323   2.125  11.715  0.1807  0.0390 -0.4644
   77TCq2    C4 1176   4.315   2.044  11.826 -0.3034  0.3245  0.0707
   77TCq2    C5 1177   4.417   2.048  11.915 -0.0551  0.2601  0.2563
   77TCq2    C6 1178   4.519   2.139  11.896  0.3758  0.3415 -0.0149
   77TCq2    C7 1179   4.529   2.218  11.779  0.0731 -0.3526 -0.2028
   77TCq2    C8 1180   4.629   2.135  11.990  0.6118 -0.1133 -0.0142
   77TCq2    O4 1181   4.662   2.023  12.032  0.0334  0.2009  0.1280
   77TCq2    C9 1182   4.215   1.939  11.841 -0.4251 -0.1735  0.2188
   77TCq2    O5 1183   4.123   1.946  11.757 -0.4319  0.1711 -0.3053
   77TCq2    O6 1184   4.224   1.847  11.926  0.3954  0.3980  0.0684
   77TCq2    H2 1185   4.250   2.104  11.637  0.5441 -0.8920 -0.5595
   77TCq2    H3 1186   4.412   1.986  12.004 -0.7636 -0.5825 -0.3733
   77TCq2    H4 1187   4.615   2.276  11.748  0.0179 -0.2504 -0.1651
   78MPD1     C 1188   1.992   3.754   2.024 -0.3288  0.3260 -0.1518
   78MPD1    C1 1189   1.870   3.813   1.994  0.2078 -1.0043  0.0332
   78MPD1    C2 1190   1.883   3.907   1.891  0.5076  0.0183  0.3989
   78MPD1    C3 1191   1.997   3.934   1.819 -0.2298  0.0797 -0.3022
   78MPD1    C4 1192   2.109   3.857   1.844  0.6945 -0.0545  0.5633
   78MPD1    C5 1193   2.107   3.775   1.955 -0.1363  0.0755  0.1907
   78MPD1     H 1194   1.790   3.958   1.868 -0.5253 -1.8293  0.4607
   78MPD1    H1 1195   2.205   3.869   1.795  0.2541  2.3856  0.2967
   78MPD1    H2 1196   2.004   3.674   2.095  2.4559 -0.0946 -1.1041
   78MPD1    H3 1197   2.197   3.729   1.994 -0.6497 -1.4313 -0.3919
   78MPD1     N 1198   2.015   4.033   1.721  0.1834  0.1984 -0.1526
   78MPD1    H5 1199   2.108   4.045   1.682  0.0095 -0.2671 -0.7002
   78MPD1    N1 1200   1.750   3.782   2.056 -0.0939  0.2898  0.1072
   78MPD1    H6 1201   1.774   3.726   2.138  0.2464  1.5764  0.8934
   78MPD1    H7 1202   1.700   3.866   2.084  0.1223  0.8679 -1.2619
   79TCq2    C1 1203   1.919   4.128   1.685 -0.4468 -0.7629 -0.8305
   79TCq2    O2 1204   1.800   4.123   1.703 -0.6970  0.3326 -0.0887
   79TCq2    C2 1205   1.972   4.227   1.595  0.9901 -0.4771  0.3978
   79TCq2    C3 1206   1.883   4.273   1.496  0.1237  0.0481  0.6798
   79TCq2    C4 1207   1.932   4.330   1.386 -0.4131  0.3941  0.3247
   79TCq2    C5 1208   2.064   4.358   1.379  0.7751 -0.1461 -0.3271
   79TCq2    C6 1209   2.152   4.318   1.469  0.9073 -0.7023  0.2476
   79TCq2    C7 1210   2.107   4.254   1.584 -0.9650  0.2247  0.4888
   79TCq2    C8 1211   2.288   4.352   1.459  0.0551  0.0846  0.6630
   79TCq2    O4 1212   2.357   4.302   1.551  0.9423  0.3509 -0.3745
   79TCq2    C9 1213   1.842   4.386   1.288  1.0102  0.2039 -0.0748
   79TCq2    O5 1214   1.722   4.346   1.291  0.2207  0.1273  0.1061
   79TCq2    O6 1215   1.893   4.452   1.193 -0.5858  0.0290 -0.3953
   79TCq2    H2 1216   1.777   4.254   1.504 -0.1537  0.6106 -1.5055
   79TCq2    H3 1217   2.097   4.414   1.293  0.3885  0.6396  0.0445
   79TCq2    H4 1218   2.177   4.236   1.665 -3.8697 -1.6442  2.5825
   80MPD2     C 1219   3.969   2.610  12.305  0.6312 -0.3287  0.0671
   80MPD2    C1 1220   3.839   2.639  12.272 -0.0932  0.1961  0.1480
   80MPD2    C2 1221   3.760   2.710  12.358  0.0169 -0.3828  0.1192
   80MPD2    C3 1222   3.799   2.751  12.478 -0.5060 -0.6990 -1.2406
   80MPD2    C4 1223   3.931   2.734  12.508  0.1914  0.3790  0.3279
   80MPD2    C5 1224   4.013   2.664  12.423  0.3437  0.4137  0.6547
   80MPD2     H 1225   3.656   2.722  12.331 -0.3255 -2.3288  0.5888
   80MPD2    H1 1226   3.974   2.778  12.597  2.6307 -1.2832 -0.0333
   80MPD2    H2 1227   4.037   2.552  12.244 -1.4290 -0.7839 -1.7932
   80MPD2    H3 1228   4.113   2.640  12.457  0.7938  0.1066 -0.8858
   80MPD2     N 1229   3.709   2.777  12.586 -0.2058 -0.1531 -0.0731
   80MPD2    H5 1230   3.757   2.795  12.674  1.3137  0.1189 -0.9691
   80MPD2    N1 1231   3.778   2.591  12.158 -0.2976 -0.3355 -0.4228
   80MPD2    H7 1232   3.681   2.622  12.161  0.1257  0.8284  1.2525
   81TCq2    C1 1233   3.844   2.533  12.051  0.3931  0.8988  0.2250
   81TCq2    O2 1234   3.966   2.537  12.032  0.1286 -0.5038 -0.1378
   81TCq2    C2 1235   3.759   2.497  11.937  0.1277 -0.5447  0.5217
   81TCq2    C3 1236   3.821   2.483  11.818 -0.0126  0.8886  0.2378
   81TCq2    C4 1237   3.751   2.441  11.710 -0.7955 -0.1937  0.6191
   81TCq2    C5 1238   3.622   2.406  11.719  0.0272 -0.1428 -0.8685
   81TCq2    C6 1239   3.559   2.409  11.842 -0.0278  0.3874  0.6733
   81TCq2    C7 1240   3.631   2.445  11.953  0.3971  0.0871  0.4369
   81TCq2    C8 1241   3.419   2.366  11.844  0.0577  0.5044 -0.7102
   81TCq2    O4 1242   3.362   2.331  11.743 -0.1555  0.3443  0.1840
   81TCq2    C9 1243   3.814   2.433  11.582  0.5150  0.5906  0.4251
   81TCq2    O5 1244   3.937   2.458  11.577  1.4102 -0.5273  0.2596
   81TCq2    O6 1245   3.743   2.391  11.487 -0.5299 -0.4899 -0.2602
   81TCq2    H2 1246   3.927   2.505  11.803  0.5069 -0.7181  1.5123
   81TCq2    H3 1247   3.560   2.377  11.635 -0.8923 -0.6970 -0.0026
   81TCq2    H4 1248   3.588   2.443  12.052  0.3024  0.0437  0.3942
   82MPD2     C 1249   2.098   2.556  10.975 -0.8463  0.6860  0.0906
   82MPD2    C1 1250   2.001   2.475  10.939  0.8596 -0.0151 -0.3811
   82MPD2    C2 1251   2.000   2.339  10.982  0.3045  0.3763 -0.1696
   82MPD2    C3 1252   2.104   2.302  11.064  0.1265 -0.2689 -0.1849
   82MPD2    C4 1253   2.202   2.385  11.098  0.3666 -0.3900  0.3341
   82MPD2    C5 1254   2.191   2.516  11.065 -1.2003  0.1430 -0.6548
   82MPD2     H 1255   1.921   2.274  10.947  0.4666  0.3380 -0.4696
   82MPD2    H1 1256   2.276   2.343  11.166  1.8862  1.4235 -0.2196
   82MPD2    H2 1257   2.105   2.658  10.939  0.3216  0.1219 -1.2802
   82MPD2    H3 1258   2.268   2.584  11.098 -1.1303 -0.4398  0.3752
   82MPD2     N 1259   2.120   2.172  11.105  0.3470  0.2890 -0.8273
   82MPD2    H5 1260   2.204   2.144  11.155 -1.3319 -2.4627  0.4879
   82MPD2    N1 1261   1.907   2.537  10.850  0.0012  1.0308 -0.2580
   82MPD2    H7 1262   1.908   2.638  10.842 -0.3569  1.2892  2.8506
   83TCq2    C1 1263   2.022   2.077  11.101 -0.0300 -0.0349 -0.1640
   83TCq2    O2 1264   1.900   2.085  11.086 -0.0411 -0.0279  0.0259
   83TCq2    C2 1265   2.076   1.948  11.143  0.0110  0.5262 -0.1624
   83TCq2    C3 1266   2.180   1.949  11.233  0.5617  0.0509  0.1870
   83TCq2    C4 1267   2.197   1.844  11.317 -0.0812  0.3608 -0.0943
   83TCq2    C5 1268   2.111   1.742  11.324 -0.2357 -0.1926 -0.6510
   83TCq2    C6 1269   1.999   1.750  11.247  0.0717 -0.1910  0.0299
   83TCq2    C7 1270   1.977   1.855  11.162 -0.5873 -0.0345  0.2795
   83TCq2    C8 1271   1.890   1.651  11.278 -0.5113  0.9351  0.2624
   83TCq2    O4 1272   1.890   1.599  11.387  0.8232  0.3181 -0.1874
   83TCq2    C9 1273   2.326   1.836  11.380 -0.0336  0.3014 -0.3712
   83TCq2    O5 1274   2.427   1.875  11.314  0.4310 -0.4048  0.2141
   83TCq2    O6 1275   2.329   1.773  11.492 -0.4271  0.4403 -0.6356
   83TCq2    H2 1276   2.256   2.026  11.241  0.8802 -0.5802  3.5368
   83TCq2    H3 1277   2.131   1.662  11.396  0.9701 -2.6777 -3.7343
   83TCq2    H4 1278   1.890   1.860  11.098  1.0416  0.0152 -1.9271
   84TCq2    C1 1279   2.708   1.520  10.182 -1.2058  0.5280  0.5058
   84TCq2    O2 1280   2.587   1.519  10.188  0.6082 -0.6239  0.3804
   84TCq2    C2 1281   2.785   1.418  10.261  0.6547 -0.3556  0.2656
   84TCq2    C3 1282   2.892   1.358  10.200 -0.0808 -0.0899  0.0677
   84TCq2    C4 1283   2.979   1.294  10.288 -0.7503 -0.1358  0.7570
   84TCq2    C5 1284   2.955   1.282  10.427 -0.3716  0.1752  0.5309
   84TCq2    C6 1285   2.848   1.346  10.474 -0.1363  0.1633 -0.0367
   84TCq2    C7 1286   2.757   1.417  10.394  0.4898  0.1451  0.1921
   84TCq2    C8 1287   2.818   1.329  10.621  0.1890 -0.4038 -0.3200
   84TCq2    O4 1288   2.732   1.399  10.668 -0.6445 -0.4752  0.0578
   84TCq2    C9 1289   3.089   1.224  10.226  0.3593 -0.1459 -0.7702
   84TCq2    O5 1290   3.156   1.146  10.298  0.1080  0.1298  0.1299
   84TCq2    O6 1291   3.113   1.233  10.101 -0.3613  1.0386 -0.5204
   84TCq2    H2 1292   2.907   1.353  10.092 -2.2809 -1.6187 -0.1492
   84TCq2    H3 1293   3.019   1.221  10.490 -1.1941 -2.1462 -0.8658
   84TCq2    H4 1294   2.669   1.466  10.433 -1.3971 -2.6951 -0.5407
   85MPD2     C 1295   2.834   3.241  16.442 -0.3999 -0.7262  0.0236
   85MPD2    C1 1296   2.758   3.218  16.330  0.2386 -0.6443  0.1577
   85MPD2    C2 1297   2.784   3.289  16.211 -0.1980  0.2332 -0.5732
   85MPD2    C3 1298   2.890   3.380  16.214 -0.0550  0.3334 -0.0492
   85MPD2    C4 1299   2.958   3.408  16.331  0.3528  0.4552  0.5425
   85MPD2    C5 1300   2.934   3.328  16.439  0.0910 -0.2604  0.3853
   85MPD2     H 1301   2.729   3.283  16.118  0.8647  0.3166 -1.1999
   85MPD2    H1 1302   3.039   3.479  16.338 -0.0674  0.9100  0.8406
   85MPD2    H2 1303   2.816   3.192  16.537 -0.4112  0.6554  0.7269
   85MPD2    H3 1304   2.981   3.347  16.534  0.8522  0.2856 -0.0997
   85MPD2     N 1305   2.925   3.449  16.095  0.0604  0.2179 -0.4950
   85MPD2    H5 1306   2.869   3.431  16.013  1.5000  1.0359 -1.6576
   85MPD2    N1 1307   2.654   3.125  16.352 -0.7240  0.0928 -0.2038
   85MPD2    H7 1308   2.662   3.083  16.444 -2.0482 -4.3537 -2.1302
   86TCq2    C1 1309   3.038   3.527  16.090  0.0858  0.4380 -0.2124
   86TCq2    O2 1310   3.145   3.514  16.148 -0.5617 -0.1037  0.7843
   86TCq2    C2 1311   3.029   3.610  15.976  0.2050 -0.0640  0.7656
   86TCq2    C3 1312   2.901   3.643  15.927 -0.4014 -0.6517 -0.0455
   86TCq2    C4 1313   2.895   3.719  15.812 -0.7361 -0.0639  0.0023
   86TCq2    C5 1314   3.001   3.749  15.738  0.3465 -0.3333 -0.7682
   86TCq2    C6 1315   3.124   3.730  15.796  0.4652 -0.0116  0.1506
   86TCq2    C7 1316   3.143   3.657  15.913  0.4761 -0.2535 -0.1140
   86TCq2    C8 1317   3.243   3.781  15.731  0.0218  0.0045 -0.3139
   86TCq2    O4 1318   3.352   3.737  15.759 -0.2095  0.4024 -0.3641
   86TCq2    C9 1319   2.757   3.749  15.761 -0.9057  0.3359 -0.3280
   86TCq2    O5 1320   2.739   3.845  15.687 -0.5831  0.1354 -0.0598
   86TCq2    O6 1321   2.659   3.687  15.814  0.0798 -0.3017 -0.3575
   86TCq2    H2 1322   2.809   3.616  15.977 -0.1653 -0.9342  0.2367
   86TCq2    H3 1323   2.991   3.799  15.642  0.2480 -0.3760 -0.7797
   86TCq2    H4 1324   3.243   3.634  15.948  0.3902 -0.1530  0.2000
   87MPD2     C 1325   0.832   2.408   1.163  0.1815  0.2956 -0.2251
   87MPD2    C1 1326   0.833   2.508   1.256  0.1475  0.0404  0.2664
   87MPD2    C2 1327   0.724   2.596   1.272 -0.0395 -0.4959  0.1137
   87MPD2    C3 1328   0.611   2.580   1.182 -0.4193 -0.1544  0.0056
   87MPD2    C4 1329   0.613   2.478   1.090  0.1871 -0.1229  0.4208
   87MPD2    C5 1330   0.721   2.395   1.080  0.0041 -0.5738  0.2230
   87MPD2     H 1331   0.721   2.674   1.347  0.5956 -1.7668  1.4614
   87MPD2    H1 1332   0.535   2.462   1.017  0.0772 -0.1421  0.5439
   87MPD2    H2 1333   0.919   2.348   1.140  0.0211  1.1403 -3.1482
   87MPD2    H3 1334   0.735   2.314   1.010  0.2236  0.3961 -0.8581
   87MPD2     N 1335   0.494   2.659   1.179  0.1892  0.5321  0.0155
   87MPD2    H5 1336   0.421   2.644   1.110  1.2623 -1.9692 -0.5505
   87MPD2    N1 1337   0.950   2.514   1.341 -0.1119  0.8492  0.9006
   87MPD2    H7 1338   1.021   2.448   1.313 -1.2352  0.4032 -0.9129
   88TCq2    C1 1339   0.981   2.616   1.429  0.7970  0.1168 -0.2835
   88TCq2    O2 1340   0.919   2.712   1.467  0.3626 -0.0869 -0.3213
   88TCq2    C2 1341   1.128   2.626   1.456 -0.1989  0.6778  0.0011
   88TCq2    C3 1342   1.175   2.700   1.561  0.4509 -0.1681  0.5181
   88TCq2    C4 1343   1.304   2.695   1.599 -1.2674 -0.2832 -0.7466
   88TCq2    C5 1344   1.393   2.629   1.525 -0.0352  0.4374  0.1115
   88TCq2    C6 1345   1.353   2.560   1.416  0.6512 -0.0726 -0.3739
   88TCq2    C7 1346   1.218   2.544   1.386  0.1694 -0.3055 -0.0142
   88TCq2    C8 1347   1.445   2.464   1.371 -0.0052 -0.4855  0.0239
   88TCq2    O4 1348   1.560   2.482   1.405 -0.7296  0.0474  0.2127
   88TCq2    C9 1349   1.346   2.771   1.717  0.2694  0.0043  0.2570
   88TCq2    O5 1350   1.255   2.848   1.756 -0.4580 -0.4526  0.0669
   88TCq2    O6 1351   1.466   2.772   1.751 -0.1249 -0.1688 -0.0079
   88TCq2    H2 1352   1.108   2.764   1.617 -0.1725 -0.3321 -0.0507
   88TCq2    H3 1353   1.496   2.648   1.554 -0.4384  0.5165  1.4449
   88TCq2    H4 1354   1.196   2.484   1.298  1.7831 -1.4872  0.3838
   89MPD2     C 1355   1.783   4.640   2.137 -0.6229 -0.2787  0.4094
   89MPD2    C1 1356   1.666   4.707   2.103 -0.4013 -0.7403 -0.5521
   89MPD2    C2 1357   1.669   0.062   1.993 -0.6081 -0.5454  0.1442
   89MPD2    C3 1358   1.789   0.101   1.930 -1.0482 -0.1615 -0.2594
   89MPD2    C4 1359   1.903   0.035   1.973 -0.2705 -0.4093  0.2021
   89MPD2    C5 1360   1.902   4.668   2.078  0.9841  0.3007  0.2379
   89MPD2     H 1361   1.579   0.095   1.942  0.3746 -0.3809 -1.4763
   89MPD2    H1 1362   1.999   0.059   1.929 -0.6266 -0.6574 -0.7324
   89MPD2    H2 1363   1.786   4.569   2.219 -3.3265 -0.4945  0.3315
   89MPD2    H3 1364   1.997   4.624   2.107  0.5439  0.8385  2.4925
   89MPD2     N 1365   1.778   0.193   1.824  0.0439  0.2453  0.2809
   89MPD2    H5 1366   1.684   0.224   1.799 -1.0204 -1.8873  1.6869
   89MPD2    N1 1367   1.547   4.672   2.169  0.3854 -0.3519 -0.1266
   89MPD2    H7 1368   1.468   0.009   2.150 -0.2244 -0.6135  1.5781
   90TCq2    C1 1369   1.883   0.249   1.754 -0.1776  0.3695 -0.1933
   90TCq2    O2 1370   2.004   0.216   1.749 -0.6147 -1.0695 -0.1072
   90TCq2    C2 1371   1.833   0.314   1.631 -0.0449 -0.4627  0.1542
   90TCq2    C3 1372   1.711   0.374   1.645 -0.0258 -0.2868  0.8391
   90TCq2    C4 1373   1.646   0.399   1.525  0.2477  0.0202  0.0525
   90TCq2    C5 1374   1.698   0.363   1.406 -0.4228 -0.3587  0.2336
   90TCq2    C6 1375   1.817   0.303   1.397  0.2538 -0.1038 -0.3312
   90TCq2    C7 1376   1.879   0.270   1.511 -0.2736  0.0631  0.4499
   90TCq2    C8 1377   1.885   0.291   1.268  1.2006 -0.4645 -0.1404
   90TCq2    O4 1378   1.973   0.205   1.259  0.2305 -0.9483  0.5772
   90TCq2    C9 1379   1.530   0.486   1.523  0.3844 -0.0083  0.4761
   90TCq2    O5 1380   1.467   0.487   1.415 -0.8124  0.1351 -1.2077
   90TCq2    O6 1381   1.473   0.500   1.633  0.6553 -0.0985 -0.2601
   90TCq2    H2 1382   1.688   0.424   1.739 -0.2086  0.0932  0.5905
   90TCq2    H3 1383   1.634   0.368   1.319 -0.6721  0.3259  0.4588
   90TCq2    H4 1384   1.980   0.233   1.505 -0.6938 -1.0836  0.5592
   91TMC2    C1 1385   2.984   0.467  16.214  0.2066  0.4799 -0.6852
   91TMC2    C2 1386   3.055   0.540  16.303 -0.0459 -0.1651 -0.1643
   91TMC2    C3 1387   2.977   0.614  16.386 -0.1117 -0.1292 -0.2973
   91TMC2    C4 1388   2.846   0.475  16.200 -0.1675 -0.9131  0.0695
   91TMC2    C5 1389   2.780   0.564  16.278 -0.0064 -0.5540  0.3330
   91TMC2    C6 1390   2.840   0.629  16.380 -0.3658 -0.2941  0.2363
   91TMC2     C 1391   3.058   0.367  16.141 -0.4440 -0.7323 -0.4046
   91TMC2     O 1392   3.176   0.376  16.172 -0.4864 -0.4132 -0.1574
   91TMC2     H 1393   3.162   0.537  16.319 -0.1633 -0.5126  0.5520
   91TMC2    H1 1394   2.800   0.422  16.117 -1.1867 -0.1953  0.1860
   91TMC2    H2 1395   2.784   0.692  16.449  2.3948  1.2984  1.0446
   91TMC2    C7 1396   2.651   0.612  16.240  0.1096  0.5580 -0.2676
   91TMC2    C8 1397   3.037   0.614  16.516  0.1915  0.1464 -0.6469
   91TMC2    O1 1398   2.602   0.699  16.311  0.0787 -0.3871  0.6802
   91TMC2    O2 1399   3.073   0.503  16.554  0.3003 -0.1637 -0.0603
   91TMC2    O5 1400   2.958   0.693  16.591 -0.8172 -0.2577 -0.4340
   91TMC2    H5 1401   2.937   0.777  16.544  0.6093  0.8688  0.9606
   92MPD2     C 1402   2.993   0.137  15.872  0.2977  0.3222 -0.2397
   92MPD2    C1 1403   3.054   0.185  15.983 -1.2577  0.0795  0.5312
   92MPD2    C2 1404   3.179   0.141  16.014  0.3147  0.5675 -0.0979
   92MPD2    C3 1405   3.236   0.034  15.945  1.2495 -0.8606  0.4546
   92MPD2    C4 1406   3.176   4.713  15.828  0.5538 -0.8235 -0.6855
   92MPD2    C5 1407   3.052   0.044  15.793  0.1081 -0.0281  0.6520
   92MPD2     H 1408   3.230   0.172  16.105  1.9343  0.4519 -0.9594
   92MPD2    H1 1409   3.211   4.628  15.772  2.5456 -1.4621  1.5187
   92MPD2    H2 1410   2.894   0.175  15.854  0.4182 -0.0853 -1.7500
   92MPD2    H3 1411   2.989   4.723  15.717  0.4326  0.1716  0.2679
   92MPD2     N 1412   3.347   4.697  16.003  0.3269 -0.7180  0.2636
   92MPD2    H5 1413   3.380   0.001  16.095  0.6421 -1.4436  0.3681
   92MPD2    N1 1414   2.995   0.285  16.056 -0.2560  0.2254  0.1073
   92MPD2    H7 1415   2.900   0.313  16.030 -1.0352 -0.0876  2.6768
   93MPD2     C 1416   0.164   0.046  13.902  0.3998  0.2994  0.1868
   93MPD2    C1 1417   0.173   0.169  13.971  0.4186  0.9770  0.3014
   93MPD2    C2 1418   0.058   0.247  13.975 -0.2862  0.9303  0.1553
   93MPD2    C3 1419   4.667   0.218  13.899  0.0522  0.0466 -0.0226
   93MPD2    C4 1420   4.654   0.096  13.838 -0.0584  0.4637 -0.0950
   93MPD2    C5 1421   0.041   0.011  13.840  0.1176  0.0491  0.0560
   93MPD2     H 1422   0.062   0.340  14.030 -0.4175  0.4103  1.0487
   93MPD2    H1 1423   4.565   0.067  13.784 -0.0216 -1.3421  0.8200
   93MPD2    H2 1424   0.247   4.700  13.895  0.0282 -0.4380  2.8980
   93MPD2    H3 1425   0.036   4.639  13.787  0.7100 -0.1343  0.3183
   93MPD2     N 1426   4.552   0.307  13.894 -0.4357  0.3124 -0.0608
   93MPD2    H5 1427   4.465   0.281  13.849 -0.5355  2.6887 -1.2514
   93MPD2    N1 1428   0.293   0.217  14.028  0.1373 -0.1908 -0.0171
   93MPD2    H7 1429   0.285   0.296  14.091  0.2036 -0.9804  0.9923
   94TCq2    C1 1430   0.416   0.157  14.015 -0.3806 -0.4148 -0.2381
   94TCq2    O2 1431   0.459   0.065  13.945  0.6462 -0.1505  0.0096
   94TCq2    C2 1432   0.513   0.225  14.100  0.2368 -0.1705 -0.6818
   94TCq2    C3 1433   0.461   0.316  14.193 -0.5504 -0.9229  0.2779
   94TCq2    C4 1434   0.530   0.436  14.215 -0.5801 -0.3317 -0.0657
   94TCq2    C5 1435   0.646   0.465  14.149 -0.3226 -0.1045 -0.3676
   94TCq2    C6 1436   0.700   0.365  14.068 -0.4245  0.6624 -0.0911
   94TCq2    C7 1437   0.634   0.246  14.041 -0.5299  0.0511  0.1665
   94TCq2    C8 1438   0.845   0.362  14.033  0.1198 -0.0474 -0.1989
   94TCq2    O4 1439   0.901   0.262  13.994  0.7038  0.2390  0.1288
   94TCq2    C9 1440   0.477   0.541  14.297 -0.8544  0.2225  0.1070
   94TCq2    O5 1441   0.371   0.513  14.361  0.4367  0.3577 -0.5374
   94TCq2    O6 1442   0.525   0.661  14.279  0.3303  0.5460  0.5216
   94TCq2    H2 1443   0.381   0.287  14.259 -2.0174  0.0470 -1.0908
   94TCq2    H3 1444   0.696   0.559  14.167  3.6029 -2.3349  0.3379
   94TCq2    H4 1445   0.650   0.187  13.951 -2.9948  0.4562 -0.5296
   95TMC2    C1 1446   0.596   1.983  16.130  0.0494  0.1702 -0.4658
   95TMC2    C2 1447   0.645   1.888  16.220 -0.0345  0.4354  1.2829
   95TMC2    C3 1448   0.552   1.802  16.268  0.2038  0.4684 -0.4126
   95TMC2    C4 1449   0.468   1.987  16.087  0.3119 -0.3745  0.3191
   95TMC2    C5 1450   0.377   1.898  16.141 -0.4323 -0.1843  0.1791
   95TMC2    C6 1451   0.421   1.808  16.231  0.0538 -0.0959  0.6368
   95TMC2     C 1452   0.698   2.064  16.058  0.6460  0.4773  0.3225
   95TMC2     O 1453   0.666   2.179  16.022  0.4301 -0.2168 -0.2069
   95TMC2     H 1454   0.745   1.867  16.256  0.3683  0.2809  0.0896
   95TMC2    H1 1455   0.437   2.056  16.009 -0.2315  1.0148  1.7555
   95TMC2    H2 1456   0.358   1.732  16.275 -2.1997  1.5829  0.2631
   95TMC2    C7 1457   0.240   1.895  16.093 -0.1570  0.2047 -0.4625
   95TMC2    C8 1458   0.593   1.683  16.345 -0.3778 -0.2610 -0.1850
   95TMC2    O1 1459   0.180   1.789  16.092  0.3194  0.4143  0.1256
   95TMC2    O2 1460   0.526   1.650  16.443  0.5328 -0.8800 -0.2498
   95TMC2    O5 1461   0.693   1.617  16.278 -0.1100  0.5046 -0.1742
   95TMC2    H5 1462   0.722   1.652  16.191  1.2831 -0.1525  0.0417
   96MPD2     C 1463   1.143   2.088  15.806 -0.6219  0.1426 -0.3976
   96MPD2    C1 1464   1.048   2.177  15.807 -0.5920 -0.4387 -0.7536
   96MPD2    C2 1465   0.935   2.151  15.885 -0.3504  0.0339  0.1105
   96MPD2    C3 1466   0.923   2.035  15.961  0.2425 -0.2212 -0.1850
   96MPD2    C4 1467   1.030   1.947  15.967 -0.2283 -0.1586  1.0575
   96MPD2    C5 1468   1.142   1.981  15.893 -0.6211 -0.0327 -0.1540
   96MPD2     H 1469   0.869   2.237  15.896  0.0672  0.0372  2.6016
   96MPD2    H1 1470   1.028   1.861  16.033 -1.1317 -0.6135  0.4416
   96MPD2    H2 1471   1.229   2.101  15.742 -0.5196  0.2194 -0.2438
   96MPD2    H3 1472   1.228   1.916  15.889 -0.0505  0.6719  0.9339
   96MPD2     N 1473   0.813   1.994  16.038  0.6647  0.2078 -0.7631
   96MPD2    H5 1474   0.811   1.899  16.075 -0.0035  0.2330 -0.7284
   96MPD2    N1 1475   1.066   2.292  15.725 -0.3343 -0.8913  0.3476
   96MPD2    H7 1476   1.158   2.297  15.682 -0.7548  0.0195 -0.4198
   97MPD2     C 1477   2.639   0.147   1.019  0.2911  0.1784  0.4022
   97MPD2    C1 1478   2.744   0.124   1.101  0.0037 -0.5390 -0.4442
   97MPD2    C2 1479   2.868   0.102   1.051  0.1153  0.2718  0.9409
   97MPD2    C3 1480   2.894   0.102   0.920 -0.1588 -0.1745  0.5197
   97MPD2    C4 1481   2.784   0.111   0.831 -0.2597 -0.5241  0.4897
   97MPD2    C5 1482   2.659   0.144   0.881  0.8245 -0.2883 -0.0564
   97MPD2     H 1483   2.950   0.079   1.118 -0.7892  0.6182  2.1638
   97MPD2    H1 1484   2.787   0.084   0.726  0.2372 -0.3819  0.4658
   97MPD2    H2 1485   2.545   0.156   1.072  0.7459 -3.9260  1.8716
   97MPD2    H3 1486   2.572   0.158   0.819  0.5889 -2.5556 -0.2492
   97MPD2     N 1487   3.013   0.061   0.857  0.3876 -0.0510 -0.2973
   97MPD2    H5 1488   2.997   0.033   0.761 -2.8693  0.4721  0.0843
   97MPD2    N1 1489   2.719   0.136   1.243 -0.1052 -0.8639  0.1438
   97MPD2    H7 1490   2.621   0.131   1.271 -0.5514 -0.2173 -1.2880
   98TCq2    C1 1491   3.132   0.037   0.923 -0.0045  0.4440 -0.9465
   98TCq2    O2 1492   3.154   0.029   1.041  0.3777 -0.5465  0.1039
   98TCq2    C2 1493   3.248   0.018   0.840 -0.4218  0.5333  0.1543
   98TCq2    C3 1494   3.365   4.708   0.897 -0.5527  0.5042  0.1745
   98TCq2    C4 1495   3.466   4.699   0.811 -0.2662 -1.0223  0.0042
   98TCq2    C5 1496   3.472   0.014   0.681 -0.2739  0.1050  0.5298
   98TCq2    C6 1497   3.352   0.070   0.633  1.0893  1.2114 -0.6193
   98TCq2    C7 1498   3.237   0.073   0.711 -0.5769 -0.7160 -0.6421
   98TCq2    C8 1499   3.334   0.087   0.489 -0.7836  0.2920 -0.2814
   98TCq2    O4 1500   3.409   0.027   0.409 -0.2003  0.5419 -0.7323
   98TCq2    C9 1501   3.589   4.645   0.858 -0.5386 -0.0144 -0.1825
   98TCq2    O5 1502   3.610   4.647   0.982 -0.3211  0.4483  0.7734
   98TCq2    O6 1503   3.648   4.568   0.777  0.4660  0.4312  0.3500
   98TCq2    H2 1504   3.375   4.647   0.985  0.0835  1.3903  0.7138
   98TCq2    H3 1505   3.565   4.719   0.629  0.0285  1.6014  0.5369
   98TCq2    H4 1506   3.144   0.120   0.682 -0.2670  1.2429  1.4943
   99MPD2     C 1507   1.638   1.749   2.008  0.1927 -0.4140 -0.3665
   99MPD2    C1 1508   1.536   1.825   1.960  0.6413 -0.3122  0.0396
   99MPD2    C2 1509   1.479   1.789   1.837 -0.3654  0.0212 -0.1749
   99MPD2    C3 1510   1.514   1.659   1.777  0.0052  0.3377  0.5421
   99MPD2    C4 1511   1.621   1.589   1.827 -0.0706 -0.6535  0.5117
   99MPD2    C5 1512   1.683   1.634   1.941 -0.0914 -0.8595  0.3463
   99MPD2     H 1513   1.400   1.844   1.788 -0.8859 -0.5236  0.0614
   99MPD2    H1 1514   1.657   1.495   1.787 -1.0532 -0.3258 -1.1141
   99MPD2    H2 1515   1.694   1.783   2.094 -0.6311 -0.1887  0.0880
   99MPD2    H3 1516   1.763   1.575   1.987  2.2169  0.1760 -2.3292
   99MPD2     N 1517   1.434   1.617   1.665 -0.3239 -0.2602 -0.3360
   99MPD2    H5 1518   1.370   1.683   1.622 -0.4707 -0.4536 -0.4099
   99MPD2    N1 1519   1.493   1.951   2.010 -0.1030 -0.1106 -0.3332
   99MPD2    H7 1520   1.427   2.007   1.957  0.3197 -1.0740 -1.8784
  100TCq2    C1 1521   1.541   2.006   2.124 -1.0039  0.4256 -0.2360
  100TCq2    O2 1522   1.621   1.963   2.202  0.4856  0.3533  0.4094
  100TCq2    C2 1523   1.492   2.145   2.137 -0.0967  0.1006 -0.5149
  100TCq2    C3 1524   1.584   2.245   2.166 -0.6535 -0.2992 -0.2267
  100TCq2    C4 1525   1.537   2.371   2.173 -0.7332 -0.4625  0.3004
  100TCq2    C5 1526   1.403   2.405   2.148  0.1318 -0.1069  0.6583
  100TCq2    C6 1527   1.318   2.298   2.113 -0.0755 -0.1674  0.6183
  100TCq2    C7 1528   1.360   2.168   2.105  0.0865 -0.6444 -0.1934
  100TCq2    C8 1529   1.172   2.323   2.125  0.4019 -0.1418  0.7801
  100TCq2    O4 1530   1.134   2.411   2.202 -0.1700 -0.4790  0.3024
  100TCq2    C9 1531   1.628   2.472   2.197  0.1586  0.2871 -0.1622
  100TCq2    O5 1532   1.576   2.586   2.180  0.0942 -0.0154  0.2285
  100TCq2    O6 1533   1.750   2.450   2.217 -0.2770  0.5487 -0.1465
  100TCq2    H2 1534   1.686   2.230   2.197 -1.3952 -0.7381  1.9821
  100TCq2    H3 1535   1.368   2.507   2.143  1.5109  0.3049 -0.4766
  100TCq2    H4 1536   1.293   2.083   2.097  0.4327 -0.9222 -0.1226
  101MPD2     C 1537   2.181   2.369  12.954  0.5089  0.2719 -0.3237
  101MPD2    C1 1538   2.117   2.451  13.049 -0.2940  0.3058 -0.3672
  101MPD2    C2 1539   2.040   2.387  13.144  0.0006  0.0807  0.3651
  101MPD2    C3 1540   2.031   2.250  13.147  0.2605 -0.1529  0.4839
  101MPD2    C4 1541   2.084   2.172  13.046 -0.0744  0.3523  0.0798
  101MPD2    C5 1542   2.166   2.236  12.950 -0.2828 -0.6119 -0.2323
  101MPD2     H 1543   1.992   2.441  13.225 -1.4795 -0.5557 -0.0945
  101MPD2    H1 1544   2.069   2.065  13.034 -1.2568  0.8542 -3.1172
  101MPD2    H2 1545   2.246   2.415  12.880  1.1412 -1.1045 -0.6218
  101MPD2    H3 1546   2.209   2.178  12.868 -2.5887 -2.1410 -0.3690
  101MPD2     N 1547   1.951   2.199  13.252  0.0707 -0.3135  0.5469
  101MPD2    H5 1548   1.916   2.260  13.324 -1.0951 -0.8217  0.4089
  101MPD2    N1 1549   2.137   2.592  13.032  0.4658  0.1027 -0.4548
  101MPD2    H7 1550   2.189   2.630  12.954 -0.0826 -0.5655 -1.1402
  102TCq2    C1 1551   2.322   3.021  12.861  0.5958  0.3656 -0.1975
  102TCq2    O2 1552   2.388   2.928  12.815 -0.0229 -0.4653  0.0510
  102TCq2    C2 1553   2.224   2.987  12.971  0.0241 -0.0025  0.2166
  102TCq2    C3 1554   2.147   3.087  13.024  0.2942  0.2154 -0.3531
  102TCq2    C4 1555   2.044   3.044  13.106 -0.2486 -0.3286 -0.7289
  102TCq2    C5 1556   2.028   2.914  13.136 -0.5990  0.1717 -0.1559
  102TCq2    C6 1557   2.114   2.817  13.088 -0.0442  0.8612 -0.0855
  102TCq2    C7 1558   2.215   2.851  13.002 -0.1153  0.2226 -0.9316
  102TCq2    C8 1559   2.091   2.679  13.126 -0.3034  0.0412  0.3059
  102TCq2    O4 1560   2.042   2.655  13.238 -0.1560  0.2146 -0.5341
  102TCq2    C9 1561   1.959   3.149  13.159  0.2275 -0.9242  0.4170
  102TCq2    O5 1562   1.974   3.260  13.106 -0.4034  0.3036 -0.0694
  102TCq2    O6 1563   1.865   3.109  13.234  0.0477  0.1444 -0.1433
  102TCq2    H2 1564   2.165   3.194  13.010 -0.2339  0.0745 -2.1205
  102TCq2    H3 1565   1.946   2.896  13.204  1.6974 -1.3967  2.2048
  102TCq2    H4 1566   2.288   2.782  12.960 -0.3882 -0.5874 -0.0679
  103TMC2    C1 1567   0.310   2.830  12.145 -0.7218  0.1308 -0.1107
  103TMC2    C2 1568   0.320   2.930  12.057  0.2563  0.6943 -0.0737
  103TMC2    C3 1569   0.329   3.059  12.105  0.3676  0.2697 -1.0571
  103TMC2    C4 1570   0.287   2.852  12.274  0.1252  0.3302 -0.5573
  103TMC2    C5 1571   0.310   2.977  12.322 -0.3221  0.2488  0.2629
  103TMC2    C6 1572   0.318   3.082  12.237 -0.0166  0.6038 -0.2567
  103TMC2     C 1573   0.261   2.710  12.091  0.3674 -0.0673 -0.4432
  103TMC2     O 1574   0.199   2.717  11.987 -0.3214  0.1731 -0.2718
  103TMC2     H 1575   0.338   2.906  11.953 -0.3806  1.2228 -0.3013
  103TMC2    H1 1576   0.254   2.770  12.338  1.9434  0.2825  0.2937
  103TMC2    H2 1577   0.340   3.181  12.275 -0.3460  1.2131 -1.6663
  103TMC2    C7 1578   0.363   2.988  12.454 -0.2029 -0.3116 -0.3831
  103TMC2    C8 1579   0.269   3.160  12.015 -0.2583 -0.6079  0.4946
  103TMC2    O1 1580   0.415   2.890  12.497 -1.0486  0.3950 -0.4117
  103TMC2    O2 1581   0.298   3.160  11.896 -0.0205 -0.1405 -0.4514
  103TMC2    O5 1582   0.149   3.195  12.075  0.4153  0.4779 -0.5112
  103TMC2    H5 1583   0.151   3.196  12.173 -2.9897  1.7299 -0.4400
  104MPD2     C 1584   0.288   2.366  12.230  0.0431  0.0472 -0.3382
  104MPD2    C1 1585   0.241   2.462  12.145 -0.2083 -0.0269  0.5608
  104MPD2    C2 1586   0.147   2.411  12.056  1.2833 -0.1511 -0.3895
  104MPD2    C3 1587   0.090   2.286  12.066  0.9955 -0.4802 -0.5596
  104MPD2    C4 1588   0.142   2.199  12.153 -0.7667 -0.6565 -0.6717
  104MPD2    C5 1589   0.234   2.243  12.236 -0.0945 -0.6757  0.1567
  104MPD2     H 1590   0.101   2.476  11.983 -2.1543 -0.1775  1.7597
  104MPD2    H1 1591   0.094   2.105  12.179  0.0422 -0.5900  1.0677
  104MPD2    H2 1592   0.365   2.391  12.301 -0.1510  1.7557 -0.7100
  104MPD2    H3 1593   0.268   2.183  12.320 -0.2936  0.0269  0.7386
  104MPD2     N 1594   4.701   2.256  11.990 -0.2335  0.0071  0.5167
  104MPD2    H5 1595   4.657   2.336  11.946 -1.0384 -1.0132 -0.5090
  104MPD2    N1 1596   0.277   2.599  12.173 -0.4383  0.3201  0.3081
  104MPD2    H7 1597   0.333   2.609  12.257 -0.3071  3.5683 -0.1327
  105MPD2     C 1598   2.137   2.582   0.560  0.1447  0.0808 -0.2859
  105MPD2    C1 1599   2.065   2.469   0.545 -0.0027 -0.1783 -0.0752
  105MPD2    C2 1600   2.051   2.379   0.654  0.6515 -0.1271 -0.4589
  105MPD2    C3 1601   2.113   2.411   0.778  0.1616 -0.3172 -0.0771
  105MPD2    C4 1602   2.187   2.529   0.788  0.6942 -0.2826  0.4560
  105MPD2    C5 1603   2.204   2.611   0.678 -0.1715 -0.2629  0.7811
  105MPD2     H 1604   2.001   2.284   0.645 -2.1571  1.3296 -0.3871
  105MPD2    H1 1605   2.219   2.559   0.887  1.1766  0.2763  0.1250
  105MPD2    H2 1606   2.151   2.648   0.475  0.0722  1.5699  0.8700
  105MPD2    H3 1607   2.247   2.710   0.684 -2.3349  0.8194 -1.5903
  105MPD2     N 1608   2.108   2.318   0.885  0.2652  0.1423  0.3129
  105MPD2    H5 1609   2.052   2.235   0.869  0.5382  0.2398 -1.1693
  105MPD2    N1 1610   2.007   2.433   0.419  0.5473 -0.3599  0.7893
  105MPD2    H7 1611   2.006   2.508   0.351  0.6991 -1.2807 -0.2265
  106TCq2    C1 1612   2.191   2.314   0.990 -0.7011 -0.3613  1.2299
  106TCq2    O2 1613   2.301   2.365   0.989  0.3844 -0.0129 -0.0013
  106TCq2    C2 1614   2.172   2.197   1.077  0.2746  0.1396  0.3628
  106TCq2    C3 1615   2.274   2.103   1.090 -0.1732  0.5276  0.1426
  106TCq2    C4 1616   2.247   1.976   1.134 -0.5448 -0.9170  0.9539
  106TCq2    C5 1617   2.124   1.948   1.176  0.0162 -0.0471  0.1338
  106TCq2    C6 1618   2.022   2.043   1.172 -0.0406  0.4984  0.1751
  106TCq2    C7 1619   2.039   2.173   1.118 -0.5025  0.6128  0.1431
  106TCq2    C8 1620   1.885   1.990   1.199 -0.0312  0.4621  0.4382
  106TCq2    O4 1621   1.866   1.866   1.192 -0.3693 -0.2539  0.4196
  106TCq2    C9 1622   2.342   1.871   1.119 -0.1820 -0.2493 -0.3429
  106TCq2    O5 1623   2.314   1.760   1.168 -0.2598 -0.2280  0.3956
  106TCq2    O6 1624   2.463   1.917   1.108  0.3219 -0.3771  0.3869
  106TCq2    H2 1625   2.373   2.119   1.047 -0.0665 -0.9981 -0.1849
  106TCq2    H3 1626   2.105   1.844   1.197  1.8904 -0.5941 -0.8331
  106TCq2    H4 1627   1.959   2.240   1.089 -1.5313 -0.5938  0.2234
  107TMC2    C1 1628   2.605   1.514  11.541 -0.0356  0.1557  0.1229
  107TMC2    C2 1629   2.604   1.643  11.489  0.4831  0.3679 -0.2801
  107TMC2    C3 1630   2.686   1.666  11.391  0.3625 -0.3424 -0.5643
  107TMC2    C4 1631   2.665   1.412  11.472  0.6962  0.1589 -0.0104
  107TMC2    C5 1632   2.739   1.451  11.365 -0.3278  0.3281 -0.2992
  107TMC2    C6 1633   2.755   1.578  11.322  0.0530 -0.1920  0.1279
  107TMC2     C 1634   2.556   1.498  11.675 -0.0879 -0.3001 -0.1287
  107TMC2     O 1635   2.467   1.581  11.703 -0.2585  0.1937 -0.2203
  107TMC2     H 1636   2.573   1.717  11.561 -1.0060  0.9229 -1.5059
  107TMC2    H1 1637   2.664   1.312  11.514  1.7479  0.0631 -0.2339
  107TMC2    H2 1638   2.806   1.613  11.233  1.5915 -2.8444 -0.0260
  107TMC2    C7 1639   2.809   1.343  11.293 -0.4010  0.5359 -0.1424
  107TMC2    C8 1640   2.744   1.795  11.378 -0.1989  0.2005 -0.5475
  107TMC2    O1 1641   2.831   1.247  11.365  0.1303  0.1776  0.2542
  107TMC2    O2 1642   2.863   1.811  11.353  0.5372 -0.2021  0.1108
  107TMC2    O5 1643   2.665   1.897  11.417 -0.0314 -0.6810  0.6629
  107TMC2    H5 1644   2.571   1.877  11.403 -0.2607  2.5392 -2.5434
  108MPD2     C 1645   2.714   1.309  11.958 -0.3730 -0.1211 -0.3234
  108MPD2    C1 1646   2.626   1.401  11.898  0.1243 -0.2019  0.0386
  108MPD2    C2 1647   2.544   1.473  11.983 -0.9357 -0.4390 -0.0994
  108MPD2    C3 1648   2.550   1.460  12.123  0.0175 -0.4279  0.6770
  108MPD2    C4 1649   2.649   1.385  12.182  0.0166  0.3990  0.4858
  108MPD2    C5 1650   2.729   1.305  12.101 -0.3181 -0.4026  0.0677
  108MPD2     H 1651   2.480   1.542  11.930 -0.3545  0.1930  0.0245
  108MPD2    H1 1652   2.666   1.378  12.289  0.4633 -2.4532  0.2311
  108MPD2    H2 1653   2.790   1.260  11.899  1.0747  1.1666  0.4549
  108MPD2    H3 1654   2.805   1.236  12.135 -1.2167 -0.5315  1.7647
  108MPD2     N 1655   2.453   1.529  12.191 -0.1074  0.1097 -0.1032
  108MPD2    H5 1656   2.376   1.559  12.132 -1.0432  0.6350  1.3955
  108MPD2    N1 1657   2.634   1.414  11.757 -0.5325 -0.4280 -0.3406
  108MPD2    H7 1658   2.709   1.362  11.714  0.9605 -0.7464  2.6504
  109MPD2     C 1659   3.393   4.447   2.074  0.1173  0.0486  0.1204
  109MPD2    C1 1660   3.306   4.542   2.016  0.2274 -0.2160  0.1558
  109MPD2    C2 1661   3.304   4.676   2.061  0.3025 -0.2437 -0.3061
  109MPD2    C3 1662   3.380   4.718   2.174 -0.9541 -0.3155  0.0668
  109MPD2    C4 1663   3.463   4.623   2.231  0.2919 -0.3461 -0.1314
  109MPD2    C5 1664   3.467   4.491   2.182 -0.0611  0.0129 -0.4792
  109MPD2     H 1665   3.229   0.026   2.035  0.4199  0.1428  0.4441
  109MPD2    H1 1666   3.530   4.655   2.310 -0.2581 -1.3560  0.7339
  109MPD2    H2 1667   3.412   4.350   2.030  0.4219 -1.2222  3.0581
  109MPD2    H3 1668   3.530   4.414   2.224 -1.1594 -0.2265  0.7311
  109MPD2     N 1669   3.360   0.129   2.220  0.2179 -0.2628 -0.0190
  109MPD2    H5 1670   3.273   0.175   2.194  1.0020  1.2521  0.0322
  109MPD2    N1 1671   3.239   4.483   1.902  0.2335 -0.8812  0.1278
  109MPD2    H7 1672   3.265   4.387   1.884 -1.3554 -1.3112  0.1502
  110TCq2    C1 1673   3.405   0.179   2.336 -0.4402 -0.2289 -0.2188
  110TCq2    O2 1674   3.499   0.137   2.409  0.1883  0.0969 -0.1337
  110TCq2    C2 1675   3.354   0.314   2.373 -1.0562 -0.1298  0.0295
  110TCq2    C3 1676   3.337   0.326   2.505  0.0417 -0.9565 -1.4068
  110TCq2    C4 1677   3.258   0.424   2.563  0.2679 -0.5026  0.3728
  110TCq2    C5 1678   3.196   0.514   2.477  0.4164  0.3416 -0.3471
  110TCq2    C6 1679   3.208   0.497   2.343  0.8345  0.2320  0.0602
  110TCq2    C7 1680   3.286   0.401   2.283  0.3099 -0.5716  0.0258
  110TCq2    C8 1681   3.097   0.551   2.264  0.1472  0.6635 -0.0844
  110TCq2    O4 1682   3.069   0.667   2.293 -0.0304 -0.4253  0.5869
  110TCq2    C9 1683   3.237   0.439   2.707 -0.0593  1.0111 -0.1824
  110TCq2    O5 1684   3.154   0.523   2.749 -0.5223  0.5697 -0.1238
  110TCq2    O6 1685   3.310   0.362   2.777 -1.3367  0.4121 -0.1961
  110TCq2    H2 1686   3.378   0.261   2.581 -0.0417 -0.8145 -1.2409
  110TCq2    H3 1687   3.128   0.590   2.514 -2.2829 -3.2000  1.8418
  110TCq2    H4 1688   3.291   0.394   2.175 -0.5423 -2.5862  0.1051
  111TMC2    C1 1689   2.256   3.866  12.229  0.4143 -0.1899 -0.1122
  111TMC2    C2 1690   2.162   3.807  12.318  0.6022  0.3543 -0.9459
  111TMC2    C3 1691   2.211   3.762  12.433  0.1934 -0.0335 -0.7636
  111TMC2    C4 1692   2.391   3.855  12.251 -0.3776  0.0069  0.2151
  111TMC2    C5 1693   2.432   3.791  12.367  0.3354  1.0504  0.2249
  111TMC2    C6 1694   2.345   3.749  12.466  0.3398 -0.0635 -0.0561
  111TMC2     C 1695   2.213   3.921  12.101 -0.8695 -0.0484  0.3435
  111TMC2     O 1696   2.305   3.949  12.028 -0.3934 -0.3449 -0.4337
  111TMC2     H 1697   2.055   3.817  12.306  0.5597  0.6606 -0.2968
  111TMC2    H1 1698   2.463   3.892  12.180  0.2979 -2.4530 -0.3725
  111TMC2    H2 1699   2.374   3.693  12.554  0.5283 -0.0750 -0.1254
  111TMC2    C7 1700   2.564   3.739  12.375 -0.0806 -0.5714 -0.2483
  111TMC2    C8 1701   2.117   3.687  12.511  0.6145  0.5625  0.1369
  111TMC2    O1 1702   2.588   3.657  12.463 -0.0216 -0.2169  0.3221
  111TMC2    O2 1703   2.019   3.627  12.475  0.0890  0.0696  0.0137
  111TMC2    O5 1704   2.166   3.688  12.635  0.0706  0.2055 -0.1988
  111TMC2    H5 1705   2.225   3.763  12.659 -1.1041  1.2289 -0.5141
  112MPD2     C 1706   1.861   4.059  11.768  0.5135 -0.6039 -0.4985
  112MPD2    C1 1707   1.992   4.028  11.751  0.4966  0.6789  0.1998
  112MPD2    C2 1708   2.061   3.973  11.857 -0.3705  0.0538 -0.4671
  112MPD2    C3 1709   2.005   3.979  11.985 -0.7173 -0.1354  0.7406
  112MPD2    C4 1710   1.878   4.029  12.001  0.3927  0.1576 -0.0648
  112MPD2    C5 1711   1.805   4.056  11.892  0.1042  0.1277 -0.0406
  112MPD2     H 1712   2.162   3.935  11.847  0.1701  1.0323  1.3760
  112MPD2    H1 1713   1.822   4.017  12.093  0.6163  2.5559  0.3803
  112MPD2    H2 1714   1.794   4.089  11.688 -0.5627 -0.0347  0.6187
  112MPD2    H3 1715   1.700   4.081  11.906  0.0538  0.6955 -1.4238
  112MPD2     N 1716   2.078   3.946  12.101  0.1126  0.2316 -0.2568
  112MPD2    H5 1717   2.021   3.947  12.186 -2.8153  0.6675 -2.2110
  112MPD2    N1 1718   2.061   4.023  11.623 -0.4244  0.1970 -0.5414
  112MPD2    H7 1719   2.160   3.999  11.623 -0.4938 -0.1000 -3.1752
  113MPD2     C 1720   0.549   1.674   1.177  0.0361  0.2648  0.7317
  113MPD2    C1 1721   0.488   1.789   1.124 -1.0446  1.0107 -0.1529
  113MPD2    C2 1722   0.392   1.771   1.024 -0.0054 -0.5093  0.3546
  113MPD2    C3 1723   0.334   1.647   0.989 -0.0839  0.5042  0.6955
  113MPD2    C4 1724   0.397   1.536   1.042  0.4017 -1.0631 -0.4503
  113MPD2    C5 1725   0.505   1.552   1.130 -0.6429 -0.0695  0.2214
  113MPD2     H 1726   0.344   1.865   1.000 -1.2478 -1.2769 -0.1358
  113MPD2    H1 1727   0.354   1.437   1.033  1.3870 -1.3907 -1.5070
  113MPD2    H2 1728   0.631   1.680   1.248  0.2054 -0.7496  0.6259
  113MPD2    H3 1729   0.555   1.466   1.172 -0.6590  1.1148  2.6641
  113MPD2     N 1730   0.216   1.631   0.906 -0.2435  0.1894  0.0933
  113MPD2    H5 1731   0.167   1.543   0.891  0.1245  0.1130 -0.6526
  113MPD2    N1 1732   0.511   1.922   1.167  0.9644  0.4080 -0.6500
  113MPD2    H7 1733   0.440   1.988   1.138  0.4291 -0.3421 -1.0347
  114TCq2    C1 1734   0.153   1.732   0.836  0.0960 -0.4368 -0.5284
  114TCq2    O2 1735   0.195   1.845   0.810 -0.4335  0.7364 -0.0538
  114TCq2    C2 1736   0.017   1.705   0.782 -0.2257 -0.4119  0.0805
  114TCq2    C3 1737   4.706   1.778   0.674 -0.2946 -0.5623 -0.0720
  114TCq2    C4 1738   4.586   1.751   0.620  0.1650 -0.2242 -0.2482
  114TCq2    C5 1739   4.510   1.647   0.668  0.0751  0.4427  0.0781
  114TCq2    C6 1740   4.551   1.566   0.767  0.3708  0.2522  0.3238
  114TCq2    C7 1741   4.675   1.597   0.825  0.1003  0.4640  0.5488
  114TCq2    C8 1742   4.455   1.476   0.825 -0.2518  0.2100  0.6801
  114TCq2    O4 1743   4.348   1.473   0.762  0.1419  0.0014 -0.5569
  114TCq2    C9 1744   4.523   1.839   0.527  0.2683  0.2713 -0.0942
  114TCq2    O5 1745   4.590   1.938   0.494  0.6925 -0.3491 -0.0780
  114TCq2    O6 1746   4.422   1.795   0.460  0.4699 -0.1628 -0.2848
  114TCq2    H2 1747   0.037   1.868   0.648 -2.6310  0.3585 -1.6865
  114TCq2    H3 1748   4.407   1.648   0.635  0.4578  1.2930 -1.1320
  114TCq2    H4 1749   4.711   1.528   0.901  1.3069 -0.5342 -0.9230
  115TMC2    C1 1750   0.939   4.094   0.506  0.4720 -0.5519 -0.2474
  115TMC2    C2 1751   1.058   4.102   0.448 -0.4116 -0.1842 -0.4329
  115TMC2    C3 1752   1.107   4.224   0.416  0.4258  0.0578 -0.2017
  115TMC2    C4 1753   0.867   4.202   0.564  0.2362 -0.0975  0.0929
  115TMC2    C5 1754   0.920   4.326   0.533 -0.0089  0.0196  0.3660
  115TMC2    C6 1755   1.035   4.333   0.455  0.0708 -0.1708  0.1938
  115TMC2     C 1756   0.856   3.986   0.450  0.4226  0.1296 -0.1381
  115TMC2     O 1757   0.900   3.923   0.355 -0.3464  0.1791 -0.3168
  115TMC2     H 1758   1.119   4.017   0.417  0.9980  1.1269 -1.2630
  115TMC2    H1 1759   0.771   4.196   0.615  0.8679 -0.9233  1.1810
  115TMC2    H2 1760   1.075   4.431   0.435 -2.3941  0.6958 -0.4738
  115TMC2    C7 1761   0.823   4.433   0.515 -0.8464 -0.2423 -1.6023
  115TMC2    C8 1762   1.212   4.235   0.307 -0.0458 -0.7108  0.2350
  115TMC2    O1 1763   0.729   4.421   0.584  0.3434 -0.3006  0.9972
  115TMC2    O2 1764   1.311   4.161   0.306  0.0945 -0.7853  0.1645
  115TMC2    O5 1765   1.205   4.364   0.264 -0.1585  0.0426  0.5701
  115TMC2    H5 1766   1.117   4.375   0.221  0.2373 -0.7579 -0.4533
  116MPD2     C 1767   0.397   3.872   0.241  0.5856 -0.0912  0.3554
  116MPD2    C1 1768   0.517   3.797   0.234  0.8170  0.4373  0.9761
  116MPD2    C2 1769   0.622   3.838   0.319  0.0188 -0.2726 -0.7221
  116MPD2    C3 1770   0.613   3.955   0.399  0.3798  1.0179 -0.3728
  116MPD2    C4 1771   0.493   4.011   0.405 -0.6166 -0.0390 -0.1004
  116MPD2    C5 1772   0.385   3.973   0.328  0.3508  0.0467 -0.7024
  116MPD2     H 1773   0.710   3.775   0.320 -0.6065 -1.1326 -0.5745
  116MPD2    H1 1774   0.491   4.096   0.472  0.5301 -0.8353  0.9447
  116MPD2    H2 1775   0.315   3.853   0.173  0.3798 -1.3525  0.9618
  116MPD2    H3 1776   0.291   4.026   0.341  1.3604  1.7889 -0.4482
  116MPD2     N 1777   0.717   4.011   0.474 -0.0176 -0.2993 -0.3279
  116MPD2    H5 1778   0.692   4.080   0.544  1.8638  0.0121  0.0485
  116MPD2    N1 1779   0.529   3.695   0.136 -0.4516  0.4717  0.3865
  116MPD2    H7 1780   0.444   3.649   0.106  0.2088  0.0235 -0.8094
  117TMC2    C1 1781   4.624   0.752  14.308 -0.3413  0.0322 -0.6999
  117TMC2    C2 1782   4.664   0.640  14.380  0.6742 -0.0638  0.1364
  117TMC2    C3 1783   0.050   0.562  14.327  0.3669  0.4166  0.2932
  117TMC2    C4 1784   4.704   0.804  14.207  0.2445  0.6540  0.0205
  117TMC2    C5 1785   0.085   0.725  14.163  0.1620  0.0415  0.0790
  117TMC2    C6 1786   0.121   0.607  14.218 -0.6310 -0.4424 -0.4002
  117TMC2     C 1787   4.479   0.782  14.310 -0.5081  0.2115  0.2073
  117TMC2     O 1788   4.410   0.713  14.381  0.2150 -0.2215  0.0324
  117TMC2     H 1789   4.598   0.590  14.450  1.9084 -0.9550  0.6639
  117TMC2    H1 1790   4.680   0.893  14.151 -0.6510  1.1589  1.2089
  117TMC2    H2 1791   0.212   0.559  14.185 -1.1964 -2.4271  0.9545
  117TMC2    C7 1792   0.138   0.753  14.031 -0.1115 -0.0474  0.1517
  117TMC2    C8 1793   0.049   0.420  14.342 -0.2176  0.3783 -0.0475
  117TMC2    O1 1794   0.134   0.872  13.996 -0.2431 -0.3796 -0.4619
  117TMC2    O2 1795   4.665   0.360  14.346  0.3054  0.2966  0.0481
  117TMC2    O5 1796   0.166   0.365  14.310 -0.2767  0.2667 -0.2770
  117TMC2    H5 1797   0.234   0.434  14.329  0.3315 -0.4438  0.1410
  118MPD2     C 1798   0.173   0.521  13.748 -0.1490 -0.1335  1.0964
  118MPD2    C1 1799   0.188   0.640  13.812 -0.4831  0.4836 -0.0536
  118MPD2    C2 1800   0.259   0.743  13.759 -0.2345 -0.6533  0.0136
  118MPD2    C3 1801   0.324   0.723  13.637 -0.0590  0.4435  0.0862
  118MPD2    C4 1802   0.302   0.609  13.563  0.3536 -0.6934  0.1187
  118MPD2    C5 1803   0.227   0.512  13.620  0.0338  0.4436  0.2985
  118MPD2     H 1804   0.269   0.830  13.823  1.1582 -3.2097  3.2713
  118MPD2    H1 1805   0.353   0.586  13.470 -0.3540 -0.9839 -0.1884
  118MPD2    H2 1806   0.115   0.439  13.788 -1.5373  0.2866 -0.1001
  118MPD2    H3 1807   0.218   0.420  13.563 -0.3678 -0.3033  1.5832
  118MPD2     N 1808   0.414   0.816  13.583  0.2078  0.0849 -0.1297
  118MPD2    H5 1809   0.460   0.777  13.502 -1.3901  1.1602 -1.5492
  118MPD2    N1 1810   0.132   0.646  13.942 -0.1477  0.2256 -0.2907
  118MPD2    H7 1811   0.085   0.566  13.983 -0.4492  1.8966  2.6472
  119MPD2     C 1812   2.880   2.703  13.401 -0.1648 -0.2585  0.2731
  119MPD2    C1 1813   2.887   2.586  13.478  0.3064 -0.2846 -0.9951
  119MPD2    C2 1814   2.833   2.466  13.431 -0.1836  0.3403  0.0341
  119MPD2    C3 1815   2.759   2.470  13.315  0.2255  0.2996  0.6153
  119MPD2    C4 1816   2.757   2.582  13.243 -0.0339  0.1854 -0.0514
  119MPD2    C5 1817   2.830   2.696  13.276 -0.0140 -0.1782  0.8664
  119MPD2     H 1818   2.852   2.373  13.484 -1.1373 -0.1138 -0.4200
  119MPD2    H1 1819   2.705   2.599  13.149 -0.8431  3.1551  0.9172
  119MPD2    H2 1820   2.935   2.791  13.433 -2.6855  0.8198  1.6594
  119MPD2    H3 1821   2.829   2.776  13.202  0.7820  0.3939  1.4650
  119MPD2     N 1822   2.699   2.353  13.267  0.7038  1.1671 -0.2954
  119MPD2    H5 1823   2.663   2.348  13.172  2.4446 -1.3421 -0.8326
  119MPD2    N1 1824   2.968   2.597  13.592 -0.3991 -0.2941  1.0962
  119MPD2    H7 1825   3.024   2.682  13.590 -1.5335  0.4308 -1.1651
  120TCq2    C1 1826   2.671   2.243  13.347 -0.1437 -0.3694 -0.2067
  120TCq2    O2 1827   2.660   2.247  13.472 -0.1692 -0.1320 -0.0348
  120TCq2    C2 1828   2.591   2.143  13.279 -0.3566 -0.2913  0.1844
  120TCq2    C3 1829   2.611   2.130  13.149  0.2907  0.3711 -0.3064
  120TCq2    C4 1830   2.510   2.065  13.082  0.3561 -0.3978  0.4347
  120TCq2    C5 1831   2.403   2.005  13.141 -0.4473 -0.0463  0.2731
  120TCq2    C6 1832   2.383   2.029  13.280 -0.0316  0.5921 -0.6203
  120TCq2    C7 1833   2.479   2.098  13.346  0.2301 -0.5177  0.0923
  120TCq2    C8 1834   2.284   1.951  13.348 -0.2800  0.5125 -0.2438
  120TCq2    O4 1835   2.223   1.871  13.277  0.4356  0.0473  0.4604
  120TCq2    C9 1836   2.520   2.052  12.939  0.1911 -0.4345  0.4757
  120TCq2    O5 1837   2.582   2.146  12.885  0.2031  0.3974  0.0008
  120TCq2    O6 1838   2.460   1.951  12.894 -0.0296  0.3799  0.4764
  120TCq2    H2 1839   2.693   2.175  13.093  0.7498 -0.5457 -0.3593
  120TCq2    H3 1840   2.334   1.941  13.086  1.9364 -0.2212 -2.5316
  120TCq2    H4 1841   2.468   2.144  13.444  0.5105 -0.7281  0.2234
  121TMC2    C1 1842   4.137   3.726  14.221 -0.1338  0.5022  0.0620
  121TMC2    C2 1843   4.211   3.617  14.263  0.7476 -0.1258 -0.0813
  121TMC2    C3 1844   4.145   3.492  14.251 -0.1291  0.1083 -0.2986
  121TMC2    C4 1845   4.007   3.715  14.170 -0.6431  0.3195  0.2086
  121TMC2    C5 1846   3.946   3.595  14.167  0.3356 -0.0700 -0.5739
  121TMC2    C6 1847   4.010   3.487  14.216 -0.7136  0.7098  0.1818
  121TMC2     C 1848   4.205   3.855  14.208  0.5957 -0.2713 -0.1414
  121TMC2     O 1849   4.238   3.909  14.310  0.4213 -0.2730  0.2785
  121TMC2     H 1850   4.314   3.619  14.297  1.3196  1.9595 -1.9527
  121TMC2    H1 1851   3.951   3.800  14.133  0.0311  1.1399  1.0635
  121TMC2    H2 1852   3.954   3.394  14.220  1.5346 -0.6418  0.0499
  121TMC2    C7 1853   3.799   3.584  14.171  0.0335  0.3318 -0.6660
  121TMC2    C8 1854   4.234   3.376  14.263 -0.5517 -0.4531 -0.2728
  121TMC2    O1 1855   3.754   3.483  14.221 -0.1005 -0.1789  0.0801
  121TMC2    O2 1856   4.355   3.400  14.251 -0.4158  0.2798 -0.2454
  121TMC2    O5 1857   4.172   3.267  14.217 -0.0955 -0.2039 -0.3986
  121TMC2    H5 1858   4.090   3.257  14.269  0.6180 -1.6727  0.4246
  122MPD2     C 1859   4.341   4.081  14.103  0.2207  0.2964 -0.3156
  122MPD2    C1 1860   4.290   3.986  14.019  0.0834  0.3452  0.3232
  122MPD2    C2 1861   4.296   3.992  13.881  0.3179 -0.3742 -0.3573
  122MPD2    C3 1862   4.363   4.105  13.820  0.1867  0.8956 -0.2631
  122MPD2    C4 1863   4.406   4.199  13.905 -0.2642 -0.3494  0.6574
  122MPD2    C5 1864   4.402   4.187  14.039  0.3660  0.3102 -0.4256
  122MPD2     H 1865   4.256   3.916  13.815 -0.0798  0.1129 -0.6752
  122MPD2    H1 1866   4.470   4.284  13.882 -3.5328  1.6729 -0.8584
  122MPD2    H2 1867   4.336   4.090  14.211  0.9745 -0.2575 -0.2289
  122MPD2    H3 1868   4.447   4.260  14.106  0.5003  0.7472 -0.9894
  122MPD2     N 1869   4.373   4.127  13.678  0.4402  0.4041 -0.0599
  122MPD2    H5 1870   4.429   4.207  13.651  2.0554 -0.6273  0.2017
  122MPD2    N1 1871   4.228   3.874  14.077 -0.8466 -0.3730  0.1834
  122MPD2    H7 1872   4.180   3.809  14.016  0.7120 -1.5053  0.1552
  123MPD2     C 1873   3.939   2.642   9.449 -0.4081 -0.0861  0.0356
  123MPD2    C1 1874   3.887   2.572   9.560 -0.1364  0.3649 -0.5609
  123MPD2    C2 1875   3.946   2.455   9.589 -0.5952 -0.3466 -0.4064
  123MPD2    C3 1876   4.037   2.400   9.502  0.2915 -0.2583 -0.5031
  123MPD2    C4 1877   4.091   2.478   9.400  0.1166 -0.1315 -0.0286
  123MPD2    C5 1878   4.042   2.601   9.379  0.0425  0.0707  0.6346
  123MPD2     H 1879   3.916   2.390   9.670 -1.8965  2.3015  1.2196
  123MPD2    H1 1880   4.169   2.439   9.335 -0.5567 -0.4616 -0.6397
  123MPD2    H2 1881   3.910   2.746   9.441 -3.1841 -0.8975 -0.6228
  123MPD2    H3 1882   4.094   2.662   9.306  1.8012  1.3874  2.9995
  123MPD2     N 1883   4.080   2.269   9.528  0.1873 -0.2301  0.0023
  123MPD2    H5 1884   4.023   2.206   9.583 -1.7381 -0.4627 -2.2557
  123MPD2    N1 1885   3.777   2.630   9.630 -0.2994 -0.4184  0.6621
  123MPD2    H7 1886   3.718   2.703   9.591 -1.0928 -2.6213 -2.2115
  124TCq2    C1 1887   4.200   2.216   9.490 -0.3025 -0.5697  0.4140
  124TCq2    O2 1888   4.281   2.268   9.422  0.3725 -0.3514 -0.0710
  124TCq2    C2 1889   4.219   2.080   9.540  0.1091  0.2506 -0.3694
  124TCq2    C3 1890   4.288   1.996   9.456  0.6346  0.6310 -0.2263
  124TCq2    C4 1891   4.285   1.861   9.471  0.6712  0.4488 -0.3650
  124TCq2    C5 1892   4.204   1.808   9.569 -0.1225  0.2626  0.7262
  124TCq2    C6 1893   4.145   1.891   9.659  0.4950 -0.3155 -0.4571
  124TCq2    C7 1894   4.132   2.024   9.634 -0.6184 -0.3006  0.6965
  124TCq2    C8 1895   4.084   1.842   9.783  0.4185 -0.3951 -0.1866
  124TCq2    O4 1896   3.992   1.909   9.826 -0.3095 -0.4951 -0.0351
  124TCq2    C9 1897   4.355   1.764   9.383 -0.3364 -0.4067  1.2350
  124TCq2    O5 1898   4.340   1.640   9.404 -0.3834 -0.2341 -0.3596
  124TCq2    O6 1899   4.414   1.812   9.287 -0.3859 -0.4243  0.4433
  124TCq2    H2 1900   4.350   2.032   9.375 -0.2904 -1.4792 -1.8664
  124TCq2    H3 1901   4.213   1.703   9.595  0.1650  0.0554 -0.1834
  124TCq2    H4 1902   4.072   2.087   9.699 -1.1802 -1.2096  1.0467
  125TMC2    C1 1903   0.901   3.125   8.627 -0.5611  0.2192 -0.7371
  125TMC2    C2 1904   0.812   3.202   8.699  0.6419 -0.3117  0.7644
  125TMC2    C3 1905   0.847   3.212   8.830  0.8952 -0.0175  0.7544
  125TMC2    C4 1906   1.013   3.073   8.683 -0.4754  0.1608  0.0679
  125TMC2    C5 1907   1.047   3.098   8.815  0.0088 -0.1042 -0.0485
  125TMC2    C6 1908   0.959   3.164   8.888 -0.7408 -0.0653  0.3905
  125TMC2     C 1909   0.882   3.111   8.487  0.4299 -0.3109 -0.2721
  125TMC2     O 1910   0.949   3.020   8.441  0.3090 -0.4683 -0.6779
  125TMC2     H 1911   0.728   3.253   8.653 -0.1461 -2.1197  0.1988
  125TMC2    H1 1912   1.084   3.022   8.619 -1.1429 -0.8910  0.1776
  125TMC2    H2 1913   0.981   3.190   8.991 -3.0277 -2.5220  1.5023
  125TMC2    C7 1914   1.190   3.083   8.851 -0.1172 -0.1868 -0.2614
  125TMC2    C8 1915   0.779   3.311   8.905 -0.0756  0.0937 -0.0659
  125TMC2    O1 1916   1.266   3.033   8.764 -0.0922 -0.5976  0.2017
  125TMC2    O2 1917   0.829   3.348   9.011 -0.4873 -0.7047 -0.0388
  125TMC2    O5 1918   0.653   3.327   8.869  0.0737  0.6121 -0.2677
  125TMC2    H5 1919   0.612   3.247   8.831 -1.4935  1.6358 -0.7309
  126MPD1     C 1920   0.745   3.228   8.010 -0.1064 -0.8591 -0.0693
  126MPD1    C1 1921   0.701   3.331   8.088 -0.2493  0.4079  0.2760
  126MPD1    C2 1922   0.719   3.319   8.224  0.9865  0.2759 -0.2210
  126MPD1    C3 1923   0.793   3.212   8.287 -0.9233 -0.3845  0.5303
  126MPD1    C4 1924   0.845   3.111   8.202 -0.6825  0.5092  0.3421
  126MPD1    C5 1925   0.816   3.120   8.072  0.1217  0.0578  0.5067
  126MPD1     H 1926   0.689   3.405   8.284 -1.6333  0.8156 -2.2814
  126MPD1    H1 1927   0.911   3.029   8.230 -1.7234 -1.0851 -1.8407
  126MPD1    H2 1928   0.745   3.224   7.901  3.1224 -0.3126 -0.1061
  126MPD1    H3 1929   0.858   3.042   8.011 -0.5202  0.2137 -0.1314
  126MPD1     N 1930   0.807   3.209   8.428 -0.5026  0.3390 -0.4513
  126MPD1    H5 1931   0.763   3.284   8.481  0.9154 -0.5104  1.9195
  126MPD1    N1 1932   0.661   3.449   8.020 -0.1873 -0.6756 -0.1247
  126MPD1    H6 1933   0.614   3.434   7.931 -1.0327 -0.9904  0.3793
  126MPD1    H7 1934   0.607   3.512   8.078  0.2585 -0.6637  0.2757
  127MPD2     C 1935   0.641   2.200   9.236  0.2688 -0.0359  0.1484
  127MPD2    C1 1936   0.546   2.179   9.339  0.2471 -0.3337  0.0600
  127MPD2    C2 1937   0.554   2.260   9.455 -0.8485 -0.0888  0.1509
  127MPD2    C3 1938   0.640   2.365   9.470  0.2145 -0.5861 -0.7083
  127MPD2    C4 1939   0.727   2.385   9.373  0.3587  0.9943 -0.4551
  127MPD2    C5 1940   0.727   2.307   9.255 -0.0973  0.3909  0.1197
  127MPD2     H 1941   0.492   2.246   9.543  0.0652 -3.1688  0.2931
  127MPD2    H1 1942   0.788   2.474   9.364  1.1343  0.4644 -0.4493
  127MPD2    H2 1943   0.632   2.138   9.148  1.4504  1.3504 -0.9450
  127MPD2    H3 1944   0.791   2.342   9.175 -0.2128 -0.7185 -0.4573
  127MPD2     N 1945   0.619   2.454   9.580  0.4843  0.5427 -0.3714
  127MPD2    H5 1946   0.536   2.438   9.637 -0.3854  1.5093 -1.3708
  127MPD2    N1 1947   0.448   2.082   9.325 -0.1282 -0.2741  0.5591
  127MPD2    H7 1948   0.453   2.024   9.242  1.0252  0.3063  0.2172
  128TCq2    C1 1949   0.345   2.070   9.416 -0.1105 -0.4884 -0.2373
  128TCq2    O2 1950   0.307   2.139   9.511  0.2345  0.3212 -0.1450
  128TCq2    C2 1951   0.253   1.961   9.397 -0.1928 -0.1130 -0.8604
  128TCq2    C3 1952   0.139   1.954   9.472  0.2669  0.3345  0.4448
  128TCq2    C4 1953   0.083   1.831   9.500  0.2345  0.8710 -0.0865
  128TCq2    C5 1954   0.132   1.718   9.449 -0.3698  0.6395 -0.1981
  128TCq2    C6 1955   0.232   1.725   9.360 -0.0011 -0.4301 -0.2692
  128TCq2    C7 1956   0.297   1.845   9.330  0.3948 -0.7871  0.4397
  128TCq2    C8 1957   0.268   1.612   9.283  0.7720  0.4472  0.8403
  128TCq2    O4 1958   0.370   1.620   9.218 -0.0822 -0.3661  0.4091
  128TCq2    C9 1959   4.692   1.834   9.593  0.2523 -0.6289  0.0655
  128TCq2    O5 1960   4.627   1.725   9.590 -0.5616  0.2963  0.0729
  128TCq2    O6 1961   4.681   1.928   9.675 -0.9267  0.3050 -0.0753
  128TCq2    H2 1962   0.106   2.045   9.521 -1.7095 -0.2089  0.1099
  128TCq2    H3 1963   0.090   1.623   9.481  0.0522  0.6055  0.2676
  128TCq2    H4 1964   0.377   1.847   9.257  0.4950  0.7722  0.5956
  129MPD2     C 1965   3.760   3.492   1.445  0.1973 -0.1523 -0.0064
  129MPD2    C1 1966   3.691   3.483   1.330 -0.6058 -0.7202 -0.1331
  129MPD2    C2 1967   3.666   3.597   1.256 -0.1051 -0.3510 -0.5197
  129MPD2    C3 1968   3.703   3.719   1.297  0.5468  0.0165 -0.5656
  129MPD2    C4 1969   3.764   3.727   1.418  0.6242  0.3140  0.3876
  129MPD2    C5 1970   3.798   3.619   1.491 -0.1264  0.5332 -0.6179
  129MPD2     H 1971   3.613   3.589   1.162 -2.1728 -0.2426  0.6476
  129MPD2    H1 1972   3.776   3.823   1.468  0.6381  0.7928 -0.5319
  129MPD2    H2 1973   3.779   3.405   1.507 -1.8736 -0.6186 -0.0030
  129MPD2    H3 1974   3.837   3.638   1.590 -1.1029 -0.2169 -0.0833
  129MPD2     N 1975   3.662   3.826   1.211  0.3745 -0.1569  0.2833
  129MPD2    H5 1976   3.610   3.800   1.128 -0.1489 -0.1535  0.6121
  129MPD2    N1 1977   3.643   3.360   1.281 -0.3436 -0.6673 -0.1503
  129MPD2    H7 1978   3.596   3.367   1.191  0.4908  0.6125 -0.4900
  130TCq2    C1 1979   3.639   3.240   1.336  0.2100 -0.0545  0.4998
  130TCq2    O2 1980   3.697   3.187   1.426 -0.4478  0.1311  0.0789
  130TCq2    C2 1981   3.556   3.142   1.263  0.0580 -0.1222  0.4023
  130TCq2    C3 1982   3.592   3.011   1.278 -0.1856  0.6037  0.0073
  130TCq2    C4 1983   3.513   2.903   1.237  0.6547  0.3095  0.2639
  130TCq2    C5 1984   3.389   2.936   1.184  0.0358  0.4857 -0.0134
  130TCq2    C6 1985   3.353   3.068   1.172  0.0762  0.5566 -1.1134
  130TCq2    C7 1986   3.434   3.173   1.212 -0.0992  0.0137  0.7691
  130TCq2    C8 1987   3.208   3.097   1.179  0.0994  0.5240  0.0172
  130TCq2    O4 1988   3.167   3.192   1.248 -0.8807  0.4965  0.0996
  130TCq2    C9 1989   3.542   2.774   1.281 -0.1043  0.2860  0.6064
  130TCq2    O5 1990   3.459   2.687   1.244 -0.8478  0.6229  0.1404
  130TCq2    O6 1991   3.647   2.753   1.346 -0.2189  0.3339  0.0534
  130TCq2    H2 1992   3.687   2.993   1.326 -0.0187  1.6756  0.0814
  130TCq2    H3 1993   3.323   2.853   1.161  0.7365 -0.6866  2.2860
  130TCq2    H4 1994   3.394   3.274   1.217  0.1098  0.2104 -1.6017
  131MPD2     C 1995   3.429   2.325  10.491  0.2524 -0.2387 -0.5833
  131MPD2    C1 1996   3.550   2.313  10.425  0.3563 -0.1578  0.2032
  131MPD2    C2 1997   3.569   2.377  10.310 -0.2591 -0.2810  0.3899
  131MPD2    C3 1998   3.463   2.456  10.257  0.0947 -0.1159 -0.3725
  131MPD2    C4 1999   3.351   2.490  10.333 -0.3997  0.1347 -0.3460
  131MPD2    C5 2000   3.329   2.410  10.445 -0.1230  0.3872 -0.0840
  131MPD2     H 2001   3.659   2.372  10.250 -0.5333 -0.8078  0.0279
  131MPD2    H1 2002   3.264   2.536  10.287  0.4543  2.0377 -0.0414
  131MPD2    H2 2003   3.407   2.247  10.563  1.6535 -0.5495 -0.4983
  131MPD2    H3 2004   3.229   2.395  10.486 -0.0791  1.7032  0.5190
  131MPD2     N 2005   3.475   2.509  10.132  0.0707  0.4231 -0.6575
  131MPD2    H5 2006   3.561   2.493  10.082  0.6389 -0.5814  0.6685
  131MPD2    N1 2007   3.637   2.210  10.467  0.1010  0.0321  0.3025
  131MPD2    H7 2008   3.597   2.156  10.543  1.3644  1.6966  2.1380
  132TCq2    C1 2009   4.115   1.894  10.307  0.0078  0.5057  0.2794
  132TCq2    O2 2010   4.186   1.803  10.347 -0.5227 -0.2715 -0.0397
  132TCq2    C2 2011   3.991   1.909  10.377 -0.0159  0.1026 -0.4463
  132TCq2    C3 2012   3.932   1.802  10.439  0.4717 -0.0457  0.1193
  132TCq2    C4 2013   3.813   1.831  10.509  0.0598 -0.7041 -0.2860
  132TCq2    C5 2014   3.751   1.960  10.502  0.6141  0.4837 -0.1974
  132TCq2    C6 2015   3.825   2.061  10.441 -0.2434  0.0421  0.0234
  132TCq2    C7 2016   3.944   2.037  10.378  0.2741  0.2034  0.1819
  132TCq2    C8 2017   3.764   2.192  10.414  0.5072  0.6806  0.3582
  132TCq2    O4 2018   3.827   2.264  10.332  0.4989 -0.1704  0.3545
  132TCq2    C9 2019   3.747   1.722  10.581  0.0613  0.0705 -0.1026
  132TCq2    O5 2020   3.807   1.614  10.592 -0.0982  0.5471 -0.3844
  132TCq2    O6 2021   3.637   1.743  10.632 -0.1921  0.3526  0.6070
  132TCq2    H2 2022   3.974   1.702  10.438 -0.6090 -0.4761 -1.8272
  132TCq2    H3 2023   3.655   1.977  10.550 -0.1617  1.6276 -2.1642
  132TCq2    H4 2024   3.992   2.122  10.332  0.9369  1.2184  2.7431
  133MPD2     C 2025   2.704   3.439   9.799  0.0649 -0.0286 -0.2835
  133MPD2    C1 2026   2.769   3.313   9.808 -0.2316  0.0863 -0.0410
  133MPD2    C2 2027   2.701   3.198   9.778  0.7167  0.8538  0.6256
  133MPD2    C3 2028   2.566   3.205   9.754 -1.3172  0.7354  0.6178
  133MPD2    C4 2029   2.498   3.324   9.761 -0.3077 -0.0393 -0.5192
  133MPD2    C5 2030   2.570   3.436   9.778 -0.8375  0.0369  0.0371
  133MPD2     H 2031   2.765   3.111   9.778 -0.0803  0.2700  1.2391
  133MPD2    H1 2032   2.390   3.334   9.757 -0.1012  0.8681 -4.4715
  133MPD2    H2 2033   2.753   3.534   9.817 -0.9371  0.2138  1.1546
  133MPD2    H3 2034   2.510   3.524   9.799  0.2863  0.8861 -0.3809
  133MPD2     N 2035   2.486   3.098   9.716 -0.2016 -0.3905  0.2677
  133MPD2    H5 2036   2.402   3.113   9.661 -1.1637 -3.6456  0.7992
  133MPD2    N1 2037   2.901   3.326   9.854 -0.3084 -0.1072  0.3024
  133MPD2    H7 2038   2.941   3.419   9.854  1.5261 -0.8756  1.6536
  134TCq2    C1 2039   2.983   3.223   9.894  0.1398 -0.7934 -0.0189
  134TCq2    O2 2040   2.961   3.106   9.902 -0.3572  0.6546 -0.0917
  134TCq2    C2 2041   3.108   3.265   9.954  0.2715 -0.9218 -0.6359
  134TCq2    C3 2042   3.126   3.392   9.999 -0.2251  0.1134  0.4023
  134TCq2    C4 2043   3.200   3.419  10.112  0.4370 -0.0970  0.5632
  134TCq2    C5 2044   3.263   3.313  10.184 -0.0965  0.0321 -0.0727
  134TCq2    C6 2045   3.237   3.181  10.139 -0.2764  0.6120 -0.3928
  134TCq2    C7 2046   3.167   3.157  10.023  0.1969  0.7629 -0.5694
  134TCq2    C8 2047   3.303   3.068  10.200 -0.0352  0.0947 -0.1729
  134TCq2    O4 2048   3.249   2.960  10.179 -0.1310 -0.6518 -0.1585
  134TCq2    C9 2049   3.207   3.551  10.160  1.5169  0.8376  0.4636
  134TCq2    O5 2050   3.179   3.639  10.072 -0.2543 -0.3688 -0.0677
  134TCq2    O6 2051   3.256   3.567  10.274  0.7710 -0.5342 -0.4610
  134TCq2    H2 2052   3.078   3.482   9.963 -0.7356 -0.3072  0.0471
  134TCq2    H3 2053   3.338   3.340  10.257  0.4754 -1.2557 -0.1855
  134TCq2    H4 2054   3.159   3.054   9.991  2.1215  0.8215 -1.2035
  135MPD2     C 2055   0.297   3.504   9.216 -0.2862 -0.0469  0.7369
  135MPD2    C1 2056   0.354   3.629   9.249 -0.0906  0.2779  0.0772
  135MPD2    C2 2057   0.490   3.640   9.233 -0.9247 -0.1496  0.3791
  135MPD2    C3 2058   0.575   3.537   9.190  0.2384 -0.4441  0.0241
  135MPD2    C4 2059   0.508   3.420   9.148 -0.3489 -0.5072  0.0457
  135MPD2    C5 2060   0.373   3.411   9.151  0.4512 -0.7235  0.5904
  135MPD2     H 2061   0.540   3.730   9.268  0.2933 -0.4064 -0.7205
  135MPD2    H1 2062   0.559   3.334   9.106 -2.1157 -0.6545 -1.8031
  135MPD2    H2 2063   0.190   3.486   9.209 -0.5859  1.1023  2.2154
  135MPD2    H3 2064   0.328   3.321   9.110  0.0091 -0.3188  0.1927
  135MPD2     N 2065   0.719   3.542   9.175 -0.4710  0.1624  0.1799
  135MPD2    H5 2066   0.765   3.471   9.119 -0.2792  0.8410 -0.5316
  135MPD2    N1 2067   0.292   3.743   9.299  0.3967 -0.3840 -0.2737
  135MPD2    H7 2068   0.343   3.831   9.303  1.1633 -0.7982 -1.0419
  136TCq2    C1 2069   0.159   3.748   9.331  0.2857 -0.6950  0.8280
  136TCq2    O2 2070   0.088   3.651   9.351  0.1397  0.5909 -0.3119
  136TCq2    C2 2071   0.104   3.881   9.336  0.1527 -0.0848  0.1363
  136TCq2    C3 2072   0.170   3.988   9.284  0.0194 -0.3766 -0.3309
  136TCq2    C4 2073   0.102   4.097   9.244 -0.0681  0.1755  0.2212
  136TCq2    C5 2074   4.693   4.109   9.252  0.2774 -0.4281  0.1837
  136TCq2    C6 2075   4.624   3.998   9.304  0.1324 -0.2672  0.2479
  136TCq2    C7 2076   4.687   3.885   9.354  0.0099 -0.5417 -0.1525
  136TCq2    C8 2077   4.488   3.980   9.260  0.4960 -0.4442  0.7465
  136TCq2    O4 2078   4.444   4.041   9.163  0.0719 -0.0979  0.0773
  136TCq2    C9 2079   0.163   4.191   9.156  0.2132  0.5477 -0.8262
  136TCq2    O5 2080   0.270   4.150   9.098 -0.6809 -0.2725 -0.0438
  136TCq2    O6 2081   0.085   4.282   9.106  0.2268  0.4854 -0.2616
  136TCq2    H2 2082   0.264   3.972   9.233  0.7486 -0.7879  1.1411
  136TCq2    H3 2083   4.636   4.183   9.197 -1.3921 -1.7044  0.1954
  136TCq2    H4 2084   4.631   3.797   9.382 -0.1088 -1.0639 -2.0601
  137MPD2     C 2085   0.714   3.218   9.380  0.3683  0.3608  0.3789
  137MPD2    C1 2086   0.579   3.185   9.365  0.3916  0.1033 -0.7021
  137MPD2    C2 2087   0.487   3.249   9.446  0.5518  0.2783 -0.4622
  137MPD2    C3 2088   0.524   3.346   9.540 -0.4864  0.0062  0.9878
  137MPD2    C4 2089   0.657   3.383   9.555 -0.0791  0.4629 -0.0138
  137MPD2    C5 2090   0.750   3.310   9.477  0.5161  0.3233  0.7081
  137MPD2     H 2091   0.380   3.234   9.443  0.4218  1.0967  0.0697
  137MPD2    H1 2092   0.696   3.447   9.633 -2.4860  0.7980  0.8908
  137MPD2    H2 2093   0.789   3.167   9.320  2.0143  1.2768  1.6623
  137MPD2    H3 2094   0.855   3.322   9.501  0.0021  0.3799  2.9052
  137MPD2     N 2095   0.416   3.403   9.615 -0.1832  0.1314  0.1308
  137MPD2    H5 2096   0.321   3.370   9.604  0.0300 -0.1034 -1.0587
  137MPD2    N1 2097   0.536   3.093   9.261 -0.0843 -0.3468 -0.1813
  137MPD2    H7 2098   0.602   3.046   9.200  1.5093  2.7900 -0.9000
  138TCq2    C1 2099   0.407   3.048   9.256 -0.7658  0.2142  1.0155
  138TCq2    O2 2100   0.315   3.051   9.337  0.0164 -0.4317  0.0473
  138TCq2    C2 2101   0.383   2.975   9.132  0.2016  0.3113  0.1956
  138TCq2    C3 2102   0.451   3.008   9.025  0.0149 -0.0762  0.6132
  138TCq2    C4 2103   0.409   2.956   8.906 -0.4984  0.4656 -0.0309
  138TCq2    C5 2104   0.305   2.865   8.898 -0.6928  0.3020  0.1274
  138TCq2    C6 2105   0.238   2.838   9.015 -0.0235  0.3237  0.1905
  138TCq2    C7 2106   0.276   2.888   9.136 -0.4765  0.2345  0.1542
  138TCq2    C8 2107   0.152   2.720   9.002  0.1268  0.1792 -0.1075
  138TCq2    O4 2108   0.142   2.676   8.891  0.4047 -0.9125  0.2123
  138TCq2    C9 2109   0.465   3.013   8.786  0.4802 -0.4997 -0.1290
  138TCq2    O5 2110   0.480   2.927   8.693 -0.3926 -0.1546  0.6650
  138TCq2    O6 2111   0.514   3.131   8.787 -0.1648 -0.3095 -0.4418
  138TCq2    H2 2112   0.518   3.094   9.018  0.2374 -0.2425  0.7233
  138TCq2    H3 2113   0.261   2.847   8.800 -1.2636  2.4661 -0.0007
  138TCq2    H4 2114   0.222   2.866   9.227 -0.3407 -0.4574  0.0640
  139TMC2    C1 2115   4.440   2.027  13.370 -0.2307  0.1456 -0.2283
  139TMC2    C2 2116   4.414   2.056  13.236  0.6172 -0.4398  0.4274
  139TMC2    C3 2117   4.309   2.135  13.198  0.6165  0.0408  0.6879
  139TMC2    C4 2118   4.356   2.081  13.459  0.0115  0.2347 -0.3678
  139TMC2    C5 2119   4.253   2.167  13.424 -0.1001 -0.8768  0.7058
  139TMC2    C6 2120   4.229   2.190  13.295 -0.3809  0.1605 -0.5001
  139TMC2     C 2121   4.528   1.915  13.401 -0.9417  0.1460 -0.1552
  139TMC2     O 2122   4.589   1.870  13.305  0.4422  0.3597 -0.0380
  139TMC2     H 2123   4.478   2.013  13.160 -1.4058  2.3396 -2.8541
  139TMC2    H1 2124   4.374   2.070  13.565  0.0944  0.4712 -0.3585
  139TMC2    H2 2125   4.144   2.246  13.258 -0.4509 -0.7314 -1.6987
  139TMC2    C7 2126   4.156   2.214  13.518 -0.2583 -0.6079 -0.6346
  139TMC2    C8 2127   4.237   2.127  13.074 -0.3374  1.0115 -0.2619
  139TMC2    O1 2128   4.056   2.260  13.465 -0.1149  0.4008  0.0561
  139TMC2    O2 2129   4.116   2.141  13.061  0.4081  0.2023  0.0254
  139TMC2    O5 2130   4.307   2.034  13.011 -0.4091  0.3281 -0.1599
  139TMC2    H5 2131   4.402   2.057  13.018 -0.0804 -1.6448  1.8840
  140MPD2     C 2132   4.612   1.775  13.726  0.6719 -0.3148  0.4871
  140MPD2    C1 2133   4.628   1.797  13.589  0.8251 -0.0937  0.1616
  140MPD2    C2 2134   0.005   1.731  13.520 -0.8926  0.3365 -0.0224
  140MPD2    C3 2135   0.081   1.640  13.583 -0.1751 -0.3557  0.0189
  140MPD2    C4 2136   0.071   1.619  13.716  0.1170  0.1099  0.4552
  140MPD2    C5 2137   4.702   1.690  13.786  0.1063  0.4701 -0.0012
  140MPD2     H 2138   0.019   1.738  13.413  0.7691 -1.3484  0.0886
  140MPD2    H1 2139   0.142   1.554  13.765 -0.0728  0.1219  0.7513
  140MPD2    H2 2140   4.532   1.813  13.789 -0.7922 -2.1638 -0.2491
  140MPD2    H3 2141   4.691   1.661  13.890  0.1886  0.1238 -0.0903
  140MPD2     N 2142   0.163   1.557  13.501 -0.3457 -0.1617  0.3343
  140MPD2    H5 2143   0.163   1.573  13.400  0.0264 -0.3569  0.3000
  140MPD2    N1 2144   4.543   1.892  13.537  0.2076  0.7454 -0.4114
  140MPD2    H7 2145   4.486   1.947  13.601  1.9666  0.7969  1.1168
  141TCq2    C1 2146   0.169   2.970  13.899 -0.5567  0.1910 -0.3591
  141TCq2    O2 2147   0.176   3.023  13.789 -0.1499  0.1309  0.3223
  141TCq2    C2 2148   0.132   3.046  14.017 -0.4028  0.1736  0.1730
  141TCq2    C3 2149   0.096   2.988  14.132  0.4115  0.1439  0.5463
  141TCq2    C4 2150   0.126   3.055  14.248 -0.8350  0.9208  0.4449
  141TCq2    C5 2151   0.202   3.168  14.246 -0.3251  0.1668  0.5055
  141TCq2    C6 2152   0.227   3.228  14.130 -0.2176 -0.4799 -0.1605
  141TCq2    C7 2153   0.185   3.172  14.015  0.2185  0.2010  0.2787
  141TCq2    C8 2154   0.277   3.365  14.121 -0.5338  0.3107  0.0982
  141TCq2    O4 2155   0.233   3.433  14.029  0.0762 -0.3290  0.0873
  141TCq2    C9 2156   0.097   2.987  14.374 -1.0779  0.1016 -0.0175
  141TCq2    O5 2157   0.061   2.867  14.354  0.3289  0.3691 -0.3121
  141TCq2    O6 2158   0.153   3.040  14.471  0.4176  0.1925  0.5171
  141TCq2    H2 2159   0.058   2.886  14.134 -0.4476  0.4083 -2.5680
  141TCq2    H3 2160   0.238   3.212  14.338  2.2241 -0.8848  0.0153
  141TCq2    H4 2161   0.208   3.221  13.921  1.8428 -0.1738  0.4645
  142MPD2     C 2162   2.833   1.846  10.353  0.1126 -0.0009 -0.0107
  142MPD2    C1 2163   2.899   1.876  10.238  0.1920 -0.6075  0.6915
  142MPD2    C2 2164   3.009   1.805  10.195  0.2983 -0.1531  0.1151
  142MPD2    C3 2165   3.050   1.705  10.277  0.3899 -0.5820  0.1417
  142MPD2    C4 2166   2.999   1.692  10.402 -0.9903 -0.0728  0.4506
  142MPD2    C5 2167   2.887   1.756  10.436  0.0214  0.0477 -0.3669
  142MPD2     H 2168   3.066   1.838  10.109 -0.5038 -0.3698 -0.5075
  142MPD2    H1 2169   3.035   1.618  10.473  0.4617 -0.8194 -1.0685
  142MPD2    H2 2170   2.740   1.896  10.380 -0.0421 -1.0597  1.4546
  142MPD2    H3 2171   2.837   1.748  10.532 -2.0325  1.0592 -1.3480
  142MPD2     N 2172   3.165   1.632  10.258 -0.3969  0.4066 -0.3050
  142MPD2    H5 2173   3.189   1.572  10.336  0.2583  0.0548 -0.7745
  142MPD2    N1 2174   2.821   1.966  10.163  0.3176  0.5328 -0.4377
  142MPD2    H7 2175   2.722   1.979  10.183  0.2989  0.9577 -0.7966
  143TCq2    C1 2176   3.250   1.634  10.149 -0.2190 -0.5276 -0.7767
  143TCq2    O2 2177   3.230   1.687  10.041 -0.4198  0.2622  0.2208
  143TCq2    C2 2178   3.374   1.564  10.178 -0.3872 -0.4826 -0.0209
  143TCq2    C3 2179   3.374   1.480  10.287 -0.4995 -0.0522 -1.2543
  143TCq2    C4 2180   3.491   1.451  10.350 -0.0374  1.1812  0.3945
  143TCq2    C5 2181   3.611   1.532  10.320  0.5861  0.5490  0.0778
  143TCq2    C6 2182   3.603   1.614  10.206 -0.1376 -0.1867 -0.6785
  143TCq2    C7 2183   3.488   1.632  10.139  0.2819 -0.2602 -0.0524
  143TCq2    C8 2184   3.721   1.640  10.133  0.6951  0.2026 -0.3036
  143TCq2    O4 2185   3.703   1.692  10.019  0.0853  0.6960  0.2001
  143TCq2    C9 2186   3.490   1.376  10.473  0.0335  0.3631 -0.1528
  143TCq2    O5 2187   3.385   1.314  10.500  0.3501  0.0036  0.7784
  143TCq2    O6 2188   3.579   1.390  10.562 -0.1140  0.0387  0.0266
  143TCq2    H2 2189   3.286   1.431  10.327  0.2464 -0.5769 -0.2620
  143TCq2    H3 2190   3.697   1.512  10.384 -0.1523  0.7284  1.1313
  143TCq2    H4 2191   3.479   1.712  10.067  1.1054  0.9744  1.2274
  144MPD2     C 2192   0.367   1.103   0.786 -0.4155 -0.0766 -0.7403
  144MPD2    C1 2193   0.371   0.974   0.826  0.1620  0.3038  1.4875
  144MPD2    C2 2194   0.476   0.923   0.896 -0.0247 -0.5471 -0.8863
  144MPD2    C3 2195   0.578   1.008   0.940  0.1338 -0.2821  0.1578
  144MPD2    C4 2196   0.565   1.138   0.913  0.3867 -0.5709 -0.4057
  144MPD2    C5 2197   0.466   1.182   0.831  0.0383 -0.5059 -0.4770
  144MPD2     H 2198   0.460   0.819   0.922  1.4035 -0.6298 -0.3217
  144MPD2    H1 2199   0.641   1.202   0.955 -0.5598 -0.3625  0.9771
  144MPD2    H2 2200   0.284   1.139   0.726  0.3074  0.7067 -1.2570
  144MPD2    H3 2201   0.472   1.287   0.803 -0.6040 -0.3143  0.1010
  144MPD2     N 2202   0.688   0.958   1.023  0.3972  0.3991 -0.1945
  144MPD2    H5 2203   0.751   1.026   1.066 -1.1659 -0.8617  4.0879
  144MPD2    N1 2204   0.271   0.882   0.784 -0.6075  0.0465  0.1197
  144MPD2    H7 2205   0.300   0.791   0.818  2.4404  0.5686 -1.1570
  145TCq2    C1 2206   0.728   0.833   1.030  0.2174  0.6289 -1.0262
  145TCq2    O2 2207   0.694   0.738   0.960  0.6209 -0.3466  0.4694
  145TCq2    C2 2208   0.851   0.820   1.108  0.4718 -0.0262  0.0437
  145TCq2    C3 2209   0.934   0.723   1.072 -0.1529  0.4509 -0.0692
  145TCq2    C4 2210   1.041   0.703   1.137  0.0651  0.0955 -0.5648
  145TCq2    C5 2211   1.090   0.795   1.227  0.4193  0.4141 -0.1366
  145TCq2    C6 2212   1.010   0.894   1.267 -0.2941 -0.3624  0.1049
  145TCq2    C7 2213   0.881   0.913   1.209  0.5550 -0.1691  0.4923
  145TCq2    C8 2214   1.058   0.975   1.372 -0.0239  0.1954 -0.1226
  145TCq2    O4 2215   1.158   0.939   1.428 -0.3124  0.5389 -0.4093
  145TCq2    C9 2216   1.111   0.585   1.107  0.1998 -0.0835  0.3339
  145TCq2    O5 2217   1.220   0.572   1.164 -0.1182  0.6211  0.3028
  145TCq2    O6 2218   1.065   0.487   1.043 -0.1622 -0.0062 -0.1637
  145TCq2    H2 2219   0.912   0.660   0.986 -1.4859  1.5112 -0.5174
  145TCq2    H3 2220   1.188   0.784   1.272  0.6330 -2.2951 -1.2194
  145TCq2    H4 2221   0.803   0.973   1.255 -1.0402 -1.4109 -0.6029
  146TMC2    C1 2222   2.333   4.395  12.689 -0.3294  0.3879 -0.0645
  146TMC2    C2 2223   2.345   4.494  12.590 -0.2127  0.2037  0.2364
  146TMC2    C3 2224   2.474   4.546  12.568 -0.8356 -0.6537 -0.1363
  146TMC2    C4 2225   2.436   4.358  12.773 -0.4526  0.5027 -0.0123
  146TMC2    C5 2226   2.556   4.427  12.762  0.0609 -0.0675  0.3413
  146TMC2    C6 2227   2.573   4.516  12.658  0.3035  0.0749  0.6599
  146TMC2     C 2228   2.197   4.370  12.730  0.4020  0.8408 -0.1899
  146TMC2     O 2229   2.107   4.387  12.650 -0.2278 -0.0341 -0.5320
  146TMC2     H 2230   2.259   4.527  12.532 -1.5603 -1.9371  1.0128
  146TMC2    H1 2231   2.413   4.272  12.835  2.1986  0.6137  1.1173
  146TMC2    H2 2232   2.670   4.561  12.645 -0.2791  1.5808  1.5294
  146TMC2    C7 2233   2.681   4.388  12.833  0.2395 -0.0508 -0.1014
  146TMC2    C8 2234   2.528   4.577  12.433  0.5113 -0.1006 -0.0700
  146TMC2    O1 2235   2.783   4.445  12.795 -0.2710  0.0334  0.2692
  146TMC2    O2 2236   2.640   4.558  12.393 -0.5520  0.6575 -0.0529
  146TMC2    O5 2237   2.415   4.565  12.351 -0.0765  0.1253  0.1150
  146TMC2    H5 2238   2.335   4.603  12.392 -0.3338 -0.0238 -0.2482
  147MPD2     C 2239   2.983   3.999  12.985 -0.0988  0.0414 -0.7025
  147MPD2    C1 2240   2.846   3.968  13.007  0.5589 -0.3002 -0.5240
  147MPD2    C2 2241   2.748   4.063  12.983  0.2476 -0.2343 -0.5014
  147MPD2    C3 2242   2.785   4.185  12.936  0.2852  0.2793 -0.1365
  147MPD2    C4 2243   2.919   4.224  12.919 -0.5656 -0.2074  1.0522
  147MPD2    C5 2244   3.014   4.129  12.946 -0.3932 -0.3101 -0.9625
  147MPD2     H 2245   2.648   4.034  13.014  0.1389  0.9345  0.2052
  147MPD2    H1 2246   2.954   4.318  12.878  0.6643 -2.0687 -2.1361
  147MPD2    H2 2247   3.064   3.927  12.993  0.4717  0.5671 -1.6843
  147MPD2    H3 2248   3.116   4.160  12.930 -0.1298 -0.2926  0.7884
  147MPD2     N 2249   2.670   4.268  12.911 -0.9304 -0.6333  0.1718
  147MPD2    H5 2250   2.579   4.225  12.923 -2.1394  1.5790 -1.0758
  147MPD2    N1 2251   2.822   3.837  13.060  0.0667 -0.4998  0.0526
  147MPD2    H7 2252   2.902   3.779  13.080 -1.4804 -3.1443 -1.5904
  148MPD2     C 2253   2.351   2.997  10.811  0.2625 -0.0866 -0.4546
  148MPD2    C1 2254   2.420   2.877  10.832 -0.4037  0.2030  0.6116
  148MPD2    C2 2255   2.379   2.760  10.766  0.0588 -0.0839 -0.1568
  148MPD2    C3 2256   2.263   2.767  10.682  0.1931 -0.3293 -0.1739
  148MPD2    C4 2257   2.187   2.883  10.675 -0.4007 -0.3109 -0.3904
  148MPD2    C5 2258   2.241   2.999  10.728  0.2407  0.4806  0.0503
  148MPD2     H 2259   2.440   2.671  10.777 -0.6339 -0.9360 -3.0658
  148MPD2    H1 2260   2.096   2.889  10.617 -0.3042  0.7823 -0.4361
  148MPD2    H2 2261   2.376   3.088  10.865 -1.8622 -0.1410  0.6289
  148MPD2    H3 2262   2.181   3.089  10.731  1.6953  1.4055  0.7152
  148MPD2     N 2263   2.210   2.656  10.614 -1.0740  0.0190  0.5786
  148MPD2    H5 2264   2.126   2.667  10.558  1.4690  2.3539 -2.7831
  148MPD2    N1 2265   2.531   2.866  10.914 -0.2080  0.5366  0.1541
  148MPD2    H7 2266   2.580   2.778  10.910  2.0865  1.7743  1.4861
  149TCq2    C1 2267   2.589   2.959  11.002  0.2122 -0.2596  0.2470
  149TCq2    O2 2268   2.543   3.071  11.033 -0.6876 -1.1054  0.1762
  149TCq2    C2 2269   2.699   2.908  11.084  0.6515  0.3414  0.3108
  149TCq2    C3 2270   2.736   2.976  11.202 -0.1037  0.1918 -0.3635
  149TCq2    C4 2271   2.824   2.928  11.294 -0.1014 -0.6358 -0.1275
  149TCq2    C5 2272   2.837   2.790  11.300  0.1304  0.2199  0.3376
  149TCq2    C6 2273   2.792   2.721  11.188 -0.2398  0.7890 -0.8219
  149TCq2    C7 2274   2.738   2.776  11.072 -0.2181 -0.4199 -1.0479
  149TCq2    C8 2275   2.767   2.577  11.187  1.2944  0.3174 -0.2584
  149TCq2    O4 2276   2.790   2.513  11.087 -0.4516  0.5480 -0.3854
  149TCq2    C9 2277   2.828   2.988  11.421 -0.5498 -0.2348 -0.1173
  149TCq2    O5 2278   2.755   3.089  11.438  0.1503  0.2021  0.7610
  149TCq2    O6 2279   2.880   2.923  11.514  0.1446  0.0928  0.0586
  149TCq2    H2 2280   2.699   3.077  11.215 -3.1303 -1.2432  2.3947
  149TCq2    H3 2281   2.876   2.735  11.385 -2.1477 -0.6876  0.7913
  149TCq2    H4 2282   2.701   2.710  10.995 -1.5695 -0.8213 -0.0471
  150MPD2     C 2283   3.677   2.045  12.244 -0.1541  0.8979  0.3541
  150MPD2    C1 2284   3.674   2.068  12.107 -0.2284  0.9591  0.0152
  150MPD2    C2 2285   3.791   2.123  12.050  0.0954  0.1022 -0.2804
  150MPD2    C3 2286   3.904   2.147  12.123  0.0159  0.0035 -0.4996
  150MPD2    C4 2287   3.907   2.108  12.255  0.1399  0.7801  0.0821
  150MPD2    C5 2288   3.790   2.054  12.313  0.4989  0.6956  0.1282
  150MPD2     H 2289   3.809   2.144  11.945 -1.5779 -0.4405 -0.6752
  150MPD2    H1 2290   3.986   2.131  12.326  1.0847  0.4702 -0.8693
  150MPD2    H2 2291   3.587   2.007  12.290 -0.9437  0.8895 -1.2051
  150MPD2    H3 2292   3.792   2.019  12.416  1.1297  0.2848 -0.0237
  150MPD2     N 2293   4.019   2.195  12.055  0.7901  0.3888  0.2551
  150MPD2    H5 2294   3.998   2.241  11.967 -0.0743 -0.3072  0.0988
  150MPD2    N1 2295   3.548   2.037  12.049 -0.4146  0.4719  0.1311
  150MPD2    H7 2296   3.477   1.989  12.104 -1.1024  2.6369  1.1219
  151TCq2    C1 2297   4.145   2.194  12.103  0.2268  0.4857  0.4669
  151TCq2    O2 2298   4.184   2.125  12.197  0.5968 -0.6138  0.2493
  151TCq2    C2 2299   4.235   2.291  12.045  0.2439  0.3183  0.2980
  151TCq2    C3 2300   4.208   2.368  11.937 -0.3505 -0.0203 -0.1456
  151TCq2    C4 2301   4.288   2.471  11.903  0.1084  0.6925  0.0010
  151TCq2    C5 2302   4.399   2.510  11.979 -0.3316  0.5535  0.3735
  151TCq2    C6 2303   4.419   2.430  12.089  0.0425 -0.4494 -0.0955
  151TCq2    C7 2304   4.340   2.327  12.122  0.2293 -0.1491  0.2072
  151TCq2    C8 2305   4.530   2.472  12.184 -0.5589  0.5620 -0.2641
  151TCq2    O4 2306   4.575   2.585  12.170 -0.5544 -0.4244 -0.1062
  151TCq2    C9 2307   4.241   2.545  11.794  0.2915  0.2129  0.2388
  151TCq2    O5 2308   4.139   2.503  11.731  0.5404 -0.0691  0.1379
  151TCq2    O6 2309   4.306   2.649  11.769  0.1476  0.2668 -0.0231
  151TCq2    H2 2310   4.118   2.345  11.881 -0.3938 -1.4275  0.4883
  151TCq2    H3 2311   4.463   2.593  11.950 -0.3810  0.8892  1.2359
  151TCq2    H4 2312   4.350   2.282  12.220 -1.3363  0.6803  0.7354
  152MPD2     C 2313   3.356   1.713  12.852 -0.2186 -0.1770  0.6314
  152MPD2    C1 2314   3.410   1.805  12.765 -0.4150 -0.9975 -0.1543
  152MPD2    C2 2315   3.322   1.881  12.692  0.3961 -0.1575 -0.3080
  152MPD2    C3 2316   3.183   1.870  12.715 -0.2894  0.6725 -0.4148
  152MPD2    C4 2317   3.130   1.771  12.802 -0.0674 -0.3428 -0.1781
  152MPD2    C5 2318   3.222   1.703  12.873  0.0479 -0.7270 -0.0924
  152MPD2     H 2319   3.354   1.957  12.621 -0.8267  1.2798  0.6779
  152MPD2    H1 2320   3.027   1.755  12.832 -0.4720  2.9945  0.2094
  152MPD2    H2 2321   3.417   1.649  12.916 -0.9122  0.5290  2.0052
  152MPD2    H3 2322   3.184   1.630  12.943  1.9348 -1.5078  0.1186
  152MPD2     N 2323   3.101   1.963  12.647  0.2689 -0.2649  0.0994
  152MPD2    H5 2324   3.140   2.034  12.585 -0.5443 -0.9813 -1.2330
  152MPD2    N1 2325   3.554   1.826  12.763 -1.1925 -0.2617  0.1343
  152MPD2    H7 2326   3.607   1.766  12.825 -1.9354  0.3549  1.3808
  153TCq2    C1 2327   3.616   1.930  12.697 -0.0475  0.7272  0.2756
  153TCq2    O2 2328   3.568   2.007  12.611 -0.4345  0.3413 -0.4975
  153TCq2    C2 2329   3.758   1.928  12.718  0.2451 -0.0592 -1.0646
  153TCq2    C3 2330   3.815   1.812  12.762 -0.2413 -1.5384 -0.2329
  153TCq2    C4 2331   3.952   1.805  12.772  0.8449 -0.4715  0.2259
  153TCq2    C5 2332   4.032   1.907  12.730  0.0688 -0.4665  0.0561
  153TCq2    C6 2333   3.971   2.020  12.680 -0.3099  0.2620 -0.1504
  153TCq2    C7 2334   3.832   2.034  12.681 -0.8141  0.0172  0.0286
  153TCq2    C8 2335   4.049   2.134  12.634  0.1891 -0.0731  0.6231
  153TCq2    O4 2336   3.996   2.230  12.580 -0.3627 -0.3702  0.1763
  153TCq2    C9 2337   4.015   1.684  12.806  0.2015  0.4560 -0.2398
  153TCq2    O5 2338   4.138   1.691  12.833  0.3305  0.0409 -0.1583
  153TCq2    O6 2339   3.946   1.584  12.797 -0.1158  0.4751  0.1260
  153TCq2    H2 2340   3.770   1.722  12.802 -0.6311 -1.4905 -0.5662
  153TCq2    H3 2341   4.139   1.900  12.748 -0.2011  0.5993  2.0826
  153TCq2    H4 2342   3.782   2.112  12.624  0.7794  1.6073  0.8157
  154MPD2     C 2343   0.909   3.047   0.626  0.3816  0.3876  0.3028
  154MPD2    C1 2344   0.914   2.913   0.583  0.4023  0.0747 -0.0022
  154MPD2    C2 2345   0.801   2.851   0.544  0.3807  0.2633 -0.1692
  154MPD2    C3 2346   0.682   2.926   0.517  0.0988 -0.2013  0.1468
  154MPD2    C4 2347   0.680   3.060   0.553  0.7004  0.5700  0.2901
  154MPD2    C5 2348   0.794   3.115   0.603 -0.7420  0.3831 -0.5304
  154MPD2     H 2349   0.804   2.744   0.531  0.4410 -0.0634  2.4637
  154MPD2    H1 2350   0.594   3.126   0.542 -0.6823 -1.2960 -0.1074
  154MPD2    H2 2351   1.004   3.094   0.651  1.0260 -0.4566 -0.5600
  154MPD2    H3 2352   0.781   3.215   0.642 -0.7824 -0.4220  1.4920
  154MPD2     N 2353   0.561   2.859   0.474  0.2775 -0.0869 -0.2958
  154MPD2    H5 2354   0.569   2.772   0.422  3.5739  0.7672 -1.2282
  154MPD2    N1 2355   1.047   2.847   0.577  0.6209  0.2588  0.3252
  154MPD2    H7 2356   1.122   2.910   0.606  0.2714  1.6611 -1.9009
  155TCq2    C1 2357   1.075   2.716   0.535 -0.5961 -0.5092  0.2297
  155TCq2    O2 2358   0.996   2.625   0.500  0.1041  0.0043 -0.0519
  155TCq2    C2 2359   1.216   2.687   0.538  0.4787 -0.0087 -0.2699
  155TCq2    C3 2360   1.300   2.763   0.615 -0.5784  0.4013 -0.5769
  155TCq2    C4 2361   1.436   2.720   0.631 -0.2272  0.3428  0.8225
  155TCq2    C5 2362   1.482   2.614   0.559  0.3053 -0.5011  0.5098
  155TCq2    C6 2363   1.394   2.544   0.486  0.0822  0.0111 -0.5015
  155TCq2    C7 2364   1.257   2.571   0.479 -0.5928  0.2423  0.4727
  155TCq2    C8 2365   1.440   2.426   0.418  0.1204  0.3888 -1.2041
  155TCq2    O4 2366   1.543   2.367   0.450 -0.2704  0.2511  0.2211
  155TCq2    C9 2367   1.531   2.800   0.703  0.5964  0.1803  0.1471
  155TCq2    O5 2368   1.645   2.746   0.723 -0.2109  0.3709  0.0982
  155TCq2    O6 2369   1.495   2.918   0.734 -0.5113  0.0857  0.0241
  155TCq2    H2 2370   1.267   2.849   0.671  4.1832  0.1426  2.5411
  155TCq2    H3 2371   1.590   2.602   0.555  0.4096  0.9735 -0.8163
  155TCq2    H4 2372   1.191   2.503   0.427 -0.2261 -0.3176  0.7504
  156MPD2     C 2373   4.456   4.070  11.961 -0.1419  0.4598 -0.3297
  156MPD2    C1 2374   4.435   4.188  11.889  0.2312 -0.1167  0.1588
  156MPD2    C2 2375   4.356   4.289  11.946 -0.9584  0.0225  0.2901
  156MPD2    C3 2376   4.307   4.272  12.080  0.6972  0.0311 -0.6023
  156MPD2    C4 2377   4.325   4.149  12.146  0.0992 -1.0202  0.1966
  156MPD2    C5 2378   4.413   4.059  12.091 -0.4356 -0.4155  0.4335
  156MPD2     H 2379   4.338   4.391  11.915  2.3549  0.2751 -0.8122
  156MPD2    H1 2380   4.288   4.120  12.244 -0.6646  3.2378  1.1324
  156MPD2    H2 2381   4.522   3.992  11.924  0.7878  0.9304  0.3641
  156MPD2    H3 2382   4.442   3.972  12.150 -1.7940 -0.6031  0.8260
  156MPD2     N 2383   4.218   4.372  12.131  0.3073 -0.0829 -0.2543
  156MPD2    H5 2384   4.206   4.456  12.075 -2.1132 -1.2193 -1.4279
  156MPD2    N1 2385   4.476   4.201  11.758  0.2871 -0.7379  0.3273
  156MPD2    H7 2386   4.516   4.117  11.717 -2.3467 -0.8878 -1.9411
  157TCq2    C1 2387   4.450   4.309  11.676  0.2590 -0.5281  0.2568
  157TCq2    O2 2388   4.407   4.420  11.705  0.2361 -0.4674  0.0001
  157TCq2    C2 2389   4.452   4.269  11.538  0.5652  0.3175  0.4762
  157TCq2    C3 2390   4.480   4.144  11.493 -0.0567  0.3419 -0.1622
  157TCq2    C4 2391   4.459   4.118  11.358  0.4404  0.0019 -0.0115
  157TCq2    C5 2392   4.393   4.213  11.280  0.3812 -0.5929  0.6662
  157TCq2    C6 2393   4.370   4.340  11.328 -0.5060 -0.2784  0.5917
  157TCq2    C7 2394   4.404   4.371  11.457  0.2568  0.0845 -0.1985
  157TCq2    C8 2395   4.334   4.447  11.240 -0.1359  0.0379  0.4496
  157TCq2    O4 2396   4.277   4.541  11.293 -0.6379  0.1778  0.0247
  157TCq2    C9 2397   4.489   3.984  11.313 -0.4159 -0.1698  0.2864
  157TCq2    O5 2398   4.412   3.930  11.233  0.2976  0.7204 -0.3007
  157TCq2    O6 2399   4.554   3.909  11.391  0.4675  0.0120  0.6376
  157TCq2    H2 2400   4.527   4.068  11.554  0.5908 -0.1152 -1.2223
  157TCq2    H3 2401   4.388   4.189  11.175 -2.4145 -0.7527  0.8274
  157TCq2    H4 2402   4.422   4.472  11.493 -1.1020 -0.4756  2.0374
  158TMC2    C1 2403   4.454   2.983  13.649 -0.3518  0.0448 -0.6395
  158TMC2    C2 2404   4.529   3.031  13.544  0.0354 -0.2656  0.2412
  158TMC2    C3 2405   4.493   3.152  13.490 -0.2241  0.3238  0.8627
  158TMC2    C4 2406   4.329   3.037  13.685  0.5194  0.1046  0.5829
  158TMC2    C5 2407   4.296   3.154  13.628 -0.0129  0.1845  0.3602
  158TMC2    C6 2408   4.377   3.209  13.530 -0.0509 -0.1600 -0.0369
  158TMC2     C 2409   4.517   2.876  13.726  0.3854  0.2258  0.9646
  158TMC2     O 2410   4.601   2.812  13.671  0.4506  0.3457 -0.1389
  158TMC2     H 2411   4.626   2.987  13.521  0.1351  0.3190 -0.4399
  158TMC2    H1 2412   4.279   2.993  13.771 -2.0332 -2.1854 -2.0777
  158TMC2    H2 2413   4.362   3.310  13.493  1.6517  0.2738  0.4764
  158TMC2    C7 2414   4.160   3.197  13.646 -0.0726 -0.2399  0.0247
  158TMC2    C8 2415   4.561   3.202  13.368  0.2673  0.4370 -0.4272
  158TMC2    O1 2416   4.125   3.295  13.586  0.2690  0.3723 -0.1773
  158TMC2    O2 2417   4.510   3.221  13.262  0.6905  0.1092  0.4327
  158TMC2    O5 2418   4.690   3.171  13.385 -0.1251 -0.2109 -0.0434
  158TMC2    H5 2419   4.719   3.185  13.477  0.2699 -1.0473 -0.0484
  159MPD2     C 2420   4.626   2.654  14.169  0.5812 -0.0274  0.4071
  159MPD2    C1 2421   4.522   2.734  14.184  0.1989  0.4886 -0.0183
  159MPD2    C2 2422   4.486   2.826  14.088 -0.0466  0.4596 -0.3080
  159MPD2    C3 2423   4.543   2.810  13.961  0.2426  0.3462  0.3101
  159MPD2    C4 2424   4.651   2.725  13.939 -0.3916 -0.0904 -0.5978
  159MPD2    C5 2425   4.697   2.652  14.048  0.4890  0.8583 -0.1652
  159MPD2     H 2426   4.405   2.896  14.105  0.6086  1.1895 -0.1548
  159MPD2    H1 2427   4.704   2.718  13.845 -0.5418 -2.1410 -0.5194
  159MPD2    H2 2428   4.659   2.594  14.253  1.9548  0.4185  0.1704
  159MPD2    H3 2429   0.059   2.585  14.037 -1.8979 -2.3149  0.7711
  159MPD2     N 2430   4.484   2.883  13.857 -0.1389  0.0564 -0.2170
  159MPD2    H5 2431   4.414   2.951  13.884 -1.3887 -0.8701 -1.1386
  159MPD2    N1 2432   4.468   2.720  14.315 -0.1299  0.0468 -0.3113
  159MPD2    H7 2433   4.500   2.637  14.365 -1.6907 -0.6570 -0.4802
  160TMC2    C1 2434   4.036   1.490   1.593 -0.4790 -0.8811 -0.0158
  160TMC2    C2 2435   4.157   1.452   1.633 -0.9996  0.3411  0.2464
  160TMC2    C3 2436   4.256   1.432   1.543 -0.0830 -1.0422 -1.1713
  160TMC2    C4 2437   3.997   1.512   1.461  0.6460  0.4260  0.1952
  160TMC2    C5 2438   4.102   1.497   1.370  0.0010  0.6820 -0.8470
  160TMC2    C6 2439   4.231   1.456   1.407 -0.1435  0.6326 -0.3294
  160TMC2     C 2440   3.924   1.493   1.693 -0.3036 -0.0786  0.0762
  160TMC2     O 2441   3.950   1.506   1.812 -0.6150 -0.0789 -0.2008
  160TMC2     H 2442   4.176   1.437   1.738 -1.6466  2.2069  0.6266
  160TMC2    H1 2443   3.899   1.547   1.431  0.1420 -0.9643  0.2142
  160TMC2    H2 2444   4.297   1.416   1.332  2.5477  1.0676  1.7901
  160TMC2    C7 2445   4.085   1.554   1.235 -0.2045 -0.7591 -0.1032
  160TMC2    C8 2446   4.382   1.395   1.588  0.3475  0.5900 -1.0321
  160TMC2    O1 2447   3.972   1.586   1.202 -0.6180  0.0997 -0.2575
  160TMC2    O2 2448   4.411   1.322   1.681 -0.8159  0.5450 -0.3968
  160TMC2    O5 2449   4.458   1.411   1.476  0.4365 -0.2590  0.0574
  160TMC2    H5 2450   4.426   1.485   1.420  0.1279  1.4376  2.4860
  161MPD2     C 2451   3.666   1.547   1.827 -0.1167  0.5734 -0.0389
  161MPD2    C1 2452   3.679   1.490   1.706  0.0287 -0.2326  0.0484
  161MPD2    C2 2453   3.569   1.464   1.627  0.6457 -0.1822 -0.0943
  161MPD2    C3 2454   3.445   1.490   1.671 -0.4493 -0.1860  0.5807
  161MPD2    C4 2455   3.431   1.541   1.798 -0.1881  0.0224  0.3353
  161MPD2    C5 2456   3.544   1.567   1.874 -0.0935  0.5709  0.1049
  161MPD2     H 2457   3.586   1.429   1.526 -0.3502  0.7298 -0.5834
  161MPD2    H1 2458   3.333   1.571   1.835 -1.1461 -1.6469 -0.8560
  161MPD2    H2 2459   3.746   1.592   1.885  0.4185  0.4068 -0.6617
  161MPD2    H3 2460   3.540   1.611   1.973 -2.1915  0.8746 -0.1187
  161MPD2     N 2461   3.326   1.471   1.606  0.6951  0.4314 -0.1034
  161MPD2    H5 2462   3.239   1.496   1.652  1.4765  1.7910  0.6745
  161MPD2    N1 2463   3.804   1.462   1.640 -0.2316 -0.0042  0.0121
  161MPD2    H7 2464   3.796   1.439   1.542 -1.0281 -1.0929  0.3292
  162TMC2    C1 2465   2.408   3.890   1.182  0.3176  0.1526  0.0080
  162TMC2    C2 2466   2.497   3.982   1.126  1.2707  0.4342 -0.4746
  162TMC2    C3 2467   2.581   4.047   1.218  0.3824 -0.2065  0.1290
  162TMC2    C4 2468   2.398   3.872   1.316 -0.1141  0.8025  0.1244
  162TMC2    C5 2469   2.484   3.949   1.398 -0.1017  0.5279  0.5461
  162TMC2    C6 2470   2.571   4.038   1.355  0.2499  0.2241 -0.4488
  162TMC2     C 2471   2.328   3.810   1.092  0.3018 -0.7848  0.2902
  162TMC2     O 2472   2.289   3.704   1.140  0.0236 -0.2457  0.0406
  162TMC2     H 2473   2.506   3.992   1.018 -1.9669 -0.6247 -0.8502
  162TMC2    H1 2474   2.306   3.833   1.359  0.1185  0.9543  0.7563
  162TMC2    H2 2475   2.632   4.090   1.428 -0.5754  0.2411  0.2284
  162TMC2    C7 2476   2.502   3.913   1.530  0.9135  0.2929 -0.1374
  162TMC2    C8 2477   2.698   4.113   1.159  0.6174 -0.5211  0.6844
  162TMC2    O1 2478   2.532   3.995   1.616  0.1347  0.0435  0.1216
  162TMC2    O2 2479   2.696   4.161   1.051  0.0142  0.3455  0.1767
  162TMC2    O5 2480   2.799   4.039   1.211  0.3954  0.2272  0.3064
  162TMC2    H5 2481   2.791   4.004   1.302  0.8913  0.7463  0.5486
  163MPD2     C 2482   2.123   3.658   0.651  0.3938 -0.2768 -0.1537
  163MPD2    C1 2483   2.177   3.585   0.756  0.4072  0.1902 -0.3184
  163MPD2    C2 2484   2.241   3.652   0.863  0.1824 -0.5331  0.2258
  163MPD2    C3 2485   2.253   3.793   0.863 -0.4615  0.0589  0.0430
  163MPD2    C4 2486   2.209   3.859   0.753 -0.2195  0.0023 -0.2768
  163MPD2    C5 2487   2.145   3.797   0.655  1.0579  0.1217 -0.4646
  163MPD2     H 2488   2.301   3.589   0.928 -0.1892 -1.3796 -0.2555
  163MPD2    H1 2489   2.225   3.967   0.750  1.7062 -0.2419  1.0328
  163MPD2    H2 2490   2.066   3.607   0.575 -1.1329 -1.9996  2.1330
  163MPD2    H3 2491   2.111   3.858   0.572 -2.6029  0.4783  1.3326
  163MPD2     N 2492   2.323   3.859   0.962 -0.0188 -0.1537  0.5220
  163MPD2    H5 2493   2.345   3.957   0.951  1.3698 -0.6339 -1.0176
  163MPD2    N1 2494   2.160   3.440   0.750 -0.1312  0.6479 -0.3399
  163MPD2    H7 2495   2.104   3.401   0.676 -0.8103 -3.1230  2.1581
  164TCq2    C1 2496   3.099   3.434  11.703 -0.0671  0.1101 -0.0666
  164TCq2    O2 2497   3.031   3.350  11.641 -0.0781  0.1406 -0.0949
  164TCq2    C2 2498   3.029   3.534  11.791 -0.0664  0.5301  0.9410
  164TCq2    C3 2499   3.046   3.664  11.766 -0.4983 -0.2682 -0.3063
  164TCq2    C4 2500   2.945   3.748  11.795 -0.3068 -0.1267 -0.0400
  164TCq2    C5 2501   2.827   3.702  11.850 -0.2784 -0.5556 -0.5626
  164TCq2    C6 2502   2.804   3.568  11.862 -0.0351  0.0762 -0.4354
  164TCq2    C7 2503   2.908   3.485  11.835  0.5742 -0.8939  0.0776
  164TCq2    C8 2504   2.684   3.519  11.923 -0.3699  0.0967 -0.7416
  164TCq2    O4 2505   2.687   3.438  12.015  0.3545 -0.4215 -0.0545
  164TCq2    C9 2506   2.961   3.893  11.775  0.1440  0.5237 -0.2586
  164TCq2    O5 2507   3.072   3.938  11.737 -0.0364 -0.4131 -0.0765
  164TCq2    O6 2508   2.858   3.967  11.793 -0.0882  0.5139  0.3429
  164TCq2    H2 2509   3.134   3.705  11.718  0.8845 -1.5414  1.1459
  164TCq2    H3 2510   2.743   3.766  11.874  0.5005  0.6122 -0.9697
  164TCq2    H4 2511   2.884   3.380  11.839  1.6730 -1.1075  0.8633
  165MPD2     C 2512   3.207   0.538   1.773 -0.0318  0.3023 -0.4096
  165MPD2    C1 2513   3.339   0.536   1.809 -0.2551  0.7862  0.1135
  165MPD2    C2 2514   3.411   0.653   1.826 -0.7674  0.7597 -0.0248
  165MPD2    C3 2515   3.349   0.773   1.824 -0.1294  0.6335 -0.3037
  165MPD2    C4 2516   3.216   0.774   1.817  0.4049 -0.6333  0.2901
  165MPD2    C5 2517   3.142   0.663   1.786 -0.2710 -0.5706 -0.5434
  165MPD2     H 2518   3.515   0.641   1.854 -1.2043 -1.0341  0.7902
  165MPD2    H1 2519   3.166   0.870   1.830 -1.1727 -1.0353 -2.7942
  165MPD2    H2 2520   3.149   0.448   1.753  1.7650 -1.1265  0.7267
  165MPD2    H3 2521   3.038   0.674   1.757  0.0191  1.4664 -0.8139
  165MPD2     N 2522   3.413   0.893   1.866  0.4113  0.3330 -0.5556
  165MPD2    H5 2523   3.355   0.976   1.878  1.6559  0.6377  3.3350
  165MPD2    N1 2524   3.399   0.406   1.827  0.5855  1.1409 -0.5154
  165MPD2    H7 2525   3.338   0.327   1.806  1.0181  0.5896  0.3316
  166TCq2    C1 2526   3.549   0.910   1.856 -0.3032  0.0855 -0.6753
  166TCq2    O2 2527   3.634   0.838   1.804  0.6730 -0.5191 -0.2940
  166TCq2    C2 2528   3.581   1.050   1.869 -0.3917 -0.4425  0.5145
  166TCq2    C3 2529   3.531   1.115   1.983  0.0099  0.0768 -0.9865
  166TCq2    C4 2530   3.617   1.196   2.049 -0.0118  0.2066  0.2762
  166TCq2    C5 2531   3.740   1.224   2.001 -0.3818 -0.1638 -0.0687
  166TCq2    C6 2532   3.787   1.163   1.888  0.7193  0.0323  0.2470
  166TCq2    C7 2533   3.709   1.074   1.823 -0.0490 -0.1723 -0.5875
  166TCq2    C8 2534   3.931   1.149   1.863  0.4468 -0.7317 -0.2890
  166TCq2    O4 2535   3.971   1.107   1.753 -0.3156  0.3972  0.6510
  166TCq2    C9 2536   3.570   1.259   2.167  0.2097 -0.6757 -0.0360
  166TCq2    O5 2537   3.466   1.208   2.226  0.0385  0.4395 -0.4661
  166TCq2    O6 2538   3.651   1.345   2.218  0.2236  0.0177  0.1962
  166TCq2    H2 2539   3.442   1.086   2.037 -0.4645  0.7512 -1.4119
  166TCq2    H3 2540   3.795   1.300   2.056  1.0380 -1.7254  0.6347
  166TCq2    H4 2541   3.755   1.007   1.752  2.6903 -1.8576  2.7446
  167TMC2    C1 2542   1.684   2.578  13.060 -0.6207 -0.5134  0.4499
  167TMC2    C2 2543   1.589   2.580  13.162 -0.8603  0.2131 -0.1280
  167TMC2    C3 2544   1.531   2.459  13.188 -0.5900 -0.3619 -0.9583
  167TMC2    C4 2545   1.719   2.462  12.999 -0.3757 -0.4947 -0.1080
  167TMC2    C5 2546   1.661   2.341  13.038  0.0873  0.2430  0.9533
  167TMC2    C6 2547   1.563   2.340  13.133  0.1640  0.2054  0.4604
  167TMC2     C 2548   1.731   2.705  13.010  0.1330  0.4750 -0.3307
  167TMC2     O 2549   1.720   2.804  13.085  0.0015 -0.1833 -0.0229
  167TMC2     H 2550   1.558   2.670  13.213  0.3402  0.2933  0.4425
  167TMC2    H1 2551   1.803   2.453  12.932  1.9226 -0.0141  2.7043
  167TMC2    H2 2552   1.508   2.260  13.181 -0.0656 -0.5357 -1.0357
  167TMC2    C7 2553   1.692   2.212  12.977 -0.7036 -0.8344  0.5141
  167TMC2    C8 2554   1.479   2.442  13.322  0.8618  0.6824 -0.4228
  167TMC2    O1 2555   1.627   2.122  13.031 -0.0122  0.4366  0.5235
  167TMC2    O2 2556   1.412   2.344  13.355 -0.0975  0.1489 -0.2919
  167TMC2    O5 2557   1.542   2.522  13.400 -0.3990 -0.1676 -0.3860
  167TMC2    H5 2558   1.616   2.576  13.366 -1.3389  0.5809 -1.2313
  168MPD2     C 2559   1.854   2.928  12.861  0.1702  0.2217 -0.1632
  168MPD2    C1 2560   1.842   2.802  12.809  0.2568  0.0146 -0.4724
  168MPD2    C2 2561   1.898   2.771  12.683  0.0405 -0.6241  0.1323
  168MPD2    C3 2562   1.968   2.866  12.615  0.5532 -0.2988  0.3107
  168MPD2    C4 2563   1.986   2.998  12.665 -0.1045 -0.4858  0.1091
  168MPD2    C5 2564   1.923   3.023  12.785 -0.1155 -0.1034 -0.3481
  168MPD2     H 2565   1.865   2.672  12.653  0.1990 -0.9880  1.1500
  168MPD2    H1 2566   2.038   3.068  12.601 -0.9350 -0.8601 -0.9888
  168MPD2    H2 2567   1.797   2.950  12.951  1.7035  0.3683  0.7750
  168MPD2    H3 2568   1.945   3.121  12.826 -0.6968  0.1648 -0.6866
  168MPD2     N 2569   2.011   2.825  12.490 -0.6326 -0.1920  0.7421
  168MPD2    H5 2570   2.006   2.724  12.480  1.1993 -0.0830 -1.2963
  168MPD2    N1 2571   1.790   2.695  12.883 -0.6457 -0.0759  0.5106
  168MPD2    H7 2572   1.773   2.608  12.833  1.0516  0.0464 -0.2723
  169MPD1     C 2573   4.612   1.729  10.345  0.0024  0.6657 -0.0282
  169MPD1    C1 2574   0.010   1.797  10.349  0.7327 -0.7641  0.7903
  169MPD1    C2 2575   0.083   1.791  10.231 -0.1542  0.2466  0.3918
  169MPD1    C3 2576   0.050   1.704  10.131  0.0709  0.2360  0.0290
  169MPD1    C4 2577   4.656   1.633  10.130  0.1619 -0.5020  0.4233
  169MPD1    C5 2578   4.582   1.647  10.243  0.1825 -0.3420  0.4073
  169MPD1     H 2579   0.177   1.843  10.214 -0.9145  1.1451 -1.0794
  169MPD1    H1 2580   4.621   1.553  10.066  0.1082  0.9734 -1.3814
  169MPD1    H2 2581   4.538   1.718  10.423  0.0551  1.4107  0.1306
  169MPD1    H3 2582   4.500   1.579  10.260 -0.8163  0.7581  0.0370
  169MPD1     N 2583   0.152   1.681  10.033 -0.5296  0.1892 -0.2808
  169MPD1    H5 2584   0.240   1.730  10.047 -0.7339 -0.3110  2.7243
  169MPD1    N1 2585   0.047   1.875  10.460 -0.6691  0.5111  0.0979
  169MPD1    H6 2586   0.012   1.833  10.546 -0.4655  3.2060  1.4813
  169MPD1    H7 2587   0.146   1.899  10.458 -1.2342  2.7002 -1.2920
  170MPD1     C 2588   2.308   0.533  12.808  0.0473 -0.5380 -0.4701
  170MPD1    C1 2589   2.432   0.586  12.811  0.4220  0.3871 -0.0089
  170MPD1    C2 2590   2.495   0.602  12.931 -0.4177 -0.4197 -0.0850
  170MPD1    C3 2591   2.439   0.564  13.050 -0.0588  0.1342  0.1464
  170MPD1    C4 2592   2.308   0.517  13.044  0.0523 -0.3592 -0.5910
  170MPD1    C5 2593   2.244   0.504  12.926  0.0117  0.5619  0.0027
  170MPD1     H 2594   2.601   0.624  12.926 -0.2681 -0.6658  2.0053
  170MPD1    H1 2595   2.255   0.476  13.129  1.8304  1.6806  1.5247
  170MPD1    H2 2596   2.259   0.505  12.716 -1.4184  0.5366 -0.0192
  170MPD1    H3 2597   2.140   0.472  12.921  0.0076  0.6977 -0.7229
  170MPD1     N 2598   2.523   0.556  13.162 -0.4606 -0.1612  0.3949
  170MPD1    H5 2599   2.600   0.621  13.162 -1.3293  0.8729 -1.9716
  170MPD1    N1 2600   2.502   0.606  12.688  1.0151 -0.5858 -0.4887
  170MPD1    H6 2601   2.533   0.704  12.689  0.1149 -0.2541 -4.0647
  170MPD1    H7 2602   2.424   0.618  12.623  1.9899  1.1194 -1.3502
  171MPD1     C 2603   1.206   1.633  15.842 -0.4236 -0.5162 -0.2406
  171MPD1    C1 2604   1.275   1.549  15.755  0.2597 -0.2051  0.0526
  171MPD1    C2 2605   1.367   1.464  15.812 -0.8087 -0.1591  0.0733
  171MPD1    C3 2606   1.386   1.457  15.951  0.1045 -0.4147 -0.3353
  171MPD1    C4 2607   1.312   1.539  16.031  1.0154  0.5124 -0.8736
  171MPD1    C5 2608   1.227   1.623  15.978  0.3797  0.0622  0.3071
  171MPD1     H 2609   1.428   1.408  15.742 -1.9416 -0.3217 -0.7828
  171MPD1    H1 2610   1.317   1.537  16.139 -2.7996  0.9663 -0.6668
  171MPD1    H2 2611   1.140   1.711  15.805  0.3927 -0.7392 -2.1815
  171MPD1    H3 2612   1.174   1.688  16.046 -0.4542  0.2341 -0.5081
  171MPD1     N 2613   1.465   1.353  16.008  0.3961 -0.0435  0.2987
  171MPD1    H5 2614   1.467   1.351  16.110  0.8764 -1.4436  0.2740
  171MPD1    N1 2615   1.269   1.557  15.615  0.7449  0.2346  0.0217
  171MPD1    H6 2616   1.176   1.590  15.589  0.3346  1.0652  2.5578
  171MPD1    H7 2617   1.282   1.468  15.567 -0.6659 -0.7410  1.4227
  172MPD1     C 2618   0.211   0.180   0.655  0.3748  0.1882  0.0724
  172MPD1    C1 2619   0.275   0.262   0.745 -0.0316 -0.0073 -0.8603
  172MPD1    C2 2620   0.344   0.372   0.707  0.0394  0.4660 -0.2319
  172MPD1    C3 2621   0.388   0.384   0.570  0.4551  0.1565 -0.3622
  172MPD1    C4 2622   0.343   0.296   0.478  0.5107 -0.3175  0.0305
  172MPD1    C5 2623   0.253   0.203   0.522  0.3111  0.6025  0.2219
  172MPD1     H 2624   0.374   0.445   0.781 -0.1673  1.6986 -1.3428
  172MPD1    H1 2625   0.379   0.276   0.378  0.7001  1.0445 -0.1642
  172MPD1    H2 2626   0.147   0.096   0.677  0.6026  0.0310  0.1346
  172MPD1    H3 2627   0.212   0.132   0.451 -0.7862  0.0104  1.4494
  172MPD1     N 2628   0.482   0.483   0.531  0.0541 -0.5244 -0.0134
  172MPD1    H5 2629   0.518   0.476   0.436  0.5323  2.7642 -0.0658
  172MPD1    N1 2630   0.242   0.249   0.881  0.4768 -0.0776 -0.6841
  172MPD1    H6 2631   0.223   0.152   0.905  0.3344  0.5359  1.6726
  172MPD1    H7 2632   0.308   0.281   0.951  0.0623  0.8766 -0.7268
  173MPD1     C 2633   2.080   0.518  13.835  0.1769  0.0014 -0.2241
  173MPD1    C1 2634   2.038   0.563  13.958 -0.1554 -0.1518 -0.4797
  173MPD1    C2 2635   2.053   0.487  14.070 -0.0158 -0.4132  0.3120
  173MPD1    C3 2636   2.134   0.378  14.060  0.1220  0.7829  0.1940
  173MPD1    C4 2637   2.177   0.336  13.930  0.0583 -0.6054  0.3330
  173MPD1    C5 2638   2.146   0.409  13.821  0.3233 -0.4058  0.2044
  173MPD1     H 2639   2.007   0.522  14.162 -0.1917  1.2117 -0.4002
  173MPD1    H1 2640   2.240   0.248  13.920 -0.3870 -0.7677 -1.0741
  173MPD1    H2 2641   2.046   0.567  13.744  2.1715  0.5187 -0.6889
  173MPD1    H3 2642   2.192   0.378  13.728 -1.8188 -1.7318 -0.4144
  173MPD1     N 2643   2.172   0.315  14.180 -0.4287 -0.7279  0.0280
  173MPD1    H5 2644   2.115   0.339  14.261  0.2377  0.4529  0.1355
  173MPD1    N1 2645   1.953   0.674  13.959 -0.1367  0.3050 -0.0126
  173MPD1    H6 2646   1.959   0.727  14.046 -1.2415  3.2125 -1.7130
  173MPD1    H7 2647   1.971   0.738  13.882 -4.3054 -0.2348 -1.4521
  174MPD1     C 2648   2.903   0.155  14.756 -0.4180  0.0698  0.5261
  174MPD1    C1 2649   2.835   0.036  14.782 -0.5969 -0.3384  0.8514
  174MPD1    C2 2650   2.723   0.012  14.709  0.0838  0.1152  0.5032
  174MPD1    C3 2651   2.680   0.095  14.606 -0.3158 -0.4942 -0.5014
  174MPD1    C4 2652   2.746   0.214  14.585  0.0216  0.0990 -0.0407
  174MPD1    C5 2653   2.866   0.234  14.653  0.4513 -0.1297 -0.6308
  174MPD1     H 2654   2.667   4.648  14.742  0.1768  0.9827  2.9348
  174MPD1    H1 2655   2.708   0.275  14.504 -1.0789 -2.1074 -1.2070
  174MPD1    H2 2656   2.987   0.179  14.819 -0.2200 -1.6854  0.9373
  174MPD1    H3 2657   2.936   0.313  14.630  2.4687 -2.3291 -2.0927
  174MPD1     N 2658   2.563   0.079  14.523  0.3635  0.0310 -0.2752
  174MPD1    H5 2659   2.537   0.159  14.465 -1.6986 -2.1765 -2.3909
  174MPD1    N1 2660   2.857   4.690  14.901 -0.4561  0.0358 -0.2842
  174MPD1    H6 2661   2.828   4.592  14.900 -0.4311  0.0224  0.1784
  174MPD1    H7 2662   2.957   4.694  14.917 -0.6923 -0.1741  1.2908
  175MPD1     C 2663   0.882   0.324  16.315  0.0548 -0.4892 -0.2589
  175MPD1    C1 2664   0.925   0.333  16.443 -0.4698 -0.4182 -1.0414
  175MPD1    C2 2665   0.901   0.453  16.508 -0.0491  0.8791  0.6466
  175MPD1    C3 2666   0.816   0.559  16.465 -0.1204  0.4670 -0.3433
  175MPD1    C4 2667   0.774   0.537  16.336  0.0518 -0.6236 -0.3471
  175MPD1    C5 2668   0.809   0.428  16.266 -1.0383 -0.9791 -0.6875
  175MPD1     H 2669   0.938   0.463  16.609  2.6766  0.3965 -0.2943
  175MPD1    H1 2670   0.718   0.619  16.291  0.3625  0.6848  1.6615
  175MPD1    H2 2671   0.904   0.237  16.254 -0.4654 -1.7545  1.3884
  175MPD1    H3 2672   0.772   0.424  16.164 -0.2376 -0.4844 -1.0018
  175MPD1     N 2673   0.794   0.689  16.520 -0.3653  0.3981  0.3391
  175MPD1    H5 2674   0.732   0.750  16.467  0.0732  0.0918 -0.5303
  175MPD1    N1 2675   1.009   0.232  16.494 -0.0056  0.1858 -0.1660
  175MPD1    H6 2676   0.999   0.226  16.595  1.1370 -0.1119 -0.0776
  175MPD1    H7 2677   0.984   0.139  16.459 -1.5628  1.2623 -1.9244
  176MPD1     C 2678   2.463   3.505   0.017  0.0925  0.6400 -0.5848
  176MPD1    C1 2679   2.532   3.626  17.694 -0.1372 -0.0536 -0.4444
  176MPD1    C2 2680   2.479   3.741   0.056  0.0674  0.0612  0.0716
  176MPD1    C3 2681   2.372   3.734   0.145 -0.5926  0.0772 -0.0670
  176MPD1    C4 2682   2.323   3.610   0.181  0.2247 -0.2071 -0.7398
  176MPD1    C5 2683   2.354   3.502   0.105 -0.1665 -0.0158  0.1518
  176MPD1     H 2684   2.531   3.833   0.032 -0.8922  0.4037 -0.6731
  176MPD1    H1 2685   2.236   3.598   0.244  0.6878 -1.4360 -0.3435
  176MPD1    H2 2686   2.485   3.413  17.658  0.1783 -0.1051  0.7492
  176MPD1    H3 2687   2.304   3.408   0.128 -2.4379  1.6567  2.0496
  176MPD1     N 2688   2.309   3.854   0.194 -0.4460  0.2538 -0.0519
  176MPD1    H5 2689   2.359   3.937   0.167 -3.3835  1.8031 -0.7218
  176MPD1    N1 2690   2.635   3.643  17.592  0.2242 -0.0690 -0.0462
  176MPD1    H6 2691   2.700   3.564  17.584  1.9336  1.2564  0.8620
  176MPD1    H7 2692   2.693   3.725  17.603 -1.2589  0.9046  0.4780
  177MPD1     C 2693   0.067   2.339  10.188 -0.2842  0.5397  0.1994
  177MPD1    C1 2694   0.127   2.266  10.090 -0.3565  0.1318 -0.2849
  177MPD1    C2 2695   0.211   2.339  10.005  0.1292 -0.4801 -0.3000
  177MPD1    C3 2696   0.227   2.474  10.016  0.4769 -0.8315 -0.2102
  177MPD1    C4 2697   0.154   2.540  10.116 -0.4792 -0.6081 -0.5254
  177MPD1    C5 2698   0.077   2.468  10.208 -0.3262  0.0301 -0.0522
  177MPD1     H 2699   0.274   2.295   9.929  1.0605  1.9085 -0.9142
  177MPD1    H1 2700   0.163   2.645  10.142 -0.5418 -0.2854 -1.8096
  177MPD1    H2 2701   0.004   2.291  10.261 -0.3739  1.1577  0.5253
  177MPD1    H3 2702   0.017   2.507  10.290  1.5977 -1.5361  2.0771
  177MPD1     N 2703   0.325   2.536   9.936 -0.5567  0.6814  0.2112
  177MPD1    H5 2704   0.363   2.482   9.859  1.5748  1.1675  0.9250
  177MPD1    N1 2705   0.125   2.128  10.090 -0.6288 -0.4547 -0.1889
  177MPD1    H6 2706   0.128   2.093   9.994  0.3296 -2.6124  0.6236
  177MPD1    H7 2707   0.044   2.090  10.139  1.4556 -0.1428  3.4433
  178MPD1     C 2708   1.931   3.966  17.584 -0.1022  0.2603  0.1985
  178MPD1    C1 2709   2.009   4.060  17.525  0.1397 -1.1058  0.6438
  178MPD1    C2 2710   2.143   4.033  17.493  0.4210 -0.4642  0.0768
  178MPD1    C3 2711   2.202   3.916  17.537  0.4265  0.0607  0.4999
  178MPD1    C4 2712   2.124   3.819  17.600  0.6320  0.5267 -0.3568
  178MPD1    C5 2713   1.992   3.849  17.620 -0.4354  0.3643  0.6351
  178MPD1     H 2714   2.194   4.106  17.431 -1.6233  0.9611  0.0929
  178MPD1    H1 2715   2.168   3.736  17.654  0.8270  1.5806  1.0805
  178MPD1    H2 2716   1.824   3.976  17.597 -0.2723 -1.4693  0.1899
  178MPD1    H3 2717   1.935   3.771  17.670  0.9828  0.5319  2.5222
  178MPD1     N 2718   2.339   3.888  17.522 -0.5418  0.1279 -0.3151
  178MPD1    H5 2719   2.372   3.794  17.542 -0.1050  0.2724 -0.3794
  178MPD1    N1 2720   1.946   4.162  17.450  0.3435 -0.0470 -0.9658
  178MPD1    H6 2721   1.853   4.195  17.477  1.6500  2.8892 -0.0373
  178MPD1    H7 2722   2.013   4.239  17.444 -2.0678  2.1625  0.0959
  179MPD1     C 2723   2.180   2.837  15.993  0.0769 -0.6405 -0.2226
  179MPD1    C1 2724   2.052   2.782  16.000 -0.3535 -0.0952 -0.3677
  179MPD1    C2 2725   2.044   2.646  15.971 -0.2423 -0.3432  0.1807
  179MPD1    C3 2726   2.149   2.574  15.920  0.1193  0.0410  0.5511
  179MPD1    C4 2727   2.263   2.641  15.881  0.3688 -0.2727 -0.7450
  179MPD1    C5 2728   2.282   2.773  15.922  0.3183  0.2358 -0.7753
  179MPD1     H 2729   1.956   2.595  16.008 -0.6010 -0.3768 -0.7194
  179MPD1    H1 2730   2.348   2.585  15.843  0.6510  1.0693 -2.0925
  179MPD1    H2 2731   2.206   2.937  16.023 -2.1408 -0.7121  1.9593
  179MPD1    H3 2732   2.374   2.824  15.897  0.3265  1.1712  1.1560
  179MPD1     N 2733   2.150   2.431  15.909 -0.2327 -0.4849  0.2029
  179MPD1    H5 2734   2.239   2.389  15.886 -1.6332 -2.6843 -1.1914
  179MPD1    N1 2735   1.954   2.845  16.089 -0.3654 -0.5756  0.1658
  179MPD1    H6 2736   1.860   2.807  16.093 -0.8460  0.6211  0.1293
  179MPD1    H7 2737   1.962   2.946  16.086 -1.6432 -0.5109 -0.6385
  180MPD1     C 2738   2.497   3.098  15.123 -1.3038 -0.5526  0.5053
  180MPD1    C1 2739   2.607   3.139  15.052  0.0013  0.1030  0.6959
  180MPD1    C2 2740   2.607   3.263  14.982 -0.4963  0.1411 -0.3167
  180MPD1    C3 2741   2.503   3.345  14.998  0.2599  0.4493 -0.2506
  180MPD1    C4 2742   2.399   3.316  15.084 -0.0173 -0.3625  0.4810
  180MPD1    C5 2743   2.396   3.186  15.138  0.2147  0.1355  0.3281
  180MPD1     H 2744   2.695   3.279  14.920 -0.2088  0.2353  0.1140
  180MPD1    H1 2745   2.312   3.379  15.096  0.6270  1.1667 -2.6517
  180MPD1    H2 2746   2.492   3.003  15.174 -1.4824 -0.8693 -0.0998
  180MPD1    H3 2747   2.310   3.161  15.199  0.3283  1.2090  0.9203
  180MPD1     N 2748   2.495   3.467  14.930  0.2766  0.1869  0.0779
  180MPD1    H5 2749   2.406   3.515  14.938  0.6023  0.9144 -0.7669
  180MPD1    N1 2750   2.693   3.042  15.025  0.2548 -0.0705  0.5396
  180MPD1    H6 2751   2.701   2.984  15.108 -0.0560  0.8992  1.2481
  180MPD1    H7 2752   2.789   3.066  15.001  0.2982 -0.3500  0.4283
  181MPD1     C 2753   4.560   0.730  10.083  0.8105 -0.3449  0.3750
  181MPD1    C1 2754   4.578   0.648   9.972 -0.0644  0.0765 -0.0379
  181MPD1    C2 2755   4.693   0.663   9.896  0.2053 -0.6837  0.2267
  181MPD1    C3 2756   0.070   0.752   9.929  0.0534 -0.3618  0.7636
  181MPD1    C4 2757   0.047   0.834  10.042  0.5363 -0.3041 -0.8047
  181MPD1    C5 2758   4.649   0.828  10.115 -0.1594  0.2006  0.2675
  181MPD1     H 2759   4.708   0.588   9.819  2.8408 -0.7485  0.8313
  181MPD1    H1 2760   0.118   0.911  10.068 -1.1514  1.3290 -1.0190
  181MPD1    H2 2761   4.467   0.720  10.137  0.3598 -2.1203 -0.7117
  181MPD1    H3 2762   4.635   0.893  10.201 -1.9002 -1.2174  1.0512
  181MPD1     N 2763   0.196   0.770   9.863 -0.5068  0.5030  0.2744
  181MPD1    H5 2764   0.255   0.836   9.914 -1.0907  0.5998  0.8268
  181MPD1    N1 2765   4.489   0.534   9.962 -0.5085 -0.1740  0.0314
  181MPD1    H6 2766   4.500   0.503   9.865 -1.7062 -4.1745  1.1761
  181MPD1    H7 2767   4.394   0.557   9.989 -0.6159  1.0522 -1.3780
  182MPD1     C 2768   4.591   0.326   1.249 -1.2022  0.2129  0.1917
  182MPD1    C1 2769   4.624   0.227   1.165 -0.0121  0.2086  0.1490
  182MPD1    C2 2770   4.534   0.190   1.067  0.1985  0.5071 -0.3633
  182MPD1    C3 2771   4.411   0.243   1.060  0.4807  0.1513 -0.7031
  182MPD1    C4 2772   4.378   0.345   1.146  0.0959 -0.0150  0.1921
  182MPD1    C5 2773   4.467   0.386   1.238  0.1082  0.4550  0.0547
  182MPD1     H 2774   4.569   0.117   0.995 -1.7643 -1.0337  0.2531
  182MPD1    H1 2775   4.279   0.391   1.145 -0.2126 -0.6944 -1.3884
  182MPD1    H2 2776   4.663   0.368   1.319  0.6336 -0.6269 -1.1822
  182MPD1    H3 2777   4.451   0.476   1.296 -1.5435  0.2633 -0.0793
  182MPD1     N 2778   4.311   0.201   0.969  0.0956  0.4329  0.0890
  182MPD1    H5 2779   4.228   0.258   0.973  0.7682  1.3593  0.6320
  182MPD1    N1 2780   0.028   0.163   1.180 -0.2949  0.1362 -0.2417
  182MPD1    H6 2781   0.098   0.231   1.209  0.1482 -0.3025 -0.2783
  182MPD1    H7 2782   0.056   0.114   1.095  3.4612  2.6597 -0.4958
  183MPD1     C 2783   0.972   1.041   9.285  0.8926  0.0760 -0.3806
  183MPD1    C1 2784   0.934   1.003   9.411 -0.2693  0.1209 -0.6511
  183MPD1    C2 2785   0.952   0.868   9.436  0.1057 -0.0322  0.7544
  183MPD1    C3 2786   0.967   0.776   9.337  0.1725 -0.3801 -1.0370
  183MPD1    C4 2787   0.982   0.821   9.208  0.6830  0.7269 -0.0544
  183MPD1    C5 2788   0.992   0.955   9.188 -0.3392 -0.3054 -0.0967
  183MPD1     H 2789   0.938   0.824   9.533  1.8221  2.0316  1.9318
  183MPD1    H1 2790   1.016   0.752   9.131  1.6387 -0.3992  1.3646
  183MPD1    H2 2791   0.970   1.146   9.258 -1.8067 -0.5305 -2.5550
  183MPD1    H3 2792   1.002   0.998   9.090 -0.9759  1.2478  0.5250
  183MPD1     N 2793   0.988   0.643   9.372 -0.7619  0.2209  0.0959
  183MPD1    H5 2794   0.992   0.618   9.471  3.2712 -0.4172 -0.2352
  183MPD1    N1 2795   0.923   1.101   9.512  0.0504 -0.1746 -0.4492
  183MPD1    H6 2796   0.869   1.072   9.594 -0.1153 -3.5946 -1.7583
  183MPD1    H7 2797   0.887   1.190   9.479 -1.0423 -1.1342 -1.8257
  184MPD1     C 2798   4.269   2.425  10.170 -0.5064 -0.3619 -0.2040
  184MPD1    C1 2799   4.264   2.557  10.143  0.4440  0.4748  0.0237
  184MPD1    C2 2800   4.365   2.616  10.069  0.6019  0.0141  0.5907
  184MPD1    C3 2801   4.478   2.543  10.036  0.7010  0.6543  0.0219
  184MPD1    C4 2802   4.495   2.412  10.083 -0.1371  0.2106  0.0080
  184MPD1    C5 2803   4.389   2.358  10.151  0.1469 -0.1229  0.8216
  184MPD1     H 2804   4.348   2.715  10.031 -1.0238 -0.0553  1.1100
  184MPD1    H1 2805   4.577   2.346  10.057 -0.0588  0.3670 -0.1367
  184MPD1    H2 2806   4.187   2.376  10.220  0.4329 -1.7408 -0.0158
  184MPD1    H3 2807   4.399   2.257  10.188 -0.6614 -0.6022 -0.2516
  184MPD1     N 2808   4.589   2.596   9.962 -0.2056 -0.5824  0.2096
  184MPD1    H5 2809   4.653   2.527   9.924  1.3323  0.7955  0.2780
  184MPD1    N1 2810   4.143   2.627  10.158  0.2609  0.4260 -0.7087
  184MPD1    H6 2811   4.084   2.580  10.225  1.7859  0.5430  0.7147
  184MPD1    H7 2812   4.159   2.726  10.177  1.4430  0.1961 -0.5195
  185MPD1     C 2813   0.496   2.528   9.159  0.0811 -0.5564  0.3996
  185MPD1    C1 2814   0.383   2.460   9.187  0.1229 -0.0199  0.3708
  185MPD1    C2 2815   0.305   2.517   9.286 -0.2053  0.1461  0.2915
  185MPD1    C3 2816   0.356   2.636   9.360  0.2972 -0.4380  0.1060
  185MPD1    C4 2817   0.475   2.689   9.326  0.5793 -0.7308 -0.1351
  185MPD1    C5 2818   0.550   2.629   9.228 -0.3218 -0.1208 -0.3062
  185MPD1     H 2819   0.201   2.490   9.302 -0.1021 -0.3243  0.1587
  185MPD1    H1 2820   0.511   2.781   9.369  1.4475 -0.6400 -1.0612
  185MPD1    H2 2821   0.549   2.496   9.070 -0.2830 -0.1040  0.0143
  185MPD1    H3 2822   0.637   2.680   9.187 -0.5353  0.1502 -0.4262
  185MPD1     N 2823   0.281   2.697   9.466  0.1062 -0.2825 -0.7282
  185MPD1    H5 2824   0.316   2.787   9.498 -1.3996  0.2937 -0.6621
  185MPD1    N1 2825   0.334   2.370   9.090  0.3040 -0.8631 -0.4432
  185MPD1    H6 2826   0.258   2.321   9.136 -0.6197  0.8740 -0.1516
  185MPD1    H7 2827   0.406   2.303   9.062 -0.9644 -1.4685 -2.2040
  186MPD1     C 2828   3.269   1.808  16.357  0.1745  1.2990 -0.8406
  186MPD1    C1 2829   3.171   1.742  16.427 -0.1167  0.3188 -1.1788
  186MPD1    C2 2830   3.064   1.816  16.479 -0.3842 -0.5755 -0.3577
  186MPD1    C3 2831   3.052   1.954  16.457  0.2958 -0.0885 -0.0954
  186MPD1    C4 2832   3.162   2.015  16.398  0.5749  0.3482 -0.3711
  186MPD1    C5 2833   3.261   1.945  16.335 -0.1810 -0.0212 -0.1466
  186MPD1     H 2834   2.976   1.765  16.516 -0.0994 -0.2917  0.7254
  186MPD1    H1 2835   3.157   2.123  16.391 -1.5619  0.1800 -1.5342
  186MPD1    H2 2836   3.351   1.752  16.314 -0.1031  1.1678 -1.2042
  186MPD1    H3 2837   3.321   1.995  16.260 -3.0450 -0.4442 -2.6882
  186MPD1     N 2838   2.954   2.032  16.509 -0.0161  0.6284 -0.0553
  186MPD1    H5 2839   2.965   2.128  16.477 -0.2948  0.2523 -1.2834
  186MPD1    N1 2840   3.168   1.604  16.437 -0.0980 -0.0013  0.4646
  186MPD1    H6 2841   3.110   1.580  16.517 -1.9529  2.4109 -0.1487
  186MPD1    H7 2842   3.262   1.564  16.443 -0.4170 -0.5655  1.6532
  187MPD1     C 2843   1.399   4.426   0.774 -0.2285  0.1682  1.0932
  187MPD1    C1 2844   1.474   4.535   0.775  0.5237  0.5420  0.2515
  187MPD1    C2 2845   1.507   4.593   0.657 -0.4111  0.1372  0.5031
  187MPD1    C3 2846   1.475   4.538   0.535  0.5199 -0.5896 -0.5560
  187MPD1    C4 2847   1.406   4.419   0.536  0.0816 -0.4100  0.0374
  187MPD1    C5 2848   1.363   4.366   0.661  0.4969  0.1282 -0.4906
  187MPD1     H 2849   1.558   4.689   0.655  0.9499 -0.5819  0.3413
  187MPD1    H1 2850   1.387   4.376   0.439  0.1214 -0.9754  0.2841
  187MPD1    H2 2851   1.356   4.400   0.870  1.8311 -1.0903  1.6893
  187MPD1    H3 2852   1.295   4.282   0.675 -0.7372  1.2622  0.3015
  187MPD1     N 2853   1.488   4.586   0.404 -0.1890 -0.2282 -1.0882
  187MPD1    H5 2854   1.441   4.524   0.339  0.5933 -0.1703 -1.7064
  187MPD1    N1 2855   1.492   4.602   0.897 -0.1120 -0.1571 -0.0774
  187MPD1    H6 2856   1.498   4.536   0.975  0.2342 -1.9893 -1.6624
  187MPD1    H7 2857   1.582   4.650   0.898 -1.7690  2.8908  2.9721
  188MPD1     C 2858   2.235   4.387  10.820 -0.1253 -0.2457 -0.1181
  188MPD1    C1 2859   2.284   4.301  10.919  0.0076 -1.0759  0.7294
  188MPD1    C2 2860   2.322   4.173  10.878  0.0142  0.2262 -0.4353
  188MPD1    C3 2861   2.344   4.140  10.744  1.2182  1.0143 -0.2169
  188MPD1    C4 2862   2.320   4.233  10.652 -0.3275 -0.2660  0.4356
  188MPD1    C5 2863   2.254   4.347  10.691  0.4447  0.2282 -0.0854
  188MPD1     H 2864   2.345   4.097  10.951  0.4105  1.9500  1.2274
  188MPD1    H1 2865   2.331   4.194  10.552  1.0754  0.5934  0.2556
  188MPD1    H2 2866   2.169   4.472  10.837  0.8285  0.1513  1.6316
  188MPD1    H3 2867   2.222   4.421  10.618  2.0297  1.1579  0.1668
  188MPD1     N 2868   2.410   4.017  10.708  0.3816  0.1960 -0.4748
  188MPD1    H5 2869   2.431   4.008  10.609  1.3263  0.1256 -0.2678
  188MPD1    N1 2870   2.266   4.336  11.050 -0.2297  0.2724  0.2965
  188MPD1    H6 2871   2.289   4.435  11.055  2.6741 -0.3520 -0.5529
  188MPD1    H7 2872   2.333   4.286  11.109 -0.4561 -1.2987 -0.7667
  189MPD1     C 2873   3.929   4.527  16.919  0.3434 -0.6218 -0.0058
  189MPD1    C1 2874   3.959   4.664  16.902  0.5508 -0.1678 -0.8841
  189MPD1    C2 2875   3.899   0.028  16.995  0.3252 -0.3985  0.8291
  189MPD1    C3 2876   3.812   4.701  17.097 -0.3523  0.5117  0.0489
  189MPD1    C4 2877   3.792   4.569  17.108 -0.2415 -0.0270  0.0858
  189MPD1    C5 2878   3.853   4.483  17.023  0.5042 -0.5033  0.1798
  189MPD1     H 2879   3.918   0.134  16.990  2.4563 -0.6479  3.5027
  189MPD1    H1 2880   3.733   4.524  17.187  0.5537 -1.8393 -0.3657
  189MPD1    H2 2881   3.994   4.455  16.872 -0.3869 -1.2217 -0.0959
  189MPD1    H3 2882   3.858   4.376  17.041  0.7926 -0.5350 -0.0845
  189MPD1     N 2883   3.782   0.072  17.195  0.0702 -0.5519 -0.1544
  189MPD1    H5 2884   3.809   0.167  17.172 -0.0134 -0.2061  1.1409
  189MPD1    N1 2885   4.055   4.709  16.807  0.0672  0.2630 -0.1784
  189MPD1    H6 2886   4.063   0.087  16.795 -0.1588 -0.0857 -3.1351
  189MPD1    H7 2887   4.065   4.669  16.714  0.5854  0.0678 -0.0377
  190MPD1     C 2888   1.589   3.994  15.936 -0.3222  0.3012 -0.7741
  190MPD1    C1 2889   1.617   3.918  16.051 -0.0099 -1.0186  0.4835
  190MPD1    C2 2890   1.695   3.806  16.036  0.1058  0.6412  0.3548
  190MPD1    C3 2891   1.712   3.750  15.910 -0.4406  0.1445 -0.2876
  190MPD1    C4 2892   1.673   3.814  15.793 -0.2848  0.1864  0.2423
  190MPD1    C5 2893   1.617   3.940  15.812  0.3348 -0.3438  0.7810
  190MPD1     H 2894   1.739   3.752  16.119 -2.0651 -0.2527  0.9021
  190MPD1    H1 2895   1.677   3.763  15.698  0.6231  2.8975 -1.1688
  190MPD1    H2 2896   1.536   4.089  15.941 -1.7042 -0.4711 -0.9438
  190MPD1    H3 2897   1.580   4.003  15.731 -0.8950 -0.3586  1.3386
  190MPD1     N 2898   1.770   3.623  15.910 -0.7314  0.2299 -0.4049
  190MPD1    H5 2899   1.780   3.583  16.003 -2.2600  1.9778  0.5060
  190MPD1    N1 2900   1.603   3.981  16.174 -0.1498 -0.6899 -0.3953
  190MPD1    H6 2901   1.622   3.919  16.252  0.6868  1.6139  1.2216
  190MPD1    H7 2902   1.515   4.031  16.187  0.3538 -0.0490  0.5844
  191MPD1     C 2903   1.516   0.540  13.057  0.7349 -0.0331  0.2588
  191MPD1    C1 2904   1.423   0.544  12.959 -0.6553 -0.5972 -0.0694
  191MPD1    C2 2905   1.445   0.624  12.847  0.2079 -0.7209 -0.3343
  191MPD1    C3 2906   1.553   0.698  12.834  0.8868 -1.0286  0.3874
  191MPD1    C4 2907   1.645   0.701  12.932 -0.8975 -0.1211  0.2213
  191MPD1    C5 2908   1.625   0.629  13.042  0.3724  0.2602  0.9241
  191MPD1     H 2909   1.381   0.628  12.760  0.1741  1.0192 -0.2334
  191MPD1    H1 2910   1.728   0.770  12.928 -2.5325  1.8278 -0.0919
  191MPD1    H2 2911   1.498   0.468  13.135 -1.8287 -0.0430 -0.3452
  191MPD1    H3 2912   1.709   0.619  13.109  1.2678 -0.2405 -0.2786
  191MPD1     N 2913   1.561   0.783  12.721  0.2119 -0.8702 -0.7886
  191MPD1    H5 2914   1.481   0.789  12.658  1.0838 -0.4884 -1.8590
  191MPD1    N1 2915   1.315   0.448  12.959  0.2241  0.4175 -0.2536
  191MPD1    H6 2916   1.237   0.475  12.899 -1.6754 -0.7560  1.7082
  191MPD1    H7 2917   1.269   0.434  13.049  0.8468 -0.3477 -0.0536
  192MPD1     C 2918   1.020   0.705  12.144  0.6685 -0.4598  0.1822
  192MPD1    C1 2919   1.094   0.788  12.067  0.3688 -0.1411  0.2280
  192MPD1    C2 2920   1.199   0.852  12.130  0.3738 -0.0150  0.4384
  192MPD1    C3 2921   1.215   0.847  12.267  0.0572 -0.9915 -0.6370
  192MPD1    C4 2922   1.118   0.785  12.339 -0.3329 -0.6488 -0.3078
  192MPD1    C5 2923   1.026   0.704  12.277  0.1178  0.0963 -0.3781
  192MPD1     H 2924   1.271   0.905  12.068 -1.8408  2.7591  0.2290
  192MPD1    H1 2925   1.098   0.796  12.446 -1.1633  0.3483 -0.5632
  192MPD1    H2 2926   0.944   0.646  12.096  1.0621 -0.4042 -0.5150
  192MPD1    H3 2927   0.954   0.649  12.337  0.2577  0.5127  0.1727
  192MPD1     N 2928   1.312   0.909  12.345 -0.3682  0.7844 -0.1377
  192MPD1    H5 2929   1.313   0.893  12.445  0.5850 -1.1463 -0.4408
  192MPD1    N1 2930   1.069   0.779  11.928 -0.1062 -0.0199 -0.5448
  192MPD1    H6 2931   1.081   0.868  11.879 -1.2836 -0.4168 -1.5581
  192MPD1    H7 2932   0.976   0.743  11.908  0.3227 -0.6203 -1.4549
  193MPD1     C 2933   1.239   0.639  16.963 -0.6501 -0.2902 -0.8910
  193MPD1    C1 2934   1.201   0.759  17.023 -0.5590  0.2170 -0.3571
  193MPD1    C2 2935   1.304   0.840  17.064 -0.3488 -0.1350 -0.0810
  193MPD1    C3 2936   1.435   0.816  17.027  0.2106 -0.0317 -0.0370
  193MPD1    C4 2937   1.469   0.704  16.951  0.5663  0.0234 -0.4976
  193MPD1    C5 2938   1.367   0.617  16.927  0.2586 -0.0802 -0.0152
  193MPD1     H 2939   1.280   0.928  17.122 -2.7424 -1.0558  0.3144
  193MPD1    H1 2940   1.573   0.687  16.924  0.0114  1.3918 -3.4660
  193MPD1    H2 2941   1.164   0.564  16.940 -0.0748 -0.9425 -0.6161
  193MPD1    H3 2942   1.378   0.522  16.875 -3.6635 -1.2868  1.2636
  193MPD1     N 2943   1.545   0.896  17.075  0.1192 -0.3459  0.3492
  193MPD1    H5 2944   1.635   0.881  17.031  1.0119  1.9030  1.4174
  193MPD1    N1 2945   1.065   0.782  17.061 -0.2756 -0.3604 -0.3938
  193MPD1    H6 2946   1.004   0.723  17.005  0.2739  1.2931 -2.7406
  193MPD1    H7 2947   1.038   0.880  17.055  1.3710 -0.0005 -1.9145
  194MPD1     C 2948   3.639   2.959  16.421  0.4825 -0.0168 -0.0545
  194MPD1    C1 2949   3.571   2.839  16.446  0.1912 -0.6877  0.1011
  194MPD1    C2 2950   3.637   2.725  16.490  1.0400  0.0368  0.2360
  194MPD1    C3 2951   3.770   2.741  16.519 -0.8610  0.0428 -0.4336
  194MPD1    C4 2952   3.836   2.859  16.483 -0.2417 -0.7075  0.2290
  194MPD1    C5 2953   3.765   2.969  16.439 -1.2370 -0.2457  0.3367
  194MPD1     H 2954   3.575   2.638  16.505 -0.3785  0.8047 -1.3346
  194MPD1    H1 2955   3.944   2.870  16.495 -0.0200 -2.1039 -0.5006
  194MPD1    H2 2956   3.589   3.051  16.392  1.2123  0.6874  0.9012
  194MPD1    H3 2957   3.814   3.063  16.418  0.8583 -1.8638 -1.8837
  194MPD1     N 2958   3.853   2.632  16.552 -0.2902  0.2080  0.4257
  194MPD1    H5 2959   3.952   2.653  16.562 -0.8223  2.0226  1.8589
  194MPD1    N1 2960   3.431   2.845  16.437  0.7259 -0.4098 -0.1157
  194MPD1    H6 2961   3.396   2.922  16.380 -2.3971 -0.5409  1.6467
  194MPD1    H7 2962   3.392   2.756  16.406 -1.8722  0.5464  0.4049
  195MPD1     C 2963   2.023   3.427   1.835 -0.1709  0.2194 -0.0500
  195MPD1    C1 2964   1.893   3.467   1.842 -0.0112  0.5394  0.0020
  195MPD1    C2 2965   1.844   3.542   1.735 -0.3130  0.1314  0.0869
  195MPD1    C3 2966   1.924   3.584   1.633  0.5290  0.1816  1.1057
  195MPD1    C4 2967   2.057   3.545   1.627  0.1148 -0.2613  0.4029
  195MPD1    C5 2968   2.097   3.459   1.722  0.0500 -0.3687  0.0144
  195MPD1     H 2969   1.739   3.567   1.729  0.0538  1.9474  1.1623
  195MPD1    H1 2970   2.132   3.576   1.556  0.4839  1.4150  1.5415
  195MPD1    H2 2971   2.076   3.397   1.925  0.5498  1.6589  0.0040
  195MPD1    H3 2972   2.202   3.429   1.725 -0.8470 -3.4549  0.5788
  195MPD1     N 2973   1.885   3.683   1.542 -0.5537 -0.6750  0.0974
  195MPD1    H5 2974   1.944   3.708   1.463 -2.5295  0.7315 -0.9392
  195MPD1    N1 2975   1.811   3.438   1.953  0.2032  0.9819  0.0956
  195MPD1    H6 2976   1.784   3.530   1.985  1.5939  1.0783  0.9913
  195MPD1    H7 2977   1.869   3.420   2.034 -0.8480 -3.1610 -0.0625
  196MPD1     C 2978   0.291   3.683   0.782 -0.0810 -0.3585 -0.1996
  196MPD1    C1 2979   0.345   3.771   0.696 -0.6494  0.1604 -0.1147
  196MPD1    C2 2980   0.422   3.869   0.742 -0.1564  0.1715 -0.0375
  196MPD1    C3 2981   0.420   3.897   0.879 -0.0343  0.0180  0.0442
  196MPD1    C4 2982   0.351   3.821   0.970 -0.5744 -0.2716  0.1155
  196MPD1    C5 2983   0.280   3.716   0.914 -0.7842 -0.0814  0.1429
  196MPD1     H 2984   0.481   3.929   0.673 -0.8927  1.8109  0.7740
  196MPD1    H1 2985   0.351   3.845   1.076  1.0096 -1.5918  0.4144
  196MPD1    H2 2986   0.244   3.587   0.760 -0.4059 -0.1930 -0.2309
  196MPD1    H3 2987   0.217   3.648   0.971  1.0073 -1.8273  0.0526
  196MPD1     N 2988   0.481   4.010   0.938  0.6255  0.1188  0.9625
  196MPD1    H5 2989   0.463   4.032   1.035 -0.2690 -1.2154  1.0883
  196MPD1    N1 2990   0.367   3.741   0.560 -0.2879  0.0358  0.4381
  196MPD1    H6 2991   0.382   3.825   0.505  1.6083 -1.1445 -0.8453
  196MPD1    H7 2992   0.284   3.696   0.522  0.2145  0.0946 -0.7254
  197MPD1     C 2993   0.748   1.876   0.146 -0.0644 -0.3144  0.0399
  197MPD1    C1 2994   0.726   2.009   0.117 -0.6008  0.0709 -0.3972
  197MPD1    C2 2995   0.667   2.033  17.685  0.1479  0.0393  0.3346
  197MPD1    C3 2996   0.595   1.932  17.612 -0.0493  0.7211  0.4112
  197MPD1    C4 2997   0.615   1.802  17.644 -0.5413  0.5081 -0.0482
  197MPD1    C5 2998   0.696   1.774   0.065  0.1366  0.2565 -0.3493
  197MPD1     H 2999   0.657   2.136  17.654 -0.9613 -0.8292 -2.1946
  197MPD1    H1 3000   0.592   1.713  17.587  0.3874 -0.6516  1.3808
  197MPD1    H2 3001   0.813   1.843   0.226  1.6717 -2.0439 -2.0744
  197MPD1    H3 3002   0.727   1.671   0.079 -2.1642 -0.4236 -0.4009
  197MPD1     N 3003   0.527   1.956  17.491 -0.7814 -0.5036 -0.2546
  197MPD1    H5 3004   0.490   1.872  17.447  0.6087 -1.2840  0.0577
  197MPD1    N1 3005   0.800   2.108   0.187  0.1605  0.4044 -0.1455
  197MPD1    H6 3006   0.773   2.203   0.160 -1.6224  0.1112  0.6802
  197MPD1    H7 3007   0.773   2.104   0.285 -1.0566  1.1725 -0.4451
  198MPD1     C 3008   1.813   4.313  15.897  0.1011 -0.4586  0.9652
  198MPD1    C1 3009   1.885   4.284  15.785  0.7669 -0.5995  0.3314
  198MPD1    C2 3010   1.940   4.388  15.712 -0.2232 -0.1594 -0.0226
  198MPD1    C3 3011   1.894   4.519  15.728  0.1147  0.1925  0.6739
  198MPD1    C4 3012   1.808   4.544  15.833 -0.6598 -0.9337  0.1861
  198MPD1    C5 3013   1.774   4.446  15.920 -0.4441 -0.1692  0.2889
  198MPD1     H 3014   2.011   4.362  15.634  0.2128 -0.0096  0.3242
  198MPD1    H1 3015   1.763   4.642  15.840 -0.5354 -0.9674  1.4539
  198MPD1    H2 3016   1.766   4.236  15.957  0.9955 -0.8199  1.2085
  198MPD1    H3 3017   1.717   4.476  16.007  1.8708 -0.8106  2.0368
  198MPD1     N 3018   1.953   4.632  15.661  0.4673 -0.6423  0.3677
  198MPD1    H5 3019   2.046   4.608  15.626  0.2957  3.2158 -2.8224
  198MPD1    N1 3020   1.925   4.149  15.764 -0.1015 -0.0369 -0.5593
  198MPD1    H6 3021   1.861   4.081  15.805 -1.3552  1.1373 -0.5615
  198MPD1    H7 3022   1.955   4.127  15.669  0.1395  0.9217 -0.7060
  199MPD1     C 3023   0.379   4.640   9.162 -0.3178 -0.6124  0.9298
  199MPD1    C1 3024   0.359   0.030   9.082 -1.3672  0.0513 -0.2354
  199MPD1    C2 3025   0.302   0.141   9.136 -0.2393 -1.0329 -0.1143
  199MPD1    C3 3026   0.243   0.132   9.262  0.3005  0.2050 -0.7204
  199MPD1    C4 3027   0.238   0.004   9.322 -0.3241  0.3179 -0.2697
  199MPD1    C5 3028   0.303   4.620   9.273  0.4988  0.3110  0.1155
  199MPD1     H 3029   0.311   0.237   9.088 -0.4685 -1.4866 -1.0508
  199MPD1    H1 3030   0.185   4.720   9.417 -2.0373  1.5815 -1.1257
  199MPD1    H2 3031   0.430   4.551   9.126  0.0193  0.1099 -0.3750
  199MPD1    H3 3032   0.308   4.532   9.335  2.0926  1.0991  1.1143
  199MPD1     N 3033   0.179   0.238   9.327  0.0014  0.3420  0.1633
  199MPD1    H5 3034   0.126   0.217   9.412  0.5780  0.9317  0.6718
  199MPD1    N1 3035   0.436   0.049   8.963  0.1474  0.3979  0.1969
  199MPD1    H6 3036   0.397   0.114   8.895 -2.3559  0.6196  1.8465
  199MPD1    H7 3037   0.479   4.687   8.926  1.6934  1.3909 -0.2838
  200MPD1     C 3038   3.553   1.022  15.560  0.3249  0.1811  0.0899
  200MPD1    C1 3039   3.460   0.989  15.472  0.2031  0.6647  0.0007
  200MPD1    C2 3040   3.477   1.013  15.335  0.0504  0.2931 -0.0684
  200MPD1    C3 3041   3.590   1.078  15.291  0.7122  0.0373  0.7607
  200MPD1    C4 3042   3.685   1.111  15.384 -0.8777 -0.3121  0.3769
  200MPD1    C5 3043   3.662   1.088  15.514 -0.0747 -0.6196  0.0018
  200MPD1     H 3044   3.402   0.986  15.262  0.4089 -0.5555 -0.1173
  200MPD1    H1 3045   3.775   1.162  15.353 -1.4875  0.1373 -0.6344
  200MPD1    H2 3046   3.537   1.007  15.667  2.8959  2.0880  0.7439
  200MPD1    H3 3047   3.738   1.116  15.586 -1.0405  0.4035  0.6294
  200MPD1     N 3048   3.600   1.104  15.155  0.0380 -0.1327  0.6487
  200MPD1    H5 3049   3.541   1.054  15.089  0.5716 -0.0524  0.1138
  200MPD1    N1 3050   3.342   0.931  15.527 -0.0558 -0.2111 -0.2440
  200MPD1    H6 3051   3.326   0.963  15.623  1.0314  0.9523 -0.4579
  200MPD1    H7 3052   3.261   0.946  15.468 -0.1509  1.6887  0.3802
  201MPD1     C 3053   0.185   4.719  13.540 -0.4047 -0.3779 -0.0074
  201MPD1    C1 3054   0.183   4.585  13.492  0.4742 -0.7482  0.1339
  201MPD1    C2 3055   0.300   4.525  13.476 -0.4471 -0.8443 -0.6340
  201MPD1    C3 3056   0.429   4.581  13.490  0.8278 -0.0162 -0.7223
  201MPD1    C4 3057   0.433   4.712  13.537  0.6263 -0.0817  0.2149
  201MPD1    C5 3058   0.315   0.048  13.564  0.1174 -0.6036 -0.0474
  201MPD1     H 3059   0.297   4.418  13.459  1.2489 -1.0323  0.2629
  201MPD1    H1 3060   0.520   0.050  13.559  3.2069 -3.8363  0.5432
  201MPD1    H2 3061   0.092   0.049  13.561 -0.7715 -0.0515 -2.5432
  201MPD1    H3 3062   0.315   0.149  13.602  1.4366 -1.0440  1.0964
  201MPD1     N 3063   0.546   4.505  13.469 -0.6238  0.1020 -0.1233
  201MPD1    H5 3064   0.532   4.407  13.447  2.6113 -0.4800  0.3824
  201MPD1    N1 3065   0.057   4.515  13.474 -0.4569  0.2731  0.2240
  201MPD1    H6 3066   4.709   4.584  13.452 -0.6003  0.7505  2.1230
  201MPD1    H7 3067   0.060   4.447  13.398  0.7239  0.1910  0.3461
  202MPD1     C 3068   1.105   3.959   9.287  0.1076  0.5243 -0.4332
  202MPD1    C1 3069   1.061   3.944   9.417 -0.2805 -0.1961  0.1633
  202MPD1    C2 3070   1.154   3.978   9.514 -0.4337 -0.1556  0.3017
  202MPD1    C3 3071   1.292   3.991   9.493  0.0706  0.2056  0.5142
  202MPD1    C4 3072   1.336   3.982   9.358  0.3005  0.4210 -0.2377
  202MPD1    C5 3073   1.243   3.982   9.262 -0.4066 -0.5292  0.3820
  202MPD1     H 3074   1.123   3.994   9.616 -4.1842  0.1307 -0.8789
  202MPD1    H1 3075   1.441   3.991   9.334  0.1196  2.7604 -0.1722
  202MPD1    H2 3076   1.025   3.969   9.214 -0.5377  1.4121  0.3817
  202MPD1    H3 3077   1.279   3.998   9.161  1.3413  0.9661  1.2552
  202MPD1     N 3078   1.389   4.011   9.594  0.3715 -0.6065  0.1888
  202MPD1    H5 3079   1.479   4.042   9.560  0.6440  0.0330  1.5001
  202MPD1    N1 3080   0.925   3.951   9.447 -0.0252 -0.3468  0.5694
  202MPD1    H6 3081   0.910   3.922   9.544 -0.5494  1.2437  0.9672
  202MPD1    H7 3082   0.863   3.891   9.394 -3.3586  2.6079  1.1047
  203MPD1     C 3083   4.561   0.948  12.915  0.7366  0.1473 -0.5965
  203MPD1    C1 3084   4.523   0.859  13.012  0.5923  0.4699  0.5451
  203MPD1    C2 3085   4.566   0.726  12.996 -0.3192 -0.3754 -0.0488
  203MPD1    C3 3086   4.651   0.689  12.892  0.1138  0.3299  0.0405
  203MPD1    C4 3087   4.699   0.791  12.804  0.1267  0.2464 -0.0698
  203MPD1    C5 3088   4.652   0.917  12.815 -0.2190 -0.3217  0.3507
  203MPD1     H 3089   4.530   0.646  13.059 -0.5814 -1.1686 -1.2029
  203MPD1    H1 3090   0.044   0.767  12.723  0.0311  0.7257 -0.2909
  203MPD1    H2 3091   4.530   1.052  12.923  3.1108  0.9125 -1.4065
  203MPD1    H3 3092   4.672   0.994  12.742 -3.3070 -1.7249 -2.0305
  203MPD1     N 3093   4.674   0.552  12.873 -0.2451 -0.0011 -0.1979
  203MPD1    H5 3094   4.640   0.482  12.938  0.6528 -1.2320 -1.0720
  203MPD1    N1 3095   4.438   0.879  13.124 -0.1089  0.0210  0.5994
  203MPD1    H6 3096   4.429   0.803  13.191  3.1035  0.4648  1.5224
  203MPD1    H7 3097   4.455   0.966  13.173  1.8645 -1.9310  3.3242
  204MPD1     C 3098   3.766   1.774   0.499 -0.2351  0.1787 -0.2012
  204MPD1    C1 3099   3.793   1.762   0.367 -0.1906 -0.1340 -0.1585
  204MPD1    C2 3100   3.718   1.673   0.286  0.2223  0.9498  0.7564
  204MPD1    C3 3101   3.624   1.588   0.341 -0.9600  0.2074  0.2494
  204MPD1    C4 3102   3.589   1.607   0.471 -0.5410 -0.4649 -0.5736
  204MPD1    C5 3103   3.659   1.698   0.543 -0.5788 -0.0971  0.3707
  204MPD1     H 3104   3.740   1.676   0.180 -2.1151 -0.7657  0.2196
  204MPD1    H1 3105   3.512   1.557   0.528 -0.9426 -1.8207 -2.2906
  204MPD1    H2 3106   3.825   1.841   0.561  0.4389  1.0267 -1.7661
  204MPD1    H3 3107   3.625   1.707   0.646 -1.4569 -1.9882  0.2493
  204MPD1     N 3108   3.571   1.486   0.256  0.6666  0.2907 -0.1021
  204MPD1    H5 3109   3.590   1.499   0.157 -3.0394  2.2602 -0.5588
  204MPD1    N1 3110   3.873   1.862   0.310  0.1978  0.5526 -0.3034
  204MPD1    H6 3111   3.951   1.892   0.368 -0.3141  1.5705 -0.1511
  204MPD1    H7 3112   3.917   1.844   0.220 -0.3552 -1.1679 -0.2280
  205MPD1     C 3113   3.746   0.440  16.818 -0.1588 -0.3640 -0.2665
  205MPD1    C1 3114   3.711   0.310  16.826  0.1487 -0.4816  0.9286
  205MPD1    C2 3115   3.610   0.276  16.915  0.2025  0.8029  0.3943
  205MPD1    C3 3116   3.548   0.374  16.992  0.3903  0.4572  0.1074
  205MPD1    C4 3117   3.593   0.504  16.979  1.5602  0.2537 -0.2002
  205MPD1    C5 3118   3.684   0.540  16.887  0.5314 -0.2300 -0.4932
  205MPD1     H 3119   3.579   0.172  16.914 -1.7144  1.3712  0.7039
  205MPD1    H1 3120   3.553   0.581  17.044  0.3429 -0.1477 -0.4618
  205MPD1    H2 3121   3.828   0.465  16.752  0.1984 -2.0077 -0.4373
  205MPD1    H3 3122   3.718   0.642  16.869  1.4745 -0.8097 -2.0886
  205MPD1     N 3123   3.458   0.350  17.098 -0.4240  0.3819 -0.7673
  205MPD1    H5 3124   3.433   0.424  17.163 -0.5436  1.4413 -2.0188
  205MPD1    N1 3125   3.787   0.218  16.761  0.2789 -0.1356 -0.4232
  205MPD1    H6 3126   3.743   0.128  16.745 -0.2081 -0.3771  2.2716
  205MPD1    H7 3127   3.837   0.248  16.677 -1.3627 -1.2197 -1.7700
  206MPD1     C 3128   4.273   3.074  16.553 -0.7795  0.0633  0.3891
  206MPD1    C1 3129   4.208   3.179  16.493 -0.2800 -0.2056 -0.1450
  206MPD1    C2 3130   4.159   3.158  16.366 -0.0849  0.0921 -0.3016
  206MPD1    C3 3131   4.171   3.031  16.305 -0.1569 -0.2792 -0.1679
  206MPD1    C4 3132   4.233   2.930  16.371  0.0721 -0.0010  0.3169
  206MPD1    C5 3133   4.292   2.957  16.489 -0.5358 -0.1386 -0.0461
  206MPD1     H 3134   4.144   3.241  16.299  1.3868  0.0919 -0.6082
  206MPD1    H1 3135   4.243   2.834  16.322  1.0527 -0.0081  0.5232
  206MPD1    H2 3136   4.320   3.086  16.650 -0.3574  1.4929  0.0084
  206MPD1    H3 3137   4.345   2.877  16.541  2.5465  0.5235 -2.1242
  206MPD1     N 3138   4.098   2.995  16.187 -0.7145 -0.5240 -0.1535
  206MPD1    H5 3139   4.097   2.896  16.162  1.0058 -0.7331  0.6227
  206MPD1    N1 3140   4.229   3.311  16.545  0.1543  0.5112 -0.3336
  206MPD1    H6 3141   4.238   3.308  16.646 -0.7291 -0.6532 -0.2937
  206MPD1    H7 3142   4.147   3.370  16.533 -1.4382 -1.8699 -1.2431
  207MPD1     C 3143   2.697   2.700   9.358 -0.1231 -0.1933 -0.7808
  207MPD1    C1 3144   2.768   2.694   9.473 -0.4892 -0.3437 -0.0132
  207MPD1    C2 3145   2.763   2.581   9.556  0.2451 -0.3315  0.9271
  207MPD1    C3 3146   2.674   2.485   9.531  0.0899 -0.0400  0.3643
  207MPD1    C4 3147   2.602   2.490   9.413 -0.1512  0.2645 -0.9724
  207MPD1    C5 3148   2.615   2.597   9.326  0.0369  0.5345  0.1362
  207MPD1     H 3149   2.831   2.577   9.640  0.8582 -2.6100  0.3208
  207MPD1    H1 3150   2.525   2.418   9.385 -0.5827  0.7512 -1.0184
  207MPD1    H2 3151   2.710   2.771   9.278 -1.9829  0.8950 -0.1251
  207MPD1    H3 3152   2.548   2.594   9.241  0.9254 -0.1579 -0.5464
  207MPD1     N 3153   2.661   2.363   9.606 -0.0980  0.4879 -0.1673
  207MPD1    H5 3154   2.586   2.299   9.585  2.8945 -2.4888 -1.7671
  207MPD1    N1 3155   2.852   2.797   9.509 -0.1838  0.4848 -0.0871
  207MPD1    H6 3156   2.867   2.795   9.610 -0.7616  1.9566  0.0267
  207MPD1    H7 3157   2.813   2.890   9.494 -0.0064  0.5167 -0.3505
  208MPD1     C 3158   3.979   3.324  17.556 -0.1400  0.9594 -0.1201
  208MPD1    C1 3159   3.876   3.374  17.633 -0.0691  0.6002  0.7382
  208MPD1    C2 3160   3.859   3.510  17.621  0.0878  0.3843 -0.2298
  208MPD1    C3 3161   3.958   3.593  17.573 -0.0021  0.2920  0.0967
  208MPD1    C4 3162   4.074   3.538  17.515 -0.1533  0.1313  0.0719
  208MPD1    C5 3163   4.072   3.405  17.490 -0.5410  0.2018 -0.6137
  208MPD1     H 3164   3.771   3.543  17.675 -0.5556 -2.8446  0.7452
  208MPD1    H1 3165   4.145   3.602  17.464 -1.1429  0.4268 -0.9383
  208MPD1    H2 3166   3.987   3.217  17.540  0.3164  0.9016  0.4985
  208MPD1    H3 3167   4.151   3.357  17.434 -1.4102  0.3561 -1.9741
  208MPD1     N 3168   3.936   3.731  17.578 -0.1948  0.6950  0.3738
  208MPD1    H5 3169   3.847   3.759  17.619 -0.7812  0.1981 -0.5579
  208MPD1    N1 3170   3.775   3.290  17.680 -0.3864 -0.2972 -0.1408
  208MPD1    H6 3171   3.726   3.329   0.066 -1.2202  0.8613 -1.2230
  208MPD1    H7 3172   3.803   3.195   0.012 -2.1117 -1.4528 -2.4912
  209MPD1     C 3173   0.996   1.288   9.865  0.6659 -0.3065 -0.2211
  209MPD1    C1 3174   1.078   1.229   9.960 -0.6267  0.5886 -0.3582
  209MPD1    C2 3175   1.203   1.286   9.985 -0.0414 -0.2342 -0.1146
  209MPD1    C3 3176   1.235   1.417   9.944 -0.0766  0.3058 -0.5548
  209MPD1    C4 3177   1.144   1.479   9.854  0.7348 -0.1288 -1.0236
  209MPD1    C5 3178   1.031   1.411   9.812  0.3250 -0.2934  0.1867
  209MPD1     H 3179   1.269   1.228  10.049 -1.4976  0.0614  1.6675
  209MPD1    H1 3180   1.164   1.571   9.799 -0.9058  0.4303 -0.6927
  209MPD1    H2 3181   0.906   1.244   9.823  0.6199 -1.0565  0.6787
  209MPD1    H3 3182   0.968   1.449   9.733 -0.7859  1.0991  1.7344
  209MPD1     N 3183   1.362   1.469   9.967 -0.8261  0.1343 -0.4571
  209MPD1    H5 3184   1.428   1.419  10.024 -0.6715 -1.1263 -1.7419
  209MPD1    N1 3185   1.060   1.095   9.974  0.3042  0.2994  1.1952
  209MPD1    H6 3186   0.962   1.073   9.992 -0.0468  0.9794  0.1565
  209MPD1    H7 3187   1.108   1.051  10.052 -0.4070  0.1708  1.5635
  210MPD1     C 3188   1.969   0.972  10.191  0.2955 -0.3199  0.5495
  210MPD1    C1 3189   2.020   1.087  10.251  0.2327 -0.0807  0.1128
  210MPD1    C2 3190   1.960   1.211  10.220  0.2755  1.0548 -1.1425
  210MPD1    C3 3191   1.855   1.216  10.130  0.4576 -0.1122  0.0221
  210MPD1    C4 3192   1.808   1.097  10.081  0.6494  0.1100  0.3059
  210MPD1    C5 3193   1.864   0.980  10.105  0.0789  0.0835  0.1152
  210MPD1     H 3194   2.002   1.307  10.249 -0.0705  0.9604 -0.3094
  210MPD1    H1 3195   1.727   1.100  10.008  1.1451  1.8203 -0.1525
  210MPD1    H2 3196   2.010   0.880  10.232 -0.8588 -0.2074  1.9535
  210MPD1    H3 3197   1.822   0.891  10.059 -0.0717  0.5335 -0.6227
  210MPD1     N 3198   1.795   1.327  10.076 -0.2359  0.2842  0.5387
  210MPD1    H5 3199   1.730   1.303  10.002  0.8407  1.6430 -0.8417
  210MPD1    N1 3200   2.137   1.076  10.336  0.6598  0.1014 -0.8729
  210MPD1    H6 3201   2.145   0.985  10.381 -1.3747  0.1501 -0.4246
  210MPD1    H7 3202   2.148   1.150  10.406 -1.7575  0.0148 -0.4208
  211MPD1     C 3203   3.816   3.784  15.874 -0.3261 -0.3546  0.3227
  211MPD1    C1 3204   3.694   3.825  15.830  0.1638 -0.2723  0.1850
  211MPD1    C2 3205   3.663   3.959  15.854  0.0068  0.2557  0.5446
  211MPD1    C3 3206   3.741   4.038  15.930  0.9110 -0.4783  0.2868
  211MPD1    C4 3207   3.857   3.987  15.979  0.5040 -0.1901  0.2804
  211MPD1    C5 3208   3.896   3.860  15.947  0.0017 -0.3721  0.6283
  211MPD1     H 3209   3.571   4.000  15.813  0.9418 -0.0214 -1.8115
  211MPD1    H1 3210   3.923   4.043  16.045  0.6168  0.1309 -0.1032
  211MPD1    H2 3211   3.852   3.686  15.844 -0.0303 -0.2992  0.4915
  211MPD1    H3 3212   3.993   3.826  15.981  0.1620  1.3445  1.8173
  211MPD1     N 3213   3.698   4.167  15.969 -0.0102  0.3418  0.1318
  211MPD1    H5 3214   3.609   4.198  15.931 -2.0507 -2.6593  2.4505
  211MPD1    N1 3215   3.619   3.740  15.745  0.3534  1.4983 -0.1206
  211MPD1    H6 3216   3.622   3.650  15.792 -3.2604  1.0389 -0.7484
  211MPD1    H7 3217   3.522   3.769  15.739 -0.2654 -1.1315 -3.1518
  212MPD1     C 3218   3.509   3.331  16.725 -0.5763  0.1533  1.1445
  212MPD1    C1 3219   3.463   3.362  16.853  0.6195  0.9193 -0.2327
  212MPD1    C2 3220   3.410   3.256  16.925 -0.7527 -0.3804 -0.1426
  212MPD1    C3 3221   3.388   3.132  16.870  0.2075  0.0305 -0.2710
  212MPD1    C4 3222   3.429   3.113  16.743  0.1142  0.6192  0.2565
  212MPD1    C5 3223   3.493   3.211  16.669 -1.0732  0.0473 -0.0142
  212MPD1     H 3224   3.391   3.276  17.030  3.7689  1.4349  0.3273
  212MPD1    H1 3225   3.407   3.024  16.684 -0.6891 -0.2962  1.9261
  212MPD1    H2 3226   3.562   3.405  16.667  0.1163 -0.1142  1.4292
  212MPD1    H3 3227   3.530   3.197  16.568 -1.1769 -1.1764  0.1205
  212MPD1     N 3228   3.305   3.031  16.924 -0.3729  1.1508  0.0977
  212MPD1    H5 3229   3.297   2.946  16.870 -0.3809  0.3773  1.3129
  212MPD1    N1 3230   3.502   3.486  16.903  0.4245 -0.3742 -0.4989
  212MPD1    H6 3231   3.487   3.564  16.839  0.8020  0.6078  0.5870
  212MPD1    H7 3232   3.454   3.513  16.989 -1.9761  0.1098 -1.9992
  213MPD1     C 3233   1.663   4.306  16.504  0.7361 -0.1935 -0.2829
  213MPD1    C1 3234   1.558   4.215  16.505  0.2997  0.2885  0.2074
  213MPD1    C2 3235   1.478   4.211  16.385  0.0910 -0.9409 -0.2331
  213MPD1    C3 3236   1.511   4.278  16.275 -0.4050 -1.2811  0.2038
  213MPD1    C4 3237   1.625   4.361  16.275 -0.6786  0.2330  0.1253
  213MPD1    C5 3238   1.707   4.363  16.389 -0.0613 -0.3059 -0.4949
  213MPD1     H 3239   1.389   4.150  16.387 -0.4376 -0.2683 -3.2020
  213MPD1    H1 3240   1.660   4.408  16.184 -0.1226 -1.5877 -0.6110
  213MPD1    H2 3241   1.731   4.318  16.588  0.8242 -0.7916 -0.2704
  213MPD1    H3 3242   1.801   4.417  16.391 -0.8790  1.3053 -5.2259
  213MPD1     N 3243   1.425   4.261  16.160 -0.5309 -0.0016 -0.0425
  213MPD1    H5 3244   1.345   4.199  16.171  0.2941 -1.0657 -0.1588
  213MPD1    N1 3245   1.504   4.168  16.624  0.2216 -0.3018  0.4958
  213MPD1    H6 3246   1.577   4.136  16.688 -1.7778 -2.1999  1.8318
  213MPD1    H7 3247   1.440   4.090  16.611  1.4274 -1.2540  0.2826
  214MPD1     C 3248   1.071   3.520  15.622  0.1782 -0.1282  0.4645
  214MPD1    C1 3249   1.062   3.557  15.756 -0.4257 -0.3638  0.2224
  214MPD1    C2 3250   1.099   3.690  15.787  0.4503 -0.1722 -0.7866
  214MPD1    C3 3251   1.133   3.782  15.688 -0.7144 -0.0705  0.6271
  214MPD1    C4 3252   1.121   3.743  15.558 -0.0629 -0.4666  0.1501
  214MPD1    C5 3253   1.094   3.614  15.524  0.5133 -0.2568 -1.0013
  214MPD1     H 3254   1.102   3.715  15.893  2.5155 -1.9780 -0.4158
  214MPD1    H1 3255   1.144   3.812  15.478 -3.0413 -1.9001 -1.9339
  214MPD1    H2 3256   1.047   3.421  15.584 -2.7364  0.4842  0.6851
  214MPD1    H3 3257   1.089   3.589  15.418 -1.0243 -2.3777 -0.4255
  214MPD1     N 3258   1.184   3.919  15.711 -0.0506  0.1231  0.4452
  214MPD1    H5 3259   1.195   3.977  15.629  0.8577 -0.4313  0.1620
  214MPD1    N1 3260   1.033   3.469  15.861  0.0795  0.0842  0.3184
  214MPD1    H6 3261   0.988   3.494  15.949 -1.0366 -0.9564  0.0359
  214MPD1    H7 3262   0.970   3.396  15.830 -1.0903 -0.0370  2.9686
  215MPD1     C 3263   2.509   0.019  10.505  0.7160  0.3219  0.5102
  215MPD1    C1 3264   2.494   0.147  10.470 -0.5671  0.2184 -0.7054
  215MPD1    C2 3265   2.452   0.230  10.579 -0.3205 -0.2636 -0.7540
  215MPD1    C3 3266   2.434   0.186  10.708  0.2504  0.1317  0.7516
  215MPD1    C4 3267   2.470   0.054  10.734 -0.7087 -0.6730 -0.5315
  215MPD1    C5 3268   2.511   4.697  10.635 -0.3170  0.5552 -0.0534
  215MPD1     H 3269   2.435   0.335  10.559 -0.8522 -0.2516 -0.2444
  215MPD1    H1 3270   2.467   0.008  10.832 -1.8319 -1.4934 -0.9418
  215MPD1    H2 3271   2.521   4.662  10.433  2.6900  0.2483  0.9372
  215MPD1    H3 3272   2.532   4.591  10.645  1.4897  1.0455  1.4513
  215MPD1     N 3273   2.386   0.268  10.810  0.0129  0.3242 -0.7963
  215MPD1    H5 3274   2.373   0.365  10.782 -2.2553  0.2413 -0.0355
  215MPD1    N1 3275   2.500   0.186  10.337 -0.4623 -0.1299 -0.9857
  215MPD1    H6 3276   2.579   0.145  10.287 -0.8388 -0.3086 -1.4326
  215MPD1    H7 3277   2.493   0.287  10.323  1.0133  0.0943 -0.1617
  216MPD1     C 3278   3.667   1.930  16.425 -0.6629 -0.5916 -0.5730
  216MPD1    C1 3279   3.667   1.822  16.513 -0.5974  0.3004 -0.2752
  216MPD1    C2 3280   3.649   1.847  16.650  0.1388  0.2519 -0.0633
  216MPD1    C3 3281   3.633   1.968  16.704 -0.2359 -1.0795 -0.0528
  216MPD1    C4 3282   3.637   2.078  16.617  0.7417 -0.1532  0.2663
  216MPD1    C5 3283   3.654   2.056  16.482  0.0610 -0.3845 -0.2594
  216MPD1     H 3284   3.640   1.764  16.720  0.7590  0.1900 -0.0637
  216MPD1    H1 3285   3.628   2.182  16.648  1.5421  0.0754 -0.2734
  216MPD1    H2 3286   3.679   1.918  16.318  1.8432  0.8532 -0.4514
  216MPD1    H3 3287   3.655   2.139  16.413  1.9766  0.8900  1.2930
  216MPD1     N 3288   3.607   1.968  16.845 -0.2430 -0.0916  0.6736
  216MPD1    H5 3289   3.595   1.880  16.895  0.3038 -1.2569 -1.2298
  216MPD1    N1 3290   3.662   1.693  16.465 -0.5272  0.2248 -0.1654
  216MPD1    H6 3291   3.691   1.626  16.536 -0.8917  0.2817  0.0351
  216MPD1    H7 3292   3.722   1.686  16.383  0.3376  1.1893  0.3840
  217MPD1     C 3293   1.178   3.415   8.494  0.3181 -0.7811  0.1282
  217MPD1    C1 3294   1.277   3.405   8.592  0.3674  0.1878  0.3158
  217MPD1    C2 3295   1.245   3.415   8.726 -0.0221 -0.8253 -0.3331
  217MPD1    C3 3296   1.115   3.446   8.760 -0.5397 -0.1188  0.0599
  217MPD1    C4 3297   1.020   3.471   8.666 -0.1791  0.6513 -0.0939
  217MPD1    C5 3298   1.054   3.449   8.536  0.1967 -0.0413  0.0422
  217MPD1     H 3299   1.326   3.398   8.796  1.5627  0.1070 -1.9338
  217MPD1    H1 3300   0.922   3.511   8.690 -0.6868 -1.3233  1.0813
  217MPD1    H2 3301   1.196   3.381   8.392  2.8281 -0.6199  0.5308
  217MPD1    H3 3302   0.973   3.457   8.465  0.1154  1.4901  0.3078
  217MPD1     N 3303   1.089   3.478   8.894  0.1773 -0.0424  0.1983
  217MPD1    H5 3304   0.992   3.499   8.912  0.1091  1.3686 -1.9102
  217MPD1    N1 3305   1.391   3.341   8.554 -0.6693  0.5265  0.2208
  217MPD1    H6 3306   1.472   3.372   8.608  0.0985  1.2914 -1.3639
  217MPD1    H7 3307   1.425   3.356   8.459 -1.1517  2.1670  0.3104
  218MPD1     C 3308   0.600   0.750  13.950  0.5438  0.3774 -0.2142
  218MPD1    C1 3309   0.685   0.824  14.035  0.2301 -0.5322  0.1553
  218MPD1    C2 3310   0.808   0.858  13.975 -0.3545 -0.6582 -0.8692
  218MPD1    C3 3311   0.855   0.794  13.865  0.1443 -0.7037 -0.0900
  218MPD1    C4 3312   0.774   0.708  13.798  0.6309 -0.1373  0.0954
  218MPD1    C5 3313   0.642   0.690  13.839  0.4578 -0.0558 -0.9111
  218MPD1     H 3314   0.878   0.919  14.032 -0.1499 -2.4552  0.8075
  218MPD1    H1 3315   0.799   0.661  13.704  0.0397 -1.2595  0.4961
  218MPD1    H2 3316   0.497   0.742  13.983  0.5152 -0.1435 -0.4278
  218MPD1    H3 3317   0.577   0.637  13.771 -0.8356  0.8320 -0.3707
  218MPD1     N 3318   0.984   0.821  13.825 -0.3939 -0.9637  0.1128
  218MPD1    H5 3319   1.037   0.890  13.876  0.9494 -2.6773  1.0419
  218MPD1    N1 3320   0.647   0.874  14.156 -0.6533  0.4097  0.0814
  218MPD1    H6 3321   0.731   0.895  14.209 -0.7716  1.5395 -0.1793
  218MPD1    H7 3322   0.598   0.798  14.203 -0.7135  0.1021 -0.4840
  219MPD1     C 3323   1.752   0.921  14.361  0.3328  0.4959 -0.4960
  219MPD1    C1 3324   1.631   0.987  14.344  0.8003 -0.4066  0.0836
  219MPD1    C2 3325   1.554   0.968  14.227 -0.0273 -0.1708 -0.0472
  219MPD1    C3 3326   1.594   0.874  14.130  0.0362  0.7635  0.8236
  219MPD1    C4 3327   1.700   0.797  14.164 -0.4425  0.2665  0.9394
  219MPD1    C5 3328   1.790   0.830  14.264  0.5233 -0.0439 -0.1875
  219MPD1     H 3329   1.455   1.012  14.221 -0.2502 -0.6593  0.0096
  219MPD1    H1 3330   1.735   0.719  14.096  0.6857  2.4493 -0.9962
  219MPD1    H2 3331   1.809   0.942  14.450  1.7686  1.5455 -1.6616
  219MPD1    H3 3332   1.882   0.774  14.272  0.1454 -0.5265  0.7122
  219MPD1     N 3333   1.533   0.852  14.009 -0.0785  0.3401 -0.7739
  219MPD1    H5 3334   1.559   0.769  13.957 -2.5247  0.3122 -1.9661
  219MPD1    N1 3335   1.602   1.092  14.433 -0.2481 -0.2099 -0.3912
  219MPD1    H6 3336   1.503   1.112  14.440 -0.2178 -0.6337  1.2881
  219MPD1    H7 3337   1.642   1.090  14.527  0.1205 -2.1542 -0.5952
  220MPD1     C 3338   1.436   1.907  10.351 -0.2548  0.0499 -1.0863
  220MPD1    C1 3339   1.528   1.870  10.448 -0.0379 -0.3861 -0.0927
  220MPD1    C2 3340   1.570   1.737  10.447 -0.1725 -0.2026  0.1890
  220MPD1    C3 3341   1.516   1.640  10.370  0.0464  0.1373 -0.2490
  220MPD1    C4 3342   1.428   1.676  10.273 -0.2507  0.2429 -0.1794
  220MPD1    C5 3343   1.391   1.810  10.265  0.0411 -0.7046 -0.0587
  220MPD1     H 3344   1.645   1.704  10.518  1.6380 -0.6798 -1.9373
  220MPD1    H1 3345   1.379   1.612  10.201  0.7274 -2.6654  1.7540
  220MPD1    H2 3346   1.407   2.009  10.328 -2.0165 -0.7254 -2.2532
  220MPD1    H3 3347   1.316   1.850  10.198  1.4582  0.4855 -0.9323
  220MPD1     N 3348   1.558   1.503  10.393 -0.2279  0.1773  0.4094
  220MPD1    H5 3349   1.597   1.480  10.484  1.0584  2.9903  0.5636
  220MPD1    N1 3350   1.607   1.965  10.516 -0.0588 -0.7411 -0.6917
  220MPD1    H6 3351   1.662   1.935  10.596  1.1393 -0.3089 -1.3503
  220MPD1    H7 3352   1.552   2.050  10.527  2.0930  0.6895 -1.0068
  221MPD1     C 3353   2.968   4.427  15.968 -1.0770 -1.1885 -1.4914
  221MPD1    C1 3354   3.003   4.305  15.905  0.1286 -0.6435 -0.5540
  221MPD1    C2 3355   3.096   4.218  15.951 -0.0656  0.4818  0.1142
  221MPD1    C3 3356   3.142   4.241  16.081  0.2685  0.2229 -0.5485
  221MPD1    C4 3357   3.107   4.353  16.153  0.6816 -0.6832  0.0804
  221MPD1    C5 3358   3.020   4.444  16.095  0.0458 -0.4253 -0.1188
  221MPD1     H 3359   3.108   4.126  15.896 -0.5139 -0.2464  1.2207
  221MPD1    H1 3360   3.139   4.356  16.257  2.8385 -0.1052 -0.5869
  221MPD1    H2 3361   2.910   4.506  15.922 -1.3406 -1.6550 -1.9532
  221MPD1    H3 3362   2.994   4.526  16.162 -0.3631 -1.4495  0.9726
  221MPD1     N 3363   3.221   4.141  16.150 -0.5570 -0.0235 -0.0273
  221MPD1    H5 3364   3.231   4.157  16.250 -0.5441  2.6684 -0.4726
  221MPD1    N1 3365   2.959   4.293  15.774 -0.3582  0.2037 -0.1764
  221MPD1    H6 3366   2.873   4.341  15.747 -1.2168 -1.2278 -0.0008
  221MPD1    H7 3367   2.954   4.202  15.728  0.1248  0.1337 -0.0915
  222MPD1     C 3368   3.715   3.031  17.228 -0.0277  0.2015  0.7964
  222MPD1    C1 3369   3.636   2.955  17.150  0.2959 -0.6463 -0.2432
  222MPD1    C2 3370   3.533   2.894  17.216  0.5297 -0.0001  0.4863
  222MPD1    C3 3371   3.503   2.915  17.353  0.6241 -0.0122 -0.2271
  222MPD1    C4 3372   3.587   3.007  17.418 -0.5365 -0.6373  0.5362
  222MPD1    C5 3373   3.689   3.067  17.360 -0.0929 -0.6267  0.2576
  222MPD1     H 3374   3.469   2.825  17.162  1.4413  0.3442 -1.0230
  222MPD1    H1 3375   3.559   3.040  17.518 -2.5277 -3.9117  1.0446
  222MPD1    H2 3376   3.805   3.074  17.186  0.0573 -0.1439  0.6190
  222MPD1    H3 3377   3.750   3.139  17.413  0.3546 -2.2429  1.9144
  222MPD1     N 3378   3.395   2.863  17.429 -0.3709 -0.0970 -0.1724
  222MPD1    H5 3379   3.369   2.908  17.516 -0.8392  0.6867 -0.7075
  222MPD1    N1 3380   3.690   2.907  17.034  0.2751 -0.0923  0.4123
  222MPD1    H6 3381   3.619   2.862  16.977  2.4122 -2.1025 -0.6433
  222MPD1    H7 3382   3.714   2.985  16.973  3.2342 -2.4264 -1.4286
  223MPD1     C 3383   3.136   1.916  17.681 -1.1376 -0.6387 -0.2350
  223MPD1    C1 3384   3.122   1.941  17.546  0.3816 -0.3983  0.5531
  223MPD1    C2 3385   3.131   2.079  17.507  0.4634  0.0477 -0.0804
  223MPD1    C3 3386   3.147   2.180  17.604 -0.7344 -0.3444  0.3380
  223MPD1    C4 3387   3.150   2.155   0.043  0.4860  0.2080  0.6668
  223MPD1    C5 3388   3.149   2.019   0.078  0.0140 -0.3303  0.7604
  223MPD1     H 3389   3.155   2.101  17.404  1.2961  0.3073  0.1725
  223MPD1    H1 3390   3.160   2.224   0.127 -0.3705  0.5570  0.4790
  223MPD1    H2 3391   3.133   1.812   0.015 -1.7280 -0.3059  0.9710
  223MPD1    H3 3392   3.154   2.001   0.185  0.3766  0.7433  0.9347
  223MPD1     N 3393   3.146   2.314  17.562  0.0326  0.1156  0.3880
  223MPD1    H5 3394   3.173   2.332  17.466 -1.6207  2.8376  0.4285
  223MPD1    N1 3395   3.114   1.834  17.451 -0.2149  0.1058 -0.2157
  223MPD1    H6 3396   3.067   1.861  17.365  0.1578 -2.9760 -1.3668
  223MPD1    H7 3397   3.060   1.761  17.497 -0.4370  0.3551 -0.0756
  224MPD1     C 3398   1.272   4.342   9.060 -0.0216 -0.7722 -0.1249
  224MPD1    C1 3399   1.361   4.337   9.160 -0.0688 -0.7332 -0.7792
  224MPD1    C2 3400   1.314   4.377   9.279 -0.1785 -0.1131 -0.7170
  224MPD1    C3 3401   1.176   4.396   9.302 -0.0749 -0.3197 -0.4034
  224MPD1    C4 3402   1.090   4.390   9.198  0.2249 -0.1960  0.7020
  224MPD1    C5 3403   1.142   4.366   9.071  0.4455  0.5396  0.7455
  224MPD1     H 3404   1.377   4.386   9.367 -0.9417  0.6508 -0.2571
  224MPD1    H1 3405   0.983   4.403   9.202  0.4459  2.0096 -0.2852
  224MPD1    H2 3406   1.300   4.310   8.960 -0.5568 -1.7980  0.0585
  224MPD1    H3 3407   1.084   4.359   8.980 -0.4700 -2.3512  1.5375
  224MPD1     N 3408   1.124   4.429   9.430 -0.2914 -0.3572  0.0481
  224MPD1    H5 3409   1.031   4.468   9.437 -0.9670 -2.0745  0.5785
  224MPD1    N1 3410   1.498   4.314   9.137 -0.2200  0.2232 -0.5614
  224MPD1    H6 3411   1.517   4.256   9.056 -2.9185  1.9219 -2.3946
  224MPD1    H7 3412   1.544   4.280   9.222 -0.2884  2.0124  0.1941
  225MPD1     C 3413   1.657   1.473  12.729  0.0333 -0.8266  0.6262
  225MPD1    C1 3414   1.588   1.359  12.735 -0.1828 -0.0806 -0.3181
  225MPD1    C2 3415   1.477   1.342  12.649 -0.1913  0.4151  0.0582
  225MPD1    C3 3416   1.445   1.446  12.561 -0.1109 -0.5500  0.2831
  225MPD1    C4 3417   1.506   1.566  12.564  0.0570 -0.1884  0.1848
  225MPD1    C5 3418   1.618   1.578  12.648 -0.4396  0.2608  0.0559
  225MPD1     H 3419   1.425   1.247  12.656  1.4673 -0.5352 -0.5952
  225MPD1    H1 3420   1.475   1.644  12.494  0.1600  2.0313  2.6101
  225MPD1    H2 3421   1.739   1.489  12.798 -0.5081  0.8713  0.8809
  225MPD1    H3 3422   1.677   1.669  12.653  1.4256 -0.8439 -1.8506
  225MPD1     N 3423   1.337   1.431  12.473  0.0473 -0.2076 -0.0086
  225MPD1    H5 3424   1.318   1.511  12.413 -0.9499 -0.6936 -0.3364
  225MPD1    N1 3425   1.627   1.244  12.808  0.4609  0.4189  0.1130
  225MPD1    H6 3426   1.659   1.267  12.902  1.3785  1.5949 -0.4822
  225MPD1    H7 3427   1.546   1.183  12.819  0.6428  0.1942  0.1907
  226MPD1     C 3428   4.701   3.731   8.900 -0.3878 -0.3718 -0.0062
  226MPD1    C1 3429   4.705   3.854   8.946 -0.0726  0.3927  0.5118
  226MPD1    C2 3430   0.108   3.907   8.956 -0.4390 -0.2266  0.3146
  226MPD1    C3 3431   0.222   3.830   8.952  0.0467 -0.1816  0.1339
  226MPD1    C4 3432   0.206   3.692   8.945  0.7785  0.0355  0.1919
  226MPD1    C5 3433   0.087   3.640   8.906 -0.5595  0.1334 -0.3554
  226MPD1     H 3434   0.108   4.015   8.968  0.8412  0.0066 -1.8327
  226MPD1    H1 3435   0.292   3.629   8.965 -0.4355 -1.6727  0.0588
  226MPD1    H2 3436   4.608   3.695   8.860 -0.7134  1.7748 -1.1649
  226MPD1    H3 3437   0.074   3.536   8.880 -2.5472  1.0436 -2.9337
  226MPD1     N 3438   0.347   3.892   8.973  0.2098 -0.1446 -0.1743
  226MPD1    H5 3439   0.353   3.988   9.004 -2.6536 -0.0757  0.2427
  226MPD1    N1 3440   4.595   3.939   8.933 -0.0454 -0.5338 -0.3985
  226MPD1    H6 3441   4.604   4.018   8.997 -0.2914 -0.4571 -0.4598
  226MPD1    H7 3442   4.507   3.892   8.951  0.1261 -0.9583 -0.6615
  227MPD1     C 3443   1.365   3.911   8.659  0.3959  0.5190  0.1312
  227MPD1    C1 3444   1.337   4.037   8.718  0.3857  0.3193 -0.6667
  227MPD1    C2 3445   1.221   4.041   8.794  0.1727  0.3412  0.2322
  227MPD1    C3 3446   1.143   3.932   8.821  0.2760 -0.8465  0.7511
  227MPD1    C4 3447   1.181   3.811   8.764  0.4746  0.9983 -0.0619
  227MPD1    C5 3448   1.290   3.802   8.689 -0.2782  0.5596  0.1331
  227MPD1     H 3449   1.187   4.135   8.835  0.9225  1.4641 -1.7051
  227MPD1    H1 3450   1.115   3.726   8.775  0.8253  0.9184  1.4897
  227MPD1    H2 3451   1.459   3.889   8.611  0.3127 -0.1489  0.2878
  227MPD1    H3 3452   1.310   3.704   8.646 -0.3259 -1.0491  3.7024
  227MPD1     N 3453   1.020   3.960   8.881 -0.1034 -0.1957  0.0659
  227MPD1    H5 3454   1.011   4.052   8.922  1.7949 -0.3681  0.8442
  227MPD1    N1 3455   1.432   4.143   8.719 -0.7501 -0.4180  0.6410
  227MPD1    H6 3456   1.469   4.158   8.625 -0.5446 -2.7200  0.3383
  227MPD1    H7 3457   1.394   4.233   8.745 -1.5090 -0.5486 -0.0198
  228MPD1     C 3458   3.401   3.302  13.386  0.5072 -0.1168 -0.4575
  228MPD1    C1 3459   3.393   3.417  13.305 -0.3758 -0.0400 -0.7628
  228MPD1    C2 3460   3.267   3.460  13.266 -0.4306 -0.2194 -0.9231
  228MPD1    C3 3461   3.148   3.398  13.303  0.5069  0.1112 -0.1364
  228MPD1    C4 3462   3.166   3.271  13.359 -0.3757  0.4601  0.2795
  228MPD1    C5 3463   3.291   3.222  13.398 -0.6069 -0.5475  0.2854
  228MPD1     H 3464   3.257   3.550  13.205 -0.7511  0.7724  0.5920
  228MPD1    H1 3465   3.081   3.207  13.379 -0.6022  0.2375 -1.4087
  228MPD1    H2 3466   3.493   3.267  13.431 -0.5690 -2.9397 -0.4681
  228MPD1    H3 3467   3.289   3.123  13.440 -2.0998 -0.6342  0.0261
  228MPD1     N 3468   3.022   3.456  13.262  0.1296  0.1829  0.1794
  228MPD1    H5 3469   3.026   3.553  13.232 -2.6423  0.4476  0.7167
  228MPD1    N1 3470   3.509   3.493  13.287  0.2590 -0.0157  0.2191
  228MPD1    H6 3471   3.510   3.578  13.343 -0.3801  0.5613 -0.6342
  228MPD1    H7 3472   3.596   3.444  13.310  0.7225  0.6800 -0.0362
  229MPD1     C 3473   2.843   2.560  14.021  0.2440  0.8479  0.1382
  229MPD1    C1 3474   2.971   2.523  14.052  0.5627  0.5863 -0.0267
  229MPD1    C2 3475   2.987   2.436  14.162  0.2038 -0.0771  0.1564
  229MPD1    C3 3476   2.876   2.385  14.229 -0.3441  0.3772  0.6881
  229MPD1    C4 3477   2.755   2.414  14.195  0.3642 -0.0063 -0.3876
  229MPD1    C5 3478   2.739   2.503  14.093 -0.2865 -0.2303 -0.0252
  229MPD1     H 3479   3.086   2.407  14.194  0.0450  0.9923  1.6379
  229MPD1    H1 3480   2.671   2.363  14.240 -0.3813  0.8417 -0.8290
  229MPD1    H2 3481   2.818   2.632  13.944  0.6158 -0.0068 -0.7793
  229MPD1    H3 3482   2.637   2.534  14.073  0.3702  1.4925 -0.7324
  229MPD1     N 3483   2.892   2.298  14.331  0.4495  0.4270  0.0273
  229MPD1    H5 3484   2.813   2.282  14.392  1.3187 -2.0504  0.5092
  229MPD1    N1 3485   3.085   2.583  13.992  0.3631  0.0016  0.5160
  229MPD1    H6 3486   3.091   2.583  13.890  0.2719  0.5016  0.5111
  229MPD1    H7 3487   3.171   2.539  14.024 -0.1830 -0.2187  1.6624
  230MPD1     C 3488   2.710   2.303  15.308 -0.0467 -0.1864  0.0159
  230MPD1    C1 3489   2.798   2.200  15.299 -0.5812  0.2919 -0.4300
  230MPD1    C2 3490   2.850   2.163  15.182 -0.3285  0.2624  0.3267
  230MPD1    C3 3491   2.824   2.237  15.070 -0.4681 -0.0852 -0.1018
  230MPD1    C4 3492   2.748   2.355  15.081  0.1735  0.3134 -0.4710
  230MPD1    C5 3493   2.678   2.384  15.198  0.2721 -0.2092  1.0869
  230MPD1     H 3494   2.908   2.072  15.167  0.8265  0.5887  2.8879
  230MPD1    H1 3495   2.722   2.409  14.991 -2.5678 -0.6540 -0.2536
  230MPD1    H2 3496   2.651   2.317  15.399 -1.0192  1.8265 -0.9312
  230MPD1    H3 3497   2.613   2.471  15.200 -0.8190 -1.0456  1.9329
  230MPD1     N 3498   2.893   2.197  14.952 -0.2546 -0.1912 -0.2954
  230MPD1    H5 3499   2.947   2.112  14.961  0.4755  0.3253  0.2694
  230MPD1    N1 3500   2.798   2.110  15.407 -0.0475 -0.1038 -0.2123
  230MPD1    H6 3501   2.883   2.056  15.415 -0.0006 -0.0810 -0.5716
  230MPD1    H7 3502   2.771   2.154  15.495 -1.5454  1.1508 -1.2923
  231MPD1     C 3503   0.739   4.468  15.272  0.3097 -0.2305  0.1822
  231MPD1    C1 3504   0.783   4.523  15.155  0.1462  0.3460  0.3183
  231MPD1    C2 3505   0.917   4.536  15.129 -0.1263 -0.7638 -0.1415
  231MPD1    C3 3506   1.008   4.501  15.228  0.9205 -0.4321  0.0599
  231MPD1    C4 3507   0.964   4.445  15.345 -0.1177 -0.4039 -0.2191
  231MPD1    C5 3508   0.832   4.444  15.369 -0.2029 -0.7101  0.3381
  231MPD1     H 3509   0.946   4.583  15.035  1.4061  1.5705  1.4831
  231MPD1    H1 3510   1.028   4.425  15.430  1.7170 -0.7962 -1.6856
  231MPD1    H2 3511   0.635   4.441  15.282 -0.0805  1.0314 -0.3868
  231MPD1    H3 3512   0.793   4.400  15.460  0.9465 -1.4659  0.4713
  231MPD1     N 3513   1.146   4.518  15.201 -0.1341 -0.0860  0.2293
  231MPD1    H5 3514   1.161   4.536  15.102 -1.0483 -1.2370 -0.1194
  231MPD1    N1 3515   0.697   4.532  15.044 -0.8371  0.0881  0.2377
  231MPD1    H6 3516   0.603   4.563  15.068 -0.8824 -0.8356  1.2738
  231MPD1    H7 3517   0.735   4.577  14.961 -2.0023  2.9513  1.2520
  232MPD1     C 3518   3.481   0.807   0.397 -1.1104 -0.5890  0.4545
  232MPD1    C1 3519   3.512   0.909   0.490  0.6202 -0.1986  0.2241
  232MPD1    C2 3520   3.404   0.986   0.531  0.7915  0.1151 -0.5601
  232MPD1    C3 3521   3.274   0.972   0.480  0.8946  0.3556  0.0345
  232MPD1    C4 3522   3.251   0.875   0.390 -0.1316  0.3831  0.8114
  232MPD1    C5 3523   3.355   0.787   0.355 -0.5898  0.5394  0.9464
  232MPD1     H 3524   3.427   1.071   0.595 -0.3945  0.1815 -0.2189
  232MPD1    H1 3525   3.147   0.871   0.360 -0.6964  0.7409  2.7131
  232MPD1    H2 3526   3.561   0.743   0.360  0.2053  1.4873 -0.2563
  232MPD1    H3 3527   3.330   0.711   0.283  0.9178  0.4302  0.5371
  232MPD1     N 3528   3.169   1.058   0.518  0.2725  0.3296 -0.4776
  232MPD1    H5 3529   3.083   1.061   0.465 -0.7653 -1.2762  1.1206
  232MPD1    N1 3530   3.640   0.914   0.556 -0.0049  0.4415  0.2025
  232MPD1    H6 3531   3.710   0.885   0.488 -0.7498  0.7788 -0.7253
  232MPD1    H7 3532   3.651   1.012   0.581 -0.8256 -0.0536  2.4356
  233MPD1     C 3533   2.539   0.678   0.985 -0.1660 -0.1692  0.8065
  233MPD1    C1 3534   2.616   0.646   0.880  0.2302  0.2261  0.1721
  233MPD1    C2 3535   2.735   0.589   0.894 -0.1743  0.0674  0.5346
  233MPD1    C3 3536   2.777   0.545   1.018  0.5540 -0.3077  0.7923
  233MPD1    C4 3537   2.691   0.560   1.127 -0.1086 -0.3491  0.8310
  233MPD1    C5 3538   2.576   0.635   1.112  0.2652 -0.4787  0.3704
  233MPD1     H 3539   2.800   0.585   0.807  1.5363  0.9882  1.7584
  233MPD1    H1 3540   2.715   0.515   1.222 -2.0339 -1.6605  0.7104
  233MPD1    H2 3541   2.455   0.745   0.973  1.8558  2.1744 -0.4185
  233MPD1    H3 3542   2.511   0.662   1.194 -0.3402  0.7535 -0.5004
  233MPD1     N 3543   2.904   0.487   1.042  0.0424 -0.1444  0.3518
  233MPD1    H5 3544   2.917   0.449   1.135 -2.2048 -1.2519  0.2079
  233MPD1    N1 3545   2.570   0.685   0.752 -0.7764 -1.0600 -0.0454
  233MPD1    H6 3546   2.469   0.672   0.756 -1.0355  0.4702 -1.2939
  233MPD1    H7 3547   2.606   0.627   0.677  1.1339  1.6412 -1.2115
  234MPD1     C 3548   1.054   3.262  10.891  0.1723 -0.1157 -0.5272
  234MPD1    C1 3549   1.174   3.328  10.906 -0.2703  0.1603 -0.3688
  234MPD1    C2 3550   1.223   3.394  10.801  0.4948 -0.0197 -0.2261
  234MPD1    C3 3551   1.166   3.386  10.675 -0.3460 -0.4058  0.4492
  234MPD1    C4 3552   1.052   3.310  10.659  0.1338 -0.9612 -0.1836
  234MPD1    C5 3553   0.991   3.258  10.768 -0.4379  0.5358  0.1400
  234MPD1     H 3554   1.310   3.459  10.807 -0.3773  1.1365 -0.0210
  234MPD1    H1 3555   1.003   3.294  10.563 -0.2954 -0.7225 -0.0053
  234MPD1    H2 3556   1.008   3.220  10.980 -2.1434  4.0058  0.2258
  234MPD1    H3 3557   0.899   3.201  10.756  1.9019 -2.8097 -2.0163
  234MPD1     N 3558   1.233   3.450  10.570  0.1196  0.3295  0.2569
  234MPD1    H5 3559   1.309   3.509  10.603  0.3818 -0.1121  0.4306
  234MPD1    N1 3560   1.228   3.355  11.033  0.6602  0.5769 -0.4198
  234MPD1    H6 3561   1.220   3.277  11.098  1.9686  0.7421 -0.0475
  234MPD1    H7 3562   1.328   3.378  11.034  0.7377  0.1667  2.1511
  235MPD1     C 3563   3.475   3.393   9.496 -0.4479 -0.9891  0.1923
  235MPD1    C1 3564   3.543   3.292   9.433  0.0364 -0.0441  0.4341
  235MPD1    C2 3565   3.531   3.166   9.483 -0.3216 -1.1098 -0.5931
  235MPD1    C3 3566   3.459   3.139   9.596  0.0945 -0.2827 -0.4662
  235MPD1    C4 3567   3.391   3.236   9.662  0.1694  0.0952  0.8552
  235MPD1    C5 3568   3.400   3.363   9.611 -0.4534 -0.0346 -0.4860
  235MPD1     H 3569   3.572   3.076   9.439  2.0537 -0.1822 -0.2922
  235MPD1    H1 3570   3.329   3.218   9.749 -1.0939  1.2700  0.1956
  235MPD1    H2 3571   3.461   3.495   9.462 -0.3768 -0.8896  0.4611
  235MPD1    H3 3572   3.349   3.448   9.655  0.6144  1.1075 -1.4440
  235MPD1     N 3573   3.477   3.010   9.645  0.3968 -0.3772 -0.2369
  235MPD1    H5 3574   3.540   2.948   9.595 -1.1199 -1.5218 -0.7228
  235MPD1    N1 3575   3.593   3.320   9.304 -0.3125 -0.6864 -0.3068
  235MPD1    H6 3576   3.618   3.417   9.286 -0.6521  0.0731  3.3238
  235MPD1    H7 3577   3.678   3.269   9.281  0.3451  0.2827 -0.0285
  236MPD1     C 3578   1.659   2.556   9.917  0.3091  0.6840  0.5535
  236MPD1    C1 3579   1.589   2.530  10.035 -0.3172  0.4878  0.0042
  236MPD1    C2 3580   1.656   2.526  10.154 -0.5108 -0.1332 -0.2436
  236MPD1    C3 3581   1.798   2.540  10.156 -0.5757  0.2047  0.5488
  236MPD1    C4 3582   1.864   2.579  10.038 -0.1181 -0.4843 -0.0529
  236MPD1    C5 3583   1.788   2.590   9.926 -0.2042 -0.1902  0.2500
  236MPD1     H 3584   1.601   2.496  10.242 -2.0868  1.9852 -0.4970
  236MPD1    H1 3585   1.971   2.594  10.042 -0.4388  2.0265 -0.9159
  236MPD1    H2 3586   1.621   2.582   9.819  0.4242  2.8101  1.0815
  236MPD1    H3 3587   1.835   2.622   9.834 -1.6281  1.3893  0.0663
  236MPD1     N 3588   1.876   2.510  10.271 -0.2694  0.2423  0.0829
  236MPD1    H5 3589   1.977   2.522  10.264 -0.4460  2.4875  1.4034
  236MPD1    N1 3590   1.449   2.517  10.028 -1.4115 -0.4243  0.7407
  236MPD1    H6 3591   1.423   2.439  10.088  1.7591 -2.3859 -0.4311
  236MPD1    H7 3592   1.413   2.503   9.933  2.6589 -0.2772 -0.8390
  237MPD1     C 3593   1.412   0.878  15.175  0.9964  0.2460  0.0730
  237MPD1    C1 3594   1.327   0.815  15.086  0.3634 -0.4988 -0.3198
  237MPD1    C2 3595   1.190   0.827  15.109  0.2480 -0.0153 -0.0343
  237MPD1    C3 3596   1.140   0.897  15.216  0.1027  0.0339  0.4921
  237MPD1    C4 3597   1.231   0.954  15.304  0.8193  0.4252 -0.2643
  237MPD1    C5 3598   1.363   0.945  15.282  0.3557  0.4347 -0.1545
  237MPD1     H 3599   1.124   0.784  15.034  1.8268 -0.0968 -1.3786
  237MPD1    H1 3600   1.198   1.011  15.390 -2.3641 -0.3359 -1.0016
  237MPD1    H2 3601   1.520   0.889  15.173  0.9761  0.1889 -1.3070
  237MPD1    H3 3602   1.433   0.991  15.350 -1.6246  0.7958  1.6396
  237MPD1     N 3603   0.998   0.901  15.245  0.5192  0.2836 -0.8657
  237MPD1    H5 3604   0.966   0.931  15.336  0.4683 -1.9906 -0.1303
  237MPD1    N1 3605   1.381   0.742  14.975  0.1532  0.2621  0.1932
  237MPD1    H6 3606   1.469   0.705  15.010  0.5132  0.8691 -0.0720
  237MPD1    H7 3607   1.315   0.673  14.938 -0.8349  0.1222  2.2045
  238MPD1     C 3608   3.650   4.136  15.015  0.3333  0.3882  0.9098
  238MPD1    C1 3609   3.615   4.004  15.028 -0.4709 -0.0417  0.1472
  238MPD1    C2 3610   3.478   3.970  15.016 -0.2599  0.7356 -0.4343
  238MPD1    C3 3611   3.388   4.055  14.947  0.3171  0.3810  0.0423
  238MPD1    C4 3612   3.435   4.181  14.913 -0.7676 -0.2811 -1.2067
  238MPD1    C5 3613   3.560   4.219  14.949 -0.2779 -0.1981 -0.1248
  238MPD1     H 3614   3.450   3.867  15.030  3.3936 -0.1777  0.2577
  238MPD1    H1 3615   3.378   4.249  14.850 -0.3579  0.8049 -0.4049
  238MPD1    H2 3616   3.741   4.175  15.060  0.7881  1.1273 -0.6455
  238MPD1    H3 3617   3.587   4.321  14.926 -1.3498  0.5656  2.0699
  238MPD1     N 3618   3.261   4.022  14.908  0.1803 -0.7387  0.2537
  238MPD1    H5 3619   3.214   4.081  14.840  1.2099 -2.0120 -1.5540
  238MPD1    N1 3620   3.700   3.908  15.083  0.2155  0.1291  0.1384
  238MPD1    H6 3621   3.797   3.942  15.081 -0.4768  2.1914  1.7057
  238MPD1    H7 3622   3.698   3.814  15.043 -2.4682  1.0485 -1.8506
  239MPD1     C 3623   3.121   0.711  15.364  0.5245 -0.7521  0.4492
  239MPD1    C1 3624   2.992   0.672  15.350  0.8173  0.1396  0.5980
  239MPD1    C2 3625   2.919   0.719  15.241 -0.5004  0.0043 -0.5214
  239MPD1    C3 3626   2.982   0.791  15.146  0.1987  0.1719  0.0095
  239MPD1    C4 3627   3.117   0.823  15.160  0.6380  0.2869  0.5771
  239MPD1    C5 3628   3.184   0.788  15.272 -0.1170  0.2727  0.2793
  239MPD1     H 3629   2.814   0.697  15.227 -0.3227 -0.8346 -0.4962
  239MPD1    H1 3630   3.168   0.871  15.078 -0.2076  0.7509  0.3205
  239MPD1    H2 3631   3.187   0.679  15.444  0.6802 -1.0052  0.2219
  239MPD1    H3 3632   3.291   0.802  15.282 -0.5379  2.5377  1.7332
  239MPD1     N 3633   2.922   0.819  15.021 -0.0290  0.6651  0.2912
  239MPD1    H5 3634   2.987   0.857  14.953  0.7935  3.4057  2.6067
  239MPD1    N1 3635   2.926   0.605  15.458 -0.3004  0.1138 -0.5682
  239MPD1    H6 3636   2.871   0.533  15.413 -0.5208  0.5289 -0.9647
  239MPD1    H7 3637   2.999   0.573  15.521  0.7436  0.3848 -1.6274
  240MPD1     C 3638   2.691   0.593  13.987  0.4305 -0.3174  0.5317
  240MPD1    C1 3639   2.577   0.521  13.942  0.1902 -0.3234 -0.0778
  240MPD1    C2 3640   2.572   0.393  13.987 -0.2112  0.7337  0.6298
  240MPD1    C3 3641   2.666   0.335  14.069  0.1064  0.0608 -0.1670
  240MPD1    C4 3642   2.779   0.411  14.103 -0.6349 -0.1480 -0.5230
  240MPD1    C5 3643   2.793   0.532  14.056  0.7188 -0.0754  0.0553
  240MPD1     H 3644   2.491   0.330  13.952  0.7221 -0.1456  0.0632
  240MPD1    H1 3645   2.857   0.365  14.163  0.3354 -0.4725 -1.9994
  240MPD1    H2 3646   2.718   0.690  13.948  0.8654 -0.5322  0.2905
  240MPD1    H3 3647   2.874   0.597  14.089  2.0056 -1.0197 -1.2412
  240MPD1     N 3648   2.641   0.201  14.106  0.1314  0.3194 -0.3483
  240MPD1    H5 3649   2.568   0.155  14.053 -1.6164  1.4415  1.0941
  240MPD1    N1 3650   2.478   0.583  13.873 -0.4024 -0.5349 -0.0762
  240MPD1    H6 3651   2.508   0.651  13.803  0.4424  0.4810  1.2640
  240MPD1    H7 3652   2.424   0.505  13.837  1.0997 -2.5297  1.9922
  241MPD1     C 3653   2.825   4.263  14.928 -0.6253  1.0757  0.1275
  241MPD1    C1 3654   2.931   4.315  14.859 -0.5217 -0.3085  0.2105
  241MPD1    C2 3655   2.900   4.380  14.741 -0.0428  0.3069 -0.2610
  241MPD1    C3 3656   2.771   4.389  14.693  0.6088  0.1614 -0.3411
  241MPD1    C4 3657   2.666   4.338  14.764  0.1177  0.3598  0.6640
  241MPD1    C5 3658   2.696   4.281  14.884  0.1152 -0.4391  0.2306
  241MPD1     H 3659   2.986   4.422  14.690 -0.1825 -0.0619 -0.7988
  241MPD1    H1 3660   2.567   4.349  14.720  0.2538  0.9147  0.4980
  241MPD1    H2 3661   2.841   4.206  15.019  0.8455 -0.0056 -0.7887
  241MPD1    H3 3662   2.622   4.233  14.947  0.5432  0.0934  1.1539
  241MPD1     N 3663   2.743   4.439  14.566 -0.5311  0.4247  0.4833
  241MPD1    H5 3664   2.643   4.448  14.554 -0.8702 -0.4086  2.6352
  241MPD1    N1 3665   3.069   4.281  14.881  0.2627 -0.4878  0.2616
  241MPD1    H6 3666   3.136   4.343  14.836 -0.4219 -0.2502 -0.4241
  241MPD1    H7 3667   3.094   4.278  14.980 -2.5720 -1.7320  0.9513
  242MPD1     C 3668   1.653   3.058  15.838  0.1088 -0.0229  0.4768
  242MPD1    C1 3669   1.659   3.157  15.748 -0.5238 -0.4862  0.1735
  242MPD1    C2 3670   1.748   3.140  15.643  0.8590 -0.2181 -0.7569
  242MPD1    C3 3671   1.825   3.025  15.626  0.2084 -0.1010 -0.0293
  242MPD1    C4 3672   1.811   2.926  15.720 -0.2267 -0.3351  0.5129
  242MPD1    C5 3673   1.723   2.943  15.819 -0.0868 -0.3721  0.2204
  242MPD1     H 3674   1.764   3.228  15.581 -0.0732  0.6642  0.2642
  242MPD1    H1 3675   1.874   2.838  15.726  1.0255  0.3988 -1.8952
  242MPD1    H2 3676   1.584   3.053  15.922  0.6691 -0.8762  0.8959
  242MPD1    H3 3677   1.715   2.862  15.891  3.2725 -0.2173  0.7551
  242MPD1     N 3678   1.916   3.001  15.519  0.5579  0.2878  0.1769
  242MPD1    H5 3679   1.983   2.925  15.522 -1.3503 -1.3102  2.6167
  242MPD1    N1 3680   1.612   3.283  15.774 -0.1812  0.2578 -0.2270
  242MPD1    H6 3681   1.529   3.288  15.832 -1.1013  0.8442 -1.5902
  242MPD1    H7 3682   1.597   3.328  15.683 -0.9193 -1.4093 -0.9271
  243MPD1     C 3683   0.279   1.542   0.538 -0.1754  0.2535  0.2267
  243MPD1    C1 3684   0.190   1.619   0.461  0.8131  0.3522 -0.0801
  243MPD1    C2 3685   0.074   1.560   0.425  0.4186  0.3221 -0.7408
  243MPD1    C3 3686   0.025   1.442   0.482 -0.4338 -0.4680  0.3716
  243MPD1    C4 3687   0.115   1.369   0.552 -0.9565  0.6202  0.5872
  243MPD1    C5 3688   0.240   1.416   0.576 -0.1918  0.5232 -0.2198
  243MPD1     H 3689   0.014   1.610   0.350  0.1958  1.3979  0.1663
  243MPD1    H1 3690   0.099   1.266   0.582 -1.8797  0.4107 -0.6115
  243MPD1    H2 3691   0.373   1.576   0.580  0.2468  0.6919 -1.0709
  243MPD1    H3 3692   0.312   1.359   0.634 -1.1029 -1.0574 -0.6591
  243MPD1     N 3693   4.617   1.401   0.445 -0.1542  0.5302  0.0784
  243MPD1    H5 3694   4.569   1.462   0.380 -0.8769 -1.1625 -0.9621
  243MPD1    N1 3695   0.237   1.739   0.399 -0.4437 -0.9001 -0.3242
  243MPD1    H6 3696   0.311   1.731   0.329 -0.3230  0.3887 -0.3428
  243MPD1    H7 3697   0.156   1.796   0.373 -0.1467 -1.0581 -1.6148
  244MPD1     C 3698   3.914   0.927   0.945 -0.3054  0.2660 -0.0449
  244MPD1    C1 3699   4.041   0.968   0.969  0.1068 -0.1845  0.3550
  244MPD1    C2 3700   4.103   1.025   0.864 -0.5400 -0.1234 -0.1034
  244MPD1    C3 3701   4.040   1.055   0.744 -0.3657 -0.3218  0.1346
  244MPD1    C4 3702   3.904   1.028   0.728 -0.0217 -1.0348 -0.5139
  244MPD1    C5 3703   3.839   0.976   0.837  0.3393 -0.2145  0.0651
  244MPD1     H 3704   4.209   1.040   0.884 -0.6477  2.0658 -1.1557
  244MPD1    H1 3705   3.843   1.061   0.645 -1.1439 -2.2643 -0.1737
  244MPD1    H2 3706   3.855   0.879   1.022  0.2526 -1.1794 -0.5016
  244MPD1    H3 3707   3.736   0.945   0.828 -0.0200  1.8967 -3.2120
  244MPD1     N 3708   4.118   1.122   0.646 -0.2240  0.2212 -0.6789
  244MPD1    H5 3709   4.218   1.109   0.663 -0.0508 -0.7047 -2.3600
  244MPD1    N1 3710   4.117   0.903   1.069  0.4399 -0.0084  0.8106
  244MPD1    H6 3711   4.060   0.881   1.150 -0.7265  1.4374  0.3763
  244MPD1    H7 3712   4.195   0.959   1.103 -0.1248  0.8405  0.7163
  245MPD1     C 3713   0.677   1.942  13.286  0.1438  0.1715  0.2304
  245MPD1    C1 3714   0.709   1.961  13.422  0.2611 -0.1870  0.5495
  245MPD1    C2 3715   0.743   2.091  13.467  0.1355 -0.7876  0.8822
  245MPD1    C3 3716   0.724   2.207  13.390  0.4173 -0.1422 -0.0825
  245MPD1    C4 3717   0.690   2.184  13.261  0.2183 -0.3793 -0.0430
  245MPD1    C5 3718   0.677   2.057  13.213 -0.2893 -0.6902  0.3408
  245MPD1     H 3719   0.773   2.106  13.570  1.1458  0.6101  0.3872
  245MPD1    H1 3720   0.668   2.271  13.201 -2.5977 -0.7036  0.5074
  245MPD1    H2 3721   0.673   1.845  13.238 -0.8199  0.5310 -0.4009
  245MPD1    H3 3722   0.661   2.050  13.106  1.9286 -1.2856  0.0435
  245MPD1     N 3723   0.745   2.338  13.453 -0.1756 -0.5303 -0.2743
  245MPD1    H5 3724   0.745   2.340  13.554  1.2454  0.0713 -0.2817
  245MPD1    N1 3725   0.724   1.854  13.506 -0.5261 -0.3837  0.2893
  245MPD1    H6 3726   0.653   1.784  13.487 -1.5965  1.7635 -3.7207
  245MPD1    H7 3727   0.724   1.882  13.604  0.3655  0.7003 -0.0172
  246MPD1     C 3728   3.701   2.843  10.426  0.2919  0.2725  0.4263
  246MPD1    C1 3729   3.741   2.972  10.395  0.1463  0.0276 -1.0736
  246MPD1    C2 3730   3.637   3.053  10.345  0.7507  0.0294  0.6794
  246MPD1    C3 3731   3.507   3.004  10.318 -0.3950 -0.9348  0.7026
  246MPD1    C4 3732   3.470   2.879  10.361 -0.2418 -0.8408 -0.4540
  246MPD1    C5 3733   3.568   2.794  10.405  0.2460 -0.0391  0.2992
  246MPD1     H 3734   3.664   3.154  10.317 -4.3416  1.0620 -0.5391
  246MPD1    H1 3735   3.376   2.827  10.349  0.5087 -2.3244  0.1514
  246MPD1    H2 3736   3.774   2.771  10.463  0.6969  1.0081  1.0657
  246MPD1    H3 3737   3.538   2.692  10.426 -0.5558  0.1238 -0.0675
  246MPD1     N 3738   3.423   3.098  10.262  0.3202 -0.7755  0.4552
  246MPD1    H5 3739   3.459   3.192  10.250 -0.5886 -0.6031 -0.9203
  246MPD1    N1 3740   3.866   3.032  10.413  0.2778 -0.8730  0.4500
  246MPD1    H6 3741   3.897   3.079  10.328 -0.4534 -2.4440 -0.6921
  246MPD1    H7 3742   3.936   2.964  10.442  2.5673  1.3682  0.0946
  247MPD1     C 3743   4.515   2.092  15.908 -0.0257  0.4876  0.2870
  247MPD1    C1 3744   4.553   1.965  15.945  0.3884  0.4696 -0.0776
  247MPD1    C2 3745   4.675   1.934  15.995  0.5696 -0.4509  0.1816
  247MPD1    C3 3746   0.050   2.041  16.011 -0.1890  0.1204 -0.4637
  247MPD1    C4 3747   0.012   2.175  15.977 -0.1132  0.0321 -0.3711
  247MPD1    C5 3748   4.603   2.195  15.939 -0.3171  0.7762  0.7315
  247MPD1     H 3749   4.689   1.831  16.026 -0.3779 -0.8654 -0.7648
  247MPD1    H1 3750   0.084   2.255  15.986  2.0134 -1.7833 -1.1536
  247MPD1    H2 3751   4.415   2.113  15.873 -0.3779  0.0229  1.0169
  247MPD1    H3 3752   4.581   2.299  15.916  1.1334  0.8675 -0.2429
  247MPD1     N 3753   0.187   2.018  16.053 -0.0534  0.5311 -0.2233
  247MPD1    H5 3754   0.234   2.105  16.078  1.2559  0.3909 -2.1890
  247MPD1    N1 3755   4.464   1.861  15.920  0.3833  0.2065 -0.3991
  247MPD1    H6 3756   4.475   1.783  15.984 -3.2458  0.5719  0.6674
  247MPD1    H7 3757   4.369   1.898  15.923 -0.3492 -1.5755 -1.5656
  248MPD1     C 3758   1.429   2.141   0.002 -0.5919  0.4896 -0.5147
  248MPD1    C1 3759   1.321   2.223   0.002  0.8949 -0.4177  0.5814
  248MPD1    C2 3760   1.308   2.316   0.102 -0.6390  0.4202 -0.1153
  248MPD1    C3 3761   1.401   2.317   0.205 -0.9016  0.0909  0.0627
  248MPD1    C4 3762   1.513   2.237   0.199  0.1921  0.9685  0.2319
  248MPD1    C5 3763   1.527   2.141   0.100 -0.2952  0.0662  0.4956
  248MPD1     H 3764   1.224   2.384   0.114 -0.2133  1.0565 -0.7492
  248MPD1    H1 3765   1.601   2.240   0.262  0.4740  1.7680 -0.1965
  248MPD1    H2 3766   1.444   2.073  17.612 -0.0762  1.4593 -1.2041
  248MPD1    H3 3767   1.621   2.088   0.098  1.1306  2.6777 -1.7646
  248MPD1     N 3768   1.366   2.410   0.304  0.3724 -0.4906 -0.3806
  248MPD1    H5 3769   1.290   2.473   0.281  1.0148  0.7602  0.8821
  248MPD1    N1 3770   1.236   2.213  17.585  0.5391  0.1247 -0.4371
  248MPD1    H6 3771   1.137   2.218  17.607  0.7700 -1.9627  1.0492
  248MPD1    H7 3772   1.261   2.119  17.555 -2.5302 -1.0239  0.6406
  249MPD1     C 3773   1.880   1.104   9.749 -0.4540  0.3892  0.3189
  249MPD1    C1 3774   2.014   1.125   9.760  0.8889  0.0432  0.6220
  249MPD1    C2 3775   2.064   1.254   9.764 -0.5795  0.3283  0.1855
  249MPD1    C3 3776   1.984   1.360   9.745 -0.4040  0.8959  0.0496
  249MPD1    C4 3777   1.842   1.331   9.739 -0.0097 -0.6472 -0.0880
  249MPD1    C5 3778   1.794   1.207   9.739  1.0211 -0.1416 -0.1147
  249MPD1     H 3779   2.169   1.278   9.778 -0.1597 -0.1482 -2.1338
  249MPD1    H1 3780   1.770   1.412   9.734  2.6973  1.7258 -1.1113
  249MPD1    H2 3781   1.851   1.000   9.757  0.3068  0.2647  1.4953
  249MPD1    H3 3782   1.691   1.183   9.714  0.6327 -0.6048  1.9395
  249MPD1     N 3783   2.033   1.497   9.750  0.4210  0.7305 -0.0919
  249MPD1    H5 3784   2.134   1.494   9.765  0.3836 -1.2964 -0.1632
  249MPD1    N1 3785   2.100   1.018   9.734 -0.3789  0.2471 -0.1618
  249MPD1    H6 3786   2.051   0.942   9.781 -0.8398  0.3660 -0.4532
  249MPD1    H7 3787   2.194   1.028   9.773 -0.4828 -0.1708  0.1903
  250MPD2     C 3788   4.258   0.991  13.717  0.1588  0.2779  0.1395
  250MPD2    C1 3789   4.262   1.021  13.585  0.4103  0.2736  0.2316
  250MPD2    C2 3790   4.193   0.934  13.497  0.5594 -0.0664 -0.4391
  250MPD2    C3 3791   4.117   0.827  13.536 -0.0792 -0.1694  0.4876
  250MPD2    C4 3792   4.104   0.812  13.671 -0.1650 -0.5149  0.6844
  250MPD2    C5 3793   4.173   0.890  13.756 -0.5396 -0.4242  0.4851
  250MPD2     H 3794   4.191   0.947  13.389  2.1500  0.2529 -0.4272
  250MPD2    H1 3795   4.047   0.727  13.708 -0.0395 -0.7090  0.4347
  250MPD2    H2 3796   4.308   1.055  13.789  1.0384  1.4762 -1.5367
  250MPD2    H3 3797   4.148   0.871  13.860 -0.5860 -0.1876  0.5179
  250MPD2     N 3798   4.031   0.757  13.446  0.3821  0.2030  0.1733
  250MPD2    H5 3799   3.962   0.696  13.488  1.1265 -0.3441  0.6022
  250MPD2    N1 3800   4.339   1.128  13.540  0.5571 -0.2992  0.1215
  250MPD2    H7 3801   4.386   1.189  13.606  3.5053  0.3012 -2.5510
  251TMC3    C1 3802   4.425   1.292  13.401 -0.1327 -0.2867  0.3641
  251TMC3    C2 3803   4.360   1.386  13.476  0.1117 -0.4745 -0.4340
  251TMC3    C3 3804   4.368   1.512  13.431 -0.1614 -0.2194  0.0805
  251TMC3    C4 3805   4.506   1.323  13.304 -0.3904 -0.0084  0.0615
  251TMC3    C5 3806   4.517   1.450  13.263  0.2832  0.0405 -0.2046
  251TMC3    C6 3807   4.448   1.555  13.322 -0.4752  0.7154  0.0485
  251TMC3     C 3808   4.380   1.157  13.414 -0.0449 -0.3179 -0.3288
  251TMC3     O 3809   4.358   1.097  13.313  0.5949  0.3470 -0.3338
  251TMC3     H 3810   4.283   1.353  13.545 -0.1068  0.6424 -0.1374
  251TMC3    H1 3811   4.549   1.248  13.239 -1.5016  0.3560 -1.0949
  251TMC3    H2 3812   4.459   1.661  13.303 -0.0701  0.5260 -0.7577
  251TMC3    C7 3813   4.656   1.484  13.222 -0.1759 -0.0909  0.3048
  251TMC3    C8 3814   4.284   1.610  13.502 -0.2396  0.3913  0.4459
  251TMC3    O1 3815   0.015   1.393  13.253 -0.0600 -0.4202 -0.4649
  251TMC3    O2 3816   4.245   1.578  13.613 -0.2616  0.0799  0.1875
  252TMC3    C1 3817   0.237   1.614   9.826  0.6244 -0.5089 -0.8039
  252TMC3    C2 3818   0.288   1.737   9.795  0.2794 -0.1873 -0.6857
  252TMC3    C3 3819   0.373   1.757   9.687 -0.0658 -0.1818 -0.3178
  252TMC3    C4 3820   0.252   1.506   9.744  0.2715  0.9149 -0.4099
  252TMC3    C5 3821   0.338   1.523   9.638 -0.0661 -0.3481 -0.6194
  252TMC3    C6 3822   0.404   1.648   9.611  0.6458 -0.1877  0.9333
  252TMC3     C 3823   0.126   1.620   9.910  0.6386 -0.2769  1.1656
  252TMC3     O 3824   0.022   1.576   9.861 -1.1984 -0.2914  0.1150
  252TMC3     H 3825   0.252   1.824   9.849  1.2886  0.3493 -0.8813
  252TMC3    H1 3826   0.221   1.406   9.774  0.3158 -0.1234 -3.8008
  252TMC3    H2 3827   0.474   1.656   9.528 -0.4835 -1.1094 -0.1125
  252TMC3    C7 3828   0.392   1.413   9.559  0.1506 -0.2163 -0.3636
  252TMC3    C8 3829   0.465   1.867   9.680 -0.4955 -0.3550 -0.1280
  252TMC3    O1 3830   0.501   1.446   9.515 -1.0129 -0.4799  0.3375
  252TMC3    O2 3831   0.558   1.849   9.601 -0.1181  0.2487 -0.6977
  253MPD2     C 3832   0.419   0.865  16.030  0.2489  0.4767  0.0807
  253MPD2    C1 3833   0.290   0.893  15.988 -0.1929  0.0738 -0.3661
  253MPD2    C2 3834   0.185   0.826  16.050  0.1016  0.7610  0.1692
  253MPD2    C3 3835   0.203   0.731  16.148  0.1013 -0.2222  0.0073
  253MPD2    C4 3836   0.331   0.698  16.183  0.1681  0.0722 -0.4688
  253MPD2    C5 3837   0.434   0.764  16.126 -0.1323  0.1527  0.4357
  253MPD2     H 3838   0.086   0.846  16.010 -0.4040 -0.3289  0.8780
  253MPD2    H1 3839   0.344   0.612  16.247 -1.7764 -0.2470 -0.4940
  253MPD2    H2 3840   0.503   0.928  16.003 -0.5986  0.2355 -3.1058
  253MPD2    H3 3841   0.534   0.727  16.148  0.1736  0.2755 -0.7312
  253MPD2     N 3842   0.101   0.660  16.213  0.1045 -0.0708  0.2006
  253MPD2    H5 3843   0.130   0.580  16.268 -0.8933 -0.9087 -0.4744
  253MPD2    N1 3844   0.266   0.964  15.868  0.2886 -0.5478  0.4854
  253MPD2    H7 3845   0.171   0.996  15.851  1.0475  1.4635  0.0576
  254TMC3    C1 3846   4.608   0.589  16.275 -0.3100 -0.3482  0.1640
  254TMC3    C2 3847   4.481   0.583  16.242  0.2868  0.2996  0.0877
  254TMC3    C3 3848   4.393   0.522  16.327 -0.9579  0.0259  0.2650
  254TMC3    C4 3849   4.662   0.535  16.387  0.4338  0.1921 -0.3263
  254TMC3    C5 3850   4.576   0.460  16.463  0.1414  0.2831 -0.0046
  254TMC3    C6 3851   4.447   0.439  16.425  0.2793  0.0269 -0.6015
  254TMC3     C 3852   4.693   0.679  16.197  0.0326  0.2436 -0.8305
  254TMC3     O 3853   4.632   0.767  16.142  0.0758  0.2454 -0.1509
  254TMC3     H 3854   4.445   0.648  16.163 -0.7513 -0.0373  0.2748
  254TMC3    H1 3855   0.045   0.545  16.409  0.9326 -1.0528 -2.1252
  254TMC3    H2 3856   4.381   0.371  16.477 -0.9428  1.9482  0.3656
  254TMC3    C7 3857   4.642   0.354  16.544 -0.2063  0.1113  0.2517
  254TMC3    C8 3858   4.300   0.623  16.361 -0.0229 -0.7998  0.4229
  254TMC3    O1 3859   4.618   0.239  16.528 -0.2594 -0.1074 -0.7606
  254TMC3    O2 3860   4.269   0.643  16.481 -0.7431 -0.0708 -0.0429
  255MPD2     C 3861   4.229   3.184   9.861 -0.6798 -0.0861 -0.0236
  255MPD2    C1 3862   4.235   3.316   9.875  0.2224 -0.4067  0.0776
  255MPD2    C2 3863   4.349   3.393   9.885 -0.1153  0.0341  0.1388
  255MPD2    C3 3864   4.464   3.328   9.850  0.4730  0.4237  0.2101
  255MPD2    C4 3865   4.467   3.193   9.843 -0.0362  0.5495 -0.8958
  255MPD2    C5 3866   4.351   3.122   9.854  1.3130  1.0119  0.3461
  255MPD2     H 3867   4.341   3.500   9.898  3.3333  0.0259  2.4412
  255MPD2    H1 3868   4.563   3.143   9.838 -0.8763 -1.1507  0.1131
  255MPD2    H2 3869   4.136   3.129   9.851 -0.8184 -0.0583  1.0952
  255MPD2    H3 3870   4.364   3.017   9.831 -1.7562  0.6485  0.3066
  255MPD2     N 3871   4.578   3.410   9.832 -0.1746 -0.8388  0.0973
  255MPD2    H5 3872   4.549   3.506   9.851  1.3895  0.2526 -3.1014
  255MPD2    N1 3873   4.100   3.372   9.875  0.0910 -0.2530 -0.6472
  255MPD2    H7 3874   4.020   3.318   9.843  0.2488 -0.0187 -1.4317
  256TMC3    C1 3875   3.932   3.528   9.867  0.0469 -0.0094 -0.1487
  256TMC3    C2 3876   3.943   3.599   9.751 -0.7236 -0.3154 -0.2786
  256TMC3    C3 3877   3.888   3.543   9.641  0.2551 -0.9672 -0.0660
  256TMC3    C4 3878   3.848   3.422   9.872 -0.3007  0.4951 -0.1968
  256TMC3    C5 3879   3.786   3.369   9.764 -0.1792  0.7242 -0.0201
  256TMC3    C6 3880   3.815   3.428   9.643  0.8381  0.1466 -0.3080
  256TMC3     C 3881   4.066   3.503   9.915 -0.0774 -0.1305  0.1692
  256TMC3     O 3882   4.134   3.598   9.959 -0.2692 -0.7456  0.2531
  256TMC3     H 3883   4.000   3.691   9.739 -0.3422 -0.1670  2.7457
  256TMC3    H1 3884   3.835   3.373   9.968 -3.5740  1.4704 -0.1419
  256TMC3    H2 3885   3.801   3.377   9.549  1.7315 -0.9544  0.1542
  256TMC3    C7 3886   3.807   3.228   9.751 -0.1784 -0.6686  0.6044
  256TMC3    C8 3887   3.913   3.599   9.506 -0.1968  0.1970 -0.0721
  256TMC3    O1 3888   3.893   3.196   9.674  0.1693  0.1312 -0.3804
  256TMC3    O2 3889   3.833   3.570   9.419  0.0006  0.1041  0.7030
  257MPD2     C 3890   2.869   1.249  13.358 -0.0378 -0.5180  0.1585
  257MPD2    C1 3891   2.772   1.193  13.284  0.3663  0.0526  0.7289
  257MPD2    C2 3892   2.723   1.061  13.316  0.3696  0.4659 -0.1386
  257MPD2    C3 3893   2.780   0.983  13.415 -0.4635  0.6040 -0.0842
  257MPD2    C4 3894   2.887   1.043  13.485 -0.4003 -0.3579 -0.1380
  257MPD2    C5 3895   2.927   1.171  13.457  0.2477  0.3439 -0.3981
  257MPD2     H 3896   2.636   1.015  13.269 -0.1502  1.4522 -0.1381
  257MPD2    H1 3897   2.937   1.007  13.574  0.3948  2.0629  0.3902
  257MPD2    H2 3898   2.906   1.347  13.332 -3.0342  0.8148  1.0028
  257MPD2    H3 3899   3.009   1.213  13.513 -0.0047 -0.9309  0.9354
  257MPD2     N 3900   2.741   0.853  13.434 -0.1728 -0.4294 -0.0857
  257MPD2    H5 3901   2.654   0.819  13.394 -2.2779  1.3498  2.9684
  257MPD2    N1 3902   2.730   1.270  13.174 -0.2800 -0.2145  0.5274
  257MPD2    H7 3903   2.771   1.360  13.155 -2.3675  0.9038  1.3251
  258TMC3    C1 3904   2.739   0.627  13.494 -0.3488  0.7500  0.2405
  258TMC3    C2 3905   2.665   0.612  13.377  0.5514 -1.2730 -0.1562
  258TMC3    C3 3906   2.583   0.508  13.373  0.6339 -0.1828  0.3278
  258TMC3    C4 3907   2.745   0.542  13.597  0.7139 -0.5593  0.2884
  258TMC3    C5 3908   2.658   0.436  13.591  0.1348  0.0918 -0.0806
  258TMC3    C6 3909   2.580   0.422  13.479 -0.1842 -0.1771  0.5611
  258TMC3     C 3910   2.798   0.756  13.514 -0.0606 -0.3456 -0.2002
  258TMC3     O 3911   2.901   0.760  13.582 -0.1115  0.7500  0.4063
  258TMC3     H 3912   2.679   0.670  13.287  0.5249  0.6879  1.1157
  258TMC3    H1 3913   2.824   0.565  13.667  1.3026  0.1161 -0.5934
  258TMC3    H2 3914   2.522   0.331  13.470  0.2484 -0.6642  2.6040
  258TMC3    C7 3915   2.697   0.313  13.664  0.2588  0.2740 -0.1515
  258TMC3    C8 3916   2.489   0.482  13.272 -0.9086  0.9623  0.2499
  258TMC3    O1 3917   2.634   0.212  13.639  0.0538 -0.1738  0.3169
  258TMC3    O2 3918   2.411   0.389  13.285 -0.4980  0.3093 -1.0214
  259MPD2     C 3919   1.964   1.815   1.946  0.9422  0.2986 -0.1885
  259MPD2    C1 3920   1.924   1.825   1.821  0.5924  0.3697 -0.0266
  259MPD2    C2 3921   1.959   1.731   1.725 -0.3794  0.1735 -0.6268
  259MPD2    C3 3922   2.009   1.608   1.757  0.3657  0.6968  0.4179
  259MPD2    C4 3923   2.049   1.592   1.892 -0.0283  0.5198 -0.1309
  259MPD2    C5 3924   2.034   1.700   1.975  0.3644  0.4274 -0.7455
  259MPD2     H 3925   1.937   1.746   1.619 -1.7981 -2.1698 -0.6701
  259MPD2    H1 3926   2.112   1.508   1.920 -0.3602  0.5916  0.8245
  259MPD2    H2 3927   1.939   1.890   2.021  1.3433 -1.0155  1.2534
  259MPD2    H3 3928   2.080   1.697   2.073 -0.8603 -1.2610 -0.2194
  259MPD2     N 3929   2.045   1.521   1.655  0.0753  0.1405 -1.0638
  259MPD2    H5 3930   2.023   1.553   1.562  3.0208 -0.4078 -1.9476
  259MPD2    N1 3931   1.858   1.946   1.787 -0.7708  0.3323  0.6552
  259MPD2    H7 3932   1.844   2.017   1.858  1.5235  0.6795  0.7425
  260TMC3    C1 3933   2.166   1.350   1.544  0.3242 -0.0829 -0.0670
  260TMC3    C2 3934   2.301   1.324   1.551 -1.0523  0.0204  0.0179
  260TMC3    C3 3935   2.366   1.325   1.435 -0.2310 -0.0905 -0.0358
  260TMC3    C4 3936   2.096   1.367   1.436 -0.0553  0.8865 -0.3721
  260TMC3    C5 3937   2.169   1.347   1.319 -0.1070  0.1063  0.5717
  260TMC3    C6 3938   2.302   1.332   1.315  0.0543  0.0026  0.1928
  260TMC3     C 3939   2.113   1.401   1.670 -0.4421 -0.5926  0.6538
  260TMC3     O 3940   2.162   1.347   1.770  0.3829 -0.1913 -0.1709
  260TMC3     H 3941   2.354   1.325   1.646  0.3593 -0.0196 -0.7756
  260TMC3    H1 3942   1.989   1.380   1.445 -0.0618  2.1039 -2.3589
  260TMC3    H2 3943   2.363   1.312   1.228 -0.3345  1.8976 -0.5078
  260TMC3    C7 3944   2.096   1.367   1.187 -0.8168  0.5218 -0.6919
  260TMC3    C8 3945   2.507   1.281   1.448 -0.1124 -0.8123  0.4342
  260TMC3    O1 3946   2.163   1.400   1.094 -0.7592  0.7155  0.3368
  260TMC3    O2 3947   2.540   1.206   1.539  0.3731  0.6050 -0.5276
  261MPD2     C 3948   3.482   0.871  12.920  0.0153 -0.4030  0.1184
  261MPD2    C1 3949   3.588   0.805  12.858  0.5714  0.4061 -0.1094
  261MPD2    C2 3950   3.615   0.826  12.724 -0.1388 -0.2389 -0.4453
  261MPD2    C3 3951   3.545   0.912  12.645 -0.1317 -0.2829  0.1109
  261MPD2    C4 3952   3.437   0.973  12.712  0.3293  0.3354 -0.3055
  261MPD2    C5 3953   3.404   0.953  12.845 -0.0815  0.1612  0.4763
  261MPD2     H 3954   3.704   0.780  12.682 -0.6465 -1.0789 -0.6151
  261MPD2    H1 3955   3.373   1.042  12.658 -1.4210 -0.5156  0.6605
  261MPD2    H2 3956   3.454   0.851  13.022 -0.6803 -2.4250 -0.4663
  261MPD2    H3 3957   3.315   0.996  12.889  0.4696  0.2010  1.5669
  261MPD2     N 3958   3.575   0.920  12.501  0.3126  0.0538  0.2892
  261MPD2    H5 3959   3.645   0.854  12.470  1.1941  0.5778  1.1504
  261MPD2    N1 3960   3.679   0.733  12.940  0.2044  0.0614  0.1342
  261MPD2    H7 3961   3.752   0.676  12.898 -0.2825 -1.9753  2.0065
  262TMC3    C1 3962   3.600   1.028  12.298  0.0489  0.3752 -0.0990
  262TMC3    C2 3963   3.590   1.149  12.247 -0.2305  0.5939  0.2288
  262TMC3    C3 3964   3.585   1.159  12.107  0.0119 -0.0291  0.3126
  262TMC3    C4 3965   3.607   0.920  12.213  0.3055 -0.0098 -0.0848
  262TMC3    C5 3966   3.614   0.938  12.079  0.2441  0.7862  0.2529
  262TMC3    C6 3967   3.610   1.062  12.023 -0.1801 -0.0621 -0.3677
  262TMC3     C 3968   3.519   1.015  12.419 -0.8658  0.1710  0.5480
  262TMC3     O 3969   3.455   1.113  12.454  0.3021  0.2706 -0.2811
  262TMC3     H 3970   3.570   1.236  12.308  0.8779  1.0075  0.0003
  262TMC3    H1 3971   3.590   0.819  12.250 -2.2342 -0.2750 -1.9916
  262TMC3    H2 3972   3.616   1.090  11.919  0.1639 -1.8136 -0.8215
  262TMC3    C7 3973   3.617   0.824  11.994 -0.1822  0.6662 -0.6536
  262TMC3    C8 3974   3.489   1.245  12.060  0.5775 -0.1787 -0.2731
  262TMC3    O1 3975   3.596   0.716  12.047  0.6617 -0.1464 -1.2746
  262TMC3    O2 3976   3.480   1.276  11.943  0.2859  0.3752 -0.8726
  263MPD2     C 3977   4.508   0.019  11.514  0.1342  0.0804  0.1098
  263MPD2    C1 3978   4.637   0.049  11.476 -0.0129 -0.0509  0.4225
  263MPD2    C2 3979   4.674   0.105  11.355  0.1356 -0.3534  0.2741
  263MPD2    C3 3980   4.576   0.151  11.269 -0.5917 -0.1701 -0.9017
  263MPD2    C4 3981   4.446   0.133  11.308 -0.1603  0.0051 -0.2114
  263MPD2    C5 3982   4.412   0.060  11.423 -0.1544 -0.0134  0.7921
  263MPD2     H 3983   0.054   0.113  11.324  0.3599 -0.8444  0.8939
  263MPD2    H1 3984   4.359   0.171  11.256  0.9162  2.5546 -0.1797
  263MPD2    H2 3985   4.481   4.684  11.602 -1.7851 -0.4082 -0.7785
  263MPD2    H3 3986   4.309   0.032  11.444  0.5690 -2.8418  0.5918
  263MPD2     N 3987   4.616   0.223  11.151  0.1826 -0.1674  0.3890
  263MPD2    H5 3988   4.714   0.247  11.141  1.1054 -3.5879  1.3243
  263MPD2    N1 3989   0.008   0.036  11.582  0.4001 -0.1125 -0.1570
  263MPD2    H7 3990   4.690   0.029  11.675 -1.0218  0.4821 -0.7368
  264TMC3    C1 3991   4.593   0.382  10.980  0.0407  0.6215  0.2964
  264TMC3    C2 3992   4.529   0.502  10.972  0.3355 -0.4943 -0.4162
  264TMC3    C3 3993   4.599   0.604  10.921 -0.7112  0.2660 -0.3634
  264TMC3    C4 3994   4.717   0.362  10.920  0.0682  0.2844  0.7510
  264TMC3    C5 3995   0.054   0.463  10.854 -0.3519 -0.3095  0.1409
  264TMC3    C6 3996   4.709   0.582  10.849  0.6848  0.2746  0.0488
  264TMC3     C 3997   4.534   0.275  11.057 -0.3057 -1.0102 -0.5734
  264TMC3     O 3998   4.413   0.266  11.047  0.1504  0.2601  0.3556
  264TMC3     H 3999   4.447   0.499  11.043 -0.1731  0.7692 -0.9466
  264TMC3    H1 4000   0.046   0.267  10.924  0.5200  0.5076  0.2262
  264TMC3    H2 4001   0.009   0.665  10.783  1.5514  0.6474  0.8163
  264TMC3    C7 4002   0.190   0.465  10.803 -0.2335 -0.1074  0.1624
  264TMC3    C8 4003   4.602   0.727  10.990  0.2568  0.3493  0.0981
  264TMC3    O1 4004   0.241   0.357  10.775  0.2898  0.3030  0.3179
  264TMC3    O2 4005   4.701   0.793  10.969 -0.1042 -0.0147  0.1412
  265MPD2     C 4006   1.543   0.521  15.892 -0.8159  0.9459  0.2885
  265MPD2    C1 4007   1.615   0.623  15.829 -0.2361  0.2901  0.1207
  265MPD2    C2 4008   1.682   0.592  15.712  0.0824 -0.0561 -0.7202
  265MPD2    C3 4009   1.671   0.456  15.667  0.0207 -0.6749  0.7950
  265MPD2    C4 4010   1.597   0.364  15.730 -0.0776  0.8964  0.9244
  265MPD2    C5 4011   1.529   0.391  15.846 -0.5405 -0.3184 -0.5656
  265MPD2     H 4012   1.727   0.671  15.654  0.5479  0.0762 -0.1734
  265MPD2    H1 4013   1.573   0.270  15.684 -0.9431  2.2779 -1.4529
  265MPD2    H2 4014   1.474   0.544  15.972  0.3233  2.0120  0.9686
  265MPD2    H3 4015   1.487   0.316  15.912 -0.1358 -0.7360 -0.7847
  265MPD2     N 4016   1.724   0.417  15.540  0.0953  0.3182  0.6807
  265MPD2    H5 4017   1.708   0.320  15.515  1.8330  0.0560  0.5214
  265MPD2    N1 4018   1.622   0.760  15.878  0.0705  0.6688  0.1401
  265MPD2    H7 4019   1.653   0.834  15.816 -1.3253 -0.8806 -2.4555
  266TMC3    C1 4020   1.626   0.929  16.047  0.6865  0.3020 -0.4822
  266TMC3    C2 4021   1.666   0.957  16.175  0.2489  0.6476  0.3430
  266TMC3    C3 4022   1.652   1.085  16.234 -0.0770 -0.0461  0.7499
  266TMC3    C4 4023   1.608   1.030  15.961  0.3673 -0.2782 -0.0928
  266TMC3    C5 4024   1.600   1.157  16.020 -0.0852  0.2614 -0.1480
  266TMC3    C6 4025   1.613   1.183  16.154  0.5509  0.2372 -0.1749
  266TMC3     C 4026   1.595   0.790  16.010  0.3642 -0.8495 -0.0181
  266TMC3     O 4027   1.570   0.718  16.109 -0.7734  0.1339  0.6032
  266TMC3     H 4028   1.685   0.870  16.236  1.7262  0.6854 -0.0686
  266TMC3    H1 4029   1.588   1.006  15.857  0.5041  2.0295 -0.6544
  266TMC3    H2 4030   1.603   1.281  16.198 -1.6465 -1.0695  2.1893
  266TMC3    C7 4031   1.537   1.254  15.937  0.0705  0.2186 -0.4015
  266TMC3    C8 4032   1.565   1.071  16.352 -1.1808  0.4485 -0.4638
  266TMC3    O1 4033   1.541   1.228  15.817  0.2935  0.2293 -0.1386
  266TMC3    O2 4034   1.529   0.960  16.379  0.0353  0.3117  0.1801
  267MPD2     C 4035   4.121   1.731  17.687  0.1973  0.5054  0.1805
  267MPD2    C1 4036   4.169   1.777  17.561 -0.9206  0.0598 -0.4353
  267MPD2    C2 4037   4.062   1.800  17.467  0.8879 -0.0150 -0.4442
  267MPD2    C3 4038   3.927   1.809  17.502  0.5936  0.0400  1.2238
  267MPD2    C4 4039   3.890   1.757  17.626  0.1606 -1.3297  0.5865
  267MPD2    C5 4040   3.986   1.719   0.018 -0.8541  0.6549  0.2027
  267MPD2     H 4041   4.091   1.808  17.363  2.4714  0.0177  0.0060
  267MPD2    H1 4042   3.786   1.753  17.658  0.0556  1.1219  0.5405
  267MPD2    H2 4043   4.185   1.694   0.073 -0.7011  0.5762  0.9368
  267MPD2    H3 4044   3.964   1.682   0.118  0.1357  0.3426  0.3053
  267MPD2     N 4045   3.823   1.859  17.420 -0.1821 -0.6002  0.0630
  267MPD2    H5 4046   3.735   1.867  17.468  0.3539 -0.1066  0.9544
  267MPD2    N1 4047   4.308   1.785  17.545  0.5351  0.2849  0.0946
  267MPD2    H7 4048   4.372   1.757  17.619 -0.2665 -0.8113  0.3708
  268TMC3    C1 4049   4.506   1.879  17.472 -0.3083 -0.0133 -0.6344
  268TMC3    C2 4050   4.560   1.957  17.376 -0.1485 -0.1772 -0.5466
  268TMC3    C3 4051   4.662   2.045  17.398 -0.3347 -0.3857  0.1254
  268TMC3    C4 4052   4.556   1.891  17.600  0.1768 -0.0363 -0.5205
  268TMC3    C5 4053   4.660   1.983  17.617 -0.5262  0.2158  0.3072
  268TMC3    C6 4054   4.716   2.059  17.522  0.6901  0.3127 -0.1595
  268TMC3     C 4055   4.371   1.840  17.431 -0.7192  0.0076  0.0793
  268TMC3     O 4056   4.322   1.895  17.333  0.5399  0.2200 -0.0668
  268TMC3     H 4057   4.531   1.939  17.273 -0.2692  1.1585 -0.7391
  268TMC3    H1 4058   4.516   1.836  17.685 -2.6059  1.8887 -0.5864
  268TMC3    H2 4059   0.075   2.126  17.544 -0.4917  1.5585  0.4813
  268TMC3    C7 4060   4.714   1.986   0.059  0.0725 -0.0964 -0.1974
  268TMC3    C8 4061   4.673   2.156  17.313 -0.1790  0.0398  0.0611
  268TMC3    O1 4062   4.637   1.969   0.153 -0.3163  0.0974  0.6130
  268TMC3    O2 4063   0.043   2.230  17.328  0.2738  0.5413 -0.5700
  269MPD2     C 4064   4.162   0.807  15.812 -0.3484 -0.2354 -0.8421
  269MPD2    C1 4065   4.038   0.877  15.807  0.1009  0.1299 -0.1753
  269MPD2    C2 4066   4.044   1.016  15.823  0.3205 -0.3664 -0.2934
  269MPD2    C3 4067   4.162   1.086  15.827 -0.5025 -0.0621 -0.0547
  269MPD2    C4 4068   4.280   1.017  15.836  0.3892  0.2279  0.6008
  269MPD2    C5 4069   4.274   0.880  15.824  0.1305 -0.0370 -0.2895
  269MPD2     H 4070   3.950   1.070  15.825 -0.1360 -1.1365 -2.2207
  269MPD2    H1 4071   4.377   1.066  15.844  0.4430  0.1213  0.5951
  269MPD2    H2 4072   4.164   0.699  15.806  1.1249 -0.2443 -0.1863
  269MPD2    H3 4073   4.363   0.820  15.839 -0.3634 -0.4737  0.9114
  269MPD2     N 4074   4.156   1.223  15.843 -0.1595  0.1830 -0.2752
  269MPD2    H5 4075   4.060   1.252  15.833 -1.0383 -2.3584  0.6704
  269MPD2    N1 4076   3.921   0.797  15.810  0.1675 -0.1115  0.0585
  269MPD2    H7 4077   3.927   0.695  15.813  0.6870 -0.0391  1.5117
  270TMC3    C1 4078   3.699   0.730  15.809 -0.3089 -0.9104  0.8338
  270TMC3    C2 4079   3.645   0.710  15.683 -0.3038 -0.2844  0.5935
  270TMC3    C3 4080   3.633   0.584  15.642  0.0194  0.3657  0.1449
  270TMC3    C4 4081   3.738   0.635  15.897 -0.1276  0.5933  1.1326
  270TMC3    C5 4082   3.720   0.505  15.852  0.1999 -0.1916  0.1219
  270TMC3    C6 4083   3.664   0.483  15.726 -0.9585 -0.4558 -0.3362
  270TMC3     C 4084   3.795   0.842  15.795  0.3446  0.9759  0.2616
  270TMC3     O 4085   3.756   0.953  15.774 -0.6785  0.3725 -0.6491
  270TMC3     H 4086   3.641   0.790  15.610  0.1144 -0.0343  0.8489
  270TMC3    H1 4087   3.806   0.653  15.980  3.4503 -1.6266 -1.2873
  270TMC3    H2 4088   3.675   0.384  15.684 -1.0331  0.6150 -2.9196
  270TMC3    C7 4089   3.845   0.438  15.872 -0.2468  0.0404 -0.0742
  270TMC3    C8 4090   3.634   0.561  15.498 -0.5881  0.6015  0.4337
  270TMC3    O1 4091   3.949   0.500  15.842 -0.0276 -0.1527  0.5568
  270TMC3    O2 4092   3.684   0.644  15.424  0.1194 -0.4846  0.4648
  271MPD2     C 4093   3.493   1.073  14.113 -0.7164  0.2537 -0.1096
  271MPD2    C1 4094   3.399   0.971  14.140  0.7675 -0.1285  0.9735
  271MPD2    C2 4095   3.271   0.986  14.091 -0.2407  0.5188 -0.2358
  271MPD2    C3 4096   3.245   1.089  13.992 -0.0845  0.1901  1.1637
  271MPD2    C4 4097   3.334   1.185  13.978 -0.3026  0.3240 -0.0053
  271MPD2    C5 4098   3.458   1.176  14.037 -0.2709  0.2416  0.7893
  271MPD2     H 4099   3.188   0.924  14.122 -1.0988  0.8413 -1.8775
  271MPD2    H1 4100   3.314   1.271  13.915  1.9257  1.3035  0.6328
  271MPD2    H2 4101   3.597   1.065  14.142 -0.5680 -0.7426 -0.8908
  271MPD2    H3 4102   3.525   1.260  14.022 -0.0427 -0.2465 -0.8379
  271MPD2     N 4103   3.125   1.106  13.926  0.3158  0.3950 -0.5097
  271MPD2    H5 4104   3.107   1.185  13.865 -1.6433  1.2808  1.1978
  271MPD2    N1 4105   3.432   0.860  14.220  0.6492  0.8247 -0.0083
  271MPD2    H7 4106   3.356   0.811  14.267  0.0878  1.5421 -0.1569
  272TMC3    C1 4107   3.576   0.689  14.298  0.4852  0.5282 -0.2125
  272TMC3    C2 4108   3.689   0.611  14.275 -0.9372  0.2418 -0.2452
  272TMC3    C3 4109   3.735   0.530  14.370 -0.8047  0.0239  0.2699
  272TMC3    C4 4110   3.511   0.683  14.420 -0.1244  0.8562  0.3164
  272TMC3    C5 4111   3.563   0.603  14.518  0.6041  0.0913 -0.1282
  272TMC3    C6 4112   3.680   0.529  14.493  0.0255  0.3109 -0.3425
  272TMC3     C 4113   3.556   0.803  14.209  0.8854 -0.2466 -0.2737
  272TMC3     O 4114   3.649   0.823  14.131  0.1967  0.5638  0.0393
  272TMC3     H 4115   3.742   0.622  14.180 -0.2224  2.5976  0.4149
  272TMC3    H1 4116   3.425   0.746  14.441 -0.5268  0.8484 -1.3228
  272TMC3    H2 4117   3.726   0.482  14.579 -1.7915  1.8951  1.5069
  272TMC3    C7 4118   3.487   0.606  14.646 -0.2738 -0.4998 -1.0504
  272TMC3    C8 4119   3.879   0.508  14.364 -0.4565 -0.0225  0.1017
  272TMC3    O1 4120   3.366   0.613  14.642  0.7134 -0.3426 -0.8954
  272TMC3    O2 4121   3.941   0.547  14.263 -0.0715  0.3887  0.3423
  273MPD2     C 4122   0.285   3.542  11.293 -0.5909 -0.5217  0.1178
  273MPD2    C1 4123   0.385   3.564  11.385  0.1607 -0.3145 -0.7487
  273MPD2    C2 4124   0.508   3.607  11.341 -0.1731  0.0144 -0.1733
  273MPD2    C3 4125   0.531   3.627  11.207  0.4360  0.2947  0.1043
  273MPD2    C4 4126   0.425   3.618  11.120  0.7998 -0.5761 -0.5003
  273MPD2    C5 4127   0.309   3.566  11.158 -0.5185  0.4260  0.1033
  273MPD2     H 4128   0.586   3.623  11.415  0.1415 -2.4635  0.0515
  273MPD2    H1 4129   0.439   3.641  11.015  0.6876 -1.2593 -0.6628
  273MPD2    H2 4130   0.183   3.518  11.324 -0.1852 -0.7479  1.2809
  273MPD2    H3 4131   0.240   3.555  11.075  0.8186 -1.4511 -0.7540
  273MPD2     N 4132   0.636   3.691  11.145  0.1768 -0.2868  0.1117
  273MPD2    H5 4133   0.611   3.728  11.054  0.5583  0.3317  0.2581
  273MPD2    N1 4134   0.353   3.530  11.519  1.2697 -0.4816  0.3308
  273MPD2    H7 4135   0.268   3.475  11.531  2.2535 -2.2556 -0.8125
  274TMC3    C1 4136   0.828   3.831  11.178  0.1480  0.5304  0.7552
  274TMC3    C2 4137   0.809   3.875  11.050 -0.0188 -0.4766 -0.0326
  274TMC3    C3 4138   0.823   4.002  11.025 -0.6312 -0.2372 -0.1274
  274TMC3    C4 4139   0.854   3.914  11.286  0.0733 -0.2333  0.9928
  274TMC3    C5 4140   0.857   4.046  11.250  0.7072 -0.1326 -0.3396
  274TMC3    C6 4141   0.843   4.098  11.124  0.2241  0.0614  0.3217
  274TMC3     C 4142   0.753   3.720  11.222 -0.3792 -1.0076 -0.8238
  274TMC3     O 4143   0.794   3.663  11.322 -0.1163  0.1264 -0.1940
  274TMC3     H 4144   0.798   3.800  10.973 -0.2571  0.3588 -0.7988
  274TMC3    H1 4145   0.863   3.870  11.385  0.3494 -3.4694 -0.4578
  274TMC3    H2 4146   0.889   4.191  11.094  0.7761 -0.0992  0.6708
  274TMC3    C7 4147   0.825   4.141  11.355  0.3422  0.4877  0.9751
  274TMC3    C8 4148   0.763   4.041  10.901  0.2789 -0.7582  0.0493
  274TMC3    O1 4149   0.777   4.249  11.316  0.4087 -0.0169  0.2111
  274TMC3    O2 4150   0.694   3.964  10.836 -0.2119 -0.1842 -0.8841
  275MPD2     C 4151   0.289   1.713  14.496 -0.2513 -0.3876  0.5577
  275MPD2    C1 4152   0.229   1.717  14.622  0.1273  1.3119  0.5013
  275MPD2    C2 4153   0.109   1.657  14.644  0.1445 -0.0530 -0.6719
  275MPD2    C3 4154   0.037   1.610  14.531 -0.1232 -0.8818  0.0282
  275MPD2    C4 4155   0.090   1.617  14.401 -0.0623  0.0450 -0.5601
  275MPD2    C5 4156   0.219   1.660  14.388 -0.6755  0.4116  0.0200
  275MPD2     H 4157   0.069   1.659  14.744 -1.3713 -3.5538 -1.1713
  275MPD2    H1 4158   0.041   1.581  14.312 -0.8717 -0.9256  0.2791
  275MPD2    H2 4159   0.394   1.738  14.487 -0.6680  1.7566  1.6912
  275MPD2    H3 4160   0.265   1.667  14.290  2.8390  0.8215  1.6947
  275MPD2     N 4161   4.625   1.564  14.535 -0.7146  0.0315  0.3342
  275MPD2    H5 4162   4.582   1.535  14.448 -0.0837 -1.2389  0.4490
  275MPD2    N1 4163   0.297   1.784  14.729 -0.1147  0.5181 -0.3606
  275MPD2    H7 4164   0.249   1.778  14.818 -0.3794  0.0351 -0.5409
  276TMC3    C1 4165   0.449   1.909  14.856 -0.3943  0.7380  0.0632
  276TMC3    C2 4166   0.389   1.852  14.961 -0.0436 -0.0212  0.4120
  276TMC3    C3 4167   0.409   1.909  15.083 -0.3042 -0.0676  0.3429
  276TMC3    C4 4168   0.543   2.003  14.869 -0.5542 -0.4355  0.6930
  276TMC3    C5 4169   0.566   2.057  14.992  0.6384  0.8134  0.6973
  276TMC3    C6 4170   0.490   2.020  15.100  0.3440  0.6747 -0.0748
  276TMC3     C 4171   0.410   1.869  14.721 -0.5029  0.8283  0.2815
  276TMC3     O 4172   0.494   1.882  14.630 -0.3958  0.3712  0.2249
  276TMC3     H 4173   0.346   1.753  14.953 -0.4519  0.0847  1.3127
  276TMC3    H1 4174   0.600   2.039  14.785 -0.7457 -2.6333 -0.3749
  276TMC3    H2 4175   0.504   2.066  15.197  0.2962  0.0659  0.2226
  276TMC3    C7 4176   0.674   2.154  15.025 -0.3679 -0.7919  0.5969
  276TMC3    C8 4177   0.347   1.862  15.209  0.1340 -1.0229 -0.7361
  276TMC3    O1 4178   0.646   2.212  15.123 -0.1374  0.4008 -0.3628
  276TMC3    O2 4179   0.333   1.950  15.294  0.1653  0.2031  0.1150
  277MPD2     C 4180   2.083   0.679  13.265 -0.4032  0.9228 -0.6454
  277MPD2    C1 4181   1.953   0.722  13.289  0.1582  0.1521 -0.5510
  277MPD2    C2 4182   1.879   0.661  13.392  0.4228  0.0214  0.1609
  277MPD2    C3 4183   1.943   0.559  13.467  0.5203  0.1025 -0.4294
  277MPD2    C4 4184   2.077   0.520  13.442  0.0940  0.5634  0.2028
  277MPD2    C5 4185   2.136   0.583  13.338 -0.3884 -0.1573  0.1915
  277MPD2     H 4186   1.783   0.697  13.425 -0.3326 -0.7180 -1.2237
  277MPD2    H1 4187   2.128   0.444  13.500 -1.4748  0.1484  1.0589
  277MPD2    H2 4188   2.145   0.731  13.193  1.6653  0.1955  0.6283
  277MPD2    H3 4189   2.239   0.555  13.318 -0.2286  0.2989  0.3699
  277MPD2     N 4190   1.863   0.497  13.562 -0.2128  0.4088  0.1077
  277MPD2    H5 4191   1.783   0.551  13.594 -0.3417 -1.0998  2.3369
  277MPD2    N1 4192   1.897   0.837  13.213  0.4332  0.4134  0.0468
  277MPD2    H7 4193   1.964   0.876  13.147 -0.1519  0.3501 -0.5917
  278TMC3    C1 4194   1.779   0.331  13.707  0.6023  1.2448 -0.0179
  278TMC3    C2 4195   1.769   0.198  13.725 -0.1243 -0.1698  0.1949
  278TMC3    C3 4196   1.662   0.160  13.795  0.5278 -0.2268  0.2751
  278TMC3    C4 4197   1.698   0.426  13.764 -0.3889  0.2073 -0.3538
  278TMC3    C5 4198   1.596   0.378  13.840 -0.1192  0.2315  0.4535
  278TMC3    C6 4199   1.574   0.244  13.858  0.1913 -0.1093 -0.7284
  278TMC3     C 4200   1.888   0.370  13.613  0.0996 -0.5939 -0.3905
  278TMC3     O 4201   1.969   0.280  13.576  0.3731 -0.5558  0.6921
  278TMC3     H 4202   1.816   0.127  13.658 -1.4175 -1.8497  1.0514
  278TMC3    H1 4203   1.737   0.525  13.783 -0.1452 -0.1058  0.7588
  278TMC3    H2 4204   1.492   0.204  13.917  0.0583  1.4505  0.1490
  278TMC3    C7 4205   1.508   0.474  13.907 -0.3728 -0.2038  0.3858
  278TMC3    C8 4206   1.642   0.017  13.784  0.1657 -0.1344  0.0186
  278TMC3    O1 4207   1.555   0.583  13.930  0.1331 -0.1190 -0.5802
  278TMC3    O2 4208   1.748   4.677  13.798  0.4807 -0.7198 -0.0358
  279MPD2     C 4209   1.127   0.530   0.157  0.1838 -0.4694 -0.6816
  279MPD2    C1 4210   1.075   0.653   0.182  0.6162  0.2098 -0.4717
  279MPD2    C2 4211   1.117   0.756   0.100 -0.4688 -0.3545  0.9630
  279MPD2    C3 4212   1.197   0.737  17.690  0.0297  0.5397 -1.1094
  279MPD2    C4 4213   1.241   0.614  17.658 -0.0156 -0.1039 -0.3353
  279MPD2    C5 4214   1.214   0.511   0.055 -0.5991  1.0240 -0.1706
  279MPD2     H 4215   1.081   0.853   0.136  0.1963  1.0172 -2.1133
  279MPD2    H1 4216   1.306   0.594  17.573  1.6516 -2.7973  1.6052
  279MPD2    H2 4217   1.112   0.444   0.221 -2.4755  1.0662  0.7713
  279MPD2    H3 4218   1.245   0.409   0.034 -1.1788  0.7300  0.4070
  279MPD2     N 4219   1.237   0.850  17.609  0.1766 -0.0853 -0.4305
  279MPD2    H5 4220   1.284   0.826  17.522 -0.0262 -1.3058 -0.2030
  279MPD2    N1 4221   0.984   0.672   0.287  0.1294 -0.1223  0.0807
  279MPD2    H7 4222   0.933   0.759   0.299 -0.6155 -0.0662 -3.6747
  280TMC3    C1 4223   0.853   0.645   0.472 -0.0064  0.4626  0.0423
  280TMC3    C2 4224   0.737   0.581   0.492  0.1361  0.1655  0.0431
  280TMC3    C3 4225   0.634   0.659   0.539  0.1126 -0.1726  0.2347
  280TMC3    C4 4226   0.881   0.782   0.508 -0.1745 -0.2742 -0.1255
  280TMC3    C5 4227   0.771   0.856   0.546  0.2266 -0.3745  0.0425
  280TMC3    C6 4228   0.651   0.792   0.568  0.1094 -0.0844  0.5321
  280TMC3     C 4229   0.942   0.582   0.382 -0.1076  0.0889 -0.3848
  280TMC3     O 4230   0.958   0.465   0.396 -0.2099  0.1488  0.1734
  280TMC3     H 4231   0.733   0.476   0.463  2.8859  0.0708  0.0779
  280TMC3    H1 4232   0.979   0.826   0.497 -0.6837  0.9233  0.0235
  280TMC3    H2 4233   0.576   0.857   0.611  0.5753 -0.0550  1.3027
  280TMC3    C7 4234   0.784   0.998   0.568 -0.5425  0.1528 -0.1827
  280TMC3    C8 4235   0.529   0.584   0.605  0.9086  0.2307 -0.2185
  280TMC3    O1 4236   0.902   1.034   0.574  0.4078 -0.2824 -0.0383
  280TMC3    O2 4237   0.487   0.624   0.715 -0.4317 -0.0128  0.1152
  281TMC3    C1 4238   0.319   1.389  13.436  0.2210  0.5243 -0.0725
  281TMC3    C2 4239   0.354   1.468  13.336 -0.3055  0.5381  0.0268
  281TMC3    C3 4240   0.380   1.400  13.217  0.4717 -0.6712  0.7485
  281TMC3    C4 4241   0.313   1.250  13.438  0.4438 -0.4897  0.0768
  281TMC3    C5 4242   0.348   1.190  13.317  0.1576 -0.2535 -0.3019
  281TMC3    C6 4243   0.382   1.262  13.206 -0.3576 -0.5631  0.3069
  281TMC3     C 4244   0.224   1.445  13.540  0.1210  0.6522 -0.1234
  281TMC3     O 4245   0.213   1.375  13.642  0.7739  0.2205  0.2907
  281TMC3     H 4246   0.345   1.576  13.336  0.7349  0.6140  1.9224
  281TMC3    H1 4247   0.307   1.189  13.528  0.4866 -0.0337  0.3865
  281TMC3    H2 4248   0.415   1.220  13.112  0.2033  0.0419  0.2337
  281TMC3    C7 4249   0.300   1.056  13.280  0.4582  0.0049  0.1160
  281TMC3    C8 4250   0.454   1.475  13.118  0.3415 -0.4679  0.3951
  281TMC3    O1 4251   0.368   0.996  13.195 -0.2192 -0.1860  0.3247
  281TMC3    O2 4252   0.540   1.412  13.054 -0.3942 -0.4433  0.2539
  282MPD2     C 4253   1.913   2.676  15.133 -0.6863 -0.1188 -0.1575
  282MPD2    C1 4254   1.790   2.737  15.122 -0.3950 -0.0637 -0.1334
  282MPD2    C2 4255   1.739   2.765  15.000  0.6833  0.0619 -0.2929
  282MPD2    C3 4256   1.805   2.731  14.885 -0.4580 -0.2195 -0.0970
  282MPD2    C4 4257   1.916   2.655  14.897 -0.3028  0.2379 -0.5687
  282MPD2    C5 4258   1.973   2.628  15.019  0.4579  0.8469 -0.6802
  282MPD2     H 4259   1.645   2.818  14.998 -0.0547 -1.2123  0.9078
  282MPD2    H1 4260   1.961   2.618  14.806  2.6760 -1.7060  1.7030
  282MPD2    H2 4261   1.955   2.639  15.226 -0.4359 -3.7447 -1.6924
  282MPD2    H3 4262   2.060   2.563  15.027 -1.0946 -0.9524  1.6665
  282MPD2     N 4263   1.729   2.752  14.763  0.2817 -0.1878  0.0978
  282MPD2    H5 4264   1.636   2.792  14.767 -0.2449 -1.2382 -1.9088
  282MPD2    N1 4265   1.720   2.787  15.239 -0.2172  0.5775 -0.7074
  282MPD2    H7 4266   1.634   2.840  15.231 -0.0728  0.6983 -1.4828
  283TMC3    C1 4267   1.643   2.802  15.457 -0.1720 -0.6763 -0.0216
  283TMC3    C2 4268   1.563   2.910  15.422 -0.2103  0.1271  0.0181
  283TMC3    C3 4269   1.454   2.932  15.499 -0.4554  0.6291 -0.2868
  283TMC3    C4 4270   1.615   2.716  15.559  0.0975  0.0236 -0.9636
  283TMC3    C5 4271   1.500   2.747  15.633  0.4634  0.3139 -0.4323
  283TMC3    C6 4272   1.422   2.857  15.609 -0.0504  0.2989 -0.2751
  283TMC3     C 4273   1.746   2.758  15.371 -0.3930  0.0862  0.2378
  283TMC3     O 4274   1.832   2.680  15.416  0.2827 -0.3668  0.2719
  283TMC3     H 4275   1.607   2.975  15.348  0.7879 -0.0563  0.4558
  283TMC3    H1 4276   1.679   2.631  15.582 -1.1900 -0.9194 -0.8644
  283TMC3    H2 4277   1.331   2.875  15.664 -0.5540 -2.2308 -0.3082
  283TMC3    C7 4278   1.438   2.644  15.702 -0.4217 -0.0507 -0.1093
  283TMC3    C8 4279   1.409   3.074  15.518 -0.6528  0.0204 -0.0973
  283TMC3    O1 4280   1.333   2.674  15.752  0.7309  0.3105 -0.3684
  283TMC3    O2 4281   1.331   3.103  15.608  0.0108 -0.1906  0.6465
  284MPD2     C 4282   0.027   1.717  12.296  0.3470  0.2062 -0.3733
  284MPD2    C1 4283   0.034   1.680  12.166 -0.5523  0.0598 -0.2686
  284MPD2    C2 4284   4.675   1.574  12.118  0.2892 -0.2407  0.0869
  284MPD2    C3 4285   4.583   1.510  12.195  0.3827 -0.5457 -0.5113
  284MPD2    C4 4286   4.571   1.553  12.328  0.2512  0.5720 -0.0835
  284MPD2    C5 4287   4.656   1.655  12.373  0.1372  0.0276  0.4392
  284MPD2     H 4288   4.691   1.544  12.015  1.1334 -0.7660  0.3728
  284MPD2    H1 4289   4.499   1.505  12.392  1.1040 -1.4020 -0.6065
  284MPD2    H2 4290   0.092   1.788  12.346  0.9179  1.2930 -2.7037
  284MPD2    H3 4291   4.639   1.700  12.470 -0.2218  1.5950 -0.3491
  284MPD2     N 4292   4.503   1.397  12.151 -0.2666 -0.4190 -0.1517
  284MPD2    H5 4293   4.445   1.348  12.218 -3.5455 -0.2160 -2.8302
  284MPD2    N1 4294   0.127   1.732  12.075  0.0250 -1.0857  0.4693
  284MPD2    H7 4295   0.122   1.696  11.980 -0.7981  0.0115  0.1040
  285TMC3    C1 4296   0.277   1.890  11.990  0.0740  0.0969  0.1900
  285TMC3    C2 4297   0.265   1.831  11.869 -0.1417 -1.0650  0.5184
  285TMC3    C3 4298   0.343   1.879  11.767  0.0162 -0.0578 -0.0201
  285TMC3    C4 4299   0.359   1.998  12.010 -1.1464  0.9727 -0.6171
  285TMC3    C5 4300   0.432   2.047  11.899 -0.5041  0.9563  0.3496
  285TMC3    C6 4301   0.432   1.984  11.777  0.4594  0.4064  0.1471
  285TMC3     C 4302   0.208   1.840  12.103  1.1522 -0.0420  0.4400
  285TMC3     O 4303   0.233   1.891  12.215 -0.4273  0.6772  0.2382
  285TMC3     H 4304   0.196   1.750  11.847  0.7506 -1.3171 -1.3637
  285TMC3    H1 4305   0.357   2.048  12.107  2.6204 -0.4888  0.2209
  285TMC3    H2 4306   0.499   2.014  11.697 -1.2597  1.2844 -0.9750
  285TMC3    C7 4307   0.487   2.178  11.897 -1.0556  0.0445  0.1196
  285TMC3    C8 4308   0.352   1.789  11.653  0.5651 -0.6031  0.1673
  285TMC3    O1 4309   0.536   2.221  11.794  0.1820 -0.6514  0.2640
  285TMC3    O2 4310   0.256   1.716  11.632 -0.3304 -0.0803  0.1216
  286MPD2     C 4311   0.450   0.738   1.826 -0.7105  0.0043 -0.1113
  286MPD2    C1 4312   0.398   0.727   1.702  0.2735  0.6753  0.4490
  286MPD2    C2 4313   0.432   0.619   1.619 -0.5171 -0.3236 -0.3947
  286MPD2    C3 4314   0.526   0.516   1.660  0.1199 -0.8138  0.1751
  286MPD2    C4 4315   0.590   0.547   1.778  0.0450  0.0318  0.0760
  286MPD2    C5 4316   0.542   0.646   1.860 -0.1157  0.4053  0.4380
  286MPD2     H 4317   0.393   0.614   1.518  0.8491  2.1629 -1.0503
  286MPD2    H1 4318   0.665   0.484   1.825 -0.3986  1.1670  2.2873
  286MPD2    H2 4319   0.420   0.816   1.895  2.2628  0.3672  0.7805
  286MPD2    H3 4320   0.590   0.658   1.956 -1.7232 -1.2447  1.4442
  286MPD2     N 4321   0.558   0.396   1.594 -0.2627  0.6896 -0.0323
  286MPD2    H5 4322   0.624   0.333   1.639  2.5580  2.8658 -1.1399
  286MPD2    N1 4323   0.294   0.817   1.667  0.3053  0.1204  0.1356
  286MPD2    H7 4324   0.287   0.895   1.731 -0.0854  0.5624 -0.4569
  287TMC3    C1 4325   0.586   0.230   1.441  0.2449  0.0417 -0.0716
  287TMC3    C2 4326   0.540   0.152   1.337 -0.1197  0.2195  0.4366
  287TMC3    C3 4327   0.590   0.025   1.322 -0.1455  0.0224  0.6922
  287TMC3    C4 4328   0.675   0.181   1.536 -0.1641 -0.9933 -0.6267
  287TMC3    C5 4329   0.719   0.048   1.517  0.6082 -0.3404 -0.0040
  287TMC3    C6 4330   0.682   4.695   1.405  0.1063 -0.9584 -0.0537
  287TMC3     C 4331   0.510   0.353   1.472  0.2315 -0.4122 -0.5342
  287TMC3     O 4332   0.431   0.400   1.391  0.1390 -0.2225 -0.6308
  287TMC3     H 4333   0.452   0.173   1.278 -1.4332 -2.6281  1.4161
  287TMC3    H1 4334   0.710   0.227   1.628 -0.9011  0.6181 -1.1694
  287TMC3    H2 4335   0.719   4.595   1.390  0.3205 -1.0870  1.3315
  287TMC3    C7 4336   0.810   4.713   1.620 -0.1026 -0.0352 -0.3791
  287TMC3    C8 4337   0.532   4.661   1.226  0.6938  0.1184 -0.1977
  287TMC3    O1 4338   0.820   0.046   1.723 -0.1983  0.7288 -0.3594
  287TMC3    O2 4339   0.533   4.544   1.257 -0.7638 -0.1309  0.2085
  288TMC3    C1 4340   2.362   4.718  14.445  0.2485 -0.4346  0.4893
  288TMC3    C2 4341   2.241   4.679  14.497 -1.2054  0.6219  0.6650
  288TMC3    C3 4342   2.132   0.023  14.453 -0.2647 -0.1356  0.8073
  288TMC3    C4 4343   2.371   0.099  14.360 -0.3216 -0.3918  0.5769
  288TMC3    C5 4344   2.262   0.166  14.326 -0.1483  0.2804 -0.6583
  288TMC3    C6 4345   2.138   0.135  14.379 -0.0870 -0.3698  1.8204
  288TMC3     C 4346   2.470   4.702  14.533  0.2841 -0.1408 -0.1613
  288TMC3     O 4347   2.461   4.609  14.610  0.0041  0.2570  0.1047
  288TMC3     H 4348   2.235   4.595  14.565 -1.5492 -1.4310 -1.9338
  288TMC3    H1 4349   2.464   0.122  14.308 -0.2000 -1.6989  0.2030
  288TMC3    H2 4350   2.046   0.184  14.346  1.2827 -0.0514 -1.5648
  288TMC3    C7 4351   2.268   0.223  14.196  0.9480  0.8518 -0.1103
  288TMC3    C8 4352   2.012   0.006  14.539 -0.4599  0.6712 -0.4482
  288TMC3    O1 4353   2.330   0.166  14.108 -0.4239  0.8971 -0.0711
  288TMC3    O2 4354   1.986   4.615  14.590 -0.1778 -0.8236 -0.1497
  289MPD2     C 4355   2.296   4.141  14.284 -0.0956  0.3765  0.7356
  289MPD2    C1 4356   2.292   4.257  14.219  0.3610 -0.8613 -0.5433
  289MPD2    C2 4357   2.171   4.311  14.181 -0.1234  0.2174  0.1278
  289MPD2    C3 4358   2.054   4.242  14.204  0.4920  0.2175  0.2894
  289MPD2    C4 4359   2.057   4.113  14.249 -0.4257  0.0828 -0.2358
  289MPD2    C5 4360   2.178   4.067  14.283  0.3493 -0.1788 -0.2695
  289MPD2     H 4361   2.183   4.415  14.156  0.6535  0.1802  0.3394
  289MPD2    H1 4362   1.966   4.061  14.276 -1.6867  1.9737 -0.8350
  289MPD2    H2 4363   2.387   4.094  14.318  1.2339  1.6360 -1.0318
  289MPD2    H3 4364   2.181   3.968  14.328  1.1443  0.6311  1.4654
  289MPD2     N 4365   1.926   4.304  14.184  0.1503 -0.7473  0.6653
  289MPD2    H5 4366   1.846   4.247  14.209  0.2250 -0.9763  0.3878
  289MPD2    N1 4367   2.422   4.323  14.204  0.4088 -0.2576 -0.0442
  289MPD2    H7 4368   2.494   4.267  14.248 -0.8113 -1.5312  0.3225
  290TMC3    C1 4369   1.756   4.470  14.153  0.5681  0.7407  0.0048
  290TMC3    C2 4370   1.726   4.600  14.178  0.0120  0.6596  0.0258
  290TMC3    C3 4371   1.596   4.639  14.155  0.5846 -0.2324  0.1418
  290TMC3    C4 4372   1.667   4.373  14.118  0.2043 -0.2358  1.0183
  290TMC3    C5 4373   1.534   4.418  14.110  0.2017  0.5183 -0.0005
  290TMC3    C6 4374   1.501   4.550  14.123  0.0776 -0.3220  0.7236
  290TMC3     C 4375   1.898   4.439  14.138  0.3211 -0.5366  0.3177
  290TMC3     O 4376   1.981   4.526  14.123 -0.3574 -0.4828 -0.6654
  290TMC3     H 4377   1.797   4.662  14.232  2.6084 -1.4829 -0.9852
  290TMC3    H1 4378   1.691   4.269  14.100 -1.4687 -0.7760  1.8550
  290TMC3    H2 4379   1.400   4.588  14.109 -0.2877 -1.2186  0.9229
  290TMC3    C7 4380   1.424   4.335  14.076 -0.6222 -0.2871  0.1657
  290TMC3    C8 4381   1.557   0.051  14.168  0.3771  0.1475 -0.1816
  290TMC3    O1 4382   1.326   4.394  14.037 -0.1867  0.0488 -0.3964
  290TMC3    O2 4383   1.439   0.083  14.151  0.4641 -0.2366 -0.2776
  291MPD2     C 4384   1.319   3.983   0.705 -0.3238 -0.8311  0.1597
  291MPD2    C1 4385   1.268   3.925   0.824  0.2833 -0.2509 -0.0305
  291MPD2    C2 4386   1.337   3.931   0.943  0.0989 -0.1941 -0.1332
  291MPD2    C3 4387   1.469   3.976   0.942  0.0804  0.3302 -0.4236
  291MPD2    C4 4388   1.519   4.033   0.825  0.4088  0.4896  0.4246
  291MPD2    C5 4389   1.444   4.041   0.708 -0.3914  0.3626 -0.1000
  291MPD2     H 4390   1.287   3.891   1.031 -1.1090  1.1418 -0.2117
  291MPD2    H1 4391   1.607   4.096   0.836  1.1341 -0.0604 -2.4433
  291MPD2    H2 4392   1.263   3.998   0.613 -0.1743 -0.1987  0.1711
  291MPD2    H3 4393   1.484   4.086   0.618 -3.1699  3.7604  0.3605
  291MPD2     N 4394   1.547   3.981   1.059 -0.3804 -0.0459  0.6981
  291MPD2    H5 4395   1.642   4.013   1.044 -0.7759 -0.0687 -1.8448
  291MPD2    N1 4396   1.136   3.870   0.827  0.6511  0.3163 -0.2425
  291MPD2    H7 4397   1.085   3.855   0.913  1.0059 -0.7069 -0.2184
  292TMC3    C1 4398   0.942   3.777   0.722 -0.4086  0.0140 -0.3786
  292TMC3    C2 4399   0.885   3.780   0.845  0.3915 -0.0244  0.5240
  292TMC3    C3 4400   0.768   3.718   0.865 -0.1305  0.5525 -0.0719
  292TMC3    C4 4401   0.890   3.706   0.623  0.3361  0.6114 -0.4023
  292TMC3    C5 4402   0.763   3.656   0.643 -0.3466 -0.0514 -0.4071
  292TMC3    C6 4403   0.701   3.660   0.766 -0.8016 -0.0665  0.2457
  292TMC3     C 4404   1.078   3.821   0.710  0.5247  0.0248  0.5234
  292TMC3     O 4405   1.130   3.789   0.605 -0.5117 -0.4980  0.4707
  292TMC3     H 4406   0.923   3.847   0.921 -0.5620  1.1606 -0.0510
  292TMC3    H1 4407   0.931   3.712   0.523  0.0024  1.8058 -0.4689
  292TMC3    H2 4408   0.600   3.624   0.778 -0.7627 -0.5968 -1.0071
  292TMC3    C7 4409   0.726   3.558   0.552 -0.1551 -0.3969  0.3993
  292TMC3    C8 4410   0.708   3.717   0.997 -0.2835  0.1444 -1.4762
  292TMC3    O1 4411   0.824   3.507   0.501 -0.4165  0.3325  0.1360
  292TMC3    O2 4412   0.751   3.792   1.084 -0.0504 -0.1147  0.2817
  293MPD2     C 4413   3.419   0.471  12.956 -0.5332 -0.8202  0.6919
  293MPD2    C1 4414   3.328   0.567  12.986 -0.3748 -0.2077  0.2034
  293MPD2    C2 4415   3.316   0.604  13.119  0.2365 -0.7550  1.6102
  293MPD2    C3 4416   3.398   0.553  13.217 -0.2098  0.1377 -0.0837
  293MPD2    C4 4417   3.487   0.452  13.185  0.2248 -0.2311 -0.1885
  293MPD2    C5 4418   3.491   0.409  13.062 -0.5487 -0.2290  0.1553
  293MPD2     H 4419   3.241   0.674  13.154 -1.4114 -1.7978  0.1526
  293MPD2    H1 4420   3.541   0.403  13.265 -0.1257 -0.4935 -0.1127
  293MPD2    H2 4421   3.426   0.428  12.857 -1.4477 -0.7402  0.5962
  293MPD2    H3 4422   3.561   0.330  13.040 -0.1840 -0.9139  3.8749
  293MPD2     N 4423   3.364   0.598  13.352 -0.0088 -0.0068 -0.0226
  293MPD2    H5 4424   3.290   0.667  13.356  0.3053  0.3371 -0.1538
  293MPD2    N1 4425   3.235   0.620  12.885  0.2304 -0.3692 -0.0973
  293MPD2    H7 4426   3.218   0.573  12.796 -2.6060  1.1752 -0.3687
  294TMC3    C1 4427   3.091   0.778  12.791  0.2074  0.0355  0.1350
  294TMC3    C2 4428   2.984   0.860  12.816 -0.1118 -0.3070  0.2167
  294TMC3    C3 4429   2.912   0.902  12.716 -0.1102 -0.0200  0.1566
  294TMC3    C4 4430   3.140   0.750  12.664  0.2494  0.2626 -0.4412
  294TMC3    C5 4431   3.068   0.812  12.560  0.8449  0.0809  0.0942
  294TMC3    C6 4432   2.952   0.885  12.588  0.2568  0.5902 -0.0643
  294TMC3     C 4433   3.167   0.740  12.907 -0.4675 -0.1070  0.2179
  294TMC3     O 4434   3.165   0.813  13.003 -0.2810  0.2711  0.2398
  294TMC3     H 4435   2.948   0.875  12.917  1.1135  1.2910  0.4157
  294TMC3    H1 4436   3.233   0.697  12.652 -0.4849 -0.5670 -2.3791
  294TMC3    H2 4437   2.901   0.941  12.511 -2.5011 -2.2017 -0.2597
  294TMC3    C7 4438   3.135   0.829  12.431  1.1435  0.6838  0.0627
  294TMC3    C8 4439   2.782   0.954  12.750 -0.9219  0.5410  0.0715
  294TMC3    O1 4440   3.256   0.848  12.429 -0.3834  0.0109  0.2561
  294TMC3    O2 4441   2.753   1.002  12.862  0.3455 -0.4626 -0.0068
  295MPD2     C 4442   3.415   3.525   0.570 -0.1170  0.3944 -0.3365
  295MPD2    C1 4443   3.327   3.635   0.561  0.7450 -0.6553  0.5484
  295MPD2    C2 4444   3.360   3.750   0.626 -0.3426 -0.2860  0.0554
  295MPD2    C3 4445   3.477   3.759   0.701  0.1396 -0.0505  0.3406
  295MPD2    C4 4446   3.566   3.651   0.701 -0.4806 -0.1471  0.1215
  295MPD2    C5 4447   3.530   3.535   0.632  0.2283  0.5703  0.5272
  295MPD2     H 4448   3.292   3.834   0.616 -1.7239 -1.3607  0.4654
  295MPD2    H1 4449   3.666   3.651   0.741  0.0142 -0.2581 -1.1344
  295MPD2    H2 4450   3.394   3.428   0.526  0.3613  1.2651 -2.5365
  295MPD2    H3 4451   3.588   3.444   0.639 -1.7330 -0.7221  0.0154
  295MPD2     N 4452   3.511   3.870   0.778 -0.7417  0.5275  0.4336
  295MPD2    H5 4453   3.607   3.876   0.812 -0.9953 -0.2643  1.2713
  295MPD2    N1 4454   3.202   3.626   0.491  1.0263  0.2673 -0.2241
  295MPD2    H7 4455   3.151   3.714   0.490 -0.0589 -0.4023 -3.0202
  296TMC3    C1 4456   3.470   4.033   0.936  0.1319  0.1784  0.3730
  296TMC3    C2 4457   3.415   4.155   0.970  0.1055 -0.1511 -0.4666
  296TMC3    C3 4458   3.464   4.216   1.081  0.3347 -0.4391 -0.3007
  296TMC3    C4 4459   3.551   3.968   1.016  0.1361 -0.3164 -0.0333
  296TMC3    C5 4460   3.590   4.028   1.138  0.7337  0.3205  0.1553
  296TMC3    C6 4461   3.533   4.149   1.177 -0.1452  0.2082 -0.9306
  296TMC3     C 4462   3.418   3.970   0.814  0.6817  0.1585  0.0583
  296TMC3     O 4463   3.314   4.003   0.757  0.1835  0.2227 -0.4788
  296TMC3     H 4464   3.348   4.217   0.910  0.7484  0.8576 -0.1314
  296TMC3    H1 4465   3.595   3.873   0.988  0.3424  0.0725 -1.0107
  296TMC3    H2 4466   3.572   4.205   1.261 -0.2918  1.2466 -1.5501
  296TMC3    C7 4467   3.666   3.957   1.241  0.7073 -0.4485  0.0250
  296TMC3    C8 4468   3.377   4.324   1.130  0.2570 -0.0614  0.4022
  296TMC3    O1 4469   3.694   4.014   1.344 -0.6460 -0.1362 -0.3798
  296TMC3    O2 4470   3.262   4.331   1.084 -0.5151  0.3504 -0.3010
  297MPD2     C 4471   1.144   1.294  17.045  0.2565 -0.5941 -0.1849
  297MPD2    C1 4472   1.035   1.335  16.970 -0.1765 -0.9624  0.3154
  297MPD2    C2 4473   1.025   1.470  16.936  0.3669 -0.1833 -0.1629
  297MPD2    C3 4474   1.106   1.568  16.990  0.3270  0.7555  0.1333
  297MPD2    C4 4475   1.212   1.530  17.064 -0.0226  0.6025  0.7875
  297MPD2    C5 4476   1.225   1.396  17.089 -0.2370 -0.3616 -0.4685
  297MPD2     H 4477   0.946   1.509  16.873  1.1468 -1.4110 -1.8652
  297MPD2    H1 4478   1.296   1.590  17.097  1.5152 -1.3039  0.3756
  297MPD2    H2 4479   1.172   1.190  17.059 -1.0464 -1.4373 -3.9787
  297MPD2    H3 4480   1.321   1.363  17.129 -0.4496  0.2398  0.5429
  297MPD2     N 4481   1.080   1.694  16.938  0.3622 -0.2086  0.7011
  297MPD2    H5 4482   1.032   1.685  16.849  1.2877  0.6461  0.1098
  297MPD2    N1 4483   0.939   1.250  16.922 -0.1887 -0.1143  0.1250
  297MPD2    H7 4484   0.854   1.290  16.883 -1.6872 -2.1550  1.3415
  298TMC3    C1 4485   0.843   1.036  16.845 -0.4304  0.0164 -0.4256
  298TMC3    C2 4486   0.895   0.926  16.790  0.9028 -0.0387  0.4371
  298TMC3    C3 4487   0.809   0.861  16.696 -0.4333  0.4463 -0.0613
  298TMC3    C4 4488   0.726   1.096  16.807  0.1070 -0.4368  0.5461
  298TMC3    C5 4489   0.643   1.019  16.725  0.3136  0.0116 -0.2544
  298TMC3    C6 4490   0.685   0.906  16.657 -1.1141 -0.2367 -0.5318
  298TMC3     C 4491   0.949   1.110  16.924 -0.3570  0.9435  0.4263
  298TMC3     O 4492   1.021   1.030  16.986  0.6870 -0.3348  0.0876
  298TMC3     H 4493   0.997   0.894  16.807  0.4815 -2.4972 -1.5735
  298TMC3    H1 4494   0.679   1.188  16.841 -0.2341  0.2971 -1.9029
  298TMC3    H2 4495   0.618   0.847  16.595  0.9598 -2.1429 -0.9868
  298TMC3    C7 4496   0.507   1.068  16.703 -0.0220 -0.2968  0.0163
  298TMC3    C8 4497   0.846   0.728  16.644 -0.1559  0.2547  0.1719
  298TMC3    O1 4498   0.467   1.168  16.758 -0.1447  0.3985 -0.4201
  298TMC3    O2 4499   0.931   0.675  16.714 -0.2824  0.0751  0.7574
  299MPD2     C 4500   1.420   0.832  10.716  0.0767  0.3432 -0.2048
  299MPD2    C1 4501   1.446   0.965  10.736 -0.1358  0.7069 -0.7523
  299MPD2    C2 4502   1.396   1.065  10.642 -0.5685 -0.1053  0.0320
  299MPD2    C3 4503   1.291   1.028  10.559  0.0403  0.0174 -0.5296
  299MPD2    C4 4504   1.260   0.894  10.551  0.4071  0.4377 -0.4293
  299MPD2    C5 4505   1.328   0.801  10.625 -0.1141  0.3394  0.4455
  299MPD2     H 4506   1.431   1.168  10.640  0.5138 -0.4223  2.2096
  299MPD2    H1 4507   1.181   0.863  10.484  1.8529 -0.5434 -1.6665
  299MPD2    H2 4508   1.479   0.757  10.768 -0.2514 -1.0559 -1.8590
  299MPD2    H3 4509   1.307   0.699  10.596  2.4604 -0.6655  2.2081
  299MPD2     N 4510   1.209   1.113  10.473  0.1093  0.5236 -0.5017
  299MPD2    H5 4511   1.136   1.071  10.416 -0.8244  1.0940  0.2898
  299MPD2    N1 4512   1.533   0.996  10.841  0.5742  0.9526 -0.1268
  299MPD2    H7 4513   1.536   0.921  10.910 -2.2097 -0.4308 -1.5247
  300TMC3    C1 4514   1.107   1.314  10.388 -0.2378 -0.2310 -0.3538
  300TMC3    C2 4515   1.099   1.445  10.384  0.2832  0.1827  0.4978
  300TMC3    C3 4516   0.994   1.503  10.310  0.0422 -0.5550  0.1714
  300TMC3    C4 4517   1.009   1.237  10.324 -0.8544  0.2592 -0.4190
  300TMC3    C5 4518   0.908   1.301  10.255 -0.2377  0.9586 -0.0023
  300TMC3    C6 4519   0.893   1.435  10.248 -0.9261 -0.0628  0.2904
  300TMC3     C 4520   1.213   1.249  10.476  0.2817  0.4038 -0.0333
  300TMC3     O 4521   1.280   1.323  10.551 -0.4478  0.4659 -0.2286
  300TMC3     H 4522   1.183   1.508  10.410  0.5330  0.0369  0.0370
  300TMC3    H1 4523   1.008   1.130  10.339  1.7786  0.1016 -1.4138
  300TMC3    H2 4524   0.801   1.472  10.206 -1.1984  0.5731  1.4315
  300TMC3    C7 4525   0.788   1.221  10.267  0.2426  0.0555  0.0012
  300TMC3    C8 4526   0.976   1.645  10.310 -0.2460  0.1129 -0.4242
  300TMC3    O1 4527   0.787   1.116  10.202  0.0820 -0.3991  0.3760
  300TMC3    O2 4528   0.940   1.696  10.205 -0.5131 -0.6238  0.1181
  301MPD2     C 4529   3.331   1.958   0.785  0.0088 -0.1675  0.3849
  301MPD2    C1 4530   3.224   1.993   0.863  0.2734 -0.3677 -0.0612
  301MPD2    C2 4531   3.173   1.898   0.942  0.8617 -0.1611 -0.2692
  301MPD2    C3 4532   3.211   1.764   0.958 -0.4277  0.1498 -0.1189
  301MPD2    C4 4533   3.320   1.733   0.872  0.2474  0.0167  0.1174
  301MPD2    C5 4534   3.372   1.824   0.798 -0.8520 -0.7315 -0.3040
  301MPD2     H 4535   3.082   1.931   0.992  0.1780 -1.1354 -0.8567
  301MPD2    H1 4536   3.365   1.635   0.877  0.1037  0.0225  1.6289
  301MPD2    H2 4537   3.390   2.026   0.725  1.4952 -1.5571  0.2628
  301MPD2    H3 4538   3.456   1.785   0.741 -2.5784 -1.4023 -2.3741
  301MPD2     N 4539   3.151   1.668   1.047  0.2481 -0.2874 -0.2015
  301MPD2    H5 4540   3.196   1.577   1.050 -0.8480 -0.9024 -2.2933
  301MPD2    N1 4541   3.169   2.123   0.873 -0.5067  0.4612  0.3037
  301MPD2    H7 4542   3.083   2.142   0.924 -1.9969 -0.4132 -1.8435
  302TMC3    C1 4543   3.056   1.582   1.244  0.3133  0.4910  0.9338
  302TMC3    C2 4544   3.175   1.530   1.289  0.4747 -0.2753  0.0257
  302TMC3    C3 4545   3.179   1.484   1.422 -1.4629 -0.2087  0.1717
  302TMC3    C4 4546   2.951   1.588   1.318  0.4143 -0.3514 -0.3260
  302TMC3    C5 4547   2.960   1.539   1.442  0.0201 -0.3346  0.8824
  302TMC3    C6 4548   3.068   1.484   1.501 -0.4257 -0.0705 -0.5193
  302TMC3     C 4549   3.063   1.695   1.147 -0.3756  0.0737 -0.3893
  302TMC3     O 4550   2.982   1.788   1.149  0.3092  0.4629  0.2340
  302TMC3     H 4551   3.262   1.532   1.226  0.4993  1.3373  0.0955
  302TMC3    H1 4552   2.867   1.645   1.280 -2.8044 -4.6672  0.3816
  302TMC3    H2 4553   3.071   1.440   1.600 -0.2382  0.1636 -0.4203
  302TMC3    C7 4554   2.847   1.552   1.527  0.0974 -0.1364  0.5426
  302TMC3    C8 4555   3.309   1.444   1.469 -0.1076 -0.0182  0.3192
  302TMC3    O1 4556   2.844   1.484   1.630 -0.3845  0.4752  0.7811
  302TMC3    O2 4557   3.397   1.436   1.382  0.5168  0.1410 -0.4375
  303MPD2     C 4558   0.055   4.024  10.131  0.9702 -0.2430 -0.3476
  303MPD2    C1 4559   4.688   3.932  10.086  0.2049 -0.4254  0.1383
  303MPD2    C2 4560   4.597   3.968   9.984  0.0497  0.0876  0.0026
  303MPD2    C3 4561   4.606   4.093   9.931 -0.0642  0.4514 -0.2195
  303MPD2    C4 4562   4.709   4.173   9.968  0.0852 -0.1654 -0.1644
  303MPD2    C5 4563   0.075   4.141  10.069 -0.3046 -0.1042  0.2827
  303MPD2     H 4564   4.509   3.910   9.962  0.8856 -1.5808  1.0138
  303MPD2    H1 4565   4.717   4.271   9.922  1.2977  0.1797  0.7593
  303MPD2    H2 4566   0.128   3.998  10.207  0.5324 -0.9979 -0.1793
  303MPD2    H3 4567   0.162   4.200  10.097 -1.8790  1.9061  0.8654
  303MPD2     N 4568   4.509   4.152   9.840  0.7395 -0.2491  0.7037
  303MPD2    H5 4569   4.520   4.250   9.817  1.7006 -0.2682  1.1100
  303MPD2    N1 4570   4.668   3.816  10.170 -0.2416 -0.2294 -0.0333
  303MPD2    H7 4571   4.714   3.814  10.261  0.9371  0.6880 -0.6308
  304TMC3    C1 4572   4.572   3.613  10.244  0.7748  0.3682  0.1505
  304TMC3    C2 4573   4.500   3.688  10.330  0.5027 -0.1612 -0.5504
  304TMC3    C3 4574   4.406   3.635  10.412  0.2411 -0.5642  0.3344
  304TMC3    C4 4575   4.539   3.480  10.232  0.9767  0.4901  1.1635
  304TMC3    C5 4576   4.454   3.415  10.326 -0.1458 -0.2514  0.1799
  304TMC3    C6 4577   4.389   3.497  10.415  0.0745  0.1369  0.0296
  304TMC3     C 4578   4.610   3.692  10.134  0.7070 -0.1913 -0.1240
  304TMC3     O 4579   4.575   3.650  10.022  0.5683 -0.2399  0.0914
  304TMC3     H 4580   4.491   3.794  10.311  2.0773  0.0465 -0.1045
  304TMC3    H1 4581   4.579   3.418  10.152  1.5461  0.9514  1.0957
  304TMC3    H2 4582   4.322   3.455  10.489 -0.9163 -2.2520 -2.2245
  304TMC3    C7 4583   4.361   3.332  10.252  0.8980  0.4615 -0.2666
  304TMC3    C8 4584   4.281   3.697  10.404 -0.5775  0.5427 -0.4988
  304TMC3    O1 4585   4.399   3.232  10.193  0.9135 -0.1456 -0.1035
  304TMC3    O2 4586   4.192   3.614  10.396  0.2603 -0.2625 -0.2696
  305MPD2     C 4587   1.458   2.644  13.917 -0.4073  0.0377 -0.7424
  305MPD2    C1 4588   1.595   2.618  13.891 -0.0131  0.1531  0.7824
  305MPD2    C2 4589   1.640   2.517  13.800  0.1609  0.4196  0.3801
  305MPD2    C3 4590   1.543   2.450  13.731 -0.1389  0.2035 -0.1257
  305MPD2    C4 4591   1.407   2.480  13.752 -0.2380 -0.1828  0.2765
  305MPD2    C5 4592   1.366   2.568  13.848  0.2783 -0.2326  0.3062
  305MPD2     H 4593   1.746   2.496  13.788 -0.2814 -2.6246  1.9994
  305MPD2    H1 4594   1.342   2.423  13.686 -1.0321 -0.5727  1.3915
  305MPD2    H2 4595   1.425   2.712  13.995 -0.0807 -1.1136  0.4085
  305MPD2    H3 4596   1.259   2.584  13.855  0.4364  0.6074  0.7742
  305MPD2     N 4597   1.573   2.343  13.642 -0.4351  0.2512  0.2483
  305MPD2    H5 4598   1.497   2.297  13.594 -0.7108 -0.1021  1.0190
  305MPD2    N1 4599   1.688   2.692  13.975 -0.0506 -0.4629 -0.4738
  305MPD2    H7 4600   1.659   2.768  14.036  1.3622 -0.4635  0.2028
  306TMC3    C1 4601   1.893   2.755  14.080  0.5400 -0.5162 -0.6649
  306TMC3    C2 4602   2.000   2.693  14.140  0.2156 -0.1277 -0.0476
  306TMC3    C3 4603   2.040   2.732  14.261  0.3631 -0.0515 -0.5928
  306TMC3    C4 4604   1.826   2.862  14.137  0.3722 -0.0308  0.1361
  306TMC3    C5 4605   1.877   2.907  14.255  0.1086  0.2233  0.8344
  306TMC3    C6 4606   1.975   2.834  14.325 -0.2200  0.1080 -0.1545
  306TMC3     C 4607   1.828   2.679  13.977  0.7250  0.7307 -0.3065
  306TMC3     O 4608   1.891   2.602  13.911 -0.3007  0.5428 -0.4966
  306TMC3     H 4609   2.048   2.612  14.085 -2.3908 -0.6526 -1.5276
  306TMC3    H1 4610   1.750   2.916  14.081 -0.9759  0.4258  2.3985
  306TMC3    H2 4611   2.000   2.853  14.428 -1.5649  1.6140 -0.1196
  306TMC3    C7 4612   1.793   2.991  14.339 -0.3150 -1.2645  0.3155
  306TMC3    C8 4613   2.137   2.659  14.345  0.6276 -0.2285 -0.6994
  306TMC3    O1 4614   1.675   3.001  14.314  0.8124  0.3151 -0.3533
  306TMC3    O2 4615   2.145   2.540  14.315  0.0850  0.5845  0.0907
  307MPD2     C 4616   4.558   0.240   0.642  0.3477  0.6531  0.7432
  307MPD2    C1 4617   4.491   0.250   0.522  0.3737  0.8599  0.1895
  307MPD2    C2 4618   4.403   0.359   0.503 -0.0477 -0.1491  0.7256
  307MPD2    C3 4619   4.367   0.445   0.606  0.4526 -0.3840  0.2774
  307MPD2    C4 4620   4.432   0.427   0.720 -0.1709 -0.0225 -0.1942
  307MPD2    C5 4621   4.528   0.327   0.739  0.6854 -0.4809 -0.2149
  307MPD2     H 4622   4.361   0.377   0.405  0.6086 -2.6451 -0.0110
  307MPD2    H1 4623   4.401   0.480   0.809  0.6380  2.0360 -1.1133
  307MPD2    H2 4624   4.623   0.155   0.662  1.3008  0.9686 -1.0328
  307MPD2    H3 4625   4.577   0.312   0.835  3.1110 -0.4768 -1.4520
  307MPD2     N 4626   4.263   0.531   0.584 -0.2547  1.0837 -0.2529
  307MPD2    H5 4627   4.233   0.541   0.488  0.5588 -0.9666 -0.7030
  307MPD2    N1 4628   4.519   0.164   0.408  0.2311  0.5155 -0.2172
  307MPD2    H7 4629   4.485   0.196   0.318 -1.6649 -1.0330 -0.0589
  308TMC3    C1 4630   3.864   0.651   0.669 -0.4481 -0.1407  0.1444
  308TMC3    C2 4631   3.835   0.684   0.543 -0.0497 -0.4625  0.2287
  308TMC3    C3 4632   3.941   0.712   0.460  0.0533 -0.8121 -0.4490
  308TMC3    C4 4633   3.991   0.638   0.715  0.1587  0.9095 -0.0802
  308TMC3    C5 4634   4.088   0.670   0.629  0.0434 -0.1017 -0.7684
  308TMC3    C6 4635   4.069   0.707   0.497  0.7472  0.8360 -0.3410
  308TMC3     C 4636   3.758   0.629   0.772  0.3041 -0.3221  0.0805
  308TMC3     O 4637   3.786   0.545   0.857  0.5544  0.0793  0.1828
  308TMC3     H 4638   3.732   0.689   0.511 -0.5679  1.3070  2.1700
  308TMC3    H1 4639   4.000   0.609   0.820  1.7727  0.7059 -0.2753
  308TMC3    H2 4640   4.154   0.724   0.432 -0.0904 -0.5706 -1.7661
  308TMC3    C7 4641   4.211   0.621   0.676 -0.1786 -0.6240  0.7384
  308TMC3    C8 4642   3.906   0.788   0.338  0.1681 -0.4280  0.2441
  308TMC3    O1 4643   4.231   0.624   0.798 -0.3088  0.1361 -0.3480
  308TMC3    O2 4644   3.796   0.845   0.334  0.1617 -0.2722  0.4086
  309MPD2     C 4645   2.993   0.512  17.148 -0.1820  0.2191  1.1377
  309MPD2    C1 4646   3.051   0.637  17.135 -0.5150 -0.2850  0.1022
  309MPD2    C2 4647   3.030   0.726  17.235  0.5277 -0.9827 -0.5620
  309MPD2    C3 4648   2.938   0.701  17.336 -0.0616 -0.0884  0.4689
  309MPD2    C4 4649   2.871   0.577  17.338 -0.2558 -1.0056  1.3146
  309MPD2    C5 4650   2.908   0.478  17.256  0.0402 -0.5754  0.3622
  309MPD2     H 4651   3.086   0.819  17.230 -0.7275 -0.0644  2.0510
  309MPD2    H1 4652   2.794   0.552  17.410 -0.9322  1.6232  1.4897
  309MPD2    H2 4653   2.997   0.431  17.076 -0.9978  0.6183  0.6425
  309MPD2    H3 4654   2.871   0.377  17.263 -0.1271 -0.5024  0.5329
  309MPD2     N 4655   2.878   0.808  17.415  0.6001 -0.0936  0.3329
  309MPD2    H5 4656   2.795   0.779  17.467  0.0634 -0.4191 -0.6929
  309MPD2    N1 4657   3.142   0.667  17.031  0.0013 -0.3819 -0.4179
  309MPD2    H7 4658   3.169   0.763  17.015  0.0792 -0.1528  1.1272
  310TMC3    C1 4659   3.279   0.624  16.831  0.2006  0.1200 -0.5864
  310TMC3    C2 4660   3.252   0.746  16.781  0.2060 -0.2285 -0.2198
  310TMC3    C3 4661   3.302   0.781  16.659 -0.2320  0.8015 -0.0398
  310TMC3    C4 4662   3.355   0.535  16.751 -0.0128 -0.0736 -0.6232
  310TMC3    C5 4663   3.412   0.576  16.637 -0.0114  0.8039 -0.2172
  310TMC3    C6 4664   3.383   0.699  16.584  0.4891 -0.0107  0.3862
  310TMC3     C 4665   3.205   0.574  16.948  0.7061  0.1218  0.7259
  310TMC3     O 4666   3.199   0.453  16.952  0.0346 -0.4828 -0.2721
  310TMC3     H 4667   3.185   0.812  16.836  0.7517  1.5267 -1.6796
  310TMC3    H1 4668   3.379   0.437  16.792  2.3217 -0.3019 -2.5062
  310TMC3    H2 4669   3.425   0.737  16.492  2.3480 -1.1544  0.7559
  310TMC3    C7 4670   3.473   0.475  16.562 -0.2526  0.1529 -0.2488
  310TMC3    C8 4671   3.236   0.885  16.585  0.0920  0.2327  0.5966
  310TMC3    O1 4672   3.412   0.368  16.573 -0.4704  0.0019 -0.2101
  310TMC3    O2 4673   3.233   0.862  16.465  0.6005  0.6485 -0.4540
  311MPD2     C 4674   0.833   2.090  12.703  0.2804  0.3616 -0.1913
  311MPD2    C1 4675   0.842   2.188  12.797  0.2257  0.2047 -0.1535
  311MPD2    C2 4676   0.729   2.213  12.875 -0.3489 -0.9871  0.4127
  311MPD2    C3 4677   0.618   2.138  12.853  0.3272  0.4106 -0.4499
  311MPD2    C4 4678   0.609   2.037  12.763 -1.1565  0.3366  0.5816
  311MPD2    C5 4679   0.718   2.015  12.691  0.3399  0.2781 -0.0071
  311MPD2     H 4680   0.727   2.297  12.943  1.6210 -0.4125 -0.2146
  311MPD2    H1 4681   0.522   1.974  12.745  0.2178 -1.6053  0.6959
  311MPD2    H2 4682   0.916   2.076  12.634  0.0947  1.5744 -0.6616
  311MPD2    H3 4683   0.719   1.935  12.617  0.2292 -0.3535  0.6665
  311MPD2     N 4684   0.503   2.184  12.918  0.5009  0.6273  0.1948
  311MPD2    H5 4685   0.522   2.263  12.979  0.4668  0.4065  0.4908
  311MPD2    N1 4686   0.964   2.256  12.822 -0.2214 -0.4690  0.4563
  311MPD2    H7 4687   0.957   2.331  12.890 -0.7992  0.0396 -0.1754
  312TMC3    C1 4688   0.275   2.216  12.971  0.5293  0.4853  0.3250
  312TMC3    C2 4689   0.149   2.238  12.919  0.4894  0.9404  0.4635
  312TMC3    C3 4690   0.039   2.245  13.004  0.0191  0.2456 -0.7414
  312TMC3    C4 4691   0.297   2.206  13.104  0.5444 -0.3185 -0.2631
  312TMC3    C5 4692   0.182   2.200  13.179 -0.1528 -1.0557 -0.2783
  312TMC3    C6 4693   0.054   2.210  13.132 -0.2758 -0.2337  0.1155
  312TMC3     C 4694   0.374   2.156  12.881 -1.4163 -0.8370  0.4751
  312TMC3     O 4695   0.330   2.121  12.770  0.0003 -0.3402 -0.2354
  312TMC3     H 4696   0.135   2.244  12.811  1.1019 -1.0771  0.2686
  312TMC3    H1 4697   0.396   2.196  13.148 -1.1091 -2.3509  2.9668
  312TMC3    H2 4698   4.693   2.222  13.199 -0.2072 -1.9771  0.5061
  312TMC3    C7 4699   0.187   2.142  13.308 -0.5823  0.4702 -0.6048
  312TMC3    C8 4700   4.632   2.231  12.939 -0.3811  0.5377  0.5819
  312TMC3    O1 4701   0.094   2.069  13.338 -0.3197  1.0626 -0.0367
  312TMC3    O2 4702   4.554   2.151  12.985  0.2212 -0.2553 -0.4409
  313MPD2     C 4703   0.642   1.871  11.065  0.6972 -0.7006  0.2633
  313MPD2    C1 4704   0.501   1.880  11.056 -0.2398 -0.6865  0.5252
  313MPD2    C2 4705   0.439   1.839  10.937 -0.0467  0.2385 -0.6713
  313MPD2    C3 4706   0.504   1.771  10.837 -0.8638  0.0977 -0.1252
  313MPD2    C4 4707   0.638   1.748  10.851  0.6992  0.2672  0.1201
  313MPD2    C5 4708   0.704   1.806  10.961 -0.4849  0.5779  0.2744
  313MPD2     H 4709   0.331   1.838  10.946  0.2039  1.6112  2.6999
  313MPD2    H1 4710   0.695   1.673  10.797 -0.4395  0.0791 -0.8100
  313MPD2    H2 4711   0.696   1.891  11.157  3.5265  0.8278 -1.7323
  313MPD2    H3 4712   0.811   1.789  10.962 -0.5162  0.4167  0.7495
  313MPD2     N 4713   0.433   1.738  10.717 -0.2886 -0.6374 -0.5869
  313MPD2    H5 4714   0.332   1.739  10.708 -0.2429 -1.4441 -1.2139
  313MPD2    N1 4715   0.419   1.937  11.156  0.3039 -0.1086  0.7315
  313MPD2    H7 4716   0.318   1.933  11.152  0.3524  0.0316 -0.5856
  314TMC3    C1 4717   0.382   2.087  11.342  0.2839  0.4847  0.3995
  314TMC3    C2 4718   0.453   2.172  11.431  1.5122  0.5218  0.1703
  314TMC3    C3 4719   0.415   2.302  11.435  0.6558 -0.2012  0.7544
  314TMC3    C4 4720   0.274   2.136  11.275  0.5803  0.1118 -0.6273
  314TMC3    C5 4721   0.245   2.271  11.282 -0.6668  0.5763  0.0994
  314TMC3    C6 4722   0.306   2.346  11.377  0.1876  0.8211 -0.8360
  314TMC3     C 4723   0.469   1.998  11.266  0.4106 -0.0641 -1.1323
  314TMC3     O 4724   0.581   1.985  11.310 -1.0270  0.0733 -0.1704
  314TMC3     H 4725   0.537   2.129  11.484  1.3881  0.1026  0.0282
  314TMC3    H1 4726   0.219   2.078  11.201 -1.1355  0.4115  0.4123
  314TMC3    H2 4727   0.284   2.452  11.382 -0.8240  0.6227 -1.1599
  314TMC3    C7 4728   0.232   2.338  11.152  0.2314 -0.0148 -0.3390
  314TMC3    C8 4729   0.519   2.401  11.463 -0.1699 -0.2090 -0.1252
  314TMC3    O1 4730   0.312   2.434  11.143  0.4983  0.4338  0.2524
  314TMC3    O2 4731   0.511   2.506  11.405 -0.0889 -0.1092 -0.6066
  315MPD2     C 4732   4.480   0.933   0.233 -0.4799 -0.8997  0.3531
  315MPD2    C1 4733   4.588   0.959   0.319 -0.5694 -0.0469  0.6738
  315MPD2    C2 4734   4.679   1.066   0.292 -0.0073 -0.0894 -0.2988
  315MPD2    C3 4735   4.666   1.127   0.169  0.5017  0.1767  0.5972
  315MPD2    C4 4736   4.569   1.086   0.079  0.0484 -0.2824 -0.3152
  315MPD2    C5 4737   4.476   0.998   0.116 -0.6998 -0.1043  0.6663
  315MPD2     H 4738   0.030   1.093   0.367 -0.5896  0.3188  0.1298
  315MPD2    H1 4739   4.559   1.136  17.677 -0.1258  2.1014  0.9406
  315MPD2    H2 4740   4.400   0.866   0.262 -2.3934  1.8242  1.3458
  315MPD2    H3 4741   4.390   0.984   0.052 -0.6991  1.4557  0.3142
  315MPD2     N 4742   0.025   1.237   0.145  0.2957  0.1002  0.2622
  315MPD2    H5 4743   0.102   1.235   0.211 -1.0127 -0.8094  1.7748
  315MPD2    N1 4744   4.601   0.888   0.446  0.4962  0.0581 -0.5539
  315MPD2    H7 4745   4.677   0.927   0.500 -0.9711 -0.7462  2.0694
  316TMC3    C1 4746   0.104   1.443   0.053 -0.0861  1.0150  0.0690
  316TMC3    C2 4747   0.205   1.439   0.146  0.2230  0.3422 -0.2571
  316TMC3    C3 4748   0.300   1.537   0.140 -0.0150  0.6284  0.2160
  316TMC3    C4 4749   0.090   1.537  17.646  0.7761 -0.1639  0.0194
  316TMC3    C5 4750   0.187   1.632  17.644  0.2701 -1.5309  0.1193
  316TMC3    C6 4751   0.293   1.633   0.041 -0.5581 -0.1105  0.4103
  316TMC3     C 4752   0.009   1.332   0.043  0.4829  0.7856  0.5940
  316TMC3     O 4753   4.695   1.317  17.624 -0.3070  0.7661 -0.0185
  316TMC3     H 4754   0.205   1.366   0.226 -3.6167 -0.4511 -1.0067
  316TMC3    H1 4755   4.723   1.537  17.586 -0.1621 -1.7173  1.4403
  316TMC3    H2 4756   0.369   1.711   0.038 -0.9935  0.3959  2.3384
  316TMC3    C7 4757   0.197   1.712  17.524 -0.3664  0.4244  0.4544
  316TMC3    C8 4758   0.426   1.520   0.209 -0.0570 -0.3055 -0.2183
  316TMC3    O1 4759   0.262   1.815  17.532  0.1355 -0.3213  0.1069
  316TMC3    O2 4760   0.482   1.629   0.232  0.0652  0.4607  0.0774
  317MPD2     C 4761   1.929   4.313  12.847  0.5577 -0.8112  0.1521
  317MPD2    C1 4762   2.052   4.283  12.909 -0.2760  0.1472 -0.5889
  317MPD2    C2 4763   2.041   4.240  13.040 -0.1440  0.1373  0.4016
  317MPD2    C3 4764   1.924   4.200  13.100 -0.9673 -0.1363  0.2691
  317MPD2    C4 4765   1.805   4.216  13.032  0.1985  0.1367 -0.4930
  317MPD2    C5 4766   1.812   4.274  12.910  0.5003  0.7036 -0.7849
  317MPD2     H 4767   2.131   4.223  13.098  1.2853  2.3318 -1.1794
  317MPD2    H1 4768   1.707   4.190  13.070 -0.0498  1.4016 -0.2432
  317MPD2    H2 4769   1.919   4.342  12.743  3.6138 -0.1167  0.0479
  317MPD2    H3 4770   1.720   4.268  12.854 -1.1768  0.7339  1.9493
  317MPD2     N 4771   1.928   4.154  13.234 -0.2618 -0.1004  0.1665
  317MPD2    H5 4772   2.020   4.132  13.272  0.1244  1.6326  0.2447
  317MPD2    N1 4773   2.176   4.314  12.855  0.0114  0.1909 -0.4295
  317MPD2    H7 4774   2.254   4.295  12.917 -1.0355  1.0112  1.1378
  318TMC3    C1 4775   1.873   4.071  13.442  0.3950  0.6479 -1.1719
  318TMC3    C2 4776   1.842   3.938  13.449 -0.5203  0.3388 -0.0109
  318TMC3    C3 4777   1.944   3.857  13.499  0.2375 -0.0412  0.2677
  318TMC3    C4 4778   1.995   4.119  13.469 -0.3876  0.3309  0.0141
  318TMC3    C5 4779   2.093   4.038  13.517 -0.1284  0.0125  0.6388
  318TMC3    C6 4780   2.071   3.903  13.529  0.5141 -0.2479  0.0499
  318TMC3     C 4781   1.819   4.125  13.320 -0.2031  0.1940 -0.6391
  318TMC3     O 4782   1.695   4.121  13.298 -0.2028 -0.1044  0.4159
  318TMC3     H 4783   1.742   3.915  13.413 -0.8025 -0.6231  1.3878
  318TMC3    H1 4784   2.010   4.226  13.472 -0.1663  0.2524  1.3680
  318TMC3    H2 4785   2.149   3.829  13.544  0.7059  0.4128  2.2598
  318TMC3    C7 4786   2.220   4.093  13.487 -0.4704  0.0458  0.5770
  318TMC3    C8 4787   1.933   3.715  13.523  0.1716 -1.0768  0.6578
  318TMC3    O1 4788   2.218   4.186  13.410  0.2431  0.1942 -0.6028
  318TMC3    O2 4789   2.030   3.643  13.556 -0.1481  0.6375 -0.0711
  319MPD2     C 4790   2.429   0.849  17.361  0.0216  0.2367 -0.1137
  319MPD2    C1 4791   2.310   0.785  17.319 -0.5321  0.0254  0.4285
  319MPD2    C2 4792   2.271   0.803  17.191 -0.3275 -0.1218 -0.0055
  319MPD2    C3 4793   2.365   0.842  17.098 -0.5847  0.3239 -0.1477
  319MPD2    C4 4794   2.496   0.876  17.133  0.3942 -0.0470 -0.4161
  319MPD2    C5 4795   2.520   0.893  17.264 -0.0602 -0.4969 -0.4791
  319MPD2     H 4796   2.177   0.775  17.146 -0.2843  1.0688 -0.8526
  319MPD2    H1 4797   2.564   0.914  17.058 -2.4654  1.1471 -2.4166
  319MPD2    H2 4798   2.456   0.877  17.462  0.5479  0.6327 -0.3664
  319MPD2    H3 4799   2.608   0.940  17.307 -0.7759 -1.1565  1.6928
  319MPD2     N 4800   2.336   0.830  16.962  0.3132  0.0364  0.2810
  319MPD2    H5 4801   2.415   0.840  16.899  0.7226 -0.6487  0.6867
  319MPD2    N1 4802   2.225   0.715  17.405  0.2516  0.0279 -0.4098
  319MPD2    H7 4803   2.139   0.677  17.366  0.4742  1.2970 -2.1379
  320TMC3    C1 4804   2.223   0.823  16.758 -0.0741 -0.5698  0.1876
  320TMC3    C2 4805   2.123   0.889  16.691  0.5279 -0.5905 -0.3436
  320TMC3    C3 4806   2.133   0.882  16.554  0.2241 -0.2387 -0.9056
  320TMC3    C4 4807   2.326   0.759  16.699 -0.1995 -0.3438 -0.1928
  320TMC3    C5 4808   2.316   0.735  16.561  0.1279 -0.1211  0.4334
  320TMC3    C6 4809   2.217   0.793  16.491  0.4656  1.4460  0.0003
  320TMC3     C 4810   2.210   0.821  16.903 -0.4175 -0.5214 -0.3428
  320TMC3     O 4811   2.095   0.842  16.945  0.1138  0.5643  0.1283
  320TMC3     H 4812   2.050   0.952  16.741 -1.2878 -1.8162 -1.4523
  320TMC3    H1 4813   2.376   0.685  16.761  2.0516  0.5593 -0.9365
  320TMC3    H2 4814   2.225   0.775  16.384  2.8116 -2.2627  0.7625
  320TMC3    C7 4815   2.362   0.608  16.514 -0.2287 -0.3773 -0.8002
  320TMC3    C8 4816   2.087   0.998  16.481 -0.2525 -0.7274 -0.8764
  320TMC3    O1 4817   2.284   0.549  16.440 -0.5179 -0.2320  0.1872
  320TMC3    O2 4818   2.109   1.099  16.548 -0.0809 -0.1768 -0.3949
  321TMC3    C1 4819   2.153   0.605  17.595 -0.3100  0.9119 -0.1508
  321TMC3    C2 4820   2.064   0.524  17.532 -0.2767 -0.3765  0.1841
  321TMC3    C3 4821   1.978   0.453  17.619 -0.1513  0.0025 -0.5930
  321TMC3    C4 4822   2.171   0.605   0.036  0.3613  0.2280  0.4431
  321TMC3    C5 4823   2.086   0.530   0.120  0.7136 -0.3846 -0.4074
  321TMC3    C6 4824   1.986   0.463   0.061  0.0878 -0.3039  0.1085
  321TMC3     C 4825   2.260   0.679  17.526 -0.2060 -0.0430  0.0423
  321TMC3     O 4826   2.365   0.705  17.584  0.6085  0.0262 -0.3389
  321TMC3     H 4827   2.082   0.507  17.426 -0.1262 -2.0453  0.4882
  321TMC3    H1 4828   2.258   0.656   0.077 -0.1895  1.0795  0.5563
  321TMC3    H2 4829   1.925   0.396   0.121  1.1098 -0.4766  0.9616
  321TMC3    C7 4830   2.158   0.450   0.217 -0.3046  0.3679 -0.3899
  321TMC3    C8 4831   1.939   0.325  17.577  0.8197  0.2208  0.0968
  321TMC3    O1 4832   2.271   0.430   0.187  0.0149 -0.2088  0.2486
  321TMC3    O2 4833   1.902   0.250  17.667 -0.2071 -0.2062  0.5010
  322MPD2     C 4834   1.574   1.870  13.745 -0.0378  0.2023 -0.3457
  322MPD2    C1 4835   1.642   1.834  13.858  0.4133  0.2299 -0.0106
  322MPD2    C2 4836   1.649   1.697  13.886 -0.2021  0.1816  0.4645
  322MPD2    C3 4837   1.590   1.603  13.803 -0.5994  1.2602  0.4410
  322MPD2    C4 4838   1.540   1.640  13.678  0.1807 -0.2667 -0.1185
  322MPD2    C5 4839   1.530   1.769  13.650  0.1809 -0.4465  0.1960
  322MPD2     H 4840   1.701   1.668  13.976  0.5026  0.1950  0.0677
  322MPD2    H1 4841   1.502   1.573  13.602  1.9012  0.4315 -1.5939
  322MPD2    H2 4842   1.560   1.973  13.716  1.9395  0.7406  0.5988
  322MPD2    H3 4843   1.480   1.796  13.558 -1.1500 -4.3810 -0.2135
  322MPD2     N 4844   1.599   1.470  13.849  0.3597  0.3107 -0.2432
  322MPD2    H5 4845   1.662   1.446  13.925  0.6136  1.4612 -0.0888
  322MPD2    N1 4846   1.683   1.927  13.954  0.3511 -0.0450 -0.0982
  322MPD2    H7 4847   1.732   1.888  14.034 -0.4235 -0.7394  0.0495
  323TMC3    C1 4848   1.792   2.127  14.007  0.5053 -0.3238 -0.8812
  323TMC3    C2 4849   1.874   2.205  13.937 -0.2569  0.4036 -0.4006
  323TMC3    C3 4850   1.954   2.285  14.012 -0.1621  0.1187  0.1772
  323TMC3    C4 4851   1.785   2.114  14.147 -0.4473  0.4328 -0.8705
  323TMC3    C5 4852   1.876   2.199  14.216 -0.3656  0.0215  0.3074
  323TMC3    C6 4853   1.961   2.284  14.154  0.2465 -0.2600  0.2966
  323TMC3     C 4854   1.698   2.060  13.925 -0.1688  0.0488 -0.2470
  323TMC3     O 4855   1.668   2.129  13.826 -0.3164  0.2254 -0.1197
  323TMC3     H 4856   1.884   2.203  13.829 -3.3356  1.8464 -0.7377
  323TMC3    H1 4857   1.714   2.047  14.194 -0.7983  0.2214 -1.7100
  323TMC3    H2 4858   2.027   2.348  14.212 -1.7935  1.2081  1.0060
  323TMC3    C7 4859   1.895   2.159  14.352  0.2089  0.4269 -0.9729
  323TMC3    C8 4860   2.073   2.339  13.942  0.1003 -0.1231  0.1239
  323TMC3    O1 4861   1.862   2.046  14.379  0.7065 -0.4481 -0.0196
  323TMC3    O2 4862   2.159   2.376  14.020  0.6524  0.0536 -0.0207
  324MPD2     C 4863   3.402   2.663  14.515  0.1617  0.1673  0.4041
  324MPD2    C1 4864   3.438   2.790  14.477  0.1586  1.2544  0.2117
  324MPD2    C2 4865   3.355   2.860  14.390  0.0121  0.3984  0.1597
  324MPD2    C3 4866   3.237   2.798  14.343 -0.4079 -0.6788  0.5103
  324MPD2    C4 4867   3.215   2.672  14.373  0.7238 -0.1991 -0.7569
  324MPD2    C5 4868   3.293   2.604  14.465  0.1556 -0.0641 -0.1884
  324MPD2     H 4869   3.392   2.955  14.356 -1.5428 -0.1706 -3.1011
  324MPD2    H1 4870   3.129   2.617  14.336  1.3415  0.0434 -2.5302
  324MPD2    H2 4871   3.468   2.594  14.566  1.6936  1.0261 -0.4224
  324MPD2    H3 4872   3.280   2.498  14.480  0.1090  0.0554  0.6016
  324MPD2     N 4873   3.145   2.853  14.252  0.0099  0.0440  0.2070
  324MPD2    H5 4874   3.057   2.805  14.237 -0.7326  1.7436 -1.0066
  324MPD2    N1 4875   3.565   2.848  14.508  0.0648 -0.1291  0.4035
  324MPD2    H7 4876   3.583   2.940  14.468 -1.1394  0.3880  1.0492
  325TMC3    C1 4877   3.049   3.020  14.116 -0.0501  0.1698  0.2431
  325TMC3    C2 4878   2.926   2.960  14.140 -0.5355  0.0426  0.0320
  325TMC3    C3 4879   2.816   3.035  14.118 -0.1474  0.1994 -0.0936
  325TMC3    C4 4880   3.055   3.151  14.070  0.1221  0.0334  0.3659
  325TMC3    C5 4881   2.938   3.220  14.054  0.5716 -0.9780 -0.3771
  325TMC3    C6 4882   2.815   3.168  14.081 -0.3500  0.5967 -0.1997
  325TMC3     C 4883   3.171   2.978  14.189  0.7911 -0.0140 -0.5497
  325TMC3     O 4884   3.271   3.050  14.186 -0.2398  0.3275 -0.1833
  325TMC3     H 4885   2.916   2.857  14.172  3.4908  0.7094  3.4749
  325TMC3    H1 4886   3.145   3.209  14.051  0.6139 -0.9752 -0.3640
  325TMC3    H2 4887   2.738   3.230  14.037 -0.6034  0.6379  0.2989
  325TMC3    C7 4888   2.945   3.362  14.032 -0.2400 -0.2544 -0.0658
  325TMC3    C8 4889   2.693   2.967  14.094  0.2632  0.0233  0.0701
  325TMC3    O1 4890   3.040   3.407  13.970  0.0732 -0.3715  0.1090
  325TMC3    O2 4891   2.694   2.848  14.071 -0.0335  0.1760 -0.3606
  326MPD2     C 4892   0.345   4.019  10.943 -0.3085  0.0724 -0.4043
  326MPD2    C1 4893   0.318   4.147  10.912  0.5177  0.8226 -0.7314
  326MPD2    C2 4894   0.363   4.248  10.992 -0.1898  0.2139 -0.2568
  326MPD2    C3 4895   0.453   4.221  11.092 -0.2282 -0.5712  0.3386
  326MPD2    C4 4896   0.486   4.091  11.123 -0.2241  0.0254  0.3599
  326MPD2    C5 4897   0.423   3.993  11.054  0.0258 -0.1830  0.5204
  326MPD2     H 4898   0.341   4.349  10.960  2.6128  0.9529  0.1499
  326MPD2    H1 4899   0.561   4.070  11.199  1.4644 -1.3242 -1.6869
  326MPD2    H2 4900   0.319   3.928  10.890 -2.4287 -0.9329  2.4155
  326MPD2    H3 4901   0.446   3.893  11.087  0.0901 -1.0464 -2.1295
  326MPD2     N 4902   0.519   4.324  11.165  0.4625  0.0323  0.2592
  326MPD2    H5 4903   0.608   4.304  11.210  1.5320  1.4534 -1.2022
  326MPD2    N1 4904   0.239   4.181  10.795  0.1342  0.6053 -0.1947
  326MPD2    H7 4905   0.238   4.281  10.775  0.5519  0.2204 -2.1558
  327TMC3    C1 4906   0.153   4.183  10.586 -0.4318 -0.3714  0.0804
  327TMC3    C2 4907   0.086   4.299  10.604  0.0561 -0.0180 -0.7205
  327TMC3    C3 4908   0.104   4.388  10.496  0.9630  0.3308 -0.2169
  327TMC3    C4 4909   0.239   4.161  10.481 -0.0413  0.1527  0.7337
  327TMC3    C5 4910   0.265   4.260  10.387  0.2628 -0.2920 -0.4052
  327TMC3    C6 4911   0.187   4.371  10.388  0.4000  1.0918 -0.5125
  327TMC3     C 4912   0.184   4.099  10.701 -0.1534  0.1781  0.6399
  327TMC3     O 4913   0.199   3.978  10.684  0.3122 -0.4463  0.3320
  327TMC3     H 4914   0.013   4.307  10.684  0.1763  0.3202 -0.6438
  327TMC3    H1 4915   0.292   4.067  10.466 -0.9081 -0.0925 -0.8690
  327TMC3    H2 4916   0.189   4.437  10.302  1.6161 -1.6885 -2.6288
  327TMC3    C7 4917   0.397   4.299  10.406  0.1526  0.2642  0.4716
  327TMC3    C8 4918   0.081   4.526  10.509 -0.7403 -0.3749 -0.0613
  327TMC3    O1 4919   0.442   4.394  10.339  0.5555 -0.3748 -0.2148
  327TMC3    O2 4920   0.152   4.603  10.443  0.3237 -0.3338  0.3957
  328MPD2     C 4921   1.895   4.591   0.160  0.2218 -0.7667  0.1187
  328MPD2    C1 4922   1.884   4.457   0.136 -0.1268  0.3822 -0.4276
  328MPD2    C2 4923   1.807   4.409   0.029 -0.0943 -0.6204 -0.6422
  328MPD2    C3 4924   1.760   4.507  17.636 -0.4053  0.6404 -0.1761
  328MPD2    C4 4925   1.783   4.641  17.654  0.4915  0.0090  0.8130
  328MPD2    C5 4926   1.851   4.683   0.069  0.4108 -0.3668  0.5008
  328MPD2     H 4927   1.801   4.304   0.004 -2.5484 -0.1307 -2.0614
  328MPD2    H1 4928   1.728   4.718  17.601  0.3358 -0.0571  0.8778
  328MPD2    H2 4929   1.941   4.630   0.250  0.0755 -0.5917  0.1192
  328MPD2    H3 4930   1.871   0.064   0.089 -0.5747  0.0820 -0.7933
  328MPD2     N 4931   1.678   4.473  17.523 -0.2938  0.6856  0.2824
  328MPD2    H5 4932   1.666   4.545  17.452  0.1664 -0.4862 -0.9923
  328MPD2    N1 4933   1.927   4.378   0.240 -0.5254 -0.5011  0.0085
  328MPD2    H7 4934   1.975   4.428   0.314  0.3857 -0.9591 -0.2713
  329TMC3    C1 4935   2.011   4.176   0.314 -0.2762  0.1254 -0.0658
  329TMC3    C2 4936   2.082   4.230   0.417  0.8459 -0.8044 -0.3340
  329TMC3    C3 4937   2.202   4.179   0.452 -0.0446  0.0528  0.1377
  329TMC3    C4 4938   2.047   4.060   0.260 -0.2190 -0.0851  0.4018
  329TMC3    C5 4939   2.165   4.006   0.298  0.2016  0.0963  0.8242
  329TMC3    C6 4940   2.244   4.063   0.392  0.4152  0.2995 -0.0757
  329TMC3     C 4941   1.902   4.243   0.252  0.7435  0.5938 -0.1925
  329TMC3     O 4942   1.831   4.169   0.186  0.4532 -0.0439 -0.2223
  329TMC3     H 4943   2.047   4.319   0.469  1.1199  0.0227 -1.5840
  329TMC3    H1 4944   1.977   4.016   0.189 -0.5744  0.4057  0.4481
  329TMC3    H2 4945   2.325   3.998   0.425 -2.2076 -1.3746  3.0336
  329TMC3    C7 4946   2.195   3.868   0.265 -0.7386 -0.3488  0.1036
  329TMC3    C8 4947   2.246   4.199   0.584  0.3467  0.3142  0.0510
  329TMC3    O1 4948   2.111   3.787   0.294 -1.2577  0.4734 -0.2273
  329TMC3    O2 4949   2.363   4.180   0.604  0.1832 -0.1739 -0.5121
  330TMC3    C1 4950   0.676   2.817   9.873  0.2065 -0.3693  0.4409
  330TMC3    C2 4951   0.733   2.733   9.779  0.3286  0.7986 -0.1759
  330TMC3    C3 4952   0.644   2.645   9.715  0.6224  0.6186 -0.3541
  330TMC3    C4 4953   0.557   2.793   9.924  0.4923 -0.3626 -0.1760
  330TMC3    C5 4954   0.468   2.704   9.863 -0.0910  0.5902 -0.4455
  330TMC3    C6 4955   0.514   2.628   9.757 -0.9793 -0.0917  0.3044
  330TMC3     C 4956   0.761   2.869   9.977 -0.1289 -0.2525  0.4107
  330TMC3     O 4957   0.735   2.842  10.091  0.7824  0.3093  0.3401
  330TMC3     H 4958   0.831   2.750   9.737  0.1825 -0.8484 -1.1816
  330TMC3    H1 4959   0.532   2.863  10.003 -0.8174 -0.6399 -0.3445
  330TMC3    H2 4960   0.446   2.570   9.695 -1.6181  0.0134  0.8941
  330TMC3    C7 4961   0.353   2.670   9.941 -0.0642  0.1395 -0.0863
  330TMC3    C8 4962   0.704   2.552   9.617  0.2136  0.0689  0.7122
  330TMC3    O1 4963   0.307   2.759  10.014 -0.2517  0.1020 -0.1171
  330TMC3    O2 4964   0.815   2.584   9.579 -0.4541  0.7727  0.5164
  331MPD2     C 4965   3.281   2.479  13.267 -0.7711 -0.1539 -0.0464
  331MPD2    C1 4966   3.345   2.504  13.152 -0.1741  0.1712 -0.5793
  331MPD2    C2 4967   3.292   2.469  13.026  0.1153  1.1692  0.0677
  331MPD2    C3 4968   3.159   2.430  13.025 -0.2453  0.3205 -0.0060
  331MPD2    C4 4969   3.091   2.401  13.141 -0.4590 -0.1293 -1.3689
  331MPD2    C5 4970   3.155   2.416  13.263  0.4171 -0.2184  0.2874
  331MPD2     H 4971   3.351   2.480  12.936  0.6110 -0.3754  0.2002
  331MPD2    H1 4972   2.990   2.362  13.144 -0.6202  0.1840 -2.8479
  331MPD2    H2 4973   3.319   2.502  13.366  3.1965 -2.3647 -1.0505
  331MPD2    H3 4974   3.106   2.392  13.356  1.9787 -1.7288  0.7305
  331MPD2     N 4975   3.099   2.411  12.892  0.2261  0.1694  0.5414
  331MPD2    H5 4976   3.159   2.406  12.811  1.8600  1.0844  1.7176
  331MPD2    N1 4977   3.470   2.575  13.172 -0.3488  0.4845 -0.3243
  331MPD2    H7 4978   3.503   2.570  13.267  0.1218  0.6218 -0.4822
  332TMC3    C1 4979   2.944   2.339  12.738  0.5815  0.2537 -0.4462
  332TMC3    C2 4980   3.033   2.383  12.645 -0.4341  0.1492 -0.5431
  332TMC3    C3 4981   3.060   2.303  12.540 -0.5646  0.6469 -0.0841
  332TMC3    C4 4982   2.896   2.208  12.733 -0.4019  0.2479 -0.3610
  332TMC3    C5 4983   2.932   2.123  12.632 -0.1003 -0.3223  0.0541
  332TMC3    C6 4984   3.014   2.176  12.531 -0.1892 -0.2510 -0.5861
  332TMC3     C 4985   2.965   2.383  12.877  0.5039 -0.4295 -0.0032
  332TMC3     O 4986   2.868   2.372  12.954  0.0426  0.6051  0.0429
  332TMC3     H 4987   3.078   2.482  12.646 -0.2707  0.0692 -0.1136
  332TMC3    H1 4988   2.852   2.170  12.824 -1.9507  2.0737 -0.3468
  332TMC3    H2 4989   3.053   2.114  12.452 -0.5941 -1.0712 -0.1448
  332TMC3    C7 4990   2.967   1.991  12.682  0.3127 -0.7410 -0.6899
  332TMC3    C8 4991   3.107   2.371  12.417  0.4101 -0.1384  0.3612
  332TMC3    O1 4992   2.914   1.949  12.784 -0.0243  0.3383  0.1260
  332TMC3    O2 4993   3.198   2.457  12.417 -0.3424 -0.1614 -0.0037
  333MPD2     C 4994   3.324   2.943  11.214 -0.0062 -0.4094  1.1101
  333MPD2    C1 4995   3.344   2.834  11.133  0.0890 -0.3242 -0.2092
  333MPD2    C2 4996   3.269   2.716  11.150 -0.2647  0.1671  0.6350
  333MPD2    C3 4997   3.177   2.706  11.251 -0.0154  0.1986 -0.1781
  333MPD2    C4 4998   3.161   2.816  11.331 -0.5491  0.3996 -0.6426
  333MPD2    C5 4999   3.244   2.927  11.323  0.1372 -0.5125 -0.7256
  333MPD2     H 5000   3.288   2.630  11.086  0.3815  0.3366  0.5982
  333MPD2    H1 5001   3.097   2.816  11.419 -1.6945  0.0915 -1.4763
  333MPD2    H2 5002   3.372   3.040  11.208 -1.5456  0.4053  1.9136
  333MPD2    H3 5003   3.240   2.999  11.404  1.1655 -0.2828 -0.8884
  333MPD2     N 5004   3.117   2.577  11.275 -0.1909  0.4820 -0.2271
  333MPD2    H5 5005   3.128   2.511  11.199  0.3752  0.8169 -0.4384
  333MPD2    N1 5006   3.447   2.847  11.039  0.1371  0.2947  0.5690
  333MPD2    H7 5007   3.496   2.935  11.033  0.8013 -0.1846 -0.9530
  334TMC3    C1 5008   3.624   2.790  10.891  0.0757  0.4695 -0.3755
  334TMC3    C2 5009   3.738   2.716  10.885  0.1553 -0.0923  0.2369
  334TMC3    C3 5010   3.853   2.767  10.828  0.2104  0.5146  0.0199
  334TMC3    C4 5011   3.623   2.920  10.841 -0.1493 -0.0860  0.4196
  334TMC3    C5 5012   3.741   2.969  10.789 -0.0698 -0.1037  0.3455
  334TMC3    C6 5013   3.856   2.896  10.777 -0.2911 -0.6259  0.3879
  334TMC3     C 5014   3.513   2.742  10.976  0.7798  0.2879  0.8253
  334TMC3     O 5015   3.494   2.617  10.980 -0.0903 -0.6643  0.0176
  334TMC3     H 5016   3.742   2.624  10.941 -0.1415  0.1948  0.7368
  334TMC3    H1 5017   3.534   2.980  10.824 -0.2726  0.2100  2.1208
  334TMC3    H2 5018   3.949   2.932  10.735  0.0147 -2.6613 -0.6714
  334TMC3    C7 5019   3.748   3.106  10.750  0.0154  0.4184  0.1896
  334TMC3    C8 5020   3.975   2.721  10.889  0.4473  1.0457 -0.6295
  334TMC3    O1 5021   3.852   3.165  10.741  0.5445  0.1816  0.6270
  334TMC3    O2 5022   3.967   2.708  11.010  0.3964  0.2544 -0.0318
  335TMC3    C1 5023   2.549   3.890  17.408  0.4588 -0.7066  0.9140
  335TMC3    C2 5024   2.508   3.791  17.334  0.2136 -0.3542  0.8604
  335TMC3    C3 5025   2.594   3.730  17.244 -0.4882  0.8805 -0.1769
  335TMC3    C4 5026   2.670   3.956  17.385 -0.3502 -0.3928 -0.2374
  335TMC3    C5 5027   2.752   3.903  17.292 -0.2948 -0.2113  0.1988
  335TMC3    C6 5028   2.713   3.787  17.224 -0.1008 -1.1306 -0.9928
  335TMC3     C 5029   2.436   3.969  17.463 -0.3700 -0.2226 -0.3237
  335TMC3     O 5030   2.435   4.085  17.422 -0.0153 -0.1271  0.0624
  335TMC3     H 5031   2.402   3.767  17.335 -0.0052  0.6081  1.0166
  335TMC3    H1 5032   2.682   4.056  17.425  1.6082 -1.2945  1.3604
  335TMC3    H2 5033   2.787   3.743  17.158 -0.8291 -4.4381  0.3995
  335TMC3    C7 5034   2.880   3.967  17.274 -0.4828 -0.0716 -0.2212
  335TMC3    C8 5035   2.558   3.619  17.161  0.7812 -0.6130  0.2118
  335TMC3    O1 5036   2.970   3.905  17.222  0.0002  0.3978  0.1915
  335TMC3    O2 5037   2.623   3.610  17.057  0.1652  0.0599  0.2876
  336MPD2     C 5038   2.450   1.874  16.311  0.2136  0.0184  0.1891
  336MPD2    C1 5039   2.384   1.809  16.214  0.0277 -0.1016  0.7092
  336MPD2    C2 5040   2.383   1.672  16.219  0.4353  0.2998 -0.4029
  336MPD2    C3 5041   2.451   1.604  16.319  0.0165 -0.3959  0.0927
  336MPD2    C4 5042   2.506   1.674  16.426  0.3546 -0.0506  0.3552
  336MPD2    C5 5043   2.511   1.809  16.414  0.8682  0.1203  0.1276
  336MPD2     H 5044   2.333   1.615  16.141 -0.1194  0.6976 -0.3415
  336MPD2    H1 5045   2.548   1.641  16.521 -0.6830 -0.1070  0.7886
  336MPD2    H2 5046   2.474   1.980  16.310  1.5594 -0.2710  1.0174
  336MPD2    H3 5047   2.555   1.869  16.492  0.8917  1.6876 -1.1047
  336MPD2     N 5048   2.440   1.462  16.337  0.0814 -0.7094  0.0499
  336MPD2    H5 5049   2.482   1.408  16.411  0.6274  2.5891  2.1691
  336MPD2    N1 5050   2.303   1.868  16.108 -0.5731 -0.4573 -0.0470
  336MPD2    H7 5051   2.252   1.801  16.052 -0.9877 -1.5925  1.6822
  337TMC3    C1 5052   2.191   2.044  15.994  0.8319 -0.8002 -0.0608
  337TMC3    C2 5053   2.107   1.949  15.940 -1.0195  0.0231 -0.0672
  337TMC3    C3 5054   2.003   1.995  15.864 -0.6218 -0.7319 -0.0786
  337TMC3    C4 5055   2.184   2.177  15.970 -0.7111  0.0572  0.6983
  337TMC3    C5 5056   2.074   2.213  15.903  0.6949 -0.0070 -0.0643
  337TMC3    C6 5057   1.989   2.125  15.844 -0.2651 -0.1411  0.0521
  337TMC3     C 5058   2.296   2.001  16.090  0.1388  0.2112 -0.6121
  337TMC3     O 5059   2.373   2.092  16.127  0.3066  0.7333  0.0920
  337TMC3     H 5060   2.114   1.842  15.955 -1.5741  0.1150  0.8578
  337TMC3    H1 5061   2.244   2.246  16.028  1.1998 -1.8116  0.9535
  337TMC3    H2 5062   1.897   2.169  15.808  0.0827  0.6846  0.1651
  337TMC3    C7 5063   2.033   2.351  15.913 -0.2744  0.5562 -0.3438
  337TMC3    C8 5064   1.891   1.914  15.838  0.1943  0.0647  0.6335
  337TMC3    O1 5065   1.916   2.375  15.932  0.3987 -0.0089 -0.1381
  337TMC3    O2 5066   1.883   1.806  15.894 -0.1587  0.6463 -0.3516
  338MPD2     C 5067   2.395   0.966   1.203 -0.0382  0.0009  0.0003
  338MPD2    C1 5068   2.417   1.015   1.078 -0.0671 -0.4625 -0.0700
  338MPD2    C2 5069   2.307   1.071   1.015 -0.2137  0.0125 -0.6365
  338MPD2    C3 5070   2.180   1.055   1.060  0.5490 -0.1609 -0.1266
  338MPD2    C4 5071   2.160   1.006   1.190 -0.6497  0.3980  0.7436
  338MPD2    C5 5072   2.271   0.968   1.261  0.6491  0.3542  0.3118
  338MPD2     H 5073   2.317   1.116   0.917  0.0105 -0.9841 -1.0756
  338MPD2    H1 5074   2.060   1.014   1.233  0.5352  0.3535  3.4968
  338MPD2    H2 5075   2.468   0.917   1.267  0.3434  0.0272 -0.4145
  338MPD2    H3 5076   2.254   0.921   1.357 -1.2528  2.4876  1.0196
  338MPD2     N 5077   2.086   1.106   0.977 -0.3437  0.5063 -0.4602
  338MPD2    H5 5078   2.123   1.143   0.890 -1.5545  2.0807 -0.3084
  338MPD2    N1 5079   2.541   1.026   1.011  0.6113  0.2554 -0.2526
  338MPD2    H7 5080   2.542   1.077   0.923  1.9752  1.3151  0.3864
  339TMC3    C1 5081   1.899   1.095   0.853  0.3847  0.0435 -0.0272
  339TMC3    C2 5082   1.864   0.967   0.819  0.6431  0.3330  0.0707
  339TMC3    C3 5083   1.924   0.906   0.707 -0.0801 -0.1389  0.2943
  339TMC3    C4 5084   1.973   1.168   0.763 -0.2787  0.6535 -0.0207
  339TMC3    C5 5085   2.024   1.111   0.651  0.4585 -0.3868  0.0494
  339TMC3    C6 5086   1.994   0.984   0.621 -0.0956  0.3119 -0.2882
  339TMC3     C 5087   1.953   1.091   0.988  0.0080 -0.1551  0.3224
  339TMC3     O 5088   1.887   1.039   1.075  0.1437 -0.1208 -0.1761
  339TMC3     H 5089   1.811   0.908   0.892  0.4670  1.6757  1.0227
  339TMC3    H1 5090   2.013   1.265   0.791  3.4676 -0.4397 -1.4786
  339TMC3    H2 5091   2.047   0.938   0.538 -0.4660  1.4782 -1.1590
  339TMC3    C7 5092   2.162   1.155   0.629 -0.1160 -0.0973 -0.0271
  339TMC3    C8 5093   1.961   0.768   0.717 -0.1542  0.3851  1.0552
  339TMC3    O1 5094   2.220   1.215   0.719  0.0541 -0.0211 -0.1208
  339TMC3    O2 5095   2.053   0.733   0.643 -0.1715  0.3762 -0.1074
  340MPD2     C 5096   3.856   2.779  10.013 -0.0948  0.4005 -0.2781
  340MPD2    C1 5097   3.934   2.840   9.918 -0.1690  0.9156  0.6006
  340MPD2    C2 5098   3.891   2.956   9.849  0.2850 -0.1141  0.3160
  340MPD2    C3 5099   3.780   3.025   9.898 -0.0283 -1.5990 -0.7256
  340MPD2    C4 5100   3.712   2.967   9.997  0.6811 -0.1998 -0.0170
  340MPD2    C5 5101   3.748   2.845  10.056  0.2740 -0.6570 -0.2939
  340MPD2     H 5102   3.953   3.005   9.775 -1.0674 -1.1292 -1.4915
  340MPD2    H1 5103   3.632   3.020  10.049 -0.0263  0.3254 -1.6399
  340MPD2    H2 5104   3.882   2.678  10.044 -1.5598  0.1697  0.1730
  340MPD2    H3 5105   3.690   2.789  10.130  0.9033  2.2465  2.3908
  340MPD2     N 5106   3.752   3.158   9.857  0.6643  0.0489  1.0991
  340MPD2    H5 5107   3.679   3.206   9.908 -0.8609 -2.4257  1.2707
  340MPD2    N1 5108   4.057   2.772   9.887  0.3741 -0.1560  0.0937
  340MPD2    H7 5109   4.093   2.703   9.953 -1.1669  0.9056  2.0432
  341TMC3    C1 5110   4.210   2.673   9.738 -0.7460  1.1795 -0.0853
  341TMC3    C2 5111   4.172   2.549   9.787 -0.5297  0.1401  0.1230
  341TMC3    C3 5112   4.245   2.442   9.748 -0.1144  0.0474  0.5213
  341TMC3    C4 5113   4.316   2.691   9.648  0.7740  0.4978  0.2647
  341TMC3    C5 5114   4.383   2.579   9.617 -0.0184  0.0486 -0.4433
  341TMC3    C6 5115   4.358   2.455   9.669  0.0938 -0.3768  0.3581
  341TMC3     C 5116   4.124   2.793   9.766  0.6838 -0.3137  0.4099
  341TMC3     O 5117   4.138   2.894   9.702  0.6175  0.1260 -0.0032
  341TMC3     H 5118   4.080   2.530   9.841 -0.6768 -3.1905 -1.2954
  341TMC3    H1 5119   4.331   2.790   9.606  0.4974  0.2798 -0.3337
  341TMC3    H2 5120   4.428   2.377   9.642  0.1194  0.3173 -1.5828
  341TMC3    C7 5121   4.479   2.595   9.518 -0.3727 -1.0250  0.4060
  341TMC3    C8 5122   4.219   2.317   9.828 -0.0176 -0.5763 -0.6483
  341TMC3    O1 5123   4.531   2.705   9.515 -0.6029  0.6502  0.4446
  341TMC3    O2 5124   4.101   2.287   9.840  0.6019 -0.0182 -0.0987
  342MPD2     C 5125   0.688   2.408  17.253 -0.3247  0.0572 -0.1330
  342MPD2    C1 5126   0.789   2.375  17.345 -0.3582 -0.4909  0.1501
  342MPD2    C2 5127   0.822   2.481  17.430 -0.3740  0.3766  0.8491
  342MPD2    C3 5128   0.762   2.607  17.417 -0.6720 -0.4881  0.3920
  342MPD2    C4 5129   0.691   2.639  17.306  0.7005  0.1712 -0.4334
  342MPD2    C5 5130   0.649   2.538  17.233 -0.5981 -0.2892  1.0662
  342MPD2     H 5131   0.895   2.461  17.507 -0.2737 -0.5363  0.5167
  342MPD2    H1 5132   0.657   2.740  17.290  0.0030  0.0976  0.5558
  342MPD2    H2 5133   0.656   2.331  17.183 -3.3578  0.5105  0.7899
  342MPD2    H3 5134   0.585   2.557  17.148  0.1928  0.4226  0.6232
  342MPD2     N 5135   0.795   2.717  17.502  0.2441  0.1979  0.1032
  342MPD2    H5 5136   0.744   2.803  17.484 -0.1919 -0.0705  0.0513
  342MPD2    N1 5137   0.842   2.245  17.360  0.8472  0.6036 -0.0539
  342MPD2    H7 5138   0.898   2.230  17.444 -2.8376 -1.1567  2.0655
  343TMC3    C1 5139   0.876   2.015  17.327  0.0564 -0.1810  0.6047
  343TMC3    C2 5140   1.004   2.009  17.385  0.7054 -0.8592  0.2241
  343TMC3    C3 5141   1.065   1.886  17.385  0.4339  0.5200 -0.6350
  343TMC3    C4 5142   0.813   1.899  17.295  0.0260 -0.1942 -0.1999
  343TMC3    C5 5143   0.872   1.779  17.326  0.1388  0.0501  0.0334
  343TMC3    C6 5144   1.005   1.767  17.363 -0.2853  0.4362 -0.5863
  343TMC3     C 5145   0.819   2.143  17.273  0.1509  0.7931 -0.1207
  343TMC3     O 5146   0.745   2.133  17.176  0.3592 -0.2016  0.4569
  343TMC3     H 5147   1.061   2.099  17.408  0.0405 -0.1034 -1.0241
  343TMC3    H1 5148   0.718   1.907  17.243 -0.5755  0.8522  1.0647
  343TMC3    H2 5149   1.050   1.669  17.355 -1.2303  0.0298 -0.8855
  343TMC3    C7 5150   0.782   1.674  17.365  0.5539 -0.2016  0.0233
  343TMC3    C8 5151   1.216   1.881  17.413  0.7128 -0.3348  0.3900
  343TMC3    O1 5152   0.671   1.682  17.322  0.4877 -0.0562  0.2427
  343TMC3    O2 5153   1.269   1.989  17.440 -0.7861  0.0577  0.3764
  344MPD2     C 5154   2.244   1.297  11.181 -0.1728 -0.4524  0.4934
  344MPD2    C1 5155   2.143   1.364  11.115  0.3114 -0.5824  0.0485
  344MPD2    C2 5156   2.173   1.485  11.060 -0.2744 -0.6241  0.0189
  344MPD2    C3 5157   2.297   1.541  11.080  0.1933  0.9024  0.3305
  344MPD2    C4 5158   2.399   1.466  11.140 -0.3957  0.3065 -0.3966
  344MPD2    C5 5159   2.370   1.346  11.193  0.0542 -0.7651  0.8000
  344MPD2     H 5160   2.104   1.545  11.002  0.4373 -0.3760 -0.5612
  344MPD2    H1 5161   2.499   1.506  11.151 -0.7031  0.8490  0.4280
  344MPD2    H2 5162   2.229   1.200  11.226 -2.2425 -1.1074 -1.5977
  344MPD2    H3 5163   2.441   1.287  11.249 -0.3650 -0.1220  2.0173
  344MPD2     N 5164   2.344   1.665  11.026  0.0034 -0.4188 -0.0374
  344MPD2    H5 5165   2.437   1.694  11.053 -0.5583 -0.1879  1.6705
  344MPD2    N1 5166   2.006   1.315  11.102 -0.2132 -0.4662  0.7252
  344MPD2    H7 5167   1.944   1.370  11.043  2.4668  1.3775 -0.3646
  345TMC3    C1 5168   2.369   1.861  10.903  0.2773 -0.4815  0.1497
  345TMC3    C2 5169   2.465   1.898  10.995  0.1664 -0.1192 -0.0184
  345TMC3    C3 5170   2.558   1.983  10.945  0.9341 -0.0868 -0.0211
  345TMC3    C4 5171   2.379   1.886  10.769 -0.6229  0.6309 -0.2855
  345TMC3    C5 5172   2.480   1.958  10.721 -0.1543 -0.2477 -0.5929
  345TMC3    C6 5173   2.571   2.006  10.808  0.4715  0.4460 -0.4711
  345TMC3     C 5174   2.278   1.750  10.942  0.3758 -0.0395  0.0462
  345TMC3     O 5175   2.170   1.734  10.888  0.1874  0.5898 -0.1350
  345TMC3     H 5176   2.446   1.884  11.101  2.3660  1.4370  0.5706
  345TMC3    H1 5177   2.310   1.845  10.696 -1.3676  1.8894 -0.2949
  345TMC3    H2 5178   2.653   2.068  10.771 -0.7907  3.6806  2.1574
  345TMC3    C7 5179   2.468   2.033  10.594  0.6580 -0.4300 -1.0511
  345TMC3    C8 5180   2.607   2.090  11.026  0.6722  0.3643  0.4415
  345TMC3    O1 5181   2.567   2.087  10.549 -0.0884  0.0830  0.3795
  345TMC3    O2 5182   2.668   2.180  10.964  0.2282  0.0965  0.5524
  346MPD2     C 5183   1.758   3.823  14.465  0.0240  0.7852 -0.6775
  346MPD2    C1 5184   1.850   3.770  14.373 -0.3153 -0.1499  0.3732
  346MPD2    C2 5185   1.983   3.770  14.415 -0.2842  0.6189 -0.2758
  346MPD2    C3 5186   2.021   3.793  14.541 -0.2951  0.5293  0.6914
  346MPD2    C4 5187   1.928   3.846  14.629 -0.5243 -0.4007  0.1742
  346MPD2    C5 5188   1.798   3.858  14.590 -0.6676 -0.0760 -0.4897
  346MPD2     H 5189   2.050   3.727  14.341  1.8850  1.5365  1.1558
  346MPD2    H1 5190   1.947   3.873  14.732 -0.7406 -0.4877  0.2367
  346MPD2    H2 5191   1.653   3.822  14.440  0.5419  1.2536 -2.8022
  346MPD2    H3 5192   1.724   3.897  14.658 -2.5758 -0.3825 -2.4043
  346MPD2     N 5193   2.153   3.765  14.572  0.2531  0.4210  0.0462
  346MPD2    H5 5194   2.210   3.736  14.493  1.6223  1.7141  0.5489
  346MPD2    N1 5195   1.824   3.728  14.239 -0.7331 -0.1351 -0.0567
  346MPD2    H7 5196   1.904   3.700  14.184  0.5554 -0.1104  1.8077
  347TMC3    C1 5197   2.350   3.753  14.679 -1.1577  0.4326 -0.6918
  347TMC3    C2 5198   2.425   3.802  14.576 -0.4255 -0.1462  0.0095
  347TMC3    C3 5199   2.562   3.772  14.572 -0.1964 -0.5638 -0.1815
  347TMC3    C4 5200   2.403   3.677  14.780 -0.5664 -0.4034  0.0461
  347TMC3    C5 5201   2.537   3.636  14.778 -0.1367 -0.1217  0.0659
  347TMC3    C6 5202   2.617   3.700  14.679 -0.6677  0.5711 -0.2013
  347TMC3     C 5203   2.220   3.798  14.689  0.4398 -0.2526 -0.1361
  347TMC3     O 5204   2.176   3.814  14.802  0.4242  0.0562 -0.1349
  347TMC3     H 5205   2.373   3.860  14.500 -0.2626  1.0226  0.7912
  347TMC3    H1 5206   2.339   3.637  14.857 -0.2802  0.7258  0.8728
  347TMC3    H2 5207   2.720   3.666  14.683 -0.6370  0.8044  1.2647
  347TMC3    C7 5208   2.584   3.526  14.852  0.4458 -0.2908 -0.7600
  347TMC3    C8 5209   2.604   3.715  14.446 -0.0064  0.2206 -0.2339
  347TMC3    O1 5210   2.701   3.492  14.828  0.7253  0.9086  0.6591
  347TMC3    O2 5211   2.524   3.644  14.377  0.4893 -0.1630 -0.3986
  348MPD2     C 5212   0.792   2.870  12.296 -0.0438 -0.1608  0.0783
  348MPD2    C1 5213   0.912   2.921  12.254  0.1827 -0.2827 -0.6696
  348MPD2    C2 5214   0.910   3.006  12.137 -0.3107  0.2428  0.4039
  348MPD2    C3 5215   0.793   3.037  12.075 -0.2930  0.1257  0.2273
  348MPD2    C4 5216   0.678   2.998  12.137 -0.0820  0.0135  0.0398
  348MPD2    C5 5217   0.677   2.922  12.247  0.3987 -0.4297 -0.2296
  348MPD2     H 5218   1.002   3.037  12.090 -0.5202 -0.2181 -0.3024
  348MPD2    H1 5219   0.582   3.030  12.099 -0.2755 -1.5950 -0.8454
  348MPD2    H2 5220   0.795   2.808  12.386 -0.0970  1.6492  1.3163
  348MPD2    H3 5221   0.584   2.897  12.296  0.2082  4.3260  1.8051
  348MPD2     N 5222   0.795   3.116  11.958  0.1082  0.3872 -0.2682
  348MPD2    H5 5223   0.883   3.157  11.930  0.0904  1.0086  0.5628
  348MPD2    N1 5224   1.040   2.896  12.304  0.1643  0.1359 -0.1225
  348MPD2    H7 5225   1.116   2.938  12.252 -0.8324 -0.0451 -1.7157
  349TMC3    C1 5226   1.216   2.817  12.444 -0.4525 -0.3052  0.4397
  349TMC3    C2 5227   1.232   2.683  12.470  0.0990  0.9157 -0.1451
  349TMC3    C3 5228   1.295   2.605  12.376  0.5789  0.9322  0.3196
  349TMC3    C4 5229   1.297   2.874  12.347 -0.5764  0.2378 -0.2076
  349TMC3    C5 5230   1.364   2.796  12.254 -0.1036  0.1512  0.0952
  349TMC3    C6 5231   1.370   2.660  12.276  0.2281  0.4239 -0.3894
  349TMC3     C 5232   1.073   2.835  12.420 -0.0513  0.2320  0.2552
  349TMC3     O 5233   1.001   2.774  12.498 -0.2329  0.2459 -0.1309
  349TMC3     H 5234   1.187   2.637  12.557 -0.5040  0.4185 -0.7160
  349TMC3    H1 5235   1.297   2.982  12.343 -0.2514  0.2603  0.4681
  349TMC3    H2 5236   1.404   2.606  12.188  0.8891 -1.2752  0.9199
  349TMC3    C7 5237   1.345   2.842  12.114  0.1664 -0.3681  0.1746
  349TMC3    C8 5238   1.278   2.458  12.393 -0.7324 -0.1096 -0.3740
  349TMC3    O1 5239   1.329   2.751  12.025  0.3676  0.3005 -0.0502
  349TMC3    O2 5240   1.176   2.426  12.454 -0.5372  0.5845 -0.3598
  350MPD2     C 5241   0.643   1.273   9.778  0.0710 -0.1995  0.2501
  350MPD2    C1 5242   0.558   1.197   9.849  0.4354 -0.4248 -0.2711
  350MPD2    C2 5243   0.489   1.257   9.960 -0.2981 -0.3584 -0.0255
  350MPD2    C3 5244   0.496   1.392   9.983 -0.2780  0.0445 -0.1074
  350MPD2    C4 5245   0.565   1.466   9.897  0.1518 -0.0265  0.5806
  350MPD2    C5 5246   0.644   1.406   9.800 -0.4641  0.9025  0.3383
  350MPD2     H 5247   0.432   1.201  10.032  1.2479 -0.4021  1.1675
  350MPD2    H1 5248   0.558   1.573   9.889 -0.6552 -0.1071  0.1726
  350MPD2    H2 5249   0.710   1.231   9.703 -1.7749 -1.1119 -0.8985
  350MPD2    H3 5250   0.703   1.467   9.733 -0.1625 -0.8595 -0.9877
  350MPD2     N 5251   0.427   1.438  10.096 -0.2964  0.1462  0.2017
  350MPD2    H5 5252   0.379   1.368  10.152 -0.2175 -0.7811 -0.8911
  350MPD2    N1 5253   0.548   1.055   9.841 -0.7718 -0.0439  0.4104
  350MPD2    H7 5254   0.487   1.009   9.908 -0.2244 -2.4852 -0.7840
  351TMC3    C1 5255   0.564   0.845   9.734  0.1727 -0.1251 -0.4859
  351TMC3    C2 5256   0.638   0.753   9.667 -0.3173 -0.4754 -0.0740
  351TMC3    C3 5257   0.571   0.642   9.627 -1.0742  0.0019  0.1811
  351TMC3    C4 5258   0.424   0.836   9.742 -0.2712 -0.8284  0.6238
  351TMC3    C5 5259   0.366   0.722   9.706 -0.7821 -0.5643  0.0302
  351TMC3    C6 5260   0.437   0.618   9.654 -0.4018  0.2963  0.6180
  351TMC3     C 5261   0.623   0.977   9.753  1.0637 -0.4774  0.0091
  351TMC3     O 5262   0.730   0.997   9.701 -0.1371  0.2778  0.6484
  351TMC3     H 5263   0.744   0.765   9.647 -0.1967  1.4425  1.7784
  351TMC3    H1 5264   0.357   0.919   9.761  1.1667  0.0833  1.7654
  351TMC3    H2 5265   0.400   0.519   9.631 -2.6022  1.1808  0.2897
  351TMC3    C7 5266   0.244   0.683   9.769 -0.4625 -0.4991 -0.5566
  351TMC3    C8 5267   0.662   0.539   9.591  0.0587 -0.1554 -0.6359
  351TMC3    O1 5268   0.202   0.575   9.723 -0.1233  0.3800  0.6233
  351TMC3    O2 5269   0.778   0.532   9.626 -0.6329  0.0941  0.7229
  352MPD2     C 5270   3.128   3.079   0.499 -0.3576 -0.0954  0.0195
  352MPD2    C1 5271   3.178   3.086   0.626 -0.0577  0.3797  0.1610
  352MPD2    C2 5272   3.178   2.975   0.709  0.0687  0.0219  0.2420
  352MPD2    C3 5273   3.133   2.854   0.658 -0.1792 -0.7024  0.4930
  352MPD2    C4 5274   3.085   2.849   0.527 -0.5151 -0.1527  0.4160
  352MPD2    C5 5275   3.085   2.961   0.451 -0.0611  0.1192  0.1992
  352MPD2     H 5276   3.216   2.984   0.810 -0.8551 -0.0959  0.5997
  352MPD2    H1 5277   3.069   2.747   0.492  0.7345 -0.1725 -0.1104
  352MPD2    H2 5278   3.123   3.167   0.436 -0.9273 -2.0302 -2.6372
  352MPD2    H3 5279   3.041   2.958   0.352 -0.0668 -1.1881  0.2499
  352MPD2     N 5280   3.139   2.738   0.736  0.3405  0.0847  0.2424
  352MPD2    H5 5281   3.097   2.661   0.686 -1.0035 -0.1461  1.7548
  352MPD2    N1 5282   3.218   3.216   0.666  0.3051  0.3998 -0.0658
  352MPD2    H7 5283   3.204   3.286   0.594  2.3831  1.3334  0.4215
  353TMC3    C1 5284   3.162   2.588   0.926  0.1063 -0.3907  0.2557
  353TMC3    C2 5285   3.189   2.482   0.851 -0.7738  0.2717  0.0475
  353TMC3    C3 5286   3.171   2.359   0.907  0.1349  0.0252 -0.0442
  353TMC3    C4 5287   3.117   2.586   1.058 -0.9560 -0.3708 -0.0630
  353TMC3    C5 5288   3.100   2.460   1.110 -0.1321  0.0075 -0.6708
  353TMC3    C6 5289   3.128   2.347   1.037 -0.1004  0.3439  0.2978
  353TMC3     C 5290   3.193   2.719   0.862 -0.0191  0.3505 -0.4014
  353TMC3     O 5291   3.230   2.797   0.941  0.1918 -0.1012  0.5623
  353TMC3     H 5292   3.229   2.484   0.750  3.2156 -0.5813  1.6144
  353TMC3    H1 5293   3.106   2.674   1.120  2.3548  0.8508 -1.1995
  353TMC3    H2 5294   3.135   2.257   1.097 -0.1727  0.0761 -0.1020
  353TMC3    C7 5295   3.003   2.447   1.212 -0.5202  0.1460 -0.0980
  353TMC3    C8 5296   3.223   2.243   0.832  0.3339 -0.6907 -0.3916
  353TMC3    O1 5297   2.925   2.348   1.204  0.0408 -0.2759 -0.1577
  353TMC3    O2 5298   3.298   2.259   0.738 -0.2925 -0.4878 -0.6746
  354TMC3    C1 5299   4.374   4.074  13.451  0.3110 -0.6064 -0.3231
  354TMC3    C2 5300   4.380   4.206  13.412 -0.2962 -0.8358  0.0830
  354TMC3    C3 5301   4.399   4.239  13.281  0.3183  0.2612  0.3949
  354TMC3    C4 5302   4.389   3.973  13.357  0.0868  1.4517 -0.2800
  354TMC3    C5 5303   4.422   4.008  13.230 -0.5020  0.4170  0.5653
  354TMC3    C6 5304   4.425   4.140  13.191 -0.9087 -0.2727  0.6117
  354TMC3     C 5305   4.337   4.030  13.582 -0.3016 -0.5413  0.7377
  354TMC3     O 5306   4.278   3.920  13.587 -0.6129  0.1983  0.2806
  354TMC3     H 5307   4.349   4.280  13.485 -1.5094  0.4508 -1.7216
  354TMC3    H1 5308   4.406   3.873  13.396 -0.5025  1.8857  1.0616
  354TMC3    H2 5309   4.442   4.166  13.087 -0.9029 -0.8495  0.4638
  354TMC3    C7 5310   4.505   3.905  13.156  0.1559  0.7753 -0.0686
  354TMC3    C8 5311   4.424   4.372  13.242  0.1276  0.0943  1.1065
  354TMC3    O1 5312   4.507   3.795  13.210 -0.1992 -0.1644 -0.4420
  354TMC3    O2 5313   4.424   4.394  13.121 -0.1278  0.6781 -0.1110
  355MPD2     C 5314   4.483   0.324  11.664 -0.7279 -0.1863  0.2432
  355MPD2    C1 5315   4.550   0.391  11.565  0.0411 -0.3109  0.7419
  355MPD2    C2 5316   4.690   0.401  11.584 -0.2591 -0.5740 -0.3268
  355MPD2    C3 5317   0.032   0.364  11.700  0.6122  0.4830  0.0513
  355MPD2    C4 5318   4.676   0.307  11.801  0.4171 -0.4725  0.0538
  355MPD2    C5 5319   4.545   0.287  11.779  0.7760  0.4559  0.3354
  355MPD2     H 5320   0.023   0.447  11.503 -0.5398  0.3645  0.0156
  355MPD2    H1 5321   4.722   0.275  11.894 -0.3065  0.3382  0.6838
  355MPD2    H2 5322   4.376   0.309  11.658 -0.8441  0.6679  0.2307
  355MPD2    H3 5323   4.483   0.249  11.860 -1.2182 -0.8564 -1.8021
  355MPD2     N 5324   0.162   0.402  11.736 -0.0647  1.0451 -0.2529
  355MPD2    H5 5325   0.194   0.385  11.831 -1.9214 -0.9447  0.0192
  355MPD2    N1 5326   4.469   0.454  11.464  0.3430 -0.2364  0.7768
  355MPD2    H7 5327   4.372   0.422  11.459  0.1513  0.4853 -0.0799
  356TMC3    C1 5328   0.361   0.532  11.704  0.0835 -0.6588  0.2594
  356TMC3    C2 5329   0.446   0.577  11.610  0.5180  0.0764  0.7578
  356TMC3    C3 5330   0.552   0.652  11.646  0.2925  0.4583  0.3460
  356TMC3    C4 5331   0.376   0.554  11.838  0.1028  0.1224 -0.2997
  356TMC3    C5 5332   0.486   0.628  11.873  0.5069  0.3137 -0.3775
  356TMC3    C6 5333   0.583   0.673  11.780  0.1029 -0.3199  1.5801
  356TMC3     C 5334   0.241   0.467  11.647 -0.1568  0.1849 -0.2449
  356TMC3     O 5335   0.236   0.472  11.526  0.4964 -0.4619  0.3112
  356TMC3     H 5336   0.425   0.558  11.505 -1.8297 -0.0774  1.2496
  356TMC3    H1 5337   0.300   0.522  11.908 -0.2619 -2.1446 -1.7193
  356TMC3    H2 5338   0.683   0.694  11.816  0.0798  0.1969  1.3510
  356TMC3    C7 5339   0.497   0.668  12.011 -0.0317 -0.2768 -0.0904
  356TMC3    C8 5340   0.652   0.665  11.547  0.2717  0.6146 -0.6575
  356TMC3    O1 5341   0.449   0.592  12.091 -0.1327 -1.1353 -0.1354
  356TMC3    O2 5342   0.637   0.608  11.439  0.4278  0.0875  0.4619
  357MPD2     C 5343   3.725   0.414   0.399 -0.7328 -0.5397 -0.0713
  357MPD2    C1 5344   3.755   0.355   0.515 -0.8635  0.6104  0.2282
  357MPD2    C2 5345   3.652   0.339   0.613  0.6986 -0.4031 -0.2124
  357MPD2    C3 5346   3.531   0.390   0.597  0.6826 -0.2315 -0.3219
  357MPD2    C4 5347   3.499   0.444   0.472 -0.0681 -0.1328  0.0517
  357MPD2    C5 5348   3.601   0.460   0.380 -0.4531  0.4841 -0.2150
  357MPD2     H 5349   3.674   0.278   0.700  1.7179 -0.6039 -0.6062
  357MPD2    H1 5350   3.404   0.491   0.449  0.8841  1.7950  0.0145
  357MPD2    H2 5351   3.808   0.429   0.330 -0.8959  1.4257  0.1811
  357MPD2    H3 5352   3.578   0.512   0.289 -0.2609  1.0086  0.0363
  357MPD2     N 5353   3.431   0.383   0.701 -0.4397 -0.0455 -0.3241
  357MPD2    H5 5354   3.344   0.436   0.696 -1.0854 -1.1873 -1.2168
  357MPD2    N1 5355   3.888   0.309   0.519 -0.3869  0.7719 -0.3497
  357MPD2    H7 5356   3.952   0.307   0.440 -0.2869 -2.0229 -0.1753
  358TMC3    C1 5357   4.081   0.233   0.631 -0.2426  0.3420 -0.2198
  358TMC3    C2 5358   4.112   0.145   0.526  0.0572  0.1178  0.4552
  358TMC3    C3 5359   4.193   0.042   0.550 -0.1579 -0.3892 -0.2946
  358TMC3    C4 5360   4.135   0.209   0.757 -0.2211 -0.0536  0.6878
  358TMC3    C5 5361   4.214   0.098   0.771  0.0787 -0.2875 -0.1880
  358TMC3    C6 5362   4.247   0.012   0.667 -0.0173 -0.0993 -0.4149
  358TMC3     C 5363   3.939   0.274   0.641 -0.3456  0.5730  0.1027
  358TMC3     O 5364   3.886   0.271   0.757 -0.3331  0.1703  1.3177
  358TMC3     H 5365   4.057   0.136   0.433 -2.3185  1.7025  1.7301
  358TMC3    H1 5366   4.106   0.272   0.840 -0.7219  1.3538 -0.5655
  358TMC3    H2 5367   4.314   4.653   0.690  0.0405 -0.1207 -0.6639
  358TMC3    C7 5368   4.317   0.104   0.873 -0.0889 -0.4907 -0.0039
  358TMC3    C8 5369   4.193   4.667   0.439 -0.1302  0.1003 -0.4358
  358TMC3    O1 5370   4.416   0.031   0.860 -0.3196 -0.5777 -0.1160
  358TMC3    O2 5371   4.142   4.697   0.333  0.0028 -0.2285  0.2611
  359MPD2     C 5372   4.516   3.601  12.048  0.3436 -0.4676 -0.3740
  359MPD2    C1 5373   4.587   3.494  12.080  0.2855  0.8153 -0.8278
  359MPD2    C2 5374   4.554   3.412  12.184  0.8733  0.0615  0.1200
  359MPD2    C3 5375   4.440   3.438  12.258 -0.5834  0.0699  1.0159
  359MPD2    C4 5376   4.360   3.545  12.217  0.2724 -0.4625  0.6946
  359MPD2    C5 5377   4.395   3.626  12.112  0.7869  0.3488 -0.4734
  359MPD2     H 5378   4.618   3.327  12.202  0.3130 -0.3862 -0.0172
  359MPD2    H1 5379   4.263   3.564  12.262 -0.2530 -0.9638 -0.2393
  359MPD2    H2 5380   4.545   3.672  11.971 -3.8004  0.0009 -1.5191
  359MPD2    H3 5381   4.328   3.705  12.080  1.3716  0.4480 -1.4248
  359MPD2     N 5382   4.399   3.366  12.372  0.1350 -0.0980  0.2209
  359MPD2    H5 5383   4.312   3.393  12.416  0.4888  0.6497  0.4581
  359MPD2    N1 5384   4.714   3.478  12.018  0.1514  0.3452 -0.0794
  359MPD2    H7 5385   0.050   3.399  12.043  0.4662  0.9396  1.0494
  360TMC3    C1 5386   0.184   3.515  11.894 -0.0879  0.6783  0.0352
  360TMC3    C2 5387   0.262   3.502  12.005 -0.4068 -0.0310 -0.7390
  360TMC3    C3 5388   0.395   3.512  11.986 -0.2761 -0.2199 -0.0889
  360TMC3    C4 5389   0.228   3.522  11.766 -0.3527  0.1082  0.1106
  360TMC3    C5 5390   0.364   3.526  11.756 -0.2723  0.6125  0.4370
  360TMC3    C6 5391   0.450   3.520  11.862  0.1189  0.1937 -0.0763
  360TMC3     C 5392   0.046   3.551  11.915  0.7000  0.4412  0.2598
  360TMC3     O 5393   4.720   3.630  11.834  0.7885 -0.8276  0.1068
  360TMC3     H 5394   0.226   3.499  12.107  3.1428  1.2608  0.5484
  360TMC3    H1 5395   0.164   3.562  11.688  1.8202 -0.1253 -1.7762
  360TMC3    H2 5396   0.557   3.523  11.850  0.1508  0.6169  0.3244
  360TMC3    C7 5397   0.421   3.571  11.629 -0.2987  0.4668  0.0051
  360TMC3    C8 5398   0.477   3.453  12.086 -0.0332 -0.0933 -0.1551
  360TMC3    O1 5399   0.523   3.638  11.643 -1.2211 -0.0604  1.0432
  360TMC3    O2 5400   0.420   3.368  12.155  0.8046  0.2708  0.7339
  361MPD2     C 5401   1.659   2.419  16.858  0.5769  0.6107  0.9788
  361MPD2    C1 5402   1.659   2.478  16.982 -0.2631 -0.4170  1.0224
  361MPD2    C2 5403   1.756   2.438  17.069 -0.4203  0.4332 -0.2795
  361MPD2    C3 5404   1.857   2.349  17.024  0.4289  0.4241 -0.5034
  361MPD2    C4 5405   1.855   2.295  16.901  0.3875  0.2391  0.3418
  361MPD2    C5 5406   1.758   2.336  16.815  0.3046  0.0932 -0.1087
  361MPD2     H 5407   1.754   2.474  17.172  1.6241  0.1727 -0.1501
  361MPD2    H1 5408   1.933   2.226  16.868  1.1348  1.0484  0.4267
  361MPD2    H2 5409   1.577   2.435  16.789  1.6079  0.5875 -0.2448
  361MPD2    H3 5410   1.744   2.288  16.719  3.5627  0.6476 -0.8552
  361MPD2     N 5411   1.959   2.303  17.111 -0.2567 -0.6812  0.1864
  361MPD2    H5 5412   2.020   2.232  17.073  0.0014  1.1968 -2.8967
  361MPD2    N1 5413   1.557   2.566  17.031 -0.1222  0.5125  0.0771
  361MPD2    H7 5414   1.571   2.601  17.125 -0.0711  0.8172 -0.0432
  362TMC3    C1 5415   1.397   2.742  17.007 -0.1352 -0.3982  0.4094
  362TMC3    C2 5416   1.394   2.766  17.140 -0.0273  0.1656 -0.0129
  362TMC3    C3 5417   1.320   2.874  17.173  0.2397 -0.9166  0.3119
  362TMC3    C4 5418   1.348   2.820  16.910 -0.4126  0.2743  0.0889
  362TMC3    C5 5419   1.293   2.938  16.949 -0.6359 -0.8200  0.5041
  362TMC3    C6 5420   1.270   2.962  17.082 -0.2611  0.5052 -0.4820
  362TMC3     C 5421   1.449   2.617  16.955  0.1544 -0.2666 -0.6807
  362TMC3     O 5422   1.404   2.579  16.846 -0.3989 -0.0780  0.2919
  362TMC3     H 5423   1.422   2.700  17.222  0.4233  0.6430  0.2214
  362TMC3    H1 5424   1.364   2.807  16.803  0.3955 -0.6164  0.3189
  362TMC3    H2 5425   1.216   3.052  17.107  0.7374  1.2341 -0.9216
  362TMC3    C7 5426   1.218   3.031  16.859  0.0276  0.8967  0.5667
  362TMC3    C8 5427   1.324   2.915  17.311 -0.6177 -0.2151  0.0641
  362TMC3    O1 5428   1.193   3.141  16.913  0.4839 -0.7137 -0.1636
  362TMC3    O2 5429   1.417   2.879  17.377  0.5259 -0.2604  0.3040
  363TMC3    C1 5430   0.993   0.403   9.344 -0.3521 -0.1960 -0.5950
  363TMC3    C2 5431   1.101   0.396   9.435  0.5434  0.1141  0.5010
  363TMC3    C3 5432   1.159   0.274   9.449  0.2238  0.5035 -0.2041
  363TMC3    C4 5433   0.945   0.297   9.272 -0.4398  0.2509 -0.1318
  363TMC3    C5 5434   0.998   0.176   9.302 -0.4795 -0.4608 -0.4720
  363TMC3    C6 5435   1.096   0.162   9.395  0.4378  0.3803  0.8893
  363TMC3     C 5436   0.964   0.533   9.285 -0.8540 -0.1311 -0.0969
  363TMC3     O 5437   0.945   0.534   9.160 -0.5011  0.3225 -0.2033
  363TMC3     H 5438   1.147   0.483   9.481 -0.3135  1.1878 -0.6954
  363TMC3    H1 5439   0.849   0.304   9.223  0.1784  0.1615 -1.3452
  363TMC3    H2 5440   1.148   0.068   9.414 -1.5817 -0.9305 -0.1114
  363TMC3    C7 5441   0.933   0.056   9.239  0.0927  0.4401 -0.3376
  363TMC3    C8 5442   1.236   0.251   9.570  0.5719 -0.2008 -0.0873
  363TMC3    O1 5443   0.969   4.674   9.288 -0.0788 -0.7028  0.7898
  363TMC3    O2 5444   1.255   0.350   9.637 -0.3579 -0.1482 -0.7398
  364MPD2     C 5445   4.519   0.207  10.648  0.2111 -0.7677 -0.5076
  364MPD2    C1 5446   4.644   0.202  10.584  0.2814  0.2729 -0.1967
  364MPD2    C2 5447   4.705   0.079  10.567 -0.0823 -0.0814  0.1193
  364MPD2    C3 5448   4.637   4.685  10.606  0.0792 -0.1522  0.2924
  364MPD2    C4 5449   4.519   4.689  10.683  0.7806  0.2854 -0.6522
  364MPD2    C5 5450   4.461   0.091  10.692  0.0606 -0.1732  0.2488
  364MPD2     H 5451   0.081   0.075  10.524 -0.2192 -0.5700 -0.1507
  364MPD2    H1 5452   4.476   4.603  10.732  0.5914 -0.3256 -1.8887
  364MPD2    H2 5453   4.458   0.295  10.664  0.0462 -1.0059  0.1629
  364MPD2    H3 5454   4.371   0.099  10.752 -0.6651  2.8997 -1.2268
  364MPD2     N 5455   4.691   4.558  10.582 -0.4184 -0.0613  0.0823
  364MPD2    H5 5456   4.635   4.482  10.618  0.0514 -0.8703 -0.9005
  364MPD2    N1 5457   4.696   0.317  10.522  0.0519 -0.0488  0.3922
  364MPD2    H7 5458   4.632   0.395  10.509 -0.0606 -0.4422 -1.3412
  365TMC3    C1 5459   0.099   0.466  10.410  0.3097 -0.9824 -0.2876
  365TMC3    C2 5460   0.196   0.490  10.318  0.4950 -0.4669 -0.4189
  365TMC3    C3 5461   0.220   0.615  10.282  0.5720 -0.3648 -0.3287
  365TMC3    C4 5462   0.036   0.568  10.472  0.4232 -0.6068 -0.0330
  365TMC3    C5 5463   0.063   0.691  10.425 -0.3305 -0.0709 -0.3780
  365TMC3    C6 5464   0.153   0.721  10.327 -0.5956  0.0106  0.8943
  365TMC3     C 5465   0.085   0.333  10.452 -0.0263 -0.2323 -0.3033
  365TMC3     O 5466   0.175   0.255  10.442 -0.2267 -0.0782  0.2861
  365TMC3     H 5467   0.264   0.410  10.290  1.1802  0.0782 -0.3086
  365TMC3    H1 5468   4.692   0.552  10.556  1.4229  0.9523  1.0496
  365TMC3    H2 5469   0.170   0.823  10.295  0.0768 -0.4655 -0.2760
  365TMC3    C7 5470   4.715   0.800  10.490 -0.1890 -0.9899 -0.2892
  365TMC3    C8 5471   0.323   0.634  10.177  0.0093 -0.2943 -0.0595
  365TMC3    O1 5472   0.024   0.914  10.466 -0.4326 -0.0915 -0.5686
  365TMC3    O2 5473   0.365   0.748  10.156  0.3989 -0.0200 -0.2677
  366MPD2     C 5474   1.986   0.877  15.619  0.5745 -0.3539 -0.3951
  366MPD2    C1 5475   2.026   0.962  15.521  0.3763  0.6659  0.1804
  366MPD2    C2 5476   2.113   0.908  15.425  0.2057  0.0816  0.4237
  366MPD2    C3 5477   2.153   0.775  15.425 -0.3340  0.1079  0.0055
  366MPD2    C4 5478   2.092   0.693  15.514 -0.8165 -0.2766 -0.0534
  366MPD2    C5 5479   2.020   0.747  15.615  0.4480 -0.8777 -0.1772
  366MPD2     H 5480   2.144   0.969  15.341  0.1031 -1.1007 -0.4817
  366MPD2    H1 5481   2.091   0.585  15.515  1.6148 -0.2594  1.6582
  366MPD2    H2 5482   1.919   0.907  15.699 -0.3944 -0.9885 -0.9699
  366MPD2    H3 5483   1.965   0.681  15.680  1.1362 -1.3874 -0.1083
  366MPD2     N 5484   2.245   0.736  15.328 -0.0877  0.0078  0.3419
  366MPD2    H5 5485   2.292   0.801  15.266  1.3049 -0.2891  1.0999
  366MPD2    N1 5486   1.989   1.093  15.519  0.4986 -0.0377  0.8543
  366MPD2    H7 5487   1.926   1.125  15.591 -2.6004 -3.0831 -0.4952
  367TMC3    C1 5488   1.977   1.321  15.454  0.2186 -0.1414  0.2799
  367TMC3    C2 5489   2.027   1.364  15.577 -0.6418  0.0672 -0.1114
  367TMC3    C3 5490   2.023   1.498  15.602 -0.0331  0.0863  0.0856
  367TMC3    C4 5491   1.938   1.416  15.364 -0.6048  0.2482  0.7920
  367TMC3    C5 5492   1.937   1.553  15.398  0.2277  0.4134  0.4409
  367TMC3    C6 5493   1.982   1.596  15.519  0.3415  0.0815 -0.2386
  367TMC3     C 5494   2.004   1.183  15.415 -0.4561  0.2272 -0.4672
  367TMC3     O 5495   2.012   1.160  15.296 -0.2281  0.4429 -0.1052
  367TMC3     H 5496   2.075   1.291  15.641 -0.9115 -1.1982 -1.3290
  367TMC3    H1 5497   1.907   1.380  15.267 -2.4973  0.3415  1.3695
  367TMC3    H2 5498   1.980   1.700  15.550  1.2880 -0.0641  0.3197
  367TMC3    C7 5499   1.896   1.657  15.304  0.5101  0.0536  0.7683
  367TMC3    C8 5500   2.116   1.531  15.702  0.2924  0.0235 -0.4905
  367TMC3    O1 5501   1.845   1.756  15.357 -0.6171 -0.0730 -0.4559
  367TMC3    O2 5502   2.118   1.453  15.795  0.4692  0.0283 -0.3289
  368MPD2     C 5503   3.142   2.893  13.228 -0.1756 -0.6107 -0.2364
  368MPD2    C1 5504   3.217   2.990  13.165  0.1958  0.5261  0.3992
  368MPD2    C2 5505   3.349   2.993  13.183  0.4527 -0.0119  0.8185
  368MPD2    C3 5506   3.400   2.921  13.288  0.2377 -0.5031  0.1501
  368MPD2    C4 5507   3.330   2.835  13.366  0.1493 -0.3526  0.4831
  368MPD2    C5 5508   3.201   2.814  13.326 -0.2303 -0.5399 -0.5281
  368MPD2     H 5509   3.418   3.055  13.126  0.6652 -3.6069 -2.8251
  368MPD2    H1 5510   3.372   2.768  13.439 -0.8219 -2.5641 -0.9711
  368MPD2    H2 5511   3.036   2.884  13.208 -0.4600 -2.1448  1.9493
  368MPD2    H3 5512   3.136   2.734  13.362 -0.8101  0.2757  0.2526
  368MPD2     N 5513   3.535   2.942  13.306 -0.0220 -0.3845 -0.2445
  368MPD2    H5 5514   3.576   3.006  13.238  2.0969 -1.2063  0.2660
  368MPD2    N1 5515   3.154   3.075  13.072 -1.3368  0.2858  0.0082
  368MPD2    H7 5516   3.056   3.056  13.053 -1.5438  1.4850 -0.1711
  369TMC3    C1 5517   3.125   3.241  12.906  0.2807 -0.4290  0.7537
  369TMC3    C2 5518   3.182   3.325  12.809 -0.8248 -0.3456  0.0364
  369TMC3    C3 5519   3.097   3.388  12.717  0.4153  0.0704 -0.1237
  369TMC3    C4 5520   2.986   3.220  12.912  0.6323 -0.2567  0.6551
  369TMC3    C5 5521   2.909   3.287  12.818 -1.1886 -0.1908 -0.3103
  369TMC3    C6 5522   2.961   3.359  12.713 -0.2436 -1.0644 -0.1719
  369TMC3     C 5523   3.216   3.172  13.003  0.4076 -0.1785 -0.2052
  369TMC3     O 5524   3.328   3.217  13.018 -0.6127 -0.1822  0.1874
  369TMC3     H 5525   3.287   3.349  12.817  0.0755 -3.9626 -0.8158
  369TMC3    H1 5526   2.947   3.180  13.005 -2.2939 -1.6090 -1.1749
  369TMC3    H2 5527   2.897   3.421  12.651  0.2671  0.9969  1.3669
  369TMC3    C7 5528   2.789   3.350  12.866 -0.5401  0.5815  0.0799
  369TMC3    C8 5529   3.157   3.422  12.592  0.3078  0.3393  0.1560
  369TMC3    O1 5530   2.771   3.468  12.866  0.0120  0.2303 -0.1749
  369TMC3    O2 5531   3.085   3.463  12.503  0.5450 -0.2522  0.2990
  370TMC3    C1 5532   2.487   2.965  16.315 -0.6997  0.4898  0.5946
  370TMC3    C2 5533   2.500   2.932  16.452 -0.4908  0.4934 -0.8697
  370TMC3    C3 5534   2.477   2.802  16.486  0.7025  0.0075  0.0049
  370TMC3    C4 5535   2.466   2.876  16.224  0.6524  0.0842 -0.4365
  370TMC3    C5 5536   2.451   2.745  16.266  0.1641  0.2242  0.3027
  370TMC3    C6 5537   2.471   2.701  16.394  0.4037  0.0435  0.4619
  370TMC3     C 5538   2.562   3.081  16.260 -0.1309  0.4584 -0.4665
  370TMC3     O 5539   2.552   3.103  16.137 -0.0264 -0.2728  0.0296
  370TMC3     H 5540   2.505   3.015  16.522 -0.4371 -1.3432  1.3335
  370TMC3    H1 5541   2.473   2.891  16.117 -1.1694 -1.4928 -0.7766
  370TMC3    H2 5542   2.463   2.596  16.420  0.6785 -0.3744 -1.1648
  370TMC3    C7 5543   2.484   2.632  16.173 -0.1181 -0.3065  0.3785
  370TMC3    C8 5544   2.476   2.752  16.628  0.2562  0.0057  0.6708
  370TMC3    O1 5545   2.416   2.531  16.171 -0.0729 -0.3200 -0.1281
  370TMC3    O2 5546   2.477   2.629  16.652  0.2293 -0.1949 -0.6112
  371TMC3    C1 5547   4.200   1.443  15.877  0.0007 -0.2676  0.0745
  371TMC3    C2 5548   4.076   1.465  15.931 -0.2688 -0.8550 -0.3107
  371TMC3    C3 5549   4.016   1.586  15.916 -0.0102  0.3148  0.5530
  371TMC3    C4 5550   4.270   1.538  15.811 -0.0465  0.6819  0.9077
  371TMC3    C5 5551   4.200   1.649  15.783 -1.0747  0.3215 -0.1036
  371TMC3    C6 5552   4.077   1.684  15.837  0.1868  0.5719 -0.4225
  371TMC3     C 5553   4.258   1.312  15.871  0.5303 -0.0941  0.8388
  371TMC3     O 5554   4.379   1.304  15.855 -0.0210  0.1120  0.2639
  371TMC3     H 5555   4.024   1.386  15.984 -0.4703 -0.6722 -0.2375
  371TMC3    H1 5556   4.372   1.517  15.780 -0.0667  0.0886  1.2484
  371TMC3    H2 5557   4.014   1.763  15.798  2.5104  3.3452  1.4743
  371TMC3    C7 5558   4.252   1.753  15.697  0.1141  0.4918  0.1827
  371TMC3    C8 5559   3.870   1.598  15.956  0.0293 -0.4921 -0.0093
  371TMC3    O1 5560   4.216   1.870  15.717  0.7106 -0.3772  0.4588
  371TMC3    O2 5561   3.801   1.498  15.963  0.5521  0.0565  0.3868
  372MPD2     C 5562   3.871   3.209  13.673 -0.1582  0.2169 -0.0903
  372MPD2    C1 5563   3.945   3.099  13.708 -0.2248  0.1830 -0.9319
  372MPD2    C2 5564   3.877   2.985  13.749  0.0336  0.0624  0.7511
  372MPD2    C3 5565   3.742   2.985  13.775 -0.6069  0.5140  0.1363
  372MPD2    C4 5566   3.668   3.093  13.738 -0.5464 -0.1810  0.1806
  372MPD2    C5 5567   3.728   3.195  13.670  0.7249 -0.0936  0.0717
  372MPD2     H 5568   3.941   2.900  13.769 -0.0639 -0.5824 -1.6500
  372MPD2    H1 5569   3.560   3.091  13.744 -0.6206  2.0922 -0.1242
  372MPD2    H2 5570   3.913   3.297  13.624 -0.4554 -0.4993 -1.6381
  372MPD2    H3 5571   3.663   3.272  13.632 -0.4388 -0.0139  2.2037
  372MPD2     N 5572   3.685   2.856  13.798 -0.0228 -0.1646 -0.5395
  372MPD2    H5 5573   3.747   2.776  13.799  0.2404  0.0537  2.2419
  372MPD2    N1 5574   4.083   3.093  13.693  0.0906  0.1946 -0.3560
  372MPD2    H7 5575   4.132   3.007  13.712  1.0409  1.5219  3.2405
  373TMC3    C1 5576   3.528   2.694  13.850 -0.2061  0.0083  0.7924
  373TMC3    C2 5577   3.460   2.647  13.961 -0.2218 -0.0235 -0.3551
  373TMC3    C3 5578   3.439   2.512  13.967 -0.3745  0.0040 -0.7257
  373TMC3    C4 5579   3.585   2.604  13.773 -0.3699 -0.5966  0.2224
  373TMC3    C5 5580   3.580   2.469  13.788  0.6351 -0.5063  0.9915
  373TMC3    C6 5581   3.492   2.423  13.885  0.1043 -0.2796 -0.1532
  373TMC3     C 5582   3.553   2.830  13.822 -0.5102  0.1923  0.5943
  373TMC3     O 5583   3.467   2.905  13.856 -0.1356 -0.2410 -0.6423
  373TMC3     H 5584   3.408   2.714  14.029  0.3810  1.7225 -1.5959
  373TMC3    H1 5585   3.663   2.643  13.708  1.5541 -4.1767  0.4056
  373TMC3    H2 5586   3.475   2.318  13.905  0.2806 -0.5661 -1.4868
  373TMC3    C7 5587   3.702   2.401  13.745 -0.5362  0.8608 -0.3872
  373TMC3    C8 5588   3.431   2.455  14.100 -0.1984  0.3697  0.7239
  373TMC3    O1 5589   3.736   2.411  13.631  0.1509 -0.0378  0.6966
  373TMC3    O2 5590   3.353   2.365  14.112  1.0706  0.5138  0.3691
  374TMC3    C1 5591   0.008   2.754   9.844 -0.5079 -0.1944 -0.2277
  374TMC3    C2 5592   0.064   2.878   9.868  0.0361 -0.5949 -0.4047
  374TMC3    C3 5593   0.150   2.923   9.776 -0.7737 -0.4185 -0.3323
  374TMC3    C4 5594   0.032   2.681   9.731 -0.0897 -0.2789  0.3596
  374TMC3    C5 5595   0.119   2.731   9.637 -0.1269  0.2741 -0.8035
  374TMC3    C6 5596   0.177   2.859   9.655  0.2259  0.1711 -0.4794
  374TMC3     C 5597   4.604   2.730   9.921 -0.5087  0.4838  0.0159
  374TMC3     O 5598   4.551   2.828   9.970 -0.4697 -0.3530  0.2775
  374TMC3     H 5599   0.035   2.932   9.957 -0.4937 -1.1191 -0.2586
  374TMC3    H1 5600   4.705   2.588   9.705 -1.5670  0.6404 -0.1145
  374TMC3    H2 5601   0.234   2.914   9.582 -0.4221  1.4596 -0.0193
  374TMC3    C7 5602   0.164   2.645   9.529  0.5673  0.5358  0.2599
  374TMC3    C8 5603   0.236   3.035   9.795 -0.5274 -0.3367 -0.2732
  374TMC3    O1 5604   0.099   2.545   9.501 -0.5702 -0.6028 -0.1273
  374TMC3    O2 5605   0.271   3.101   9.696 -0.3107  0.5342 -0.6890
  375MPD2     C 5606   4.221   4.191  17.294 -0.0719 -0.2983 -0.4611
  375MPD2    C1 5607   4.157   4.155  17.175  0.3481  0.8275 -0.4164
  375MPD2    C2 5608   4.232   4.114  17.069  0.6631 -0.1877 -0.5814
  375MPD2    C3 5609   4.372   4.091  17.081 -0.4467  0.2841  0.1058
  375MPD2    C4 5610   4.436   4.130  17.203  0.5102  0.1608 -0.1646
  375MPD2    C5 5611   4.357   4.172  17.309 -0.1175 -0.1246  0.2626
  375MPD2     H 5612   4.185   4.100  16.972  0.4747  1.0532 -0.6616
  375MPD2    H1 5613   4.544   4.121  17.217  0.4566  0.3466  0.3672
  375MPD2    H2 5614   4.165   4.209  17.385  0.5240  0.1789 -0.1871
  375MPD2    H3 5615   4.406   4.197  17.402  0.9902  1.2607 -0.6740
  375MPD2     N 5616   4.456   4.056  16.975  0.5199 -0.0510 -0.2354
  375MPD2    H5 5617   4.557   4.049  16.990  0.4211  3.2412  2.1289
  375MPD2    N1 5618   4.015   4.166  17.155 -0.2152 -0.3372  0.0695
  375MPD2    H7 5619   3.973   4.128  17.071  0.3151 -1.3910  0.2796
  376TMC3    C1 5620   4.491   3.956  16.760 -0.1126  0.1732 -0.0596
  376TMC3    C2 5621   4.620   3.991  16.761 -0.4073  0.2682 -0.9924
  376TMC3    C3 5622   4.705   3.945  16.661 -0.7561  0.4987  0.4511
  376TMC3    C4 5623   4.443   3.867  16.670 -0.7352 -0.5184 -0.1447
  376TMC3    C5 5624   4.534   3.820  16.578 -0.6713  0.3204 -0.6127
  376TMC3    C6 5625   4.664   3.852  16.575 -0.3532  0.5291  0.3524
  376TMC3     C 5626   4.402   3.999  16.863 -0.0388 -0.4887  0.8137
  376TMC3     O 5627   4.290   3.955  16.835 -0.0697  0.0066 -0.2541
  376TMC3     H 5628   4.638   4.079  16.820 -0.9136 -1.3284  1.5501
  376TMC3    H1 5629   4.341   3.831  16.672 -1.4123  1.3857 -0.0247
  376TMC3    H2 5630   0.002   3.813  16.495  1.1612  0.5300  1.4990
  376TMC3    C7 5631   4.484   3.800  16.441  0.5596  0.6114 -0.1227
  376TMC3    C8 5632   0.081   4.034  16.604  0.4076 -0.1843 -0.2608
  376TMC3    O1 5633   4.546   3.856  16.356  0.1121 -0.2123  0.4607
  376TMC3    O2 5634   0.113   4.011  16.489  0.0012  0.4055 -0.1164
  377MPD2     C 5635   2.486   3.329  12.488 -0.0708  0.0920 -0.3480
  377MPD2    C1 5636   2.525   3.207  12.528 -0.0721 -0.0587  0.7476
  377MPD2    C2 5637   2.461   3.138  12.628  0.2602 -0.4097  0.3449
  377MPD2    C3 5638   2.368   3.207  12.707  0.1209 -0.4637 -0.5616
  377MPD2    C4 5639   2.336   3.336  12.674  0.2218 -0.4534 -0.3321
  377MPD2    C5 5640   2.391   3.393  12.561  0.0478 -0.0881  0.4980
  377MPD2     H 5641   2.482   3.034  12.646  0.3665 -0.2048  1.4500
  377MPD2    H1 5642   2.267   3.396  12.732  1.6499  2.4114 -1.5942
  377MPD2    H2 5643   2.530   3.379  12.403 -1.9411  0.7495 -0.9418
  377MPD2    H3 5644   2.374   3.497  12.534  0.5405  0.0856  0.8503
  377MPD2     N 5645   2.305   3.145  12.815 -0.4958  0.2164 -0.5140
  377MPD2    H5 5646   2.243   3.203  12.870 -1.6893  0.1399 -1.7846
  377MPD2    N1 5647   2.637   3.153  12.457 -0.2988 -0.0074 -0.1595
  377MPD2    H7 5648   2.675   3.210  12.382  2.6740 -0.6476  0.8390
  378TMC3    C1 5649   2.939   3.179  12.270  0.0908 -0.4343 -0.1130
  378TMC3    C2 5650   2.832   3.104  12.304  0.4857 -0.1434 -0.2709
  378TMC3    C3 5651   2.835   3.042  12.424 -0.4863  0.4474  0.5736
  378TMC3    C4 5652   3.046   3.184  12.352  0.3566 -1.1906  0.1605
  378TMC3    C5 5653   3.052   3.112  12.468  0.1337  0.5514  0.0195
  378TMC3    C6 5654   2.936   3.052  12.515  0.3903  0.4746 -0.1318
  378TMC3     C 5655   2.882   3.310  12.237  0.2588 -0.0645 -0.0760
  378TMC3     O 5656   2.770   3.315  12.283  0.1008 -0.1228 -0.2215
  378TMC3     H 5657   2.748   3.091  12.236 -1.2517  1.2468  1.6112
  378TMC3    H1 5658   3.126   3.256  12.335 -0.4195 -0.2674  0.4390
  378TMC3    H2 5659   2.924   2.998  12.608  2.1309  3.3721  1.7851
  378TMC3    C7 5660   3.179   3.078  12.525 -0.2405 -0.9564  0.3607
  378TMC3    C8 5661   2.703   3.034  12.480 -0.4428  0.4355  0.1207
  378TMC3    O1 5662   3.185   3.053  12.644  0.0660 -0.8569 -0.1437
  378TMC3    O2 5663   2.688   2.948  12.566  0.0529 -0.1756 -0.2001
  379MPD2     C 5664   3.023   1.351  16.613  0.0868  0.3251  0.8305
  379MPD2    C1 5665   3.050   1.280  16.498  0.5905  0.4201  0.0663
  379MPD2    C2 5666   3.121   1.159  16.514 -0.3675 -0.6262  0.1581
  379MPD2    C3 5667   3.172   1.120  16.640  0.5331  0.0748  0.1702
  379MPD2    C4 5668   3.150   1.200  16.750 -0.0294 -0.3478  0.7167
  379MPD2    C5 5669   3.072   1.313  16.734 -0.5361  0.0755 -0.6997
  379MPD2     H 5670   3.137   1.089  16.432  3.0324  1.6445 -1.0802
  379MPD2    H1 5671   3.181   1.172  16.850 -2.4941 -0.1681  1.5452
  379MPD2    H2 5672   2.961   1.439  16.603  0.2375  0.3768  0.3220
  379MPD2    H3 5673   3.044   1.370  16.822  0.5398 -0.9189  0.2945
  379MPD2     N 5674   3.231   0.994  16.668  0.1260 -0.0231 -0.4531
  379MPD2    H5 5675   3.274   0.990  16.760 -0.9768  0.2175  0.0667
  379MPD2    N1 5676   2.981   1.310  16.378  0.1023  0.4500 -0.4896
  379MPD2    H7 5677   2.926   1.394  16.392 -0.8217 -0.2989  0.4218
  380TMC3    C1 5678   2.915   1.297  16.141 -0.4856  0.3754 -0.1275
  380TMC3    C2 5679   2.925   1.221  16.026  0.5180 -0.3930  0.2266
  380TMC3    C3 5680   2.810   1.227  15.942  0.4221 -0.4488  0.1231
  380TMC3    C4 5681   2.810   1.383  16.155 -0.5361 -0.0211  0.3419
  380TMC3    C5 5682   2.698   1.396  16.069  0.5325  0.1159 -0.2293
  380TMC3    C6 5683   2.693   1.306  15.962  0.0210  0.5043  0.4422
  380TMC3     C 5684   3.003   1.248  16.255  0.2460 -0.6433  0.1944
  380TMC3     O 5685   3.081   1.159  16.232 -0.2143 -0.5579  0.1801
  380TMC3     H 5686   3.005   1.151  16.008  0.1655 -0.2766 -1.7526
  380TMC3    H1 5687   2.821   1.462  16.228  0.6542 -1.4217  1.6640
  380TMC3    H2 5688   2.618   1.308  15.884  1.6058 -0.9964 -1.1250
  380TMC3    C7 5689   2.654   1.534  16.041  0.1494 -0.5062 -0.0170
  380TMC3    C8 5690   2.835   1.190  15.803  0.2977 -0.0113 -0.7487
  380TMC3    O1 5691   2.744   1.616  16.053  0.4139 -0.4773 -0.0893
  380TMC3    O2 5692   2.732   1.180  15.733  0.2229 -0.2933 -0.1705
  381TMC3    C1 5693   2.751   2.096  16.606  0.5309  0.0364 -0.1481
  381TMC3    C2 5694   2.752   2.213  16.542 -0.2569  0.3971  0.0083
  381TMC3    C3 5695   2.688   2.315  16.606 -0.2346 -0.0110  0.7592
  381TMC3    C4 5696   2.686   2.078  16.722  0.4377 -0.3288 -0.0232
  381TMC3    C5 5697   2.615   2.183  16.775  0.2491 -0.1786 -0.1886
  381TMC3    C6 5698   2.624   2.312  16.723 -0.0260 -0.0481  0.5149
  381TMC3     C 5699   2.838   1.984  16.573  0.1904 -0.3513 -0.9956
  381TMC3     O 5700   2.815   1.877  16.623  0.1176 -0.4500  0.2810
  381TMC3     H 5701   2.797   2.230  16.444  0.2757 -1.7879 -0.1249
  381TMC3    H1 5702   2.680   1.982  16.773 -1.3501 -0.0327  0.2991
  381TMC3    H2 5703   2.567   2.395  16.763  0.3296  0.8065 -0.7754
  381TMC3    C7 5704   2.572   2.165  16.912 -0.1719 -0.1653 -0.0346
  381TMC3    C8 5705   2.730   2.441  16.555 -0.1751  1.0378 -0.4317
  381TMC3    O1 5706   2.620   2.077  16.980 -0.5143  0.3972  0.1557
  381TMC3    O2 5707   2.747   2.453  16.437  0.2680 -0.3071  0.4189
  382MPD2     C 5708   1.680   0.613  17.304 -0.3880  0.4980 -0.1446
  382MPD2    C1 5709   1.708   0.621  17.434 -0.0085  0.4545  0.2171
  382MPD2    C2 5710   1.663   0.519  17.523 -0.8354 -0.2597  0.1753
  382MPD2    C3 5711   1.613   0.398  17.473  0.3496  0.8493  0.3608
  382MPD2    C4 5712   1.580   0.399  17.336  0.2772  0.0175  0.1377
  382MPD2    C5 5713   1.619   0.504  17.257 -0.3880 -0.1540  0.1797
  382MPD2     H 5714   1.684   0.536  17.628  1.6122  2.1683 -0.6823
  382MPD2    H1 5715   1.537   0.313  17.285  0.2925 -0.7619  1.4453
  382MPD2    H2 5716   1.723   0.681  17.231 -0.1374  0.2703 -0.2120
  382MPD2    H3 5717   1.597   0.495  17.151 -1.1271 -1.5112  0.4568
  382MPD2     N 5718   1.575   0.292  17.553 -0.2070  0.2732  0.2387
  382MPD2    H5 5719   1.549   0.206  17.505 -0.4067  0.8117 -0.6176
  382MPD2    N1 5720   1.780   0.729  17.490 -0.6711  0.0376  0.4152
  382MPD2    H7 5721   1.773   0.741  17.591  0.3257 -1.4319  0.6592
  383TMC3    C1 5722   1.528   0.162   0.037 -0.4841  0.4405  0.5302
  383TMC3    C2 5723   1.453   0.080  17.650  0.2504 -0.4388 -0.3479
  383TMC3    C3 5724   1.410   4.686   0.013 -0.2159  0.1640  0.9373
  383TMC3    C4 5725   1.548   0.135   0.173 -0.3839 -0.0019 -0.1897
  383TMC3    C5 5726   1.499   0.020   0.224  0.1955 -0.2997 -0.0418
  383TMC3    C6 5727   1.427   4.656   0.146 -0.6210  0.0995  0.3483
  383TMC3     C 5728   1.569   0.292  17.687 -0.3986 -0.0915  0.6105
  383TMC3     O 5729   1.575   0.381   0.072  0.4479  0.0898  0.6116
  383TMC3     H 5730   1.437   0.091  17.543  0.3757 -0.6433 -0.3887
  383TMC3    H1 5731   1.604   0.201   0.238  1.7993 -0.8857 -1.1520
  383TMC3    H2 5732   1.386   4.564   0.185 -1.1356  0.5785  0.9293
  383TMC3    C7 5733   1.540   4.707   0.359 -0.3081 -0.6046  0.0805
  383TMC3    C8 5734   1.365   4.579  17.611  0.0465  0.5651 -1.0785
  383TMC3    O1 5735   1.589   0.073   0.428 -0.1621 -1.0580  0.0269
  383TMC3    O2 5736   1.350   4.610  17.496 -0.0516 -0.0563  0.2648
  384MPD2     C 5737   3.670   1.517  11.828  0.5237  1.0376 -0.1766
  384MPD2    C1 5738   3.726   1.486  11.945 -0.4371 -0.0150 -0.1938
  384MPD2    C2 5739   3.814   1.378  11.949 -0.2562 -1.0186 -0.0769
  384MPD2    C3 5740   3.831   1.289  11.843  0.1661 -0.7510  0.2941
  384MPD2    C4 5741   3.779   1.331  11.722  0.6142  0.2874  0.1793
  384MPD2    C5 5742   3.703   1.445  11.719  0.1396 -0.3008 -0.0116
  384MPD2     H 5743   3.855   1.355  12.046 -0.6564 -1.3959  0.0027
  384MPD2    H1 5744   3.800   1.275  11.631 -1.0477  0.1114 -0.0993
  384MPD2    H2 5745   3.602   1.598  11.804 -0.1101  0.3771 -0.6220
  384MPD2    H3 5746   3.658   1.470  11.623  2.0108  1.8364 -0.3241
  384MPD2     N 5747   3.917   1.177  11.857 -0.0682  0.0089  0.2264
  384MPD2    H5 5748   3.968   1.178  11.944  0.4601  0.5458 -0.0887
  384MPD2    N1 5749   3.699   1.546  12.074 -0.3174 -0.5018 -0.3098
  384MPD2    H7 5750   3.752   1.509  12.152  0.8127 -0.5113 -1.0863
  385TMC3    C1 5751   4.015   0.977  11.825  0.8736 -0.0786  0.0878
  385TMC3    C2 5752   3.976   0.848  11.819  0.8226  0.1027  0.7638
  385TMC3    C3 5753   4.010   0.766  11.926  0.7849  0.0256  0.1068
  385TMC3    C4 5754   4.099   1.019  11.926 -0.4237  0.0088  0.8535
  385TMC3    C5 5755   4.101   0.942  12.045 -0.0415 -0.5317 -0.5091
  385TMC3    C6 5756   4.062   0.810  12.043 -1.1385  0.0208 -0.5885
  385TMC3     C 5757   3.919   1.072  11.770 -0.5365 -0.5612  0.6056
  385TMC3     O 5758   3.846   1.038  11.682  0.2118  0.5077 -0.0381
  385TMC3     H 5759   3.917   0.815  11.735  1.1144  1.0443  0.1921
  385TMC3    H1 5760   4.153   1.113  11.930 -1.4463  0.5635  1.5746
  385TMC3    H2 5761   4.058   0.741  12.126 -0.3948  1.7360  0.8936
  385TMC3    C7 5762   4.029   1.020  12.146  0.0751  0.4663 -0.2877
  385TMC3    C8 5763   4.045   0.630  11.895 -0.2116 -0.2674  0.1057
  385TMC3    O1 5764   4.018   1.138  12.116  0.7764 -0.0424 -0.1811
  385TMC3    O2 5765   4.067   0.549  11.986 -0.4791  0.0691 -0.0185
  386TMC3    C1 5766   4.270   2.899  11.164 -0.1551 -0.9140  0.1147
  386TMC3    C2 5767   4.253   2.968  11.047 -0.2323  0.3608 -0.3554
  386TMC3    C3 5768   4.137   3.040  11.023 -0.0615  0.3226 -0.3284
  386TMC3    C4 5769   4.174   2.905  11.256  0.7187  0.8606 -0.0402
  386TMC3    C5 5770   4.058   2.969  11.227  0.0676  0.4795 -0.5455
  386TMC3    C6 5771   4.033   3.038  11.113 -0.8540 -0.2458 -0.4324
  386TMC3     C 5772   4.397   2.830  11.177  0.2506 -0.1467  0.2726
  386TMC3     O 5773   4.498   2.882  11.129 -0.0713 -0.7404  0.1181
  386TMC3     H 5774   4.336   2.971  10.977  0.9016 -2.5707  0.8232
  386TMC3    H1 5775   4.170   2.842  11.344 -1.6376 -0.4792 -1.1216
  386TMC3    H2 5776   3.956   3.114  11.106 -3.0493 -2.1661  3.2126
  386TMC3    C7 5777   3.975   3.023  11.334  0.0713 -0.3551 -0.7377
  386TMC3    C8 5778   4.144   3.168  10.947 -0.5809 -0.2464  0.7722
  386TMC3    O1 5779   3.858   3.035  11.306 -0.2080 -0.1321  0.1289
  386TMC3    O2 5780   4.042   3.239  10.947 -0.2531 -0.0112 -0.5495
  387MPD2     C 5781   2.281   3.488  10.123 -0.0553  0.3061  0.5726
  387MPD2    C1 5782   2.360   3.444  10.225  0.1447  0.1124 -0.1708
  387MPD2    C2 5783   2.394   3.308  10.220 -0.3871 -0.3373  0.4484
  387MPD2    C3 5784   2.352   3.228  10.117  0.6873 -0.3568 -0.2581
  387MPD2    C4 5785   2.278   3.274  10.013  0.1274 -0.0044  0.0045
  387MPD2    C5 5786   2.241   3.403  10.017  0.6931  0.6117 -0.0841
  387MPD2     H 5787   2.461   3.266  10.295 -2.0443 -2.1177  0.9249
  387MPD2    H1 5788   2.227   3.217   9.936  2.2515  0.8199 -1.9935
  387MPD2    H2 5789   2.246   3.590  10.125  2.2953  1.1137 -0.1886
  387MPD2    H3 5790   2.178   3.447   9.941  1.3848 -0.0780 -1.0504
  387MPD2     N 5791   2.382   3.090  10.138 -0.3455 -0.7394  0.2116
  387MPD2    H5 5792   2.421   3.065  10.229 -0.1600 -0.6322  0.1606
  387MPD2    N1 5793   2.410   3.525  10.323  0.1661  0.1626 -0.5465
  387MPD2    H7 5794   2.479   3.486  10.386 -1.6717 -0.6991  0.9619
  388TMC3    C1 5795   2.437   3.683  10.491 -0.5461 -0.3926 -0.8598
  388TMC3    C2 5796   2.392   3.782  10.568  0.6904 -0.2650 -0.1104
  388TMC3    C3 5797   2.424   3.784  10.702 -0.1297  0.3595  0.2237
  388TMC3    C4 5798   2.519   3.588  10.543  0.3644 -0.2965 -0.3232
  388TMC3    C5 5799   2.538   3.588  10.678 -0.8113  0.0815  0.3550
  388TMC3    C6 5800   2.488   3.680  10.765  0.0029  0.2491 -0.6804
  388TMC3     C 5801   2.370   3.650  10.367 -0.4024 -0.5134  0.8965
  388TMC3     O 5802   2.282   3.717  10.318  0.5165  0.0780 -1.1699
  388TMC3     H 5803   2.314   3.850  10.535  0.3748 -0.5925 -0.0487
  388TMC3    H1 5804   2.587   3.529  10.483 -0.1818  0.4034 -1.6526
  388TMC3    H2 5805   2.504   3.681  10.872  0.2644  1.0322 -0.7266
  388TMC3    C7 5806   2.629   3.485  10.728 -0.2518  0.0882 -0.1003
  388TMC3    C8 5807   2.412   3.903  10.782 -0.3376  0.7755 -0.2009
  388TMC3    O1 5808   2.724   3.504  10.805 -0.3514 -0.5673  0.7332
  388TMC3    O2 5809   2.385   3.889  10.902 -0.2080  0.2543 -0.5160
  389MPD2     C 5810   1.302   1.642  11.542 -0.6720 -0.2891 -0.2898
  389MPD2    C1 5811   1.202   1.644  11.450  0.0793 -0.4028  0.7599
  389MPD2    C2 5812   1.099   1.547  11.458 -0.2086  0.1010 -0.2605
  389MPD2    C3 5813   1.099   1.452  11.552 -0.7673 -0.1524  0.1758
  389MPD2    C4 5814   1.201   1.457  11.648  0.0833  0.2549 -0.1884
  389MPD2    C5 5815   1.302   1.550  11.643 -0.1233  0.2794 -0.1008
  389MPD2     H 5816   1.028   1.555  11.377 -0.0839  0.7835 -0.3045
  389MPD2    H1 5817   1.215   1.385  11.728  0.8703 -0.0164 -0.5687
  389MPD2    H2 5818   1.376   1.720  11.558 -0.7605  0.4817 -3.6613
  389MPD2    H3 5819   1.387   1.548  11.710 -0.6650 -1.2234  0.5646
  389MPD2     N 5820   1.002   1.349  11.562 -0.6041 -0.8432  0.1573
  389MPD2    H5 5821   0.993   1.309  11.655 -0.3020 -1.1989  0.0289
  389MPD2    N1 5822   1.192   1.748  11.357  0.3134 -0.2200  0.5932
  389MPD2    H7 5823   1.253   1.827  11.378 -0.9200  1.3322 -1.5665
  390TMC3    C1 5824   0.813   1.233  11.512 -0.2408 -0.5505  0.1472
  390TMC3    C2 5825   0.807   1.192  11.647  0.5155  0.1000 -0.0415
  390TMC3    C3 5826   0.685   1.187  11.710  0.2816  0.2555  0.5767
  390TMC3    C4 5827   0.694   1.277  11.454 -0.5228  0.7298  0.0920
  390TMC3    C5 5828   0.580   1.275  11.530 -0.8357  0.0869  0.1635
  390TMC3    C6 5829   0.571   1.241  11.656  0.1576  0.3534 -0.2835
  390TMC3     C 5830   0.932   1.302  11.460  0.0223 -0.5380 -0.6128
  390TMC3     O 5831   0.935   1.319  11.342  0.1831 -0.1569  0.1761
  390TMC3     H 5832   0.893   1.152  11.699  0.3849  0.3389  0.3616
  390TMC3    H1 5833   0.686   1.327  11.359 -0.0667  1.5682  0.4999
  390TMC3    H2 5834   0.477   1.219  11.705 -0.0679 -0.6143 -1.1345
  390TMC3    C7 5835   0.467   1.248  11.445 -0.7250  0.1730 -0.2363
  390TMC3    C8 5836   0.657   1.063  11.786  0.1059  0.2281  0.1958
  390TMC3    O1 5837   0.497   1.189  11.343  0.7603 -0.1510  0.0906
  390TMC3    O2 5838   0.680   0.951  11.745  0.0840  0.0357 -0.7255
  391MPD2     C 5839   0.304   3.090  11.321 -0.5157 -0.0189  0.1991
  391MPD2    C1 5840   0.411   3.180  11.312 -0.2177 -0.3743  0.1851
  391MPD2    C2 5841   0.459   3.227  11.190 -0.6023 -0.7453 -0.8684
  391MPD2    C3 5842   0.402   3.182  11.071  0.0250 -0.3237 -0.4861
  391MPD2    C4 5843   0.294   3.097  11.081 -0.0797  0.6261  0.4451
  391MPD2    C5 5844   0.242   3.063  11.200  0.0926  0.3479 -0.1892
  391MPD2     H 5845   0.527   3.312  11.189 -2.0412  0.4136 -1.2872
  391MPD2    H1 5846   0.247   3.054  10.993 -1.0752  2.5473  0.0245
  391MPD2    H2 5847   0.273   3.055  11.419 -0.1990 -1.3996 -0.1956
  391MPD2    H3 5848   0.150   3.007  11.212  0.9119 -0.7979  0.7503
  391MPD2     N 5849   0.473   3.212  10.950 -0.5753  0.0126  0.1804
  391MPD2    H5 5850   0.548   3.280  10.957  0.0212 -0.7623  1.3877
  391MPD2    N1 5851   0.484   3.207  11.428  0.6772 -0.9198 -0.8602
  391MPD2    H7 5852   0.437   3.175  11.512 -1.4654 -1.2418 -2.1726
  392TMC3    C1 5853   0.521   3.207  10.717 -0.5808  0.1286  0.7065
  392TMC3    C2 5854   0.504   3.145  10.594  0.0021 -0.8575  0.5019
  392TMC3    C3 5855   0.575   3.191  10.487  0.4538  0.7168 -0.1755
  392TMC3    C4 5856   0.595   3.323  10.725 -0.3575 -0.8894  0.6477
  392TMC3    C5 5857   0.670   3.360  10.620 -0.1554  0.0862  0.0324
  392TMC3    C6 5858   0.666   3.296  10.501 -0.0853 -0.5183 -0.4711
  392TMC3     C 5859   0.435   3.167  10.825 -0.0637  0.1887  0.3632
  392TMC3     O 5860   0.344   3.092  10.794 -0.2106 -0.3885 -0.1286
  392TMC3     H 5861   0.436   3.062  10.581 -1.4873  0.7680 -2.1134
  392TMC3    H1 5862   0.597   3.381  10.817  2.7139  2.3096 -1.4051
  392TMC3    H2 5863   0.734   3.327  10.423  1.1098 -0.5631  0.5480
  392TMC3    C7 5864   0.760   3.470  10.636  0.2793 -0.5924 -0.5104
  392TMC3    C8 5865   0.538   3.133  10.360 -0.3060 -0.3581  0.2949
  392TMC3    O1 5866   0.798   3.493  10.751 -0.6801  0.0640  0.1429
  392TMC3    O2 5867   0.454   3.043  10.356  0.0295 -0.5057 -0.5078
  393TMC3    C1 5868   4.202   0.972  10.363 -0.3069  0.3006 -0.5661
  393TMC3    C2 5869   4.082   0.920  10.413 -0.0736 -0.5824 -0.6135
  393TMC3    C3 5870   4.014   1.000  10.498 -0.1129 -0.2058  0.8957
  393TMC3    C4 5871   4.241   1.101  10.387  0.1357  0.2770  1.0402
  393TMC3    C5 5872   4.166   1.173  10.476  0.3053 -1.2539  0.0671
  393TMC3    C6 5873   4.054   1.126  10.529 -0.6888  0.0021  0.1061
  393TMC3     C 5874   4.254   0.914  10.240  0.0604 -0.0420  0.1753
  393TMC3     O 5875   4.334   0.985  10.172  0.6113 -0.1000  0.6612
  393TMC3     H 5876   4.041   0.822  10.391  0.1330 -0.7050 -0.4488
  393TMC3    H1 5877   4.346   1.126  10.376  0.1734  0.7799  2.6948
  393TMC3    H2 5878   3.982   1.188  10.581 -0.0067  1.7746 -1.0766
  393TMC3    C7 5879   4.228   1.265  10.569 -0.0917  0.1852 -0.1504
  393TMC3    C8 5880   3.937   0.929  10.597  0.2049  0.1268  0.2084
  393TMC3    O1 5881   4.163   1.290  10.668  0.1242  0.0046  0.3608
  393TMC3    O2 5882   3.876   0.829  10.557 -0.1172  0.6052 -0.3634
  394TMC3    C1 5883   1.147   1.879  11.162  0.6203  0.3332 -0.5457
  394TMC3    C2 5884   1.034   1.933  11.108  0.1648  0.2424 -0.0535
  394TMC3    C3 5885   1.056   2.045  11.037  0.0762 -0.2080 -0.5383
  394TMC3    C4 5886   1.282   1.917  11.141  0.2412 -0.3749 -0.4284
  394TMC3    C5 5887   1.293   2.029  11.064  0.0267 -0.1983 -0.0910
  394TMC3    C6 5888   1.185   2.091  11.009  0.2199  0.5160  0.0351
  394TMC3     C 5889   1.120   1.762  11.239 -0.9936 -0.4091  0.0019
  394TMC3     O 5890   1.025   1.696  11.199 -0.5747  0.4486 -0.5252
  394TMC3     H 5891   0.935   1.891  11.124 -0.5072  1.7931 -0.2207
  394TMC3    H1 5892   1.360   1.846  11.164  1.0118  0.2243 -1.1842
  394TMC3    H2 5893   1.193   2.176  10.942 -0.7452 -0.3358 -1.1558
  394TMC3    C7 5894   1.409   2.051  10.994 -0.6731 -0.0155 -0.5440
  394TMC3    C8 5895   0.963   2.049  10.923 -0.0661 -0.2154 -0.0919
  394TMC3    O1 5896   1.442   2.164  10.960 -0.4763 -0.1588 -0.2580
  394TMC3    O2 5897   0.856   2.105  10.924 -0.4339 -0.7645  0.2817
  395TMC3    C1 5898   0.705   3.817  14.837  0.2095  0.0284 -0.3970
  395TMC3    C2 5899   0.697   3.749  14.716  0.4438 -0.0421 -0.1168
  395TMC3    C3 5900   0.801   3.772  14.626  0.1952  0.0301  0.2681
  395TMC3    C4 5901   0.811   3.904  14.861  0.1651  0.1618 -0.0800
  395TMC3    C5 5902   0.913   3.923  14.772  0.3736 -0.0511 -0.1956
  395TMC3    C6 5903   0.914   3.851  14.657 -0.7788 -0.0928 -0.8492
  395TMC3     C 5904   0.610   3.800  14.945 -0.2732  0.8229 -0.5167
  395TMC3     O 5905   0.598   3.888  15.032  0.0013 -0.1634  0.5960
  395TMC3     H 5906   0.602   3.698  14.702  1.3904 -1.5416 -1.0393
  395TMC3    H1 5907   0.820   3.950  14.959 -1.9392 -0.3983  0.3751
  395TMC3    H2 5908   0.994   3.859  14.584 -0.9137  1.9427 -0.7747
  395TMC3    C7 5909   1.033   3.977  14.824 -0.2913  0.4982  0.6712
  395TMC3    C8 5910   0.764   3.755  14.484  0.5579  0.4140  0.2651
  395TMC3    O1 5911   1.024   4.060  14.917  0.0192 -0.4885 -0.6042
  395TMC3    O2 5912   0.804   3.842  14.406  0.3520  0.2439  0.0387
  396MPD2     C 5913   0.288   4.688   0.046 -0.4381 -0.1229  0.3500
  396MPD2    C1 5914   0.276   4.679  17.604  0.0534 -0.6470 -0.3311
  396MPD2    C2 5915   0.289   0.076  17.536 -0.3991  0.8837 -0.0940
  396MPD2    C3 5916   0.303   0.199  17.597 -0.2560 -0.3195 -0.7321
  396MPD2    C4 5917   0.308   0.205   0.039  0.2464  0.3799 -0.3166
  396MPD2    C5 5918   0.311   0.083   0.107 -0.3154  0.1991  0.7698
  396MPD2     H 5919   0.271   0.089  17.430 -2.5160 -0.8255  0.0497
  396MPD2    H1 5920   0.320   0.299   0.091  2.4181  0.5874 -1.1849
  396MPD2    H2 5921   0.299   4.601   0.110 -0.3661 -1.0712 -0.9676
  396MPD2    H3 5922   0.317   0.075   0.215  2.9469  0.8508  0.6242
  396MPD2     N 5923   0.307   0.311  17.510  0.0183 -0.3683 -0.2685
  396MPD2    H5 5924   0.285   0.280  17.416 -0.2077 -1.5748  0.1892
  396MPD2    N1 5925   0.264   4.559  17.545  0.3866 -0.1535 -0.1184
  396MPD2    H7 5926   0.245   4.482  17.609  0.5040 -1.1505 -1.2858
  397TMC3    C1 5927   0.270   4.383  17.379  0.6074 -0.5348 -0.7295
  397TMC3    C2 5928   0.219   4.372  17.251  0.1876  0.3262  0.1027
  397TMC3    C3 5929   0.152   4.262  17.216  0.3349  0.4610  1.0240
  397TMC3    C4 5930   0.218   4.300  17.471  0.2177 -0.5526  0.5925
  397TMC3    C5 5931   0.147   4.187  17.438 -0.3910 -0.0795  0.5663
  397TMC3    C6 5932   0.108   4.170  17.309 -0.7170  0.5567  0.7269
  397TMC3     C 5933   0.268   4.528  17.412  0.0957 -0.2583  0.1317
  397TMC3     O 5934   0.264   4.605  17.318 -0.7571 -0.4697 -0.0862
  397TMC3     H 5935   0.266   4.433  17.174 -2.9959  0.3784 -1.8129
  397TMC3    H1 5936   0.264   4.305  17.569  0.4264 -1.3400  0.5374
  397TMC3    H2 5937   0.050   4.082  17.285 -0.7955  0.9463 -0.5148
  397TMC3    C7 5938   0.159   4.070  17.519 -0.2698  0.0667  0.5200
  397TMC3    C8 5939   0.066   4.266  17.093 -0.3310 -0.2233 -0.4143
  397TMC3    O1 5940   0.137   3.962  17.464 -0.3042 -0.3726 -0.5413
  397TMC3    O2 5941   0.044   4.161  17.023  0.4284  0.2489 -0.3674
  398MPD2     C 5942   3.732   0.764  17.180 -0.5304 -0.5441  0.4155
  398MPD2    C1 5943   3.820   0.657  17.213 -0.2124 -0.0667 -0.1942
  398MPD2    C2 5944   3.956   0.665  17.178  0.2829 -0.3752 -0.1871
  398MPD2    C3 5945   4.002   0.780  17.127 -0.0644  0.4904  0.8746
  398MPD2    C4 5946   3.907   0.883  17.090  0.2676 -0.4004 -0.7311
  398MPD2    C5 5947   3.775   0.877  17.110 -0.1821  0.1834  0.2804
  398MPD2     H 5948   4.012   0.574  17.192 -1.2567 -1.7175 -2.7817
  398MPD2    H1 5949   3.937   0.969  17.030 -3.0033  0.6583 -0.8354
  398MPD2    H2 5950   3.626   0.749  17.196 -0.5939 -0.8478 -0.2958
  398MPD2    H3 5951   3.704   0.955  17.087  0.4711 -0.3902 -3.5978
  398MPD2     N 5952   4.137   0.792  17.106 -0.8154  0.2746 -0.1458
  398MPD2    H5 5953   4.179   0.702  17.091 -0.3666  0.3345  0.7875
  398MPD2    N1 5954   3.776   0.536  17.268  1.0439  0.6273 -0.2570
  398MPD2    H7 5955   3.836   0.456  17.250  2.1745  1.4836 -0.2742
  399TMC3    C1 5956   3.627   0.397  17.393 -0.1624  0.0360  0.9883
  399TMC3    C2 5957   3.686   0.288  17.323  0.6180  0.2291  0.0349
  399TMC3    C3 5958   3.684   0.169  17.391 -0.5450  0.4632  0.0813
  399TMC3    C4 5959   3.558   0.385  17.509  0.1865  0.0748 -0.3650
  399TMC3    C5 5960   3.562   0.263  17.565  0.3346  0.0166  0.0357
  399TMC3    C6 5961   3.622   0.154  17.510  0.5129 -0.2511  0.1473
  399TMC3     C 5962   3.678   0.536  17.364 -0.6691  0.3624  0.5784
  399TMC3     O 5963   3.620   0.632  17.416  1.0759  0.4659 -0.4135
  399TMC3     H 5964   3.729   0.300  17.224 -0.2393 -0.7833 -0.4649
  399TMC3    H1 5965   3.504   0.470  17.550 -0.0295 -0.9135  1.3926
  399TMC3    H2 5966   3.609   0.052  17.545 -0.4497  0.0270  0.5852
  399TMC3    C7 5967   3.500   0.234  17.692 -0.4539  0.5034 -0.1447
  399TMC3    C8 5968   3.718   0.048  17.317  0.1540  0.1862  0.1025
  399TMC3    O1 5969   3.514   0.123   0.047  0.2125 -0.1732  0.6059
  399TMC3    O2 5970   3.687   4.663  17.363 -0.5159 -0.2360 -0.5862
  400TMC3    C1 5971   1.585   4.336  17.351  0.3503 -0.0710 -0.0691
  400TMC3    C2 5972   1.565   4.218  17.292 -0.0878 -0.0785  0.0659
  400TMC3    C3 5973   1.475   4.207  17.189 -0.0407 -0.0748  0.0806
  400TMC3    C4 5974   1.513   4.449  17.307 -0.6236  0.0903 -0.0700
  400TMC3    C5 5975   1.424   4.424  17.208  0.1934 -0.5164 -0.6893
  400TMC3    C6 5976   1.400   4.308  17.145  0.0597 -0.6383 -0.1620
  400TMC3     C 5977   1.661   4.346  17.472 -0.3965 -0.3845  0.2375
  400TMC3     O 5978   1.678   4.237  17.523 -0.2539  0.0027 -0.3214
  400TMC3     H 5979   1.620   4.132  17.330 -0.5226 -0.8897 -1.1392
  400TMC3    H1 5980   1.542   4.545  17.350  0.6979  0.4708 -1.8425
  400TMC3    H2 5981   1.309   4.303  17.086 -0.1941 -4.2704  0.5313
  400TMC3    C7 5982   1.368   4.540  17.139  0.0296  0.5484 -0.5160
  400TMC3    C8 5983   1.423   4.077  17.189 -0.7712 -0.5012  0.1206
  400TMC3    O1 5984   1.326   4.535  17.025 -0.1787  0.0227  0.8602
  400TMC3    O2 5985   1.458   3.998  17.279 -0.4908  0.3005 -0.2755
  401MPD2     C 5986   4.528   2.854   0.880 -0.0100 -1.0364  0.5196
  401MPD2    C1 5987   4.649   2.867   0.833 -0.8093 -0.6578  0.9475
  401MPD2    C2 5988   4.669   2.859   0.694 -0.5814  0.8818  0.6653
  401MPD2    C3 5989   4.572   2.826   0.611  0.6582 -0.2498  0.7346
  401MPD2    C4 5990   4.444   2.808   0.654 -0.3575 -0.0723 -0.0585
  401MPD2    C5 5991   4.432   2.821   0.790  0.4472  0.4176 -0.1840
  401MPD2     H 5992   0.047   2.878   0.659 -1.4105 -0.2704 -2.4187
  401MPD2    H1 5993   4.360   2.775   0.595  0.5930 -0.5654 -1.1358
  401MPD2    H2 5994   4.496   2.841   0.983  0.3621 -0.8531  0.6568
  401MPD2    H3 5995   4.344   2.793   0.847 -0.8333  1.8641 -1.4430
  401MPD2     N 5996   4.593   2.817   0.470  0.0095 -0.4725  0.5296
  401MPD2    H5 5997   4.504   2.812   0.421  1.0314  2.5183 -1.5541
  401MPD2    N1 5998   0.046   2.880   0.909  0.2627  0.4964  0.3494
  401MPD2    H7 5999   0.136   2.906   0.870 -0.6862 -0.8652 -2.7474
  402TMC3    C1 6000   0.117   2.777   0.441 -0.2492  0.0054  0.5181
  402TMC3    C2 6001   0.121   2.655   0.505 -0.5009  0.3505 -0.9004
  402TMC3    C3 6002   0.237   2.626   0.566  0.2482  0.1703  0.0321
  402TMC3    C4 6003   0.228   2.848   0.412 -0.1325 -0.2682 -0.0560
  402TMC3    C5 6004   0.340   2.802   0.462  0.4328 -0.7107 -0.4273
  402TMC3    C6 6005   0.354   2.687   0.537  0.5500 -0.4168  0.1355
  402TMC3     C 6006   4.705   2.820   0.391  0.7319 -0.2057 -0.7769
  402TMC3     O 6007   4.720   2.853   0.272 -0.1703 -0.2742  0.3640
  402TMC3     H 6008   0.037   2.590   0.527 -1.0823  0.6158 -2.3389
  402TMC3    H1 6009   0.230   2.943   0.360 -0.2169  1.3452  2.8761
  402TMC3    H2 6010   0.445   2.675   0.595  1.0013 -2.7069 -1.0382
  402TMC3    C7 6011   0.436   2.911   0.482  0.5538  0.0073 -0.0248
  402TMC3    C8 6012   0.251   2.547   0.687  0.0537 -0.3554  0.2256
  402TMC3    O1 6013   0.402   3.001   0.555  0.0106  0.0739  0.4783
  402TMC3    O2 6014   0.363   2.520   0.729  0.4609 -0.0370  0.2273
  403MPD2     C 6015   3.389   1.279  13.569 -0.2229 -0.0397  0.9862
  403MPD2    C1 6016   3.464   1.177  13.634 -0.3827  0.0714 -0.3489
  403MPD2    C2 6017   3.570   1.223  13.710 -0.1455 -0.2692 -0.3800
  403MPD2    C3 6018   3.595   1.356  13.743 -0.1236 -0.2215 -0.2276
  403MPD2    C4 6019   3.509   1.449  13.689 -0.2451  0.3079  0.0307
  403MPD2    C5 6020   3.413   1.410  13.600 -0.2640 -0.5747  0.5393
  403MPD2     H 6021   3.622   1.147  13.768  2.1477  1.4772 -0.1699
  403MPD2    H1 6022   3.519   1.555  13.705 -0.7001  0.2615  0.6112
  403MPD2    H2 6023   3.306   1.254  13.504 -0.9798 -1.2983  2.4330
  403MPD2    H3 6024   3.348   1.480  13.549  0.2313  0.2626  1.0591
  403MPD2     N 6025   3.701   1.380  13.832  0.3938  0.2577 -0.4328
  403MPD2    H5 6026   3.756   1.301  13.864 -1.8550 -0.8015  0.7638
  403MPD2    N1 6027   3.421   1.050  13.622 -0.0888  0.8869  0.0959
  403MPD2    H7 6028   3.354   1.039  13.547 -0.3125 -3.2122  0.9027
  404TMC3    C1 6029   3.363   0.833  13.690  0.4607  0.7373 -0.4035
  404TMC3    C2 6030   3.309   0.776  13.806 -0.3581 -0.2145 -0.0260
  404TMC3    C3 6031   3.279   0.643  13.799  0.6763 -0.1178  0.6895
  404TMC3    C4 6032   3.390   0.753  13.580 -0.4106  0.1291 -0.3693
  404TMC3    C5 6033   3.360   0.620  13.583 -0.1997  0.1496  0.1921
  404TMC3    C6 6034   3.306   0.563  13.694  0.2216  0.0681 -0.4493
  404TMC3     C 6035   3.448   0.947  13.708 -0.1795  0.4176 -0.1272
  404TMC3     O 6036   3.517   0.939  13.807 -0.4487 -0.8169 -0.0175
  404TMC3     H 6037   3.317   0.829  13.899 -0.5539  0.1905 -0.2397
  404TMC3    H1 6038   3.448   0.795  13.498 -3.1392  3.0309 -0.8281
  404TMC3    H2 6039   3.311   0.454  13.696 -1.6272  0.0146  2.3358
  404TMC3    C7 6040   3.402   0.537  13.466  0.6779  0.0807  0.0871
  404TMC3    C8 6041   3.238   0.582  13.919 -0.1820 -0.7098  0.7579
  404TMC3    O1 6042   3.432   0.425  13.491 -0.1450 -0.1369 -0.5113
  404TMC3    O2 6043   3.277   0.465  13.930 -0.2934  0.1479 -0.5311
  405MPD2     C 6044   3.586   1.771  14.787  0.7801  0.2106 -0.1707
  405MPD2    C1 6045   3.613   1.662  14.706  0.5779  0.0750  0.2927
  405MPD2    C2 6046   3.548   1.656  14.588  0.1536 -0.7420 -0.4340
  405MPD2    C3 6047   3.474   1.758  14.540 -0.1247 -0.3079  0.4998
  405MPD2    C4 6048   3.450   1.870  14.619 -0.3574 -0.1673  0.1615
  405MPD2    C5 6049   3.503   1.873  14.743 -1.0973 -0.0765 -0.0915
  405MPD2     H 6050   3.562   1.564  14.532 -1.0803 -2.0187  1.3535
  405MPD2    H1 6051   3.382   1.949  14.589  1.5581  1.7751  0.9029
  405MPD2    H2 6052   3.626   1.779  14.888  0.9206 -0.0139 -0.2067
  405MPD2    H3 6053   3.472   1.947  14.816 -1.0733  1.5700 -1.7286
  405MPD2     N 6054   3.410   1.755  14.416 -0.2779 -0.2059  0.4874
  405MPD2    H5 6055   3.343   1.830  14.395 -0.1568 -0.5296 -1.1029
  405MPD2    N1 6056   3.704   1.564  14.754 -0.0080  0.1423  0.2447
  405MPD2    H7 6057   3.756   1.586  14.838 -1.2435  1.8382  0.5503
  406TMC3    C1 6058   3.096   1.678  14.173 -0.4502 -0.2401  0.0901
  406TMC3    C2 6059   3.085   1.551  14.129 -0.4812 -0.4603  1.0892
  406TMC3    C3 6060   3.193   1.478  14.122  0.3267  0.1001 -0.0710
  406TMC3    C4 6061   3.210   1.734  14.227  0.7090 -0.6310 -0.2781
  406TMC3    C5 6062   3.319   1.657  14.212 -0.1498  0.0225 -0.1969
  406TMC3    C6 6063   3.317   1.535  14.147 -0.9374  0.3946 -0.4436
  406TMC3     C 6064   2.981   1.765  14.138 -0.9958 -0.2766 -0.2184
  406TMC3     O 6065   2.913   1.730  14.045 -0.1303 -0.1051 -0.1286
  406TMC3     H 6066   2.990   1.499  14.119  0.3274 -1.3845 -1.7920
  406TMC3    H1 6067   3.214   1.838  14.261  0.6247  0.0367 -2.3250
  406TMC3    H2 6068   3.414   1.496  14.118 -1.9627 -0.9383 -2.0526
  406TMC3    C7 6069   3.427   1.667  14.312 -0.1683  0.0257 -0.5373
  406TMC3    C8 6070   3.168   1.351  14.186  0.1307  0.2802  0.3745
  406TMC3    O1 6071   3.496   1.566  14.315  0.1577  0.0197 -0.0146
  406TMC3    O2 6072   3.062   1.291  14.176 -0.8233  0.3708  0.5740
  407MPD2     C 6073   1.812   2.912   9.889  0.3651 -0.5711 -0.1814
  407MPD2    C1 6074   1.941   2.933   9.937 -0.4493 -0.3370 -0.5962
  407MPD2    C2 6075   1.963   3.000  10.050  0.4950  0.3224  0.1961
  407MPD2    C3 6076   1.854   3.031  10.132 -0.6935  0.1025 -0.1825
  407MPD2    C4 6077   1.722   3.003  10.089 -0.0244  0.0378 -0.3687
  407MPD2    C5 6078   1.707   2.942   9.970 -0.0821  0.3594  0.3519
  407MPD2     H 6079   2.064   3.024  10.082  0.3956 -0.8728  1.4373
  407MPD2    H1 6080   1.637   3.030  10.151 -0.4715 -2.9491  0.3327
  407MPD2    H2 6081   1.792   2.870   9.791 -2.2108 -1.3015  0.6370
  407MPD2    H3 6082   1.608   2.923   9.928 -0.3432  0.4288  0.9379
  407MPD2     N 6083   1.872   3.115  10.246 -0.0620 -0.5223  0.0732
  407MPD2    H5 6084   1.793   3.176  10.264  1.4851  1.7804 -0.9831
  407MPD2    N1 6085   2.050   2.903   9.865  0.8898 -0.6412  0.3756
  407MPD2    H7 6086   2.140   2.932   9.902  1.5889 -1.4263 -0.7220
  408TMC3    C1 6087   2.199   2.806   9.721  0.3827 -0.5287  0.2386
  408TMC3    C2 6088   2.241   2.673   9.722  0.5590  0.2679 -0.1632
  408TMC3    C3 6089   2.371   2.643   9.707 -0.0241  0.1491 -0.5873
  408TMC3    C4 6090   2.283   2.906   9.700 -0.4910  0.0863  0.1851
  408TMC3    C5 6091   2.420   2.871   9.689  0.0245 -0.7596  0.1239
  408TMC3    C6 6092   2.459   2.742   9.667 -0.4608 -0.2411  0.6906
  408TMC3     C 6093   2.060   2.827   9.751  0.1225 -0.7999 -0.2997
  408TMC3     O 6094   1.981   2.750   9.703 -0.3439  0.3367 -0.3939
  408TMC3     H 6095   2.173   2.600   9.763  1.5294 -1.2096 -1.1673
  408TMC3    H1 6096   2.245   3.005   9.722  0.5034 -0.3031  3.7039
  408TMC3    H2 6097   2.561   2.720   9.638 -0.2175 -1.3930  2.4686
  408TMC3    C7 6098   2.529   2.965   9.721 -0.6741 -0.2016  0.5280
  408TMC3    C8 6099   2.437   2.545   9.788  0.4248  0.0122 -0.6725
  408TMC3    O1 6100   2.621   2.910   9.786  0.0872 -0.0226  0.0664
  408TMC3    O2 6101   2.382   2.434   9.802  0.5756 -0.1423 -0.6487
  409MPD2     C 6102   0.451   3.520  17.143 -0.1827 -0.2419  0.1391
  409MPD2    C1 6103   0.505   3.586  17.251 -0.4269  0.6105 -0.2336
  409MPD2    C2 6104   0.576   3.704  17.224 -0.1808  0.6588 -0.5890
  409MPD2    C3 6105   0.600   3.750  17.091 -0.6434  0.6867  0.0568
  409MPD2    C4 6106   0.550   3.674  16.989  0.5686 -0.9696 -0.3428
  409MPD2    C5 6107   0.477   3.561  17.018  0.4269 -0.0224  0.0172
  409MPD2     H 6108   0.618   3.752  17.312  1.2162  0.7468 -1.2967
  409MPD2    H1 6109   0.555   3.712  16.888 -2.7325 -2.0444 -0.9157
  409MPD2    H2 6110   0.379   3.441  17.161 -0.2636 -0.6434 -1.9529
  409MPD2    H3 6111   0.431   3.506  16.936 -1.4478  0.4656  0.7430
  409MPD2     N 6112   0.678   3.863  17.068 -0.0581 -0.7923 -0.0915
  409MPD2    H5 6113   0.685   3.897  16.972 -0.4996  0.4867  0.3358
  409MPD2    N1 6114   0.494   3.538  17.388  0.4633  0.2276 -0.3840
  409MPD2    H7 6115   0.544   3.599  17.452 -2.8557  0.3037  2.0916
  410TMC3    C1 6116   0.808   4.056  17.119  0.8869  0.3066  0.9152
  410TMC3    C2 6117   0.890   4.115  17.206 -0.2153 -0.0512  0.3547
  410TMC3    C3 6118   0.959   4.226  17.170 -0.4312 -0.3145 -0.5305
  410TMC3    C4 6119   0.774   4.110  16.999  0.6442 -0.2693 -0.1428
  410TMC3    C5 6120   0.834   4.227  16.962 -0.1190 -0.1987  0.6823
  410TMC3    C6 6121   0.929   4.283  17.051 -0.1348 -0.0778 -0.7659
  410TMC3     C 6122   0.736   3.941  17.168 -0.9219  0.0000  0.0781
  410TMC3     O 6123   0.760   3.920  17.287 -0.1571 -0.5923 -0.5179
  410TMC3     H 6124   0.904   4.074  17.305 -1.9910  0.6950  0.9216
  410TMC3    H1 6125   0.698   4.063  16.937 -3.0188  1.7649  2.7543
  410TMC3    H2 6126   0.983   4.372  17.022 -2.0334  0.7808 -1.6225
  410TMC3    C7 6127   0.842   4.241  16.820  0.5751 -0.1870  0.6103
  410TMC3    C8 6128   1.055   4.283  17.263 -0.4725  0.3613  0.2651
  410TMC3    O1 6129   0.847   4.140  16.752 -0.7285  0.1879 -0.2061
  410TMC3    O2 6130   1.101   4.393  17.241  0.0624  0.4005 -0.0332
  411MPD2     C 6131   1.517   0.052  14.495 -0.0893  0.3916 -0.2506
  411MPD2    C1 6132   1.384   0.069  14.459  0.3872  0.3508 -0.1754
  411MPD2    C2 6133   1.313   4.684  14.427  0.1912 -0.2472 -0.1849
  411MPD2    C3 6134   1.357   4.555  14.435  0.3793  0.0238 -1.6047
  411MPD2    C4 6135   1.490   4.536  14.459 -0.7833  0.1610  0.0423
  411MPD2    C5 6136   1.570   4.648  14.489  0.5909  0.1246 -0.0057
  411MPD2     H 6137   1.222   4.691  14.369  1.0497 -0.9034 -1.6288
  411MPD2    H1 6138   1.527   4.436  14.478  0.9997  0.8574  0.3119
  411MPD2    H2 6139   1.582   0.135  14.522  0.4278  0.1939 -0.8984
  411MPD2    H3 6140   1.672   4.632  14.520  0.3663  0.4318  0.8934
  411MPD2     N 6141   1.272   4.443  14.394  0.4594 -0.5524 -0.2617
  411MPD2    H5 6142   1.327   4.358  14.393  0.6161 -0.4222 -3.0321
  411MPD2    N1 6143   1.328   0.197  14.480 -0.2328  0.3436  0.7781
  411MPD2    H7 6144   1.388   0.266  14.526  0.1001  0.3932  0.2683
  412TMC3    C1 6145   1.068   4.329  14.378 -0.7899 -0.5599  0.2038
  412TMC3    C2 6146   0.950   4.311  14.448  0.1940  0.4509 -0.4120
  412TMC3    C3 6147   0.858   4.228  14.399 -0.0189  0.9805  0.1463
  412TMC3    C4 6148   1.081   4.263  14.258  0.0706 -0.5343  0.3709
  412TMC3    C5 6149   0.982   4.178  14.210  0.5430  0.0753 -0.1996
  412TMC3    C6 6150   0.872   4.157  14.282 -0.2937  0.2349  0.3332
  412TMC3     C 6151   1.133   4.455  14.383  0.5447  0.4141 -0.5870
  412TMC3     O 6152   1.064   4.544  14.434 -0.2873  0.2807  0.6083
  412TMC3     H 6153   0.928   4.367  14.538 -0.2430 -0.8527  0.2785
  412TMC3    H1 6154   1.176   4.279  14.208 -0.8676  0.4949 -1.0885
  412TMC3    H2 6155   0.794   4.088  14.251 -0.2372  1.0664 -1.6773
  412TMC3    C7 6156   0.961   4.202  14.067 -0.7098 -0.1167  0.5035
  412TMC3    C8 6157   0.722   4.244  14.456  1.3334  0.1884 -0.0237
  412TMC3    O1 6158   0.853   4.155  14.033  0.6908 -0.3486 -0.1728
  412TMC3    O2 6159   0.682   4.359  14.473  0.9411 -0.8404 -0.1715
  413MPD2     C 6160   2.479   2.751  15.584  0.5081  0.7511  0.2501
  413MPD2    C1 6161   2.476   2.758  15.449  0.1038  0.1662  0.8426
  413MPD2    C2 6162   2.584   2.710  15.374 -0.0158 -0.3041  0.2016
  413MPD2    C3 6163   2.701   2.669  15.432 -0.4071  0.2725  0.3681
  413MPD2    C4 6164   2.697   2.664  15.573 -0.0995  0.0924 -0.3995
  413MPD2    C5 6165   2.588   2.695  15.646  0.7190 -0.3653 -0.1021
  413MPD2     H 6166   2.569   2.714  15.267 -0.2403 -1.9856  0.1719
  413MPD2    H1 6167   2.770   2.605  15.628 -1.2896 -0.7736  0.2370
  413MPD2    H2 6168   2.406   2.800  15.647 -1.7565 -2.2791 -0.0505
  413MPD2    H3 6169   2.602   2.692  15.753 -1.1189  0.8955  0.1693
  413MPD2     N 6170   2.816   2.631  15.358 -0.0207 -0.0891 -0.2079
  413MPD2    H5 6171   2.811   2.642  15.257 -0.8068  2.9014  0.1543
  413MPD2    N1 6172   2.350   2.809  15.391 -0.2363  0.1915 -0.3264
  413MPD2    H7 6173   2.280   2.841  15.456 -2.1153  1.3705 -2.9277
  414TMC3    C1 6174   3.027   2.524  15.330  1.3913 -0.2592  0.5234
  414TMC3    C2 6175   3.082   2.406  15.370 -0.3440  0.1682  0.5866
  414TMC3    C3 6176   3.123   2.324  15.273 -0.1821  0.3574  0.2017
  414TMC3    C4 6177   3.022   2.568  15.200 -0.2268  0.0766 -0.5397
  414TMC3    C5 6178   3.066   2.480  15.105 -0.2570 -0.0206  0.1280
  414TMC3    C6 6179   3.112   2.359  15.144  0.3048 -0.7065 -0.1706
  414TMC3     C 6180   2.930   2.585  15.420  0.8057 -0.4589 -0.0342
  414TMC3     O 6181   2.962   2.575  15.536  0.5177 -0.1561  0.4065
  414TMC3     H 6182   3.069   2.363  15.468  0.0184 -3.1934 -0.8468
  414TMC3    H1 6183   2.978   2.665  15.182  2.4696  0.7103 -3.7692
  414TMC3    H2 6184   3.149   2.284  15.075 -1.1830  1.9647 -3.8355
  414TMC3    C7 6185   3.048   2.521  14.969 -0.5729 -0.2504  1.2528
  414TMC3    C8 6186   3.204   2.211  15.307  0.0707  0.1923 -0.1693
  414TMC3    O1 6187   2.983   2.620  14.943  0.0840  0.2185  0.6105
  414TMC3    O2 6188   3.213   2.125  15.222  0.3370 -0.1328  0.3740
  415TMC3    C1 6189   4.340   4.165   9.685  0.7783 -0.4179 -0.0499
  415TMC3    C2 6190   4.338   4.302   9.691  0.5646  0.4349 -0.0858
  415TMC3    C3 6191   4.246   4.373   9.612  0.0451  0.0129 -0.0178
  415TMC3    C4 6192   4.253   4.099   9.606  0.3249  0.5396  0.3633
  415TMC3    C5 6193   4.182   4.178   9.522  0.3515 -0.5029  0.0021
  415TMC3    C6 6194   4.178   4.311   9.518 -0.3667  0.4819 -0.3361
  415TMC3     C 6195   4.426   4.082   9.766  1.1693 -0.1128  0.2846
  415TMC3     O 6196   4.399   3.960   9.757 -0.4562 -0.0289  0.3740
  415TMC3     H 6197   4.395   4.356   9.767 -1.7814  0.9960  1.2679
  415TMC3    H1 6198   4.254   3.993   9.588 -1.2857  0.5867  0.0339
  415TMC3    H2 6199   4.102   4.360   9.458 -1.4357 -1.8222 -0.8660
  415TMC3    C7 6200   4.062   4.114   9.476 -0.0026 -0.0108  0.7714
  415TMC3    C8 6201   4.223   4.514   9.633 -0.2250 -0.1028 -0.1055
  415TMC3    O1 6202   4.005   4.159   9.377 -0.0427 -0.7550 -0.3460
  415TMC3    O2 6203   4.109   4.561   9.627 -0.1721  0.1553  0.0777
  416MPD2     C 6204   0.669   4.192  11.843 -0.3489  0.3646 -0.4000
  416MPD2    C1 6205   0.640   4.265  11.732 -0.3820  0.1169 -0.0990
  416MPD2    C2 6206   0.704   4.241  11.617  0.5367  0.5085 -0.1023
  416MPD2    C3 6207   0.793   4.136  11.603 -0.6022 -0.5445  0.5777
  416MPD2    C4 6208   0.833   4.070  11.717  0.8708 -0.5219  1.0850
  416MPD2    C5 6209   0.775   4.100  11.836  0.8969  0.2310  0.1224
  416MPD2     H 6210   0.678   4.298  11.528 -1.1454  0.1435  0.1673
  416MPD2    H1 6211   0.918   4.002  11.719  2.1746  1.0897 -0.3030
  416MPD2    H2 6212   0.632   4.216  11.942  0.0035 -1.4620  0.1720
  416MPD2    H3 6213   0.799   4.061  11.934 -0.3047 -1.3454 -0.2169
  416MPD2     N 6214   0.852   4.094  11.481  0.1240 -0.0081  0.4014
  416MPD2    H5 6215   0.902   4.005  11.483  0.5352  0.2067 -0.2982
  416MPD2    N1 6216   0.544   4.365  11.752 -0.0430 -0.0828  0.0710
  416MPD2    H7 6217   0.511   4.381  11.846 -1.8208 -1.0092 -0.3892
  417TMC3    C1 6218   0.394   4.544  11.715  0.0229 -0.6284  0.4518
  417TMC3    C2 6219   0.379   4.566  11.847  0.4783  0.1418 -0.1497
  417TMC3    C3 6220   0.286   4.656  11.890 -0.2687  0.6380 -0.4535
  417TMC3    C4 6221   0.316   4.601  11.626  0.1004  0.3058 -0.2953
  417TMC3    C5 6222   0.220   4.688  11.671 -0.0094  0.4998 -0.3420
  417TMC3    C6 6223   0.198   4.719  11.803  0.4654  0.8807  0.2325
  417TMC3     C 6224   0.500   4.452  11.658 -0.3410  0.7947  0.3247
  417TMC3     O 6225   0.518   4.460  11.538 -0.0972 -0.1790  0.1276
  417TMC3     H 6226   0.457   4.533  11.916 -0.8085  0.0590  1.2548
  417TMC3    H1 6227   0.343   4.584  11.523  0.1375 -1.6930  0.0533
  417TMC3    H2 6228   0.133   0.079  11.829 -2.1876 -0.7314 -1.3203
  417TMC3    C7 6229   0.143   0.023  11.564  0.9925  0.0391  0.2379
  417TMC3    C8 6230   0.242   4.651  12.025 -0.8271 -0.4794  0.0125
  417TMC3    O1 6231   0.199   0.032  11.458 -0.5819  0.2375 -0.1555
  417TMC3    O2 6232   0.161   0.015  12.056  0.3641 -0.1875 -0.3401
  418TMC3    C1 6233   4.430   0.677  17.228  0.1506  0.1590 -0.0141
  418TMC3    C2 6234   4.406   0.767  17.125  0.1536 -0.1365  0.8523
  418TMC3    C3 6235   4.347   0.887  17.162  0.3306  0.6280  0.6524
  418TMC3    C4 6236   4.426   0.711  17.353  0.0482  0.0910 -0.7346
  418TMC3    C5 6237   4.378   0.836  17.388  0.9665 -0.7713  0.2474
  418TMC3    C6 6238   4.339   0.927  17.293 -0.4894 -0.2560 -0.0067
  418TMC3     C 6239   4.513   0.562  17.190  0.1663 -0.0488 -0.3025
  418TMC3     O 6240   4.584   0.582  17.095 -0.1708  0.7574 -0.7223
  418TMC3     H 6241   4.398   0.741  17.020  1.2898  1.2422  0.4260
  418TMC3    H1 6242   4.445   0.646  17.438 -0.5180  2.4451  1.1869
  418TMC3    H2 6243   4.299   1.025  17.319 -1.0131  0.0403 -1.9665
  418TMC3    C7 6244   4.303   0.833  17.508 -0.0661 -0.4042 -0.1597
  418TMC3    C8 6245   4.209   0.908  17.111  0.8623  0.1302  0.2889
  418TMC3    O1 6246   4.349   0.767  17.603  0.0727 -0.2239  0.3575
  418TMC3    O2 6247   4.156   1.011  17.146 -0.0778  0.9498 -0.1692
  419MPD2     C 6248   2.434   0.249  12.460  0.5711  0.9278  0.0057
  419MPD2    C1 6249   2.299   0.290  12.477 -0.2721 -0.7975 -0.5193
  419MPD2    C2 6250   2.229   0.265  12.599 -0.0328 -0.0431  0.4797
  419MPD2    C3 6251   2.302   0.206  12.702  0.8646 -0.0762 -0.0609
  419MPD2    C4 6252   2.428   0.168  12.676  0.6602 -0.0035 -0.0238
  419MPD2    C5 6253   2.496   0.192  12.564 -0.4250 -0.6724 -0.6439
  419MPD2     H 6254   2.127   0.300  12.611  0.4832  1.1792  1.3476
  419MPD2    H1 6255   2.487   0.115  12.749  0.3009  1.2331  1.1702
  419MPD2    H2 6256   2.492   0.265  12.370 -2.5051 -1.2604 -2.3369
  419MPD2    H3 6257   2.601   0.164  12.562  0.1715  1.4125  1.5870
  419MPD2     N 6258   2.248   0.169  12.824  0.2265 -0.7688  0.0718
  419MPD2    H5 6259   2.312   0.124  12.888  0.4051  0.7721  0.9778
  419MPD2    N1 6260   2.237   0.372  12.380  0.6037  0.5342  0.3324
  419MPD2    H7 6261   2.143   0.405  12.397  0.2902 -0.7904  1.1359
  420TMC3    C1 6262   2.108   0.180  13.009  0.3143  0.1771 -0.2162
  420TMC3    C2 6263   1.973   0.177  13.041  0.6955  0.2094 -0.5368
  420TMC3    C3 6264   1.937   0.175  13.173 -0.2950  0.9947 -0.5970
  420TMC3    C4 6265   2.205   0.191  13.098  0.2786 -0.7119  0.3083
  420TMC3    C5 6266   2.164   0.184  13.228  0.4962  0.1324  0.0237
  420TMC3    C6 6267   2.033   0.178  13.269 -0.6599 -0.2805  0.1054
  420TMC3     C 6268   2.123   0.194  12.867 -0.3735 -0.3793 -0.1453
  420TMC3     O 6269   2.027   0.235  12.809  0.3347  0.4273 -0.5448
  420TMC3     H 6270   1.889   0.170  12.973 -0.2779 -1.6050  0.8676
  420TMC3    H1 6271   2.308   0.209  13.069 -0.8982  3.2976 -1.3807
  420TMC3    H2 6272   2.005   0.163  13.372 -0.8845  0.7754  0.1907
  420TMC3    C7 6273   2.255   0.098  13.310  0.3777 -0.3909 -0.2103
  420TMC3    C8 6274   1.800   0.162  13.216  0.2252 -0.2083 -0.2861
  420TMC3    O1 6275   2.207   0.049  13.412 -0.1465  0.0907  0.2609
  420TMC3    O2 6276   1.724   0.103  13.140 -0.6369 -0.0496 -0.0285
  421TMC3    C1 6277   3.850   1.498  13.971  0.2466  0.0934 -0.2546
  421TMC3    C2 6278   3.864   1.583  14.075  0.5736  0.0170  0.2318
  421TMC3    C3 6279   3.982   1.579  14.144 -0.4118 -0.0435  0.0732
  421TMC3    C4 6280   3.947   1.404  13.940  0.6566 -0.5105 -0.0245
  421TMC3    C5 6281   4.065   1.407  14.014 -0.2737  0.4610 -0.2413
  421TMC3    C6 6282   4.085   1.500  14.110  0.2385 -0.1407 -0.5315
  421TMC3     C 6283   3.725   1.501  13.894 -0.3858  0.4055  0.1634
  421TMC3     O 6284   3.648   1.591  13.913  0.6078  0.0249 -0.1851
  421TMC3     H 6285   3.795   1.666  14.087 -0.1418 -0.4742 -0.5093
  421TMC3    H1 6286   3.932   1.332  13.860  0.4108 -1.6849  1.0967
  421TMC3    H2 6287   4.169   1.487  14.178 -0.1458 -0.1616 -0.0586
  421TMC3    C7 6288   4.157   1.288  14.030  0.6608 -0.0858 -0.7048
  421TMC3    C8 6289   3.994   1.665  14.259 -0.3920  0.6065 -0.1216
  421TMC3    O1 6290   4.278   1.312  14.042 -0.3731  0.2864  0.2272
  421TMC3    O2 6291   3.893   1.710  14.312  0.0084  0.3494  0.5233
  422TMC3    C1 6292   1.379   2.439  12.769 -0.4940 -0.4759 -0.0430
  422TMC3    C2 6293   1.353   2.536  12.859 -0.1242 -0.1594 -0.8064
  422TMC3    C3 6294   1.240   2.519  12.934  0.1765 -0.3040 -0.8213
  422TMC3    C4 6295   1.298   2.336  12.741 -0.6327 -0.0307  0.2725
  422TMC3    C5 6296   1.186   2.322  12.815  0.5186  0.0863  1.1289
  422TMC3    C6 6297   1.160   2.413  12.926  0.5479  0.5905  0.2776
  422TMC3     C 6298   1.513   2.454  12.704  0.6721 -0.5706 -0.4359
  422TMC3     O 6299   1.566   2.566  12.690 -0.1250 -0.0800 -0.1510
  422TMC3     H 6300   1.430   2.610  12.878  0.1607 -0.1379 -2.0390
  422TMC3    H1 6301   1.323   2.271  12.657 -1.5214  0.4435 -0.3621
  422TMC3    H2 6302   1.074   2.403  12.991 -0.0615 -1.0474 -0.7777
  422TMC3    C7 6303   1.087   2.229  12.771  0.1419  0.5733 -0.3133
  422TMC3    C8 6304   1.239   2.598  13.059 -0.4614  0.0776 -0.1982
  422TMC3    O1 6305   1.121   2.156  12.681  0.0752 -0.1991 -0.1478
  422TMC3    O2 6306   1.276   2.717  13.041 -0.2974  0.2723  0.3544
  423MPD2     C 6307   2.633   3.629   0.610  0.8141 -0.4058  0.7110
  423MPD2    C1 6308   2.684   3.507   0.650 -0.1223 -0.1451 -0.0167
  423MPD2    C2 6309   2.606   3.394   0.615  0.2809 -0.4438  0.0332
  423MPD2    C3 6310   2.490   3.409   0.540  0.0596  0.0376 -0.2865
  423MPD2    C4 6311   2.439   3.532   0.517  0.2116 -0.4156 -0.0185
  423MPD2    C5 6312   2.509   3.642   0.555  0.4830  0.0353 -0.2442
  423MPD2     H 6313   2.633   3.291   0.635 -2.8904 -1.1125  0.9038
  423MPD2    H1 6314   2.357   3.538   0.447 -1.4749  1.9971  2.1294
  423MPD2    H2 6315   2.693   3.718   0.626 -1.6257  1.7399 -2.0338
  423MPD2    H3 6316   2.485   3.742   0.520 -0.4842  0.9524  3.0802
  423MPD2     N 6317   2.410   3.300   0.486  0.4910  0.9566  0.3669
  423MPD2    H5 6318   2.335   3.328   0.424 -0.4487 -1.9056  0.2368
  423MPD2    N1 6319   2.811   3.494   0.713 -0.7607 -0.0512 -0.0381
  423MPD2    H7 6320   2.848   3.403   0.739  0.7324  0.2659 -1.0668
  424TMC3    C1 6321   3.033   3.554   0.799 -0.4326  0.4642 -0.0762
  424TMC3    C2 6322   3.085   3.433   0.754  0.5092  0.5697  0.4157
  424TMC3    C3 6323   3.203   3.399   0.817 -0.1255  0.4096 -0.5406
  424TMC3    C4 6324   3.101   3.644   0.878  0.2304  0.3124  0.1968
  424TMC3    C5 6325   3.221   3.602   0.932  0.3037 -0.5927  0.3962
  424TMC3    C6 6326   3.262   3.474   0.907 -0.4646 -0.0280 -0.6683
  424TMC3     C 6327   2.900   3.595   0.746  0.3055  0.1685 -0.0139
  424TMC3     O 6328   2.888   3.719   0.742 -0.6850 -0.1220  0.5509
  424TMC3     H 6329   3.017   3.373   0.696  3.2960 -0.7450 -1.4685
  424TMC3    H1 6330   3.062   3.744   0.896  1.9034  0.7266  1.4630
  424TMC3    H2 6331   3.348   3.434   0.959 -1.6928 -1.4698  0.2514
  424TMC3    C7 6332   3.310   3.678   1.016 -0.3924 -0.5117 -0.2995
  424TMC3    C8 6333   3.233   3.257   0.797 -0.0394 -0.1776 -0.1451
  424TMC3    O1 6334   3.418   3.629   1.042  0.3016 -0.3403 -0.1433
  424TMC3    O2 6335   3.301   3.194   0.879 -0.5394  0.4361  0.1278
  425MPD2     C 6336   1.612   2.903   0.330 -0.2885  0.0667  0.0501
  425MPD2    C1 6337   1.567   2.798   0.253  0.2300  0.5731 -0.3134
  425MPD2    C2 6338   1.435   2.792   0.226  0.4534  0.8306  0.7416
  425MPD2    C3 6339   1.343   2.893   0.257  0.4191  0.0997  0.5894
  425MPD2    C4 6340   1.392   3.010   0.308  0.4900 -0.8907 -0.1021
  425MPD2    C5 6341   1.529   3.014   0.340 -0.3345 -0.2928  0.2782
  425MPD2     H 6342   1.398   2.705   0.173 -1.4139  1.5021  0.9661
  425MPD2    H1 6343   1.336   3.102   0.314  0.4000 -0.8200 -2.1309
  425MPD2    H2 6344   1.717   2.917   0.352 -0.5143 -0.1724  1.2387
  425MPD2    H3 6345   1.573   3.110   0.364 -0.4605 -0.0412 -0.5072
  425MPD2     N 6346   1.206   2.876   0.223  0.5061  0.1770  0.6875
  425MPD2    H5 6347   1.183   2.788   0.177  0.3002  0.0096  1.1069
  425MPD2    N1 6348   1.656   2.694   0.221  0.4339 -0.0546  0.1392
  425MPD2    H7 6349   1.749   2.694   0.262  0.7871 -1.0779 -0.6626
  426TMC3    C1 6350   1.729   2.486   0.139 -0.3786 -0.2613 -0.3266
  426TMC3    C2 6351   1.737   2.409   0.027 -0.3768 -0.4649 -0.2394
  426TMC3    C3 6352   1.821   2.297   0.023 -0.1513  0.1288  0.1889
  426TMC3    C4 6353   1.805   2.466   0.253 -0.3950  0.4810  0.1017
  426TMC3    C5 6354   1.879   2.345   0.244 -0.0883  0.2417  0.2295
  426TMC3    C6 6355   1.884   2.258   0.140 -0.2483 -0.6714  0.1168
  426TMC3     C 6356   1.628   2.589   0.135 -0.4696 -0.3166  0.1268
  426TMC3     O 6357   1.542   2.579   0.051 -0.0491 -0.5917 -0.1519
  426TMC3     H 6358   1.685   2.446  17.633 -1.5897 -0.0961  0.6332
  426TMC3    H1 6359   1.792   2.520   0.346 -0.6167  1.2816 -0.3895
  426TMC3    H2 6360   1.959   2.180   0.140  0.0597 -0.3716  1.1870
  426TMC3    C7 6361   1.950   2.313   0.369 -0.0258 -0.0294 -0.0306
  426TMC3    C8 6362   1.822   2.195  17.612 -0.2098  0.6093 -0.4584
  426TMC3    O1 6363   1.953   2.197   0.401  0.1549 -0.0415  0.0691
  426TMC3    O2 6364   1.891   2.095  17.622  0.3859  0.1387  0.1849
  427MPD2     C 6365   0.194   0.409  15.209 -0.1630  0.0415 -0.5619
  427MPD2    C1 6366   0.197   0.271  15.233  0.3688 -0.6326 -0.5219
  427MPD2    C2 6367   0.089   0.195  15.198  0.0900 -0.4709  0.4220
  427MPD2    C3 6368   4.709   0.249  15.125  0.2721  0.4931  0.0816
  427MPD2    C4 6369   4.710   0.384  15.100 -0.4031  0.4192 -0.4002
  427MPD2    C5 6370   0.094   0.461  15.137 -0.4194  0.5024  0.6366
  427MPD2     H 6371   0.089   0.090  15.226  1.5052 -1.0416 -1.7779
  427MPD2    H1 6372   4.622   0.421  15.047 -1.6227 -1.2708  0.4326
  427MPD2    H2 6373   0.277   0.477  15.225 -1.2529  0.7217  2.2439
  427MPD2    H3 6374   0.117   0.564  15.110  0.3827  0.7664  2.3598
  427MPD2     N 6375   4.597   0.179  15.077 -0.0977 -0.1874  0.1894
  427MPD2    H5 6376   4.524   0.235  15.034 -0.3912  0.1102  1.0862
  427MPD2    N1 6377   0.299   0.196  15.295  0.0189 -0.2185 -0.1516
  427MPD2    H7 6378   0.296   0.094  15.300 -1.1142 -0.1901 -0.3068
  428TMC3    C1 6379   0.515   0.149  15.387  0.6305  0.2953  0.4767
  428TMC3    C2 6380   0.464   0.044  15.463 -0.8899 -0.3222 -0.0645
  428TMC3    C3 6381   0.557   4.691  15.533 -0.0245  1.2563 -0.3427
  428TMC3    C4 6382   0.646   0.175  15.378  0.1065  0.4603 -0.3224
  428TMC3    C5 6383   0.735   0.088  15.432 -0.2186  0.0785  0.0163
  428TMC3    C6 6384   0.693   4.712  15.515  0.2189 -0.2860 -0.4464
  428TMC3     C 6385   0.426   0.244  15.325  0.0558  0.6984 -0.4766
  428TMC3     O 6386   0.463   0.356  15.305  0.2642 -0.3427 -0.3596
  428TMC3     H 6387   0.359   0.019  15.459 -0.6559 -1.2294 -0.5052
  428TMC3    H1 6388   0.676   0.255  15.311 -0.3741  0.2743 -0.7514
  428TMC3    H2 6389   0.761   4.654  15.576  0.1022  0.1203  0.0641
  428TMC3    C7 6390   0.874   0.096  15.397 -0.3254 -0.6808  0.3242
  428TMC3    C8 6391   0.511   4.585  15.609  0.0428 -0.0008  0.0768
  428TMC3    O1 6392   0.946   0.057  15.487 -0.3237  0.1995 -0.2521
  428TMC3    O2 6393   0.582   4.487  15.618  0.0210  0.2385  0.3237
  429MPD2     C 6394   0.646   4.659   0.437  0.4932 -0.5703 -0.3675
  429MPD2    C1 6395   0.769   4.634   0.386  0.3573 -0.3639  0.4302
  429MPD2    C2 6396   0.822   4.720   0.291  0.1347  0.1431  0.7028
  429MPD2    C3 6397   0.741   0.109   0.255  0.3854  0.8115  0.5965
  429MPD2    C4 6398   0.633   0.145   0.331  0.3131  0.1664 -0.0744
  429MPD2    C5 6399   0.580   0.051   0.418  0.2018  0.4923 -0.3350
  429MPD2     H 6400   0.918   4.697   0.246  0.0920 -0.9863  1.2033
  429MPD2    H1 6401   0.569   0.230   0.312 -1.9927 -1.3586  0.7967
  429MPD2    H2 6402   0.591   4.584   0.492 -2.1093  1.7596  0.2053
  429MPD2    H3 6403   0.480   0.067   0.457  0.7995 -0.0077  1.3956
  429MPD2     N 6404   0.788   0.189   0.147  0.5845  0.6644 -0.2341
  429MPD2    H5 6405   0.856   0.140   0.090 -0.4970 -1.2869  0.1643
  429MPD2    N1 6406   0.852   4.529   0.426 -0.0584  0.1758  0.3012
  429MPD2    H7 6407   0.950   4.528   0.398 -0.4319  0.9619 -1.0287
  430TMC3    C1 6408   0.784   0.327  17.656  0.1921  0.3386  0.9004
  430TMC3    C2 6409   0.698   0.373  17.555  0.2029  0.4220  0.2270
  430TMC3    C3 6410   0.753   0.424  17.441  0.1617 -0.8227 -0.3230
  430TMC3    C4 6411   0.921   0.331  17.641 -0.2488 -0.7937  0.6874
  430TMC3    C5 6412   0.969   0.379  17.521 -0.1833 -0.5564  0.1728
  430TMC3    C6 6413   0.886   0.414  17.416  0.7357 -0.4322  0.0174
  430TMC3     C 6414   0.721   0.292   0.088  0.0467  0.7625  0.1279
  430TMC3     O 6415   0.622   0.359   0.129  0.2238  0.0980  0.4661
  430TMC3     H 6416   0.595   0.388  17.584  0.3801 -0.6412  1.4129
  430TMC3    H1 6417   0.992   0.309   0.026  0.3863 -3.7458 -0.7270
  430TMC3    H2 6418   0.927   0.452  17.323  1.1150 -0.5996  0.1150
  430TMC3    C7 6419   1.086   0.300  17.475 -0.4477  0.6318 -0.4031
  430TMC3    C8 6420   0.657   0.448  17.326 -0.2309  0.4202  0.1396
  430TMC3    O1 6421   1.123   0.210  17.550  0.0617  0.0893  0.1575
  430TMC3    O2 6422   0.560   0.370  17.306 -0.3513  0.0059  0.0059
  431MPD2     C 6423   2.492   0.919  12.777  0.1904  0.1796 -0.2422
  431MPD2    C1 6424   2.555   0.909  12.654 -0.0188  0.3687  0.4633
  431MPD2    C2 6425   2.477   0.895  12.539  0.5444  0.2034  0.5037
  431MPD2    C3 6426   2.336   0.886  12.545  0.2263 -0.0355 -0.1305
  431MPD2    C4 6427   2.284   0.892  12.670  1.3516 -0.0214 -0.6831
  431MPD2    C5 6428   2.358   0.918  12.781 -0.4092  0.3054  0.9350
  431MPD2     H 6429   2.525   0.881  12.443  1.7796  1.6869  0.9019
  431MPD2    H1 6430   2.177   0.888  12.687  0.8132  3.0408 -3.3174
  431MPD2    H2 6431   2.540   0.932  12.873  0.1715 -0.9282 -0.0873
  431MPD2    H3 6432   2.309   0.927  12.878 -2.2259  0.4979 -0.0063
  431MPD2     N 6433   2.250   0.854  12.438  0.4250  0.3848 -0.4144
  431MPD2    H5 6434   2.157   0.826  12.469  0.5817  0.5658  0.2281
  431MPD2    N1 6435   2.696   0.920  12.647 -0.5826 -0.0836  0.3918
  431MPD2    H7 6436   2.742   0.884  12.564  1.1970  4.0338 -0.4576
  432TMC3    C1 6437   2.190   0.762  12.225 -0.0611 -0.0465 -0.4674
  432TMC3    C2 6438   2.216   0.779  12.095 -0.2390  0.8496  0.0867
  432TMC3    C3 6439   2.237   0.667  12.016 -0.2264 -0.1368 -0.5084
  432TMC3    C4 6440   2.183   0.636  12.280  0.3831  0.0631  0.2331
  432TMC3    C5 6441   2.219   0.526  12.206 -0.0617 -0.5969  0.0863
  432TMC3    C6 6442   2.255   0.544  12.075  0.5924  0.3978  0.0250
  432TMC3     C 6443   2.290   0.833  12.307 -0.4311 -0.3170 -0.2885
  432TMC3     O 6444   2.399   0.856  12.258 -0.1849  0.0005  0.0895
  432TMC3     H 6445   2.234   0.877  12.053  2.9536  0.0709 -0.3486
  432TMC3    H1 6446   2.167   0.618  12.386 -0.2561 -1.8651 -0.1891
  432TMC3    H2 6447   2.264   0.449  12.023  2.3106  0.3093  0.4729
  432TMC3    C7 6448   2.299   0.425  12.269 -0.5445  0.4618 -0.3609
  432TMC3    C8 6449   2.306   0.688  11.896  0.4306  0.2527  0.3944
  432TMC3    O1 6450   2.413   0.410  12.220  0.0002 -0.6309 -0.0283
  432TMC3    O2 6451   2.274   0.772  11.814 -0.4712  0.4788 -0.1015
  433MPD2     C 6452   1.650   3.807  11.321 -0.3240 -0.3851 -0.3540
  433MPD2    C1 6453   1.550   3.719  11.322  0.0944 -0.1546  0.4124
  433MPD2    C2 6454   1.464   3.702  11.433 -0.5525  0.4068 -0.4114
  433MPD2    C3 6455   1.503   3.766  11.551 -0.1509 -0.2315  0.2922
  433MPD2    C4 6456   1.600   3.863  11.541  0.6536  0.1924  0.0724
  433MPD2    C5 6457   1.678   3.883  11.429  0.2664 -0.1291  0.2851
  433MPD2     H 6458   1.389   3.624  11.435 -0.4537  0.3052 -0.6350
  433MPD2    H1 6459   1.635   3.915  11.630 -1.0928  2.8149 -0.7688
  433MPD2    H2 6460   1.715   3.810  11.234 -0.0927  1.0678 -0.1473
  433MPD2    H3 6461   1.748   3.966  11.428  0.9884 -0.7239  1.0851
  433MPD2     N 6462   1.451   3.722  11.677 -0.0557 -0.5955  0.2062
  433MPD2    H5 6463   1.384   3.645  11.676  1.5603 -1.9958 -0.8811
  433MPD2    N1 6464   1.545   3.644  11.202  0.2088  0.1382  0.5671
  433MPD2    H7 6465   1.612   3.669  11.130 -1.8290 -0.2905 -1.4801
  434TMC3    C1 6466   1.515   3.444  11.090 -0.5059 -0.7360 -0.0837
  434TMC3    C2 6467   1.578   3.329  11.129  0.0672 -0.1832 -0.2207
  434TMC3    C3 6468   1.681   3.286  11.056 -0.1173  0.0949 -0.0649
  434TMC3    C4 6469   1.552   3.515  10.981  0.0558  0.0265  0.1094
  434TMC3    C5 6470   1.655   3.460  10.901  0.4196 -0.1230 -0.0776
  434TMC3    C6 6471   1.727   3.352  10.942 -0.3345  0.1530  0.7403
  434TMC3     C 6472   1.474   3.529  11.197  0.3068 -0.6094  0.7135
  434TMC3     O 6473   1.400   3.470  11.274 -0.3738  0.1204 -0.3211
  434TMC3     H 6474   1.540   3.273  11.213 -0.7532 -0.6947 -0.9263
  434TMC3    H1 6475   1.481   3.594  10.958 -0.8916 -0.3956  1.6107
  434TMC3    H2 6476   1.810   3.317  10.883 -2.9962 -1.7660 -1.8746
  434TMC3    C7 6477   1.610   3.450  10.759 -1.0218  0.7303 -0.4529
  434TMC3    C8 6478   1.781   3.208  11.135 -0.9134 -0.3492  0.0470
  434TMC3    O1 6479   1.535   3.532  10.711 -0.1721 -0.0008 -0.5666
  434TMC3    O2 6480   1.753   3.178  11.250  0.2698 -0.3038  0.1203
  435MPD2     C 6481   2.423   3.122  15.582  0.0755  0.3337 -0.8636
  435MPD2    C1 6482   2.410   3.130  15.716 -0.1627  0.1915 -0.3686
  435MPD2    C2 6483   2.517   3.096  15.797  0.2442  0.1109 -0.9155
  435MPD2    C3 6484   2.637   3.045  15.747  0.2324  0.5601 -0.5920
  435MPD2    C4 6485   2.645   3.038  15.607 -0.3146 -0.4805 -0.1232
  435MPD2    C5 6486   2.541   3.078  15.524 -0.4469  0.2085 -0.0756
  435MPD2     H 6487   2.507   3.111  15.904 -0.1169 -1.9560 -0.6653
  435MPD2    H1 6488   2.739   3.012  15.558  0.9465 -0.5919  2.3187
  435MPD2    H2 6489   2.334   3.139  15.522 -0.0354  1.5833 -0.3560
  435MPD2    H3 6490   2.542   3.063  15.417  0.9032 -2.4625  0.3121
  435MPD2     N 6491   2.737   3.025  15.849  0.5545  0.0174  0.0993
  435MPD2    H5 6492   2.718   3.048  15.946 -1.3623 -3.3514  0.5171
  435MPD2    N1 6493   2.296   3.189  15.781 -0.4189 -1.2026 -0.2287
  435MPD2    H7 6494   2.305   3.202  15.881  0.9522  1.3656 -0.7013
  436TMC3    C1 6495   1.982   3.300  16.026  0.0147 -0.1561  0.0672
  436TMC3    C2 6496   2.066   3.233  15.934 -0.0513  0.0824  0.5591
  436TMC3    C3 6497   2.071   3.280  15.808 -0.3263 -0.5889 -0.5307
  436TMC3    C4 6498   1.897   3.399  15.977  0.2639  0.2395  0.2824
  436TMC3    C5 6499   1.894   3.434  15.845 -0.4138  0.0627 -0.0045
  436TMC3    C6 6500   1.990   3.386  15.764 -0.4674 -0.0576  0.0518
  436TMC3     C 6501   1.954   3.235  16.158 -0.2780  0.2207  0.1530
  436TMC3     O 6502   2.005   3.124  16.165  0.1155 -0.6842 -0.3758
  436TMC3     H 6503   2.126   3.152  15.975  2.5579  1.7871  0.1014
  436TMC3    H1 6504   1.807   3.421  16.032  0.2374  1.3042 -0.1766
  436TMC3    H2 6505   1.991   3.414  15.659 -0.5638  2.2697  0.6636
  436TMC3    C7 6506   1.815   3.550  15.802  0.0955 -0.4549 -0.1699
  436TMC3    C8 6507   2.181   3.233  15.723  0.3042 -0.0115  0.2166
  436TMC3    O1 6508   1.826   3.579  15.685  0.5928  0.1126 -0.3513
  436TMC3    O2 6509   2.165   3.255  15.602 -0.0372 -0.4081 -0.0852
  437TMC3    C1 6510   1.639   0.954  12.583  0.1608 -0.2338  0.4952
  437TMC3    C2 6511   1.524   0.945  12.507  0.0435 -0.2097  0.0966
  437TMC3    C3 6512   1.517   1.013  12.387  0.1997  0.2176 -0.1760
  437TMC3    C4 6513   1.745   1.028  12.542 -0.3707 -0.5498  0.0069
  437TMC3    C5 6514   1.726   1.101  12.432  0.0811  1.1820 -0.3531
  437TMC3    C6 6515   1.614   1.096  12.354  0.2083 -0.3577  0.4281
  437TMC3     C 6516   1.665   0.868  12.696 -0.9230  0.0295  0.2280
  437TMC3     O 6517   1.771   0.890  12.754 -0.4587  0.5777 -0.0948
  437TMC3     H 6518   1.436   0.895  12.545 -1.4300  0.8860 -1.8972
  437TMC3    H1 6519   1.843   1.026  12.590  0.7019  0.9511 -2.0754
  437TMC3    H2 6520   1.618   1.134  12.252 -3.1944 -0.8164  0.1198
  437TMC3    C7 6521   1.852   1.123  12.359 -0.7475 -0.1661 -1.0158
  437TMC3    C8 6522   1.416   0.984  12.286  0.2626 -0.8362  0.4334
  437TMC3    O1 6523   1.848   1.097  12.241 -0.2770  0.1538 -0.3449
  437TMC3    O2 6524   1.433   1.032  12.174  0.6451  0.1672 -0.2442
  438MPD2     C 6525   3.513   1.282  17.014 -0.0808  0.1592 -0.3563
  438MPD2    C1 6526   3.615   1.259  17.098 -0.2906 -0.4579 -0.6940
  438MPD2    C2 6527   3.600   1.237  17.237  0.2969  0.3193  0.2935
  438MPD2    C3 6528   3.475   1.235  17.289 -0.5122 -0.6532 -0.5180
  438MPD2    C4 6529   3.372   1.257  17.196  0.0645  0.9433 -0.1759
  438MPD2    C5 6530   3.389   1.285  17.063 -0.0618 -0.1968 -0.8850
  438MPD2     H 6531   3.687   1.215  17.299 -1.6152 -1.8499  2.1946
  438MPD2    H1 6532   3.267   1.265  17.222  0.0431  1.6247 -0.4738
  438MPD2    H2 6533   3.534   1.311  16.911  0.0702  2.5014  0.3299
  438MPD2    H3 6534   3.298   1.307  17.008 -0.4687  1.9325  0.6023
  438MPD2     N 6535   3.451   1.214  17.429 -0.6392 -0.2924  0.1238
  438MPD2    H5 6536   3.358   1.181  17.453 -0.8055  0.2125  0.1768
  438MPD2    N1 6537   3.742   1.231  17.038  0.0434  0.5712 -0.5924
  438MPD2    H7 6538   3.817   1.214  17.105 -0.3613 -0.7549 -0.4774
  439TMC3    C1 6539   3.896   1.201  16.852 -0.0402  0.5636  0.0078
  439TMC3    C2 6540   3.900   1.145  16.728  0.5541  0.0182  0.3365
  439TMC3    C3 6541   4.015   1.171  16.655  0.7753 -0.0592  0.0697
  439TMC3    C4 6542   4.005   1.267  16.917  0.1800 -0.1888  0.2146
  439TMC3    C5 6543   4.123   1.274  16.846  0.6798 -0.5194 -0.5810
  439TMC3    C6 6544   4.122   1.231  16.718 -0.3358  0.0968 -0.1992
  439TMC3     C 6545   3.757   1.198  16.903  0.4272 -0.9604  0.1297
  439TMC3     O 6546   3.666   1.162  16.827  0.1820 -0.8629  0.3096
  439TMC3     H 6547   3.825   1.080  16.684 -0.5709  0.6495  1.3413
  439TMC3    H1 6548   4.005   1.319  17.012 -0.7793  1.1399 -0.5106
  439TMC3    H2 6549   4.204   1.255  16.651 -0.6099 -1.0878 -0.9475
  439TMC3    C7 6550   4.235   1.246  16.926  0.1787  0.6809  0.2997
  439TMC3    C8 6551   4.068   1.065  16.582  0.3387 -0.3583 -0.9868
  439TMC3    O1 6552   4.243   1.304  17.042 -0.2654 -0.3155  0.2240
  439TMC3    O2 6553   4.182   1.037  16.609  0.1389  0.2749 -0.3365
  440MPD2     C 6554   3.159   1.585  14.658  0.1610  0.3491 -0.3436
  440MPD2    C1 6555   3.177   1.676  14.758 -0.4214  0.0006  0.0400
  440MPD2    C2 6556   3.239   1.645  14.875 -1.1423 -0.3003 -0.0528
  440MPD2    C3 6557   3.299   1.523  14.889 -0.1174 -0.2337 -0.0493
  440MPD2    C4 6558   3.273   1.423  14.797 -0.4946 -0.5638 -0.2822
  440MPD2    C5 6559   3.205   1.453  14.681 -0.0794  0.5394 -0.6664
  440MPD2     H 6560   3.238   1.722  14.951  0.6377 -0.2026 -0.1150
  440MPD2    H1 6561   3.321   1.328  14.814 -0.5299 -1.1766 -3.7706
  440MPD2    H2 6562   3.126   1.606  14.557  2.7244  1.3976 -0.9530
  440MPD2    H3 6563   3.192   1.379  14.604 -1.4593  0.9756 -0.8531
  440MPD2     N 6564   3.361   1.490  15.010 -0.3470  0.3470  0.1698
  440MPD2    H5 6565   3.367   1.391  15.034 -0.7406  0.3604  0.3248
  440MPD2    N1 6566   3.139   1.809  14.736  0.2076 -0.0967 -0.5886
  440MPD2    H7 6567   3.158   1.870  14.814  0.0295 -1.9669  0.9172
  441TMC3    C1 6568   3.468   1.530  15.206 -0.7729 -0.2790  0.0215
  441TMC3    C2 6569   3.566   1.604  15.262  0.0071  0.2863  0.8183
  441TMC3    C3 6570   3.592   1.578  15.393 -0.6444  0.1872  0.1853
  441TMC3    C4 6571   3.398   1.436  15.272 -0.4141 -0.0471 -0.0966
  441TMC3    C5 6572   3.443   1.396  15.391  0.6563 -0.3251 -0.8211
  441TMC3    C6 6573   3.533   1.475  15.461 -0.2912  0.1246  0.4925
  441TMC3     C 6574   3.402   1.586  15.095 -0.0957  0.4055 -0.0426
  441TMC3     O 6575   3.419   1.704  15.086 -0.3336 -0.1945  0.3650
  441TMC3     H 6576   3.621   1.681  15.209  1.3532 -0.6426  0.8847
  441TMC3    H1 6577   3.302   1.399  15.240  0.3770 -3.3895  1.3971
  441TMC3    H2 6578   3.554   1.461  15.566  0.9624  0.4360  0.2869
  441TMC3    C7 6579   3.348   1.331  15.470  0.4348 -0.0036 -0.4596
  441TMC3    C8 6580   3.592   1.693  15.480 -0.0758  0.3435 -0.3031
  441TMC3    O1 6581   3.358   1.362  15.590 -0.3332  0.9549 -0.2706
  441TMC3    O2 6582   3.642   1.687  15.592 -0.0115  0.1019  0.5239
  442MPD2     C 6583   1.018   2.665  17.239  0.1627  0.1435 -0.3312
  442MPD2    C1 6584   0.950   2.651  17.119 -0.1972 -0.1867 -0.2237
  442MPD2    C2 6585   0.950   2.529  17.049  0.5807 -0.5153  0.3081
  442MPD2    C3 6586   1.033   2.428  17.092  0.0173  0.1170 -0.5022
  442MPD2    C4 6587   1.112   2.443  17.204 -0.4358  0.1976 -0.5713
  442MPD2    C5 6588   1.095   2.558  17.276 -0.1303 -0.1660  0.8179
  442MPD2     H 6589   0.899   2.520  16.955 -1.1076 -0.6181  1.2391
  442MPD2    H1 6590   1.177   2.368  17.248 -0.0216  0.0767 -1.3920
  442MPD2    H2 6591   1.000   2.748  17.307  2.0998  0.6076 -0.4012
  442MPD2    H3 6592   1.157   2.570  17.364 -0.0617  0.0829  0.7364
  442MPD2     N 6593   1.051   2.306  17.029 -0.7069  0.2636 -0.3137
  442MPD2    H5 6594   1.114   2.240  17.074  1.4665  2.5837  0.0481
  442MPD2    N1 6595   0.864   2.754  17.082 -0.5302 -0.0401 -0.2440
  442MPD2    H7 6596   0.791   2.725  17.018  1.2581 -1.4281 -1.6773
  443TMC3    C1 6597   0.806   2.981  17.025 -0.4526  0.9117 -0.0854
  443TMC3    C2 6598   0.831   2.974  16.888  0.3878 -0.5381  0.0614
  443TMC3    C3 6599   0.724   2.991  16.804  0.9481  0.2690 -0.2857
  443TMC3    C4 6600   0.680   2.970  17.067  0.4062  0.2852  0.5703
  443TMC3    C5 6601   0.570   2.977  16.983 -0.1668 -0.3598 -0.1734
  443TMC3    C6 6602   0.595   2.990  16.851  0.0927 -0.5177  0.0715
  443TMC3     C 6603   0.889   2.889  17.105  0.4627  0.4600  0.0151
  443TMC3     O 6604   0.988   2.942  17.154 -0.1301 -0.1412 -0.1055
  443TMC3     H 6605   0.932   2.976  16.847  0.0825 -0.3952 -0.6817
  443TMC3    H1 6606   0.671   2.938  17.170 -0.9684  0.3658  0.4792
  443TMC3    H2 6607   0.511   2.992  16.783  0.4298  3.0059 -0.2165
  443TMC3    C7 6608   0.474   2.881  17.017  0.2042 -0.0336 -0.2701
  443TMC3    C8 6609   0.736   2.922  16.678 -0.0950 -0.4030  0.2751
  443TMC3    O1 6610   0.450   2.789  16.934 -0.3347  0.1600  0.8831
  443TMC3    O2 6611   0.800   2.817  16.666  0.7035 -0.2247  0.2985
  444MPD2     C 6612   1.498   1.818  17.455  0.0199  0.8316 -0.7910
  444MPD2    C1 6613   1.410   1.731  17.403 -0.2268  0.2089  0.2161
  444MPD2    C2 6614   1.462   1.599  17.377 -0.1685 -0.5278  0.3751
  444MPD2    C3 6615   1.588   1.559  17.417 -0.4762  0.2965 -0.0140
  444MPD2    C4 6616   1.668   1.649  17.486 -0.5181 -0.3283 -0.8393
  444MPD2    C5 6617   1.620   1.776  17.501  0.2142  0.0546  0.0800
  444MPD2     H 6618   1.396   1.525  17.334  0.2440 -0.2590 -0.7071
  444MPD2    H1 6619   1.762   1.628  17.536 -0.7644  0.2235 -0.1507
  444MPD2    H2 6620   1.474   1.922  17.472 -1.2610  0.1227  1.7711
  444MPD2    H3 6621   1.673   1.855  17.553 -0.0194  0.6970 -0.6488
  444MPD2     N 6622   1.623   1.425  17.378 -0.5557 -0.3410 -0.2660
  444MPD2    H5 6623   1.556   1.363  17.332 -0.7414 -0.6782  0.4685
  444MPD2    N1 6624   1.273   1.762  17.385  0.0921  0.1819 -0.1074
  444MPD2    H7 6625   1.209   1.684  17.377 -1.6464  1.7084 -1.4248
  445TMC3    C1 6626   1.755   1.246  17.321  0.1970 -0.2216  0.3513
  445TMC3    C2 6627   1.638   1.175  17.294 -0.5154 -0.1459 -0.3263
  445TMC3    C3 6628   1.640   1.096  17.184  0.6114 -0.1371 -0.7036
  445TMC3    C4 6629   1.866   1.239  17.244  0.6528 -0.2399 -0.7448
  445TMC3    C5 6630   1.855   1.171  17.134 -0.0026 -0.3277 -0.1880
  445TMC3    C6 6631   1.746   1.087  17.098 -0.2597  0.0875  0.3885
  445TMC3     C 6632   1.747   1.372  17.388  0.7325  0.1029  0.3763
  445TMC3     O 6633   1.855   1.423  17.423 -0.0020 -0.1482 -0.3001
  445TMC3     H 6634   1.554   1.189  17.361  0.1506 -1.3089  0.7420
  445TMC3    H1 6635   1.939   1.319  17.249  0.2843 -0.0015  0.7249
  445TMC3    H2 6636   1.741   1.019  17.014  0.4216  1.6210 -0.8813
  445TMC3    C7 6637   1.964   1.167  17.038  0.5290  0.3537 -0.6328
  445TMC3    C8 6638   1.532   0.993  17.172  0.8084 -0.2830 -0.3040
  445TMC3    O1 6639   1.929   1.154  16.920  0.1010 -0.8476  0.0742
  445TMC3    O2 6640   1.442   1.006  17.257  0.2367 -0.4489 -0.2896
  446MPD2     C 6641   1.378   2.992  11.603 -0.6634  0.4197  0.6679
  446MPD2    C1 6642   1.370   3.057  11.486 -0.0444  0.1958 -0.2052
  446MPD2    C2 6643   1.442   3.170  11.457  0.2070  0.2085  0.0077
  446MPD2    C3 6644   1.533   3.219  11.559  0.4605  0.3853 -0.1983
  446MPD2    C4 6645   1.530   3.150  11.680  0.5620 -0.9933  0.1452
  446MPD2    C5 6646   1.461   3.034  11.705 -0.0141  0.2617  0.5993
  446MPD2     H 6647   1.446   3.221  11.361 -0.4913 -1.6546 -0.9976
  446MPD2    H1 6648   1.597   3.181  11.760 -1.0451  0.4821  0.9284
  446MPD2    H2 6649   1.322   2.900  11.617 -0.8210  0.7518  2.1720
  446MPD2    H3 6650   1.473   2.977  11.797  1.2870  0.6114  0.6501
  446MPD2     N 6651   1.606   3.331  11.538  0.3628  0.4873  0.5592
  446MPD2    H5 6652   1.600   3.359  11.440  2.6996  1.8119  0.8001
  446MPD2    N1 6653   1.278   3.000  11.394  0.0846 -0.1229  0.1931
  446MPD2    H7 6654   1.229   2.921  11.435  0.9959 -1.7234 -1.8056
  447TMC3    C1 6655   1.769   3.503  11.567  0.1428  0.4480  0.0603
  447TMC3    C2 6656   1.782   3.509  11.436  0.1519 -0.0925  0.1264
  447TMC3    C3 6657   1.898   3.560  11.398 -1.2128 -0.0846  0.2031
  447TMC3    C4 6658   1.854   3.562  11.663 -0.0976 -0.0449  0.2201
  447TMC3    C5 6659   1.967   3.614  11.616 -0.8111 -0.6243 -0.4702
  447TMC3    C6 6660   1.981   3.628  11.480  0.4956  0.1557 -0.3153
  447TMC3     C 6661   1.675   3.405  11.627 -0.4129 -0.0508 -0.3257
  447TMC3     O 6662   1.663   3.404  11.748  0.2081  0.6288  0.2000
  447TMC3     H 6663   1.709   3.461  11.372 -0.8485  0.1521  1.0822
  447TMC3    H1 6664   1.833   3.550  11.769 -0.1182 -0.6047  0.1498
  447TMC3    H2 6665   2.072   3.675  11.446  0.8356  0.9450  1.6676
  447TMC3    C7 6666   2.083   3.647  11.691 -0.0173 -0.3971  0.0519
  447TMC3    C8 6667   1.934   3.534  11.260  0.6008  0.7200 -0.1210
  447TMC3    O1 6668   2.177   3.698  11.632 -0.0653  0.4217  0.2629
  447TMC3    O2 6669   1.847   3.523  11.176  0.3164  0.8474 -0.7347
  448TMC3    C1 6670   3.920   2.409  16.603  0.2375 -0.3683 -0.0479
  448TMC3    C2 6671   3.930   2.276  16.570 -0.5460 -0.0816 -0.6986
  448TMC3    C3 6672   4.005   2.192  16.651  0.1457 -0.3984  0.6613
  448TMC3    C4 6673   3.987   2.459  16.714 -0.3810 -0.3434  0.4582
  448TMC3    C5 6674   4.063   2.375  16.790  0.4406 -0.2136  0.4302
  448TMC3    C6 6675   4.068   2.242  16.762 -0.6311 -0.1728  0.1954
  448TMC3     C 6676   3.817   2.496  16.551 -0.5427 -0.3526 -0.0591
  448TMC3     O 6677   3.726   2.440  16.492  0.1002 -0.2819  0.4158
  448TMC3     H 6678   3.877   2.240  16.483 -1.9180  1.1032 -0.3577
  448TMC3    H1 6679   3.984   2.560  16.754  0.6795 -0.2895  0.4160
  448TMC3    H2 6680   4.126   2.169  16.818  1.4636 -0.1430 -1.9602
  448TMC3    C7 6681   4.173   2.431  16.852 -0.2278 -0.3524  0.6066
  448TMC3    C8 6682   3.997   2.045  16.648  0.2350  0.4053 -0.0791
  448TMC3    O1 6683   4.214   2.538  16.810  0.3627 -0.2224  0.0045
  448TMC3    O2 6684   4.016   1.987  16.755 -0.3013 -0.0490  0.1827
  449MPD2     C 6685   1.490   1.485  14.311  0.2720  0.2247  0.0111
  449MPD2    C1 6686   1.364   1.433  14.324 -0.9261 -0.5867 -0.1540
  449MPD2    C2 6687   1.323   1.372  14.441  0.0139  0.3909  0.8459
  449MPD2    C3 6688   1.415   1.347  14.538 -0.1335 -0.1833 -0.3559
  449MPD2    C4 6689   1.541   1.403  14.530 -0.3524  0.6199  0.0741
  449MPD2    C5 6690   1.571   1.479  14.420  0.4470 -0.3997 -0.5576
  449MPD2     H 6691   1.217   1.349  14.442  0.1397 -0.2492  0.1368
  449MPD2    H1 6692   1.600   1.413  14.620  1.4392  0.3124 -1.0761
  449MPD2    H2 6693   1.527   1.529  14.219 -1.4188  0.1544 -0.6973
  449MPD2    H3 6694   1.663   1.537  14.415 -0.2602  0.9594  2.2255
  449MPD2     N 6695   1.362   1.278  14.648 -0.3841 -0.2493 -0.0192
  449MPD2    H5 6696   1.267   1.243  14.637 -0.3895  0.0231 -0.7898
  449MPD2    N1 6697   1.262   1.454  14.225  0.1890  0.0395 -0.0221
  449MPD2    H7 6698   1.173   1.412  14.250  1.1312 -2.3543 -0.6606
  450TMC3    C1 6699   1.154   1.481  14.026  0.5715  0.1555  0.2026
  450TMC3    C2 6700   1.166   1.383  13.929 -0.8388 -0.2525  0.1682
  450TMC3    C3 6701   1.065   1.291  13.919  0.5403 -0.7693  0.8560
  450TMC3    C4 6702   1.048   1.490  14.112  0.4108 -0.4316 -0.8522
  450TMC3    C5 6703   0.956   1.393  14.112 -0.0674 -0.2114  0.7770
  450TMC3    C6 6704   0.969   1.289  14.018 -0.4017 -0.4210 -0.3823
  450TMC3     C 6705   1.277   1.501  14.097 -0.9083 -0.1952 -0.7464
  450TMC3     O 6706   1.383   1.522  14.043  0.4993  0.6325  0.1016
  450TMC3     H 6707   1.264   1.378  13.881 -1.1098  1.2200 -0.5443
  450TMC3    H1 6708   1.035   1.583  14.166  1.4197  1.2524 -3.4775
  450TMC3    H2 6709   0.895   1.210  14.006 -0.7997  0.2317 -2.2105
  450TMC3    C7 6710   0.907   1.371  14.245 -0.1433 -0.2222  0.0717
  450TMC3    C8 6711   1.065   1.187  13.812  0.4174 -0.1101 -0.3078
  450TMC3    O1 6712   0.959   1.436  14.335 -0.1264  0.1498  0.0100
  450TMC3    O2 6713   0.975   1.101  13.816 -0.4982 -0.3618 -0.7517
  451MPD2     C 6714   2.088   4.462   1.893 -0.1105  0.5554  0.4569
  451MPD2    C1 6715   2.079   4.541   1.783  0.2707  0.3900  0.0759
  451MPD2    C2 6716   2.196   4.575   1.722 -0.0238  0.1230  0.5937
  451MPD2    C3 6717   2.318   4.543   1.775  0.1752 -0.4392 -0.0897
  451MPD2    C4 6718   2.328   4.472   1.892 -0.0675 -0.8084  0.2778
  451MPD2    C5 6719   2.209   4.422   1.945  0.2168 -0.1001 -0.1344
  451MPD2     H 6720   2.194   4.629   1.627 -1.2673  0.3031  0.7288
  451MPD2    H1 6721   2.423   4.440   1.933  1.9379  2.7363 -1.6257
  451MPD2    H2 6722   2.002   4.421   1.945 -1.7199  0.4810 -2.2349
  451MPD2    H3 6723   2.221   4.373   2.041 -1.8891  0.0244  0.1811
  451MPD2     N 6724   2.445   4.585   1.716 -0.2221 -0.1020  0.4066
  451MPD2    H5 6725   2.530   4.573   1.771  0.0125 -0.8740 -0.1227
  451MPD2    N1 6726   1.949   4.563   1.741  0.4670 -0.0288  0.1452
  451MPD2    H7 6727   1.868   4.518   1.783  0.0632  0.6144  0.0755
  452TMC3    C1 6728   2.596   4.705   1.600  0.7989  0.1658 -0.3381
  452TMC3    C2 6729   2.655   0.034   1.714  0.2368 -0.4583  0.7368
  452TMC3    C3 6730   2.758   0.122   1.705 -0.2679  0.8268 -0.8580
  452TMC3    C4 6731   2.643   0.023   1.480  0.2262 -0.2439 -0.2980
  452TMC3    C5 6732   2.748   0.104   1.475 -0.0494  0.3104  0.4516
  452TMC3    C6 6733   2.802   0.165   1.588  0.3182 -0.1349 -0.5914
  452TMC3     C 6734   2.459   4.668   1.612  0.5963 -0.5791  0.9148
  452TMC3     O 6735   2.384   4.701   1.523  0.6539  0.3435 -0.2540
  452TMC3     H 6736   2.633   4.722   1.814 -0.7441  0.0422  0.6927
  452TMC3    H1 6737   2.597   4.707   1.390  0.1650 -2.5408  0.7232
  452TMC3    H2 6738   2.894   0.221   1.580  0.3200 -0.0639 -0.0754
  452TMC3    C7 6739   2.808   0.138   1.352  0.4551 -0.1651 -0.6784
  452TMC3    C8 6740   2.774   0.196   1.819 -0.6022 -0.1052  0.1069
  452TMC3    O1 6741   2.931   0.152   1.353  0.4485 -0.5536  0.0321
  452TMC3    O2 6742   2.764   0.147   1.932 -0.8720  0.4576 -0.0426
  453TMC3    C1 6743   3.404   1.994  11.871 -0.8024  0.9229  0.6053
  453TMC3    C2 6744   3.331   1.899  11.938  0.3368 -0.0068 -0.0832
  453TMC3    C3 6745   3.205   1.863  11.888  0.3904 -0.0348 -0.4049
  453TMC3    C4 6746   3.354   2.031  11.745 -0.6109  0.3272 -0.0267
  453TMC3    C5 6747   3.232   1.985  11.700  0.3147 -0.5377 -0.3433
  453TMC3    C6 6748   3.146   1.912  11.775 -0.4468  0.5981  0.2430
  453TMC3     C 6749   3.528   2.047  11.915  0.2604  0.1890  0.2003
  453TMC3     O 6750   3.600   2.104  11.833  0.0729  0.6241  0.3920
  453TMC3     H 6751   3.369   1.854  12.029 -0.6251 -3.4139 -1.3400
  453TMC3    H1 6752   3.417   2.078  11.671 -0.6815 -0.9588 -0.9130
  453TMC3    H2 6753   3.049   1.876  11.742 -0.0941 -1.1780  1.0983
  453TMC3    C7 6754   3.189   2.031  11.565  1.0124  0.4416  0.2167
  453TMC3    C8 6755   3.137   1.750  11.953 -0.3043  0.2369  0.1643
  453TMC3    O1 6756   3.093   1.967  11.514  0.0777  0.0886  0.2017
  453TMC3    O2 6757   3.014   1.740  11.936 -0.2150  0.0513  0.2716
  454MPD2     C 6758   2.237   1.950  16.573 -0.2516  0.6418  0.7516
  454MPD2    C1 6759   2.145   1.844  16.558 -0.1733  0.6337  0.1090
  454MPD2    C2 6760   2.131   1.760  16.663  0.5584  0.5109  0.6014
  454MPD2    C3 6761   2.187   1.786  16.783 -0.2102 -0.0704 -0.0754
  454MPD2    C4 6762   2.282   1.887  16.800  0.8166  0.3980 -0.1084
  454MPD2    C5 6763   2.312   1.964  16.691  0.6174 -0.8155 -0.2596
  454MPD2     H 6764   2.061   1.679  16.648 -0.4612  2.1116 -3.2216
  454MPD2    H1 6765   2.345   1.900  16.887  0.9492  0.0559 -0.1496
  454MPD2    H2 6766   2.252   2.031  16.503 -0.8998 -1.3153 -1.6169
  454MPD2    H3 6767   2.384   2.044  16.699  1.0792 -1.4030  1.4560
  454MPD2     N 6768   2.152   1.714  16.897  0.5029  0.0489  0.3575
  454MPD2    H5 6769   2.151   1.762  16.986  0.8911  1.2684 -0.2986
  454MPD2    N1 6770   2.068   1.823  16.447 -0.6986 -0.6582 -0.4453
  454MPD2    H7 6771   2.015   1.737  16.443 -1.6653 -0.1136  0.7577
  455TMC3    C1 6772   2.011   1.559  16.998 -0.0287  0.5975  0.4941
  455TMC3    C2 6773   2.002   1.647  17.102  0.1980 -0.1856  0.0048
  455TMC3    C3 6774   1.879   1.675  17.155  0.3428  0.3256  0.0872
  455TMC3    C4 6775   1.897   1.494  16.952 -0.6397 -0.4939 -0.4846
  455TMC3    C5 6776   1.781   1.521  17.014 -0.2158  0.4070  0.0015
  455TMC3    C6 6777   1.764   1.610  17.114  0.7813  0.0507 -0.7725
  455TMC3     C 6778   2.106   1.585  16.896  0.2688 -0.4876  0.5661
  455TMC3     O 6779   2.094   1.503  16.803  0.2239 -0.1340  0.2998
  455TMC3     H 6780   2.088   1.682  17.159 -0.5618 -0.6946  1.4549
  455TMC3    H1 6781   1.906   1.417  16.876  2.8314  0.6223 -1.2179
  455TMC3    H2 6782   1.665   1.607  17.160  1.9794  2.1243  1.9812
  455TMC3    C7 6783   1.667   1.448  16.968 -0.7376  0.3471  0.8070
  455TMC3    C8 6784   1.867   1.800  17.237  0.6274  1.1019 -0.4247
  455TMC3    O1 6785   1.591   1.409  17.058 -0.7006  0.0156 -0.3365
  455TMC3    O2 6786   1.961   1.833  17.307 -0.0211  1.1214  0.1013
  456MPD2     C 6787   0.292   0.971  16.424  0.0528  0.5083  0.3798
  456MPD2    C1 6788   0.326   1.040  16.534 -0.2312  0.2996  0.4663
  456MPD2    C2 6789   0.234   1.111  16.605  0.2150  0.2685  0.1972
  456MPD2    C3 6790   0.105   1.119  16.564  0.6837 -0.2362  0.2188
  456MPD2    C4 6791   0.064   1.047  16.453 -0.2695 -0.3097 -0.3636
  456MPD2    C5 6792   0.162   0.981  16.382  0.5297  1.0347  0.0852
  456MPD2     H 6793   0.248   1.158  16.702 -0.2663 -2.3470  1.5208
  456MPD2    H1 6794   4.683   1.046  16.422 -0.3837 -0.3413  0.0223
  456MPD2    H2 6795   0.362   0.910  16.367 -0.1014 -0.1859  0.9336
  456MPD2    H3 6796   0.136   0.939  16.285 -0.9758 -1.4710  1.5632
  456MPD2     N 6797   0.015   1.202  16.626 -0.1067  0.0411 -0.2368
  456MPD2    H5 6798   0.063   1.256  16.698 -2.1263  1.2712  0.1874
  456MPD2    N1 6799   0.451   1.013  16.592  0.2154  0.0328 -0.1209
  456MPD2    H7 6800   0.501   0.943  16.538 -1.4495 -0.5514 -0.9040
  457TMC3    C1 6801   4.556   1.343  16.672  0.4615 -0.5100  0.5838
  457TMC3    C2 6802   4.446   1.411  16.621 -0.6046 -0.0383 -0.1754
  457TMC3    C3 6803   4.383   1.493  16.710  0.5855  0.1999 -0.0839
  457TMC3    C4 6804   4.608   1.364  16.802 -0.1009 -0.1511 -0.0938
  457TMC3    C5 6805   4.555   1.472  16.870  0.1691  0.8123  0.0579
  457TMC3    C6 6806   4.438   1.529  16.828 -0.3421 -0.2965 -0.3869
  457TMC3     C 6807   4.608   1.232  16.589 -0.5439 -0.1133  0.0249
  457TMC3     O 6808   4.537   1.205  16.498  0.0264  0.1714  0.2954
  457TMC3     H 6809   4.402   1.396  16.523 -1.1801  0.2909  0.0309
  457TMC3    H1 6810   4.686   1.307  16.851 -1.3632 -2.1162 -0.3715
  457TMC3    H2 6811   4.392   1.605  16.889 -1.0804 -1.0953  0.0450
  457TMC3    C7 6812   4.622   1.511  16.992 -0.5630  0.1964 -0.8979
  457TMC3    C8 6813   4.272   1.585  16.679  1.0724 -0.4927 -0.6247
  457TMC3    O1 6814   4.677   1.424  17.060 -0.8501 -0.7561 -0.3688
  457TMC3    O2 6815   4.242   1.668  16.765 -0.8790 -0.0952 -0.0141
  458MPD2     C 6816   2.360   1.214  12.321 -0.1280  0.1632 -0.2201
  458MPD2    C1 6817   2.319   1.235  12.448 -0.2943 -0.3946  0.1787
  458MPD2    C2 6818   2.185   1.218  12.475  0.3332 -0.3692 -0.0135
  458MPD2    C3 6819   2.091   1.188  12.381 -0.4842 -0.9445 -0.1598
  458MPD2    C4 6820   2.134   1.174  12.251 -0.6148  0.2790  0.0464
  458MPD2    C5 6821   2.270   1.197  12.224  0.5725  0.0703  0.1719
  458MPD2     H 6822   2.151   1.245  12.574 -2.0754 -0.0766 -0.9260
  458MPD2    H1 6823   2.064   1.165  12.169 -0.5136 -1.0890  0.1190
  458MPD2    H2 6824   2.466   1.215  12.302  0.1455 -0.6074  1.2754
  458MPD2    H3 6825   2.308   1.190  12.123  1.2292  1.4487  0.3145
  458MPD2     N 6826   1.952   1.174  12.431  0.6163  0.1345  0.9715
  458MPD2    H5 6827   1.935   1.185  12.531  0.4456  0.0441  0.9531
  458MPD2    N1 6828   2.414   1.262  12.547  0.3818 -0.2099 -0.0338
  458MPD2    H7 6829   2.512   1.260  12.519  0.2062 -1.2972 -0.5953
  459TMC3    C1 6830   2.513   1.291  12.757  0.1124 -0.1337  0.2542
  459TMC3    C2 6831   2.620   1.354  12.700 -0.6185 -0.3204 -0.4389
  459TMC3    C3 6832   2.725   1.380  12.775  0.0092  0.1111  0.1626
  459TMC3    C4 6833   2.508   1.263  12.890 -0.3119  0.2219 -0.5154
  459TMC3    C5 6834   2.614   1.298  12.964 -0.8210 -0.0073 -0.5188
  459TMC3    C6 6835   2.728   1.354  12.912 -0.5554 -0.6761  0.4658
  459TMC3     C 6836   2.392   1.276  12.685 -0.5689 -0.0418  0.2727
  459TMC3     O 6837   2.286   1.266  12.749 -0.5997  0.1609  0.6007
  459TMC3     H 6838   2.625   1.371  12.593  0.1520  1.6836 -0.0951
  459TMC3    H1 6839   2.417   1.216  12.926  0.3271  0.8869  1.9358
  459TMC3    H2 6840   2.820   1.378  12.963  0.3321 -3.6775  0.2977
  459TMC3    C7 6841   2.622   1.233  13.091  0.2413 -0.9270  0.6041
  459TMC3    C8 6842   2.845   1.444  12.703 -0.2139  0.1251  0.1841
  459TMC3    O1 6843   2.537   1.146  13.117 -0.7379 -0.7922 -0.1147
  459TMC3    O2 6844   2.950   1.418  12.758 -0.1276  0.2744 -0.1252
  460MPD2     C 6845   2.280   3.433  11.147 -0.0479 -0.3198 -0.0459
  460MPD2    C1 6846   2.155   3.485  11.133 -0.5389 -0.3692  0.1459
  460MPD2    C2 6847   2.106   3.484  11.009  0.6584  0.4795 -0.6555
  460MPD2    C3 6848   2.172   3.441  10.895 -0.3116  0.1556  0.1514
  460MPD2    C4 6849   2.299   3.380  10.917  0.5616 -0.4410 -0.4877
  460MPD2    C5 6850   2.344   3.379  11.043  0.2888 -0.3597  0.1382
  460MPD2     H 6851   2.006   3.523  10.996  0.2097  0.1255  1.6188
  460MPD2    H1 6852   2.360   3.337  10.838 -0.7900  0.6432 -2.1202
  460MPD2    H2 6853   2.339   3.432  11.238  0.2646  0.9466 -0.2305
  460MPD2    H3 6854   2.443   3.337  11.060  0.0670 -1.2997 -0.9593
  460MPD2     N 6855   2.119   3.462  10.766 -1.1659 -1.0110 -0.7701
  460MPD2    H5 6856   2.029   3.505  10.778 -0.6808  0.8754 -3.9520
  460MPD2    N1 6857   2.074   3.524  11.249 -0.0087 -0.0606  0.6501
  460MPD2    H7 6858   2.125   3.521  11.337  1.8815  1.0198 -0.4053
  461TMC3    C1 6859   2.078   3.421  10.541  0.4382  0.5082 -0.4236
  461TMC3    C2 6860   2.083   3.301  10.472 -0.2468  0.4227  0.0983
  461TMC3    C3 6861   1.971   3.261  10.412  0.1539  0.5616  0.6385
  461TMC3    C4 6862   1.964   3.496  10.554  0.5551  0.3703  0.2924
  461TMC3    C5 6863   1.851   3.452  10.484 -0.3936 -0.7222  0.3401
  461TMC3    C6 6864   1.850   3.337  10.413 -0.1854 -0.0933  0.2511
  461TMC3     C 6865   2.173   3.426  10.645 -0.4461 -0.5987  0.0344
  461TMC3     O 6866   2.287   3.390  10.621 -0.4067  0.2768 -0.3985
  461TMC3     H 6867   2.176   3.245  10.480 -0.4468 -0.2435 -2.1422
  461TMC3    H1 6868   1.984   3.601  10.570 -0.9802  0.7951 -0.5033
  461TMC3    H2 6869   1.760   3.306  10.361  0.4889 -3.6870  1.2564
  461TMC3    C7 6870   1.774   3.558  10.420  0.2961  0.3075  0.0084
  461TMC3    C8 6871   1.989   3.151  10.310 -0.1431 -0.3001  0.5328
  461TMC3    O1 6872   1.721   3.536  10.312  0.2899 -0.3791 -0.4650
  461TMC3    O2 6873   2.090   3.083  10.312  0.0697 -0.0640 -0.2833
  462TMC3    C1 6874   1.756   3.846   1.433 -0.5658 -0.1331  0.6018
  462TMC3    C2 6875   1.873   3.907   1.399 -0.6532  0.3104  0.2147
  462TMC3    C3 6876   1.867   3.981   1.282 -0.6716  1.0995 -0.6016
  462TMC3    C4 6877   1.637   3.853   1.358 -1.0703  0.4337  0.3007
  462TMC3    C5 6878   1.634   3.946   1.256 -0.2195  0.1618  0.9573
  462TMC3    C6 6879   1.753   4.007   1.213 -0.4810  0.2476  0.5067
  462TMC3     C 6880   1.758   3.733   1.528 -0.6260  0.0272  0.0883
  462TMC3     O 6881   1.652   3.714   1.587  0.4725  0.0320 -0.1143
  462TMC3     H 6882   1.959   3.909   1.464 -0.6635 -0.4346  0.2593
  462TMC3    H1 6883   1.558   3.785   1.388  0.1431 -0.4149  1.5815
  462TMC3    H2 6884   1.749   4.098   1.155  0.7476 -0.9078 -1.4028
  462TMC3    C7 6885   1.507   3.963   1.187  0.3337 -0.0536  0.1378
  462TMC3    C8 6886   1.991   4.038   1.238  0.2696  0.2577 -0.4420
  462TMC3    O1 6887   1.401   3.940   1.243 -0.7144 -0.2602 -0.5293
  462TMC3    O2 6888   2.085   4.048   1.311  0.0308 -0.5058 -0.2715
  463MPD2     C 6889   2.727   2.886   1.142 -0.2453 -0.2672  0.0516
  463MPD2    C1 6890   2.789   2.947   1.248 -0.5544 -0.8165 -0.0961
  463MPD2    C2 6891   2.923   2.990   1.242  0.0433  0.0977 -0.2899
  463MPD2    C3 6892   2.995   2.970   1.126 -0.4653 -0.0691  0.6080
  463MPD2    C4 6893   2.933   2.889   1.031 -0.0720 -0.2163 -0.0265
  463MPD2    C5 6894   2.805   2.858   1.036 -0.4726 -0.3793  0.3461
  463MPD2     H 6895   2.964   3.043   1.327 -0.1193 -1.7520  0.9221
  463MPD2    H1 6896   2.988   2.847   0.948 -0.4175 -1.6178  0.4557
  463MPD2    H2 6897   2.626   2.849   1.147  0.1222 -1.5829 -1.9592
  463MPD2    H3 6898   2.768   2.804   0.949 -1.1597 -0.8958  0.9623
  463MPD2     N 6899   3.134   3.000   1.114  0.2103 -0.1948  0.3948
  463MPD2    H5 6900   3.183   2.952   1.040 -3.0040 -0.1233 -1.7742
  463MPD2    N1 6901   2.717   2.964   1.367 -0.1530  0.4082 -0.8371
  463MPD2    H7 6902   2.775   3.009   1.438 -0.2797 -1.5460  0.5235
  464TMC3    C1 6903   2.553   2.949   1.530 -0.3585 -0.2666 -0.4906
  464TMC3    C2 6904   2.591   3.070   1.580  0.4320 -0.6995  0.6698
  464TMC3    C3 6905   2.499   3.143   1.642 -0.8231  0.0787 -0.0343
  464TMC3    C4 6906   2.424   2.908   1.561 -0.2851  0.7127 -0.1643
  464TMC3    C5 6907   2.336   2.993   1.624  0.2592 -1.0343  0.0404
  464TMC3    C6 6908   2.370   3.115   1.655 -1.2937  0.3730 -0.1879
  464TMC3     C 6909   2.588   2.926   1.395 -0.4047 -0.4905 -0.3714
  464TMC3     O 6910   2.506   2.869   1.330  1.1824 -0.4232  0.5938
  464TMC3     H 6911   2.688   3.115   1.562 -0.2388  0.1419 -0.9086
  464TMC3    H1 6912   2.388   2.810   1.531 -0.7142  0.9295 -0.3434
  464TMC3    H2 6913   2.293   3.184   1.686 -0.1279  1.8849 -0.6275
  464TMC3    C7 6914   2.193   2.984   1.576  0.1036  0.3597  0.5108
  464TMC3    C8 6915   2.536   3.281   1.647 -0.7586  0.0901 -0.3909
  464TMC3    O1 6916   2.122   3.084   1.560  0.2159  0.6762  0.1815
  464TMC3    O2 6917   2.623   3.328   1.571 -0.2061 -0.3857  0.9647
  465MPD2     C 6918   4.239   1.311  17.511 -0.1243  0.0256  0.2322
  465MPD2    C1 6919   4.134   1.319  17.602 -0.2610 -0.1710  0.2847
  465MPD2    C2 6920   4.007   1.353  17.557 -0.0472 -0.0023  0.1242
  465MPD2    C3 6921   3.998   1.405  17.427 -0.2890  0.1720 -0.4768
  465MPD2    C4 6922   4.102   1.403  17.336  0.2890  0.3243  0.1794
  465MPD2    C5 6923   4.220   1.354  17.378  0.3122 -0.1288  0.0347
  465MPD2     H 6924   3.921   1.354  17.624  1.8984  0.2314  2.6128
  465MPD2    H1 6925   4.089   1.435  17.233 -2.6136  2.4330  1.2052
  465MPD2    H2 6926   4.339   1.275  17.531  0.8397  2.8566  0.5239
  465MPD2    H3 6927   4.311   1.362  17.318 -1.2123  0.4390 -2.2117
  465MPD2     N 6928   3.873   1.456  17.395  0.7638 -0.0475 -0.2375
  465MPD2    H5 6929   3.801   1.439  17.464  1.1017  1.8160  0.6009
  465MPD2    N1 6930   4.159   1.296   0.048  0.2774 -0.2929 -0.4912
  465MPD2    H7 6931   4.079   1.291   0.110  0.8683  0.4687  0.3251
  466TMC3    C1 6932   3.507   1.612  17.422  0.3967 -0.1442  0.0663
  466TMC3    C2 6933   3.429   1.631  17.309 -0.1977 -0.1282 -0.2544
  466TMC3    C3 6934   3.495   1.632  17.188 -0.3451 -0.7706  0.3601
  466TMC3    C4 6935   3.634   1.584  17.417 -0.6952  0.2046  0.1283
  466TMC3    C5 6936   3.693   1.564  17.293  0.6391  0.4248  0.4448
  466TMC3    C6 6937   3.625   1.594  17.174  0.8296 -0.0026  0.1889
  466TMC3     C 6938   3.454   1.617  17.563 -0.2582  0.0039  0.0784
  466TMC3     O 6939   3.525   1.671  17.646 -0.2577 -0.2026  0.0821
  466TMC3     H 6940   3.325   1.658  17.320 -0.2558 -0.4461 -0.0247
  466TMC3    H1 6941   3.681   1.547  17.507 -1.6662 -0.8686  0.1949
  466TMC3    H2 6942   3.682   1.585  17.082 -2.8194 -0.4296 -1.9933
  466TMC3    C7 6943   3.831   1.520  17.274  0.6141  0.1136 -0.5223
  466TMC3    C8 6944   3.439   1.712  17.086 -0.0612 -0.3819  0.4264
  466TMC3    O1 6945   3.875   1.503  17.161 -0.5080  0.4084  0.0939
  466TMC3    O2 6946   3.508   1.724  16.987  0.0008 -0.1355 -0.6159
  467TMC3    C1 6947   4.449   0.525  13.878  0.5896 -0.3923  0.3312
  467TMC3    C2 6948   4.505   0.638  13.828 -0.2429  0.2937  0.0821
  467TMC3    C3 6949   4.460   0.694  13.713 -0.1947  0.6270  0.0094
  467TMC3    C4 6950   4.355   0.459  13.808  0.0816 -0.4937 -0.4167
  467TMC3    C5 6951   4.322   0.503  13.686  0.5344  0.1900 -0.2082
  467TMC3    C6 6952   4.377   0.622  13.636  0.6114  0.5894 -0.3263
  467TMC3     C 6953   4.548   0.436  13.943 -0.0588  0.3471 -0.6162
  467TMC3     O 6954   4.625   0.485  14.023  0.3733 -0.0852 -0.2703
  467TMC3     H 6955   4.590   0.682  13.878  0.3998 -0.0653 -0.6810
  467TMC3    H1 6956   4.308   0.371  13.851 -1.3641  0.5534  0.1475
  467TMC3    H2 6957   4.350   0.662  13.539 -0.7002 -2.0851 -1.0800
  467TMC3    C7 6958   4.183   0.485  13.643 -0.4216  0.4159 -0.1593
  467TMC3    C8 6959   4.566   0.758  13.650 -0.1171  0.0318 -0.4325
  467TMC3    O1 6960   4.165   0.466  13.525  0.2563 -0.1221  0.1638
  467TMC3    O2 6961   4.620   0.850  13.712 -0.4540 -0.7830 -0.4619
  468MPD2     C 6962   3.508   3.532  10.557 -0.1927 -0.6778  0.1132
  468MPD2    C1 6963   3.635   3.511  10.608 -0.1942 -0.3043  0.1842
  468MPD2    C2 6964   3.679   3.386  10.645 -0.3898  0.3442  0.9120
  468MPD2    C3 6965   3.601   3.271  10.631  1.0115  0.5960 -0.0141
  468MPD2    C4 6966   3.476   3.299  10.579  1.2379 -0.2591 -0.4962
  468MPD2    C5 6967   3.432   3.420  10.539 -1.3556  0.0646 -0.1095
  468MPD2     H 6968   3.775   3.380  10.694  0.6769  2.1542 -0.9551
  468MPD2    H1 6969   3.404   3.219  10.568 -1.6512  2.3129 -0.4252
  468MPD2    H2 6970   3.467   3.626  10.523  0.1755 -1.0385 -1.3104
  468MPD2    H3 6971   3.335   3.435  10.492 -1.2509  0.7753 -0.0971
  468MPD2     N 6972   3.630   3.142  10.686  0.1852 -0.3546  0.0327
  468MPD2    H5 6973   3.557   3.071  10.680 -0.6613  0.4123  1.1376
  468MPD2    N1 6974   3.733   3.604  10.626  0.3985  0.2987  0.1010
  468MPD2    H7 6975   3.814   3.579  10.681 -1.8642 -0.4561  3.0901
  469TMC3    C1 6976   3.835   3.818  10.626 -0.5443  0.0459 -0.2216
  469TMC3    C2 6977   3.958   3.757  10.638  0.1128 -0.3020  0.1767
  469TMC3    C3 6978   4.060   3.837  10.688 -0.3195  0.9522  0.0533
  469TMC3    C4 6979   3.820   3.955  10.649  0.0854 -0.3452 -0.0339
  469TMC3    C5 6980   3.926   4.021  10.688  0.9318  0.4487 -0.5672
  469TMC3    C6 6981   4.046   3.969  10.707  0.5257 -0.4432  0.5061
  469TMC3     C 6982   3.717   3.740  10.598 -0.4744 -0.3441 -0.8436
  469TMC3     O 6983   3.611   3.804  10.593 -0.3962 -0.7190  0.1043
  469TMC3     H 6984   3.974   3.653  10.611  1.0931 -0.4707  1.4013
  469TMC3    H1 6985   3.722   3.999  10.639  0.1542  0.0500  0.9474
  469TMC3    H2 6986   4.131   4.019  10.752 -0.3629 -0.0643  1.7521
  469TMC3    C7 6987   3.899   4.147  10.750 -0.1083  0.6681  0.0034
  469TMC3    C8 6988   4.191   3.767  10.717  0.1627  0.1489  0.7626
  469TMC3    O1 6989   3.809   4.219  10.719 -0.0280 -0.4219 -0.1270
  469TMC3    O2 6990   4.293   3.828  10.743 -0.5547 -0.0406 -0.6125
  470TMC3    C1 6991   0.628   4.181   0.981  0.6609  0.1987 -0.2864
  470TMC3    C2 6992   0.664   4.303   0.940  0.3076 -0.1476  0.2720
  470TMC3    C3 6993   0.718   4.383   1.038  0.2958 -0.2395  0.2071
  470TMC3    C4 6994   0.642   4.128   1.108  0.4928  0.0948  0.4094
  470TMC3    C5 6995   0.677   4.222   1.199  0.6707  0.1549  0.2126
  470TMC3    C6 6996   0.718   4.346   1.167  0.9907 -0.3744  0.3317
  470TMC3     C 6997   0.575   4.089   0.882  0.0482 -0.0790  0.8919
  470TMC3     O 6998   0.624   4.093   0.768  0.0452 -0.2582  0.5103
  470TMC3     H 6999   0.650   4.339   0.838 -2.4960 -0.3036  0.5984
  470TMC3    H1 7000   0.613   4.029   1.141 -1.4021  0.3817 -0.4242
  470TMC3    H2 7001   0.754   4.415   1.243  0.3232 -0.0452  0.3434
  470TMC3    C7 7002   0.665   4.196   1.339  0.4809 -0.5180 -0.5229
  470TMC3    C8 7003   0.794   4.508   1.023  1.1944  0.0761 -0.7509
  470TMC3    O1 7004   0.678   4.080   1.383  0.1182  0.2770  0.4147
  470TMC3    O2 7005   0.881   4.533   1.102 -0.0150  0.1901  0.2655
  471MPD2     C 7006   0.564   0.717  16.914 -0.0281  0.5615 -0.1897
  471MPD2    C1 7007   0.557   0.584  16.934 -0.4978 -0.3237 -0.2070
  471MPD2    C2 7008   0.602   0.536  17.056  0.5598 -0.0856  0.2008
  471MPD2    C3 7009   0.650   0.614  17.153  0.2206 -0.8167  0.3980
  471MPD2    C4 7010   0.683   0.744  17.122  0.0055 -0.4355 -0.5657
  471MPD2    C5 7011   0.633   0.795  17.007  0.0733 -0.7261 -0.3778
  471MPD2     H 7012   0.599   0.429  17.069 -1.0706  0.0621  1.0328
  471MPD2    H1 7013   0.730   0.811  17.193 -0.3953  0.8214 -1.4904
  471MPD2    H2 7014   0.526   0.765  16.825  2.1165 -0.4971 -1.6748
  471MPD2    H3 7015   0.649   0.899  16.980 -0.4015 -0.3648  0.7308
  471MPD2     N 7016   0.702   0.560  17.265 -0.3453 -0.1409  0.2626
  471MPD2    H5 7017   0.767   0.616  17.321  0.5231 -0.6108 -0.2770
  471MPD2    N1 7018   0.528   0.495  16.832 -0.6298  0.3814 -0.7976
  471MPD2    H7 7019   0.524   0.401  16.870  3.9297  1.3553  1.9945
  472TMC3    C1 7020   0.478   0.415  16.622 -0.0476 -0.4156 -0.0348
  472TMC3    C2 7021   0.390   0.421  16.513 -0.3746  0.3391  0.4450
  472TMC3    C3 7022   0.389   0.316  16.428 -0.0360  0.4229  0.6023
  472TMC3    C4 7023   0.559   0.306  16.648 -0.2556 -0.5295  0.2262
  472TMC3    C5 7024   0.542   0.202  16.554  0.1465 -0.2458 -0.1673
  472TMC3    C6 7025   0.456   0.199  16.452  0.0020  0.1440  0.0021
  472TMC3     C 7026   0.472   0.529  16.712 -0.4225 -0.9606 -0.3173
  472TMC3     O 7027   0.431   0.636  16.665  0.2297 -0.1561 -0.0922
  472TMC3     H 7028   0.333   0.512  16.498 -0.3359  0.2759 -0.1079
  472TMC3    H1 7029   0.646   0.308  16.712  1.8440  1.6291 -2.6691
  472TMC3    H2 7030   0.456   0.123  16.375 -0.4775 -0.2010  0.3349
  472TMC3    C7 7031   0.599   0.072  16.600 -0.3813 -0.4289 -0.1291
  472TMC3    C8 7032   0.291   0.311  16.322  0.2100  0.0347 -0.8067
  472TMC3    O1 7033   0.628   0.065  16.721  0.0016  0.1811 -0.7989
  472TMC3    O2 7034   0.229   0.416  16.305 -0.2169  0.0789 -0.0016
  473MPD2     C 7035   0.961   2.678  14.066  0.6161  0.6500  0.1371
  473MPD2    C1 7036   0.953   2.774  13.969 -0.1345 -0.0493  0.2861
  473MPD2    C2 7037   1.014   2.893  13.985 -0.6592 -0.3222 -0.2370
  473MPD2    C3 7038   1.095   2.914  14.104 -0.9970 -0.0017 -0.1513
  473MPD2    C4 7039   1.107   2.813  14.200 -0.0095  0.0858  0.1701
  473MPD2    C5 7040   1.034   2.701  14.175  0.4026  0.6627 -0.5006
  473MPD2     H 7041   1.013   2.969  13.908 -0.2811  0.2542  0.3243
  473MPD2    H1 7042   1.177   2.818  14.282 -1.4865  0.8173  1.3856
  473MPD2    H2 7043   0.908   2.583  14.063  3.0551 -0.7586  1.4651
  473MPD2    H3 7044   1.034   2.619  14.245 -1.7181  0.8138 -0.3382
  473MPD2     N 7045   1.165   3.034  14.130  0.3575  0.4694 -0.0779
  473MPD2    H5 7046   1.229   3.033  14.209 -0.7801  1.5134  0.8451
  473MPD2    N1 7047   0.876   2.766  13.849 -1.0030  0.0814 -0.4097
  473MPD2    H7 7048   0.894   2.843  13.784 -0.7468 -0.8266 -1.4182
  474TMC3    C1 7049   1.234   3.273  14.104 -0.5736 -0.0286  0.0797
  474TMC3    C2 7050   1.216   3.392  14.029  0.1872 -0.1274 -1.1229
  474TMC3    C3 7051   1.294   3.496  14.063 -0.7409  0.5196 -0.1999
  474TMC3    C4 7052   1.339   3.261  14.192  0.6159 -0.1418  0.1614
  474TMC3    C5 7053   1.428   3.367  14.204 -0.5297 -0.2879 -0.4586
  474TMC3    C6 7054   1.404   3.478  14.145 -0.1781 -0.0764 -0.6307
  474TMC3     C 7055   1.159   3.153  14.057  0.2829 -0.1184  0.0051
  474TMC3     O 7056   1.081   3.183  13.963  0.1173  0.0627 -0.0435
  474TMC3     H 7057   1.148   3.396  13.944 -0.6123  2.9314 -0.3456
  474TMC3    H1 7058   1.361   3.167  14.242  0.4534 -1.3078 -1.9237
  474TMC3    H2 7059   1.472   3.561  14.163 -1.6446  0.3484  2.9305
  474TMC3    C7 7060   1.572   3.338  14.219 -0.2487 -0.0501 -0.3550
  474TMC3    C8 7061   1.273   3.622  13.996  0.7294  0.5636 -0.3455
  474TMC3    O1 7062   1.638   3.253  14.162  0.1325  0.4427 -0.0321
  474TMC3    O2 7063   1.214   3.605  13.892  0.2590  0.2373 -0.8046
  475MPD2     C 7064   4.620   1.546  10.752  0.1529 -0.2432  0.7619
  475MPD2    C1 7065   4.658   1.486  10.630  0.0362  0.6872 -0.7338
  475MPD2    C2 7066   4.561   1.405  10.566 -0.0041  0.2931  0.2436
  475MPD2    C3 7067   4.443   1.384  10.617  0.0911  0.4553 -0.0891
  475MPD2    C4 7068   4.403   1.447  10.732 -0.3717 -0.0105 -0.5060
  475MPD2    C5 7069   4.492   1.524  10.799 -0.0713 -0.3052 -1.1290
  475MPD2     H 7070   4.585   1.361  10.469 -0.5296 -0.7750  0.6022
  475MPD2    H1 7071   4.303   1.438  10.771 -1.2671  0.4414 -2.6636
  475MPD2    H2 7072   4.680   1.610  10.815  1.6658 -0.1248 -0.8223
  475MPD2    H3 7073   4.461   1.559  10.897  1.1255 -0.1833 -0.7864
  475MPD2     N 7074   4.357   1.305  10.536  0.6093  0.2821  0.3191
  475MPD2    H5 7075   4.399   1.279  10.448 -2.0131 -0.1247 -0.8123
  475MPD2    N1 7076   0.066   1.509  10.576  0.3243  0.5360 -0.4651
  475MPD2    H7 7077   0.116   1.588  10.615  1.6349 -1.1399  1.2730
  476TMC3    C1 7078   0.246   1.499  10.442 -0.1535 -0.0161  0.0530
  476TMC3    C2 7079   0.278   1.498  10.310  0.3428 -0.4196  0.2823
  476TMC3    C3 7080   0.386   1.581  10.276  0.5935 -0.3379  0.0296
  476TMC3    C4 7081   0.317   1.568  10.536  0.1681 -0.1922  0.3813
  476TMC3    C5 7082   0.412   1.651  10.497  0.2723  0.1444  0.2491
  476TMC3    C6 7083   0.447   1.659  10.366 -0.3796  0.1460  0.0253
  476TMC3     C 7084   0.122   1.439  10.475  0.0953 -1.1196 -0.1250
  476TMC3     O 7085   0.082   1.344  10.410  0.7384 -0.4027 -0.9973
  476TMC3     H 7086   0.219   1.448  10.234  0.8045 -0.8322  0.1928
  476TMC3    H1 7087   0.294   1.557  10.642 -1.3634 -0.4576  0.0208
  476TMC3    H2 7088   0.526   1.722  10.325  0.5930 -0.5792  0.7885
  476TMC3    C7 7089   0.491   1.705  10.600 -0.0356 -0.3527 -0.0747
  476TMC3    C8 7090   0.448   1.562  10.148  0.9073 -0.1502 -0.1811
  476TMC3    O1 7091   0.607   1.732  10.570  0.0159 -0.2145  0.1912
  476TMC3    O2 7092   0.522   1.652  10.107 -0.0595  0.3212  0.1919
  477MPD2     C 7093   2.486   2.836  12.277 -0.1085 -0.4030  1.1540
  477MPD2    C1 7094   2.442   2.804  12.150 -0.2353 -0.0699  0.7484
  477MPD2    C2 7095   2.391   2.674  12.124 -0.3763  0.1148  0.2096
  477MPD2    C3 7096   2.384   2.591  12.233  0.4345  0.4758  0.6240
  477MPD2    C4 7097   2.418   2.630  12.364  0.0245 -0.5853  0.4630
  477MPD2    C5 7098   2.460   2.752  12.382  0.0906 -0.3449 -0.1793
  477MPD2     H 7099   2.358   2.644  12.025  2.4464 -1.0740 -0.3756
  477MPD2    H1 7100   2.399   2.565  12.448  0.5959 -0.8769  0.3664
  477MPD2    H2 7101   2.534   2.931  12.299  0.0939 -0.1503 -0.3754
  477MPD2    H3 7102   2.479   2.779  12.486 -0.1508 -1.2571  0.1019
  477MPD2     N 7103   2.339   2.462  12.206 -0.2218 -0.2485 -0.1107
  477MPD2    H5 7104   2.346   2.427  12.111  2.0150  0.4254 -0.1950
  477MPD2    N1 7105   2.444   2.897  12.044  0.1528  0.2721 -0.1889
  477MPD2    H7 7106   2.477   2.989  12.069 -3.2297  1.7659 -1.1634
  478TMC3    C1 7107   2.402   3.021  11.857  0.7660 -0.1855 -0.3430
  478TMC3    C2 7108   2.314   3.106  11.920 -0.2141 -0.1680  0.1355
  478TMC3    C3 7109   2.239   3.192  11.845 -0.0408 -0.1767  0.0331
  478TMC3    C4 7110   2.413   3.021  11.719 -0.4958 -0.1458 -0.0858
  478TMC3    C5 7111   2.322   3.094  11.644 -0.4356 -0.2433 -0.2291
  478TMC3    C6 7112   2.243   3.189  11.707  0.2401 -0.1719 -0.4656
  478TMC3     C 7113   2.399   2.885  11.914 -0.1908  0.6278  0.5801
  478TMC3     O 7114   2.368   2.789  11.849  0.3640  0.0724  0.6047
  478TMC3     H 7115   2.292   3.088  12.024 -1.9363 -0.8920 -0.3498
  478TMC3    H1 7116   2.488   2.956  11.674 -0.8023  0.9516 -2.1880
  478TMC3    H2 7117   2.176   3.253  11.651 -1.1695 -1.5741 -0.3965
  478TMC3    C7 7118   2.310   3.054  11.507  0.2115  0.4132  0.4951
  478TMC3    C8 7119   2.125   3.264  11.901  0.5339 -0.0110 -0.4183
  478TMC3    O1 7120   2.404   2.993  11.458 -0.2707  0.0765  0.0808
  478TMC3    O2 7121   2.032   3.284  11.825 -0.4000 -0.2232  0.3597
  479MPD2     C 7122   1.046   0.160  15.077  0.1202 -0.8237 -1.2077
  479MPD2    C1 7123   1.039   0.147  15.211  0.3089  0.2910  0.1760
  479MPD2    C2 7124   1.151   0.156  15.290 -0.2738 -0.0080  0.1867
  479MPD2    C3 7125   1.272   0.167  15.228  0.0584 -0.3445  0.4153
  479MPD2    C4 7126   1.285   0.188  15.094 -0.3732 -0.3439  0.4394
  479MPD2    C5 7127   1.170   0.180  15.025 -0.2572 -0.3851  0.2712
  479MPD2     H 7128   1.146   0.151  15.398 -1.3383  2.2957  0.2443
  479MPD2    H1 7129   1.383   0.196  15.049  0.7512 -1.8876  2.6071
  479MPD2    H2 7130   0.963   0.147  15.008 -2.3307  1.1805  1.3867
  479MPD2    H3 7131   1.173   0.177  14.917 -0.9271  1.6605  0.2035
  479MPD2     N 7132   1.393   0.151  15.294 -0.0646 -0.1458  0.1658
  479MPD2    H5 7133   1.467   0.120  15.231  1.0162  1.9242  0.3986
  479MPD2    N1 7134   0.904   0.130  15.262 -0.2153 -0.5939 -0.2177
  479MPD2    H7 7135   0.830   0.121  15.193 -1.1600 -0.5536  0.7978
  480TMC3    C1 7136   1.242   0.311  15.701  0.0435  0.1954  0.6933
  480TMC3    C2 7137   1.220   0.434  15.648  0.6664 -0.9890  0.4896
  480TMC3    C3 7138   1.254   0.479  15.520 -0.3099 -0.1811 -0.0107
  480TMC3    C4 7139   1.309   0.217  15.629  0.0666 -0.1768  0.9281
  480TMC3    C5 7140   1.347   0.263  15.504  0.5479  0.3806  0.1878
  480TMC3    C6 7141   1.327   0.388  15.447  0.1338  0.9430 -0.3122
  480TMC3     C 7142   1.119   0.258  15.756 -0.2407  0.4247  0.0574
  480TMC3     O 7143   1.128   0.148  15.797 -0.0655 -0.2651 -0.3474
  480TMC3     H 7144   1.178   0.509  15.714 -0.8472 -2.0407  0.7196
  480TMC3    H1 7145   1.331   0.119  15.669 -1.6908 -0.0795  2.1014
  480TMC3    H2 7146   1.367   0.412  15.349 -0.2071 -0.0324 -0.6820
  480TMC3    C7 7147   1.425   0.175  15.428  0.0708  0.0517  0.2726
  480TMC3    C8 7148   1.143   0.540  15.456  0.3423 -0.4778  0.2415
  480TMC3    O1 7149   1.531   0.148  15.481  0.7363 -0.3578 -0.0778
  480TMC3    O2 7150   1.050   0.565  15.531  0.4522 -0.6600  0.4540
  481MPD2     C 7151   3.077   4.404  14.212 -0.8243 -0.6560 -0.0847
  481MPD2    C1 7152   2.979   4.307  14.210 -0.6815 -0.0942 -0.3604
  481MPD2    C2 7153   2.965   4.221  14.318 -0.0287 -0.1291 -0.1928
  481MPD2    C3 7154   3.031   4.237  14.434  1.2267 -0.2241 -0.2010
  481MPD2    C4 7155   3.141   4.325  14.428 -0.3815 -0.0156 -1.0844
  481MPD2    C5 7156   3.159   4.399  14.321  0.2572 -0.0335 -0.2628
  481MPD2     H 7157   2.900   4.136  14.303 -0.5699  0.3539 -0.5548
  481MPD2    H1 7158   3.198   4.346  14.519  0.6927 -1.5944 -1.3864
  481MPD2    H2 7159   3.093   4.464  14.123 -0.2475 -0.8302 -0.0988
  481MPD2    H3 7160   3.244   4.466  14.324  1.4331 -1.4891 -1.3721
  481MPD2     N 7161   3.018   4.152  14.546  0.0872 -0.2243 -0.5885
  481MPD2    H5 7162   3.072   4.174  14.629 -0.7208  2.3618 -0.7656
  481MPD2    N1 7163   2.897   4.299  14.095 -0.6963  0.1745  0.3187
  481MPD2    H7 7164   2.924   4.360  14.017 -0.2839  0.7110  0.8831
  482TMC3    C1 7165   2.719   4.245  13.951 -0.2708 -0.0927  0.0337
  482TMC3    C2 7166   2.596   4.184  13.944  0.7196 -0.2606  0.1422
  482TMC3    C3 7167   2.506   4.216  13.852  0.0313 -0.7281 -0.3277
  482TMC3    C4 7168   2.743   4.348  13.866 -0.6484 -0.7171 -0.1692
  482TMC3    C5 7169   2.645   4.385  13.777 -0.3252  0.0976  0.0770
  482TMC3    C6 7170   2.531   4.313  13.760 -0.2681 -0.0040  0.0378
  482TMC3     C 7171   2.782   4.228  14.078 -0.8111  0.5741  0.0773
  482TMC3     O 7172   2.727   4.159  14.164 -0.2112 -0.2672 -0.0939
  482TMC3     H 7173   2.574   4.099  14.007  1.3954 -1.0986 -0.7342
  482TMC3    H1 7174   2.838   4.400  13.866 -0.3279 -1.3034 -0.0636
  482TMC3    H2 7175   2.457   4.326  13.682 -0.6506  1.1403  0.5967
  482TMC3    C7 7176   2.686   4.483  13.682  0.5447  0.4260  0.1403
  482TMC3    C8 7177   2.366   4.165  13.861 -0.1608 -0.3216 -0.3352
  482TMC3    O1 7178   2.810   4.484  13.667  0.6183 -0.0569  0.1123
  482TMC3    O2 7179   2.360   4.047  13.890 -0.1063 -0.0496  0.7762
  483TMC3    C1 7180   0.184   2.896   1.092 -0.2222 -0.2967  0.6613
  483TMC3    C2 7181   0.219   3.032   1.104  0.1890  0.5882  0.7590
  483TMC3    C3 7182   0.322   3.074   1.184 -0.7754  0.4989 -0.0029
  483TMC3    C4 7183   0.258   2.807   1.157  0.2962 -0.1519  0.1774
  483TMC3    C5 7184   0.370   2.855   1.228 -0.5844  0.2601  0.1558
  483TMC3    C6 7185   0.406   2.984   1.253  0.3718  0.0379  0.3482
  483TMC3     C 7186   0.045   2.878   1.047 -0.5258  0.4836 -0.9968
  483TMC3     O 7187   4.689   2.831   1.126  0.1296  0.0293 -0.7916
  483TMC3     H 7188   0.141   3.098   1.067  0.0868 -0.8759 -1.6343
  483TMC3    H1 7189   0.228   2.703   1.149  0.8067 -0.4614  2.1581
  483TMC3    H2 7190   0.492   3.007   1.315  0.0341  0.5142  0.6354
  483TMC3    C7 7191   0.470   2.758   1.269  0.1589  0.2215 -1.0706
  483TMC3    C8 7192   0.359   3.208   1.182  0.1347 -0.9504  0.3912
  483TMC3    O1 7193   0.539   2.798   1.359  0.2201  0.0178  0.1721
  483TMC3    O2 7194   0.321   3.265   1.086  0.5265  0.4354 -0.1247
  484MPD2     C 7195   2.843   1.678  12.417  0.3018 -0.7901  0.7068
  484MPD2    C1 7196   2.896   1.588  12.507 -0.6969  0.0972 -0.3686
  484MPD2    C2 7197   3.036   1.569  12.502  0.1095  0.3549  0.5295
  484MPD2    C3 7198   3.111   1.652  12.425 -0.4067 -0.0450 -0.3613
  484MPD2    C4 7199   3.055   1.743  12.341  0.7235  0.1287 -0.2145
  484MPD2    C5 7200   2.918   1.756  12.336 -0.3103 -0.1599 -0.0397
  484MPD2     H 7201   3.089   1.502  12.568  2.7447  1.1474 -0.7606
  484MPD2    H1 7202   3.122   1.796  12.273  0.4032  2.1114  1.0122
  484MPD2    H2 7203   2.739   1.707  12.414  0.8638  1.0965 -0.4277
  484MPD2    H3 7204   2.868   1.831  12.275 -1.1256  0.1041  0.9483
  484MPD2     N 7205   3.247   1.648  12.409  0.3712  0.3033 -0.4917
  484MPD2    H5 7206   3.288   1.718  12.348 -1.3587 -0.1408 -2.1736
  484MPD2    N1 7207   2.811   1.527  12.600  0.1814  0.5548 -0.7196
  484MPD2    H7 7208   2.713   1.553  12.596 -0.4517 -1.5033  1.1761
  485TMC3    C1 7209   3.467   1.594  12.414  0.4965  1.1022 -0.7374
  485TMC3    C2 7210   3.568   1.519  12.467  0.7934 -0.7173 -0.3301
  485TMC3    C3 7211   3.692   1.544  12.418 -0.2730  0.0221 -0.3194
  485TMC3    C4 7212   3.486   1.666  12.299  0.3365  0.2305 -0.2664
  485TMC3    C5 7213   3.614   1.685  12.239  0.0422 -0.2146 -0.0476
  485TMC3    C6 7214   3.720   1.630  12.306 -0.0216 -0.2055  0.0207
  485TMC3     C 7215   3.339   1.573  12.477 -0.4186  0.2592 -0.4555
  485TMC3     O 7216   3.330   1.484  12.562 -0.1370  0.2170 -0.5379
  485TMC3     H 7217   3.561   1.467  12.562  0.1783 -0.8537 -0.4511
  485TMC3    H1 7218   3.398   1.684  12.238 -0.7389  0.8672  1.4683
  485TMC3    H2 7219   3.821   1.656  12.277  0.3901 -0.6552  1.0297
  485TMC3    C7 7220   3.613   1.646  12.101 -1.0643 -0.0023  0.2091
  485TMC3    C8 7221   3.782   1.427  12.400  0.2880  0.1577  0.0484
  485TMC3    O1 7222   3.523   1.694  12.033 -0.3462  0.0053  0.9058
  485TMC3    O2 7223   3.850   1.428  12.299  0.2679  0.2540 -0.2562
  486MPD2     C 7224   0.231   0.095  13.195  0.4858 -0.1832 -0.1849
  486MPD2    C1 7225   0.261   0.041  13.066 -0.1906 -0.3235 -0.4069
  486MPD2    C2 7226   0.301   0.131  12.975  0.0681  0.0587 -0.1542
  486MPD2    C3 7227   0.316   0.269  13.010 -0.4775  0.3479  0.0783
  486MPD2    C4 7228   0.275   0.317  13.132 -0.0021 -0.6313 -0.3819
  486MPD2    C5 7229   0.225   0.232  13.225 -0.3199  0.1669  0.2435
  486MPD2     H 7230   0.338   0.098  12.878  1.8882  0.5964  0.3547
  486MPD2    H1 7231   0.270   0.421  13.165 -1.4222 -1.1763  1.1135
  486MPD2    H2 7232   0.194   0.037  13.278  0.1284  1.2222  0.6382
  486MPD2    H3 7233   0.191   0.258  13.325 -0.9558  0.0030  0.0718
  486MPD2     N 7234   0.356   0.364  12.911 -0.5124  0.5919 -0.6411
  486MPD2    H5 7235   0.386   0.341  12.817  1.0577  2.0918 -0.4977
  486MPD2    N1 7236   0.253   4.626  13.052  0.8764  0.1436 -0.1426
  486MPD2    H7 7237   0.235   4.570  13.136 -2.3350  1.5620  0.0874
  487TMC3    C1 7238   0.281   4.421  12.944 -0.1072 -0.2263  0.2290
  487TMC3    C2 7239   0.221   4.345  12.843 -0.0633  0.2762  0.0905
  487TMC3    C3 7240   0.215   4.209  12.858  0.1839  0.4750  0.0489
  487TMC3    C4 7241   0.337   4.365  13.057  0.1740  0.3351 -0.4427
  487TMC3    C5 7242   0.330   4.229  13.066  0.4460  0.5516  0.2081
  487TMC3    C6 7243   0.271   4.150  12.966 -0.2469  0.2745  0.3956
  487TMC3     C 7244   0.267   4.562  12.931  0.3787  0.2945  0.0194
  487TMC3     O 7245   0.243   4.609  12.820  0.0938  0.4006  0.2383
  487TMC3     H 7246   0.168   4.395  12.763  0.9715 -1.1976 -1.5131
  487TMC3    H1 7247   0.400   4.426  13.120  1.1390  1.2485 -2.3110
  487TMC3    H2 7248   0.261   4.042  12.975  0.6104  0.1672  0.0564
  487TMC3    C7 7249   0.319   4.178  13.207 -0.4134 -0.9920 -0.1847
  487TMC3    C8 7250   0.220   4.143  12.727 -0.1776  0.3513  0.2822
  487TMC3    O1 7251   0.380   4.249  13.284  0.4015 -0.5131 -0.9823
  487TMC3    O2 7252   0.252   4.214  12.634 -0.3387  0.4629 -0.0739
  488MPD2     C 7253   0.795   1.895  16.554  0.1808 -0.0258 -0.4860
  488MPD2    C1 7254   0.760   2.026  16.573 -0.2468 -0.3643 -0.2867
  488MPD2    C2 7255   0.691   2.064  16.683  0.7324 -0.7152 -0.6066
  488MPD2    C3 7256   0.663   1.972  16.781 -0.8581 -0.0181 -0.5566
  488MPD2    C4 7257   0.699   1.840  16.766 -0.1737 -0.4004  0.2080
  488MPD2    C5 7258   0.764   1.802  16.653 -0.1483  0.7813 -0.4753
  488MPD2     H 7259   0.659   2.165  16.701  1.0726 -0.7111 -0.0278
  488MPD2    H1 7260   0.684   1.762  16.840 -3.7697 -1.9969 -2.1695
  488MPD2    H2 7261   0.852   1.867  16.467  2.2589  1.8661  0.2684
  488MPD2    H3 7262   0.801   1.701  16.637 -1.3260  0.1959  0.5148
  488MPD2     N 7263   0.592   2.023  16.895 -0.1624 -0.0593 -0.7542
  488MPD2    H5 7264   0.573   2.123  16.892 -2.2274 -0.3527  1.9514
  488MPD2    N1 7265   0.790   2.134  16.477 -0.3527 -0.0993  0.3468
  488MPD2    H7 7266   0.757   2.229  16.489  2.3014  0.7152  1.3285
  489TMC3    C1 7267   0.464   2.042  17.099 -0.5400  0.0867 -0.3539
  489TMC3    C2 7268   0.405   2.160  17.058 -0.3168 -0.1992  0.1580
  489TMC3    C3 7269   0.349   2.237  17.154  0.7736  0.1165  0.1703
  489TMC3    C4 7270   0.469   1.999  17.232  0.4721 -0.4755  0.3696
  489TMC3    C5 7271   0.435   2.089  17.325  0.4664  0.3795  0.5477
  489TMC3    C6 7272   0.375   2.207  17.284  0.7944  0.1794 -0.7151
  489TMC3     C 7273   0.537   1.952  17.001  0.1537  0.3792  0.7426
  489TMC3     O 7274   0.545   1.832  17.023  0.1773 -0.0442  0.2957
  489TMC3     H 7275   0.394   2.186  16.953 -0.3970  0.1456  0.2528
  489TMC3    H1 7276   0.513   1.904  17.260  0.2960 -1.1222 -1.5936
  489TMC3    H2 7277   0.366   2.286  17.358  1.3141 -0.3100 -0.1276
  489TMC3    C7 7278   0.478   2.082  17.459  0.0073  0.8531 -1.2199
  489TMC3    C8 7279   0.336   2.379  17.125 -1.1776 -1.0204 -0.1866
  489TMC3    O1 7280   0.480   2.181  17.529 -0.0851 -0.2683 -0.3444
  489TMC3    O2 7281   0.400   2.426  17.031 -0.4510  0.5080 -0.2246
  490MPD2     C 7282   1.247   1.671   0.019 -0.6741 -0.5522  0.9487
  490MPD2    C1 7283   1.329   1.561   0.016  0.2439  0.1086  0.6525
  490MPD2    C2 7284   1.457   1.572   0.081 -0.2358  0.1379 -0.1229
  490MPD2    C3 7285   1.494   1.687   0.145  0.8974  0.2527 -0.2988
  490MPD2    C4 7286   1.425   1.799   0.127  0.0510  0.3938 -0.0893
  490MPD2    C5 7287   1.300   1.792   0.063 -0.1254  0.1779  0.2809
  490MPD2     H 7288   1.526   1.489   0.090 -2.8860 -2.0422  0.2275
  490MPD2    H1 7289   1.444   1.888   0.186 -0.8219 -0.2321  1.1508
  490MPD2    H2 7290   1.144   1.673  17.680 -0.7535 -0.1971  1.2254
  490MPD2    H3 7291   1.241   1.883   0.065 -0.5378 -0.0467 -1.5183
  490MPD2     N 7292   1.613   1.696   0.224 -0.4599  0.4233  0.2340
  490MPD2    H5 7293   1.642   1.793   0.235  0.6912  0.1947 -0.8422
  490MPD2    N1 7294   1.290   1.440  17.645 -0.3652  0.0781 -0.2633
  490MPD2    H7 7295   1.339   1.352  17.656 -0.2604  0.1926  0.1961
  491TMC3    C1 7296   1.189   1.293  17.487 -0.1075 -0.4276 -0.0216
  491TMC3    C2 7297   1.256   1.192  17.550  0.1903  0.3787 -0.3587
  491TMC3    C3 7298   1.222   1.060  17.518 -0.4173  0.5503 -0.6053
  491TMC3    C4 7299   1.081   1.264  17.402  0.1899 -0.4279  0.1162
  491TMC3    C5 7300   1.050   1.132  17.370  0.6711 -0.0435 -0.1301
  491TMC3    C6 7301   1.130   1.029  17.422  0.3626  0.2238  0.6621
  491TMC3     C 7302   1.196   1.433  17.544  0.6404  0.0236  0.5036
  491TMC3     O 7303   1.132   1.516  17.483  0.2581 -0.4081  0.1017
  491TMC3     H 7304   1.320   1.201  17.637 -0.3962 -0.9750  0.2072
  491TMC3    H1 7305   1.022   1.344  17.360  1.0149 -0.0632 -0.3497
  491TMC3    H2 7306   1.104   0.926  17.404  0.9377 -0.2937  2.7835
  491TMC3    C7 7307   0.920   1.094  17.323  0.2416 -0.5473  0.5719
  491TMC3    C8 7308   1.209   0.979  17.638 -0.4358 -0.3094 -0.3928
  491TMC3    O1 7309   0.888   0.977  17.332  0.1697 -0.1134 -0.1500
  491TMC3    O2 7310   1.159   1.038   0.035  0.3520 -0.0150 -0.2800
  492MPD2     C 7311   1.601   0.935  11.669  0.8936  0.1539 -0.8578
  492MPD2    C1 7312   1.552   0.900  11.543 -0.6548 -0.2919  0.0215
  492MPD2    C2 7313   1.456   0.798  11.535 -0.5346  0.1349 -0.0828
  492MPD2    C3 7314   1.413   0.741  11.650 -0.1998  0.1926  0.5410
  492MPD2    C4 7315   1.444   0.791  11.775  0.2271  0.0984 -0.4006
  492MPD2    C5 7316   1.541   0.886  11.788 -0.5543  0.0152 -0.1751
  492MPD2     H 7317   1.405   0.766  11.445 -1.8116  1.5272  0.1516
  492MPD2    H1 7318   1.407   0.752  11.869  1.3666 -2.0762 -0.8606
  492MPD2    H2 7319   1.685   1.003  11.673 -0.4374  1.5516  2.7209
  492MPD2    H3 7320   1.569   0.916  11.889 -3.8855 -0.3126  0.8211
  492MPD2     N 7321   1.314   0.639  11.655  0.7204 -0.4403  0.0021
  492MPD2    H5 7322   1.273   0.615  11.744  0.2982 -0.8257 -0.2976
  492MPD2    N1 7323   1.606   0.970  11.438 -0.6184 -0.3562 -1.4747
  492MPD2    H7 7324   1.679   1.035  11.464 -1.7974 -0.9544  3.4451
  493TMC3    C1 7325   1.643   1.027  11.212  0.4497  0.1695 -0.2460
  493TMC3    C2 7326   1.762   1.082  11.244  0.6289 -0.0641 -0.1388
  493TMC3    C3 7327   1.827   1.152  11.142 -0.0496  0.2953  0.7627
  493TMC3    C4 7328   1.583   1.044  11.088 -0.9061  0.4291 -0.1216
  493TMC3    C5 7329   1.649   1.128  11.005 -0.1602  1.1364  0.8200
  493TMC3    C6 7330   1.771   1.180  11.019 -0.4544 -0.4736  0.1393
  493TMC3     C 7331   1.571   0.950  11.310  0.2973  0.4538 -0.1797
  493TMC3     O 7332   1.475   0.884  11.262  0.2604 -0.2622  0.0489
  493TMC3     H 7333   1.807   1.078  11.343 -1.1298 -1.6878  0.5652
  493TMC3    H1 7334   1.488   0.995  11.071 -0.6369  0.3638 -1.4464
  493TMC3    H2 7335   1.832   1.215  10.935  1.0585 -0.3730  1.2795
  493TMC3    C7 7336   1.599   1.116  10.869  0.7032 -0.0357  0.9185
  493TMC3    C8 7337   1.964   1.196  11.168  0.3966 -0.7877  0.4400
  493TMC3    O1 7338   1.613   1.216  10.806  0.1361 -0.4633 -0.1664
  493TMC3    O2 7339   2.009   1.169  11.278  0.0170 -0.2029  0.0660
  494TMC3    C1 7340   2.181   3.210   0.797  1.0160 -0.1084 -0.1776
  494TMC3    C2 7341   2.187   3.111   0.896 -0.1847 -0.3963  0.6944
  494TMC3    C3 7342   2.156   2.979   0.860 -0.3628 -0.3952 -0.1788
  494TMC3    C4 7343   2.118   3.185   0.676  0.0039  0.1960 -0.3610
  494TMC3    C5 7344   2.078   3.053   0.654 -0.1791 -0.5946  0.6118
  494TMC3    C6 7345   2.107   2.949   0.736  0.1435  0.1760 -0.1300
  494TMC3     C 7346   2.215   3.348   0.833 -0.9308 -0.1450  1.0215
  494TMC3     O 7347   2.272   3.364   0.940 -0.0325 -0.1385 -0.3881
  494TMC3     H 7348   2.216   3.144   0.995  1.2341 -2.0721  0.8490
  494TMC3    H1 7349   2.130   3.252   0.592 -2.0247  0.3680 -0.5108
  494TMC3    H2 7350   2.066   2.853   0.705  0.7335 -0.8912  2.4186
  494TMC3    C7 7351   2.038   3.021   0.519  0.1100 -0.0692 -0.2546
  494TMC3    C8 7352   2.146   2.882   0.964  0.0657  0.6767 -0.4943
  494TMC3    O1 7353   2.062   2.907   0.479 -0.3359  0.6252  0.2225
  494TMC3    O2 7354   2.246   2.864   1.033  0.3124  0.1306  0.6468
  495TMC3    C1 7355   1.158   0.368  14.479  0.0384 -0.2331 -0.5213
  495TMC3    C2 7356   1.033   0.387  14.413 -0.0088 -0.1125 -0.5184
  495TMC3    C3 7357   0.924   0.435  14.487  0.7668 -0.0639  0.2629
  495TMC3    C4 7358   1.171   0.400  14.611  0.2888  0.8312  0.7020
  495TMC3    C5 7359   1.056   0.444  14.677  0.2856 -0.0759 -0.1724
  495TMC3    C6 7360   0.936   0.461  14.621  0.3157  0.5862  0.5939
  495TMC3     C 7361   1.210   0.243  14.431 -0.0681  0.6844 -0.1959
  495TMC3     O 7362   1.137   0.174  14.361  0.4755  0.1055  0.2852
  495TMC3     H 7363   1.028   0.385  14.305  1.0439 -0.6248 -0.5629
  495TMC3    H1 7364   1.260   0.369  14.665 -0.6765 -1.5415  0.8964
  495TMC3    H2 7365   0.845   0.490  14.672 -0.5803 -2.1515  0.5448
  495TMC3    C7 7366   1.070   0.487  14.812  0.3889  0.2483  0.3752
  495TMC3    C8 7367   0.806   0.350  14.456  0.0323  0.3843  0.6171
  495TMC3    O1 7368   1.182   0.508  14.846 -0.0626 -0.0043 -0.4298
  495TMC3    O2 7369   0.710   0.362  14.535  0.1088  0.3937  0.8858
  496MPD2     C 7370   2.637   0.204  15.043  0.1535 -0.4154  0.4632
  496MPD2    C1 7371   2.658   0.141  15.164 -0.1164  0.8104 -0.6210
  496MPD2    C2 7372   2.559   0.153  15.261 -0.3663  0.5143 -0.6664
  496MPD2    C3 7373   2.446   0.233  15.249  0.2343 -0.1539 -0.5646
  496MPD2    C4 7374   2.455   0.326  15.144  0.2972  0.0786  0.2959
  496MPD2    C5 7375   2.541   0.307  15.041 -0.6886  0.5215 -0.3719
  496MPD2     H 7376   2.575   0.108  15.357 -1.0925  1.7422  0.0387
  496MPD2    H1 7377   2.367   0.388  15.128  0.1459 -0.5656 -1.4323
  496MPD2    H2 7378   2.702   0.182  14.958 -1.2052 -0.1096 -0.6497
  496MPD2    H3 7379   2.530   0.365  14.950 -0.9373  3.1537  1.3107
  496MPD2     N 7380   2.356   0.260  15.355 -0.5881 -0.2910  0.6130
  496MPD2    H5 7381   2.299   0.344  15.356 -1.0114 -0.5409 -2.9321
  496MPD2    N1 7382   2.783   0.073  15.179  0.3263 -1.0569  0.3019
  496MPD2    H7 7383   2.854   0.085  15.107  2.1849 -0.6999  2.2224
  497TMC3    C1 7384   2.214   0.197  15.532  0.5699 -0.3715 -0.0824
  497TMC3    C2 7385   2.118   0.099  15.555 -0.3496 -0.3551  0.2401
  497TMC3    C3 7386   2.008   0.138  15.635  0.4653 -0.0376  0.0345
  497TMC3    C4 7387   2.212   0.317  15.586  0.4076  0.4898  0.3816
  497TMC3    C5 7388   2.103   0.348  15.662 -0.1683  0.8440  0.1655
  497TMC3    C6 7389   1.992   0.265  15.680  0.1521  0.4077  0.1478
  497TMC3     C 7390   2.334   0.169  15.457 -0.1769  0.1646 -0.3797
  497TMC3     O 7391   2.361   0.048  15.445  0.4149  0.0620 -0.7181
  497TMC3     H 7392   2.133   4.721  15.521 -2.3711 -0.8570  0.8032
  497TMC3    H1 7393   2.295   0.387  15.578 -1.3479  2.7439  1.8906
  497TMC3    H2 7394   1.913   0.299  15.746 -0.9769  0.8437 -1.4144
  497TMC3    C7 7395   2.128   0.440  15.774 -0.6243  0.2407  0.1318
  497TMC3    C8 7396   1.911   0.043  15.665 -0.0299  0.4039 -0.3092
  497TMC3    O1 7397   2.032   0.467  15.840  0.3171  0.4564 -0.4658
  497TMC3    O2 7398   1.796   0.087  15.679 -0.1978 -0.5339  0.1340
  498MPD2     C 7399   4.337   0.271   9.722 -1.4533 -0.4862 -1.2057
  498MPD2    C1 7400   4.441   0.218   9.655 -0.0706 -0.3852  0.8985
  498MPD2    C2 7401   4.437   0.083   9.642 -0.2384  0.5245 -0.3422
  498MPD2    C3 7402   4.336   0.007   9.688 -0.0384  0.3898 -0.0006
  498MPD2    C4 7403   4.234   0.060   9.761 -0.1317 -0.1418 -0.0122
  498MPD2    C5 7404   4.236   0.193   9.774 -0.2614 -0.1402 -0.5218
  498MPD2     H 7405   4.524   0.031   9.605 -0.5406 -0.9419  0.9839
  498MPD2    H1 7406   4.148   0.002   9.792  0.2984  0.3400  2.0966
  498MPD2    H2 7407   4.333   0.376   9.749  3.6187 -0.2348 -1.3985
  498MPD2    H3 7408   4.157   0.246   9.827  0.1836  0.8323 -0.8268
  498MPD2     N 7409   4.334   4.588   9.661 -0.1541  0.4514  0.4658
  498MPD2    H5 7410   4.423   4.539   9.654 -0.0127  0.8507 -0.4440
  498MPD2    N1 7411   4.545   0.294   9.607 -0.6336  0.2171  0.4335
  498MPD2    H7 7412   4.607   0.249   9.541 -1.6468  0.5724 -0.7803
  499TMC3    C1 7413   4.666   0.477   9.534  0.2891 -0.0797  1.0332
  499TMC3    C2 7414   0.008   0.397   9.445 -0.4719 -0.0423  0.4538
  499TMC3    C3 7415   0.110   0.449   9.370  0.5552  0.2836  0.1978
  499TMC3    C4 7416   4.697   0.610   9.538  0.0701  0.1464  0.3061
  499TMC3    C5 7417   0.064   0.656   9.450 -0.6762 -0.4326  0.0311
  499TMC3    C6 7418   0.137   0.580   9.370  0.4353  0.2607  0.5562
  499TMC3     C 7419   4.560   0.429   9.618  0.1780 -0.2306 -0.7743
  499TMC3     O 7420   4.487   0.506   9.677 -0.6477  0.8208 -0.1615
  499TMC3     H 7421   4.686   0.304   9.413  1.9292  0.0792 -3.2913
  499TMC3    H1 7422   4.634   0.677   9.596  0.3242 -0.2146  1.0062
  499TMC3    H2 7423   0.211   0.620   9.302 -1.2414  0.9639 -0.8441
  499TMC3    C7 7424   0.111   0.791   9.482 -0.2332  0.1411  0.2310
  499TMC3    C8 7425   0.194   0.369   9.289  0.2259  0.8330 -0.3088
  499TMC3    O1 7426   0.044   0.864   9.555 -0.1736 -0.2625 -0.9672
  499TMC3    O2 7427   0.264   0.425   9.205 -0.0681 -0.3294  0.4182
  500MPD2     C 7428   1.156   2.460  10.954 -1.2495  0.4702  0.0964
  500MPD2    C1 7429   1.171   2.497  10.821 -0.2077 -0.3639  0.1369
  500MPD2    C2 7430   1.059   2.490  10.741 -0.0171  0.4279  0.3930
  500MPD2    C3 7431   0.937   2.446  10.789 -0.3954  0.0389  0.3686
  500MPD2    C4 7432   0.930   2.409  10.921  0.6181 -0.8762  0.2148
  500MPD2    C5 7433   1.038   2.420  10.999  0.0739  1.0180  0.1627
  500MPD2     H 7434   1.068   2.545  10.648  2.7271  0.3074  0.5840
  500MPD2    H1 7435   0.840   2.363  10.961  0.4609  0.0639  0.9391
  500MPD2    H2 7436   1.240   2.470  11.022 -0.7764 -0.8402 -0.2993
  500MPD2    H3 7437   1.025   2.406  11.106 -1.7332 -0.4438 -0.2452
  500MPD2     N 7438   0.825   2.426  10.702  0.2021 -0.1683  0.2781
  500MPD2    H5 7439   0.735   2.416  10.747  1.0500 -2.7132  1.3653
  500MPD2    N1 7440   1.303   2.538  10.782  0.0122  0.1949  0.0312
  500MPD2    H7 7441   1.369   2.548  10.859 -1.1338 -0.9037  1.1537
  501TMC3    C1 7442   1.483   2.610  10.651 -0.0997 -0.3998  0.2474
  501TMC3    C2 7443   1.534   2.698  10.559  0.4823 -0.0817  0.1508
  501TMC3    C3 7444   1.670   2.719  10.558 -0.3171  0.3827  0.2730
  501TMC3    C4 7445   1.564   2.549  10.745  0.5617  0.0310  0.2764
  501TMC3    C5 7446   1.700   2.571  10.741  0.4519  0.6214  0.4123
  501TMC3    C6 7447   1.755   2.663  10.654 -0.2432  0.0599  0.3832
  501TMC3     C 7448   1.339   2.580  10.654 -0.4630  0.1965 -0.0092
  501TMC3     O 7449   1.272   2.602  10.554 -0.4501  0.1812  0.2196
  501TMC3     H 7450   1.475   2.721  10.471  0.0570 -0.6540  0.2840
  501TMC3    H1 7451   1.534   2.475  10.817 -1.7709  1.0697  0.3480
  501TMC3    H2 7452   1.858   2.693  10.643 -0.0708 -0.0879  1.6087
  501TMC3    C7 7453   1.789   2.481  10.807 -0.0030 -0.1399 -0.0633
  501TMC3    C8 7454   1.711   2.861  10.527  0.6691  0.2300 -0.9098
  501TMC3    O1 7455   1.745   2.367  10.827  0.3070  0.0863 -0.2261
  501TMC3    O2 7456   1.823   2.903  10.557  0.2535  0.5474 -0.0483
  502TMC3    C1 7457   0.311   1.011  15.647 -0.2728 -0.5317  0.0504
  502TMC3    C2 7458   0.357   1.119  15.571 -0.2625  0.3090 -0.1072
  502TMC3    C3 7459   0.346   1.110  15.433 -0.1859 -0.8234  0.1037
  502TMC3    C4 7460   0.237   0.913  15.594 -0.0079 -0.0576  0.8696
  502TMC3    C5 7461   0.220   0.916  15.461  0.3563  0.4702  0.3672
  502TMC3    C6 7462   0.276   1.009  15.378 -0.6230 -0.0212  0.3207
  502TMC3     C 7463   0.368   0.993  15.780 -0.9679 -0.1636 -0.9098
  502TMC3     O 7464   0.492   0.986  15.778  0.7991  0.0328 -0.0137
  502TMC3     H 7465   0.416   1.198  15.617 -2.0465  1.7663 -0.3359
  502TMC3    H1 7466   0.203   0.829  15.654  0.9099 -1.1627 -0.1601
  502TMC3    H2 7467   0.264   1.011  15.270  3.0357 -0.0376 -0.0784
  502TMC3    C7 7468   0.128   0.817  15.398  0.3292  0.2960  0.0484
  502TMC3    C8 7469   0.313   1.228  15.357  0.1743 -0.6063 -0.3800
  502TMC3    O1 7470   0.176   0.717  15.341  0.1601  0.5170 -0.4508
  502TMC3    O2 7471   0.341   1.236  15.240  0.1954 -0.2157 -0.0239
  503MPD2     C 7472   2.406   1.703  17.090 -0.4014  0.3422  0.1021
  503MPD2    C1 7473   2.397   1.718  17.223 -0.1014 -0.2640  0.2037
  503MPD2    C2 7474   2.452   1.624  17.306  0.8190 -1.2519 -0.0030
  503MPD2    C3 7475   2.515   1.511  17.261 -0.5101 -0.0005 -0.4842
  503MPD2    C4 7476   2.530   1.502  17.122  0.2645 -0.8487 -0.1618
  503MPD2    C5 7477   2.479   1.601  17.039  0.0305 -0.3114 -0.6178
  503MPD2     H 7478   2.447   1.646  17.412 -4.0312  2.5512 -0.9937
  503MPD2    H1 7479   2.585   1.418  17.081  2.4195  0.6791 -0.3289
  503MPD2    H2 7480   2.366   1.776  17.020 -0.3138  0.1099 -0.1912
  503MPD2    H3 7481   2.496   1.593  16.932 -0.0227  0.8153 -0.7166
  503MPD2     N 7482   2.571   1.410  17.351  0.0043 -0.5511  0.8790
  503MPD2    H5 7483   2.545   1.421  17.448  0.5356  0.3896  0.9111
  503MPD2    N1 7484   2.333   1.831  17.288 -0.4143 -0.1158  0.3355
  503MPD2    H7 7485   2.359   1.841  17.386  1.6841 -2.8130  0.0753
  504TMC3    C1 7486   2.703   1.232  17.427  0.6387  0.0320  0.6308
  504TMC3    C2 7487   2.609   1.187  17.516 -0.1417 -0.0188 -0.3242
  504TMC3    C3 7488   2.631   1.072  17.589  0.2450 -0.4844 -0.4315
  504TMC3    C4 7489   2.818   1.158  17.413  0.2096 -0.1011 -0.4858
  504TMC3    C5 7490   2.826   1.035  17.472  0.5343  0.0388  0.4389
  504TMC3    C6 7491   2.738   0.992  17.565 -0.4325 -0.3292  0.1872
  504TMC3     C 7492   2.666   1.314  17.318  0.6547 -0.1129 -0.2259
  504TMC3     O 7493   2.738   1.310  17.221  0.0726  0.2495  0.2124
  504TMC3     H 7494   2.513   1.236  17.524  0.5845  1.0513  1.8205
  504TMC3    H1 7495   2.893   1.192  17.342 -0.6841  0.5537 -1.1116
  504TMC3    H2 7496   2.755   0.907  17.631 -0.4619 -1.2770 -1.0335
  504TMC3    C7 7497   2.921   0.943  17.416 -0.2253 -0.3444  0.0116
  504TMC3    C8 7498   2.541   1.039   0.004 -0.0303  0.2504  0.4401
  504TMC3    O1 7499   3.013   0.989  17.346 -0.0059  0.0070 -0.1735
  504TMC3    O2 7500   2.417   1.051  17.687  0.2761 -0.2647  0.0797
  505MPD2     C 7501   3.961   4.081  10.328 -0.0472 -0.6260  0.7250
  505MPD2    C1 7502   3.952   3.947  10.310 -0.1756  0.2752 -0.3133
  505MPD2    C2 7503   4.059   3.867  10.325 -0.0448  0.6131 -0.3381
  505MPD2    C3 7504   4.174   3.920  10.372 -0.2731 -0.1670  0.6266
  505MPD2    C4 7505   4.183   4.058  10.406  0.3967  0.1524 -0.5344
  505MPD2    C5 7506   4.069   4.132  10.386  0.1813 -0.1156 -0.2683
  505MPD2     H 7507   4.053   3.760  10.307 -2.5287  0.6561  0.2400
  505MPD2    H1 7508   4.274   4.106  10.439 -0.4579  1.3139  0.1550
  505MPD2    H2 7509   3.874   4.142  10.307  1.7445  1.4831 -0.4779
  505MPD2    H3 7510   4.070   4.239  10.405 -1.8780 -0.2405  0.6264
  505MPD2     N 7511   4.288   3.837  10.405  0.4798  0.1815 -1.0372
  505MPD2    H5 7512   4.369   3.874  10.452 -0.3523 -0.2534  0.7572
  505MPD2    N1 7513   3.819   3.901  10.265 -0.2661  0.4798 -0.7847
  505MPD2    H7 7514   3.746   3.969  10.245  0.2293  1.4996  0.8648
  506TMC3    C1 7515   3.659   3.726  10.212 -0.3076  0.4101  0.1138
  506TMC3    C2 7516   3.626   3.775  10.088 -0.3650 -0.0203 -0.1107
  506TMC3    C3 7517   3.580   3.684  10.000 -0.0218  0.2279  0.1945
  506TMC3    C4 7518   3.626   3.604  10.245  0.1703  0.0817 -0.3188
  506TMC3    C5 7519   3.560   3.521  10.160 -0.1036 -0.1074  0.2035
  506TMC3    C6 7520   3.537   3.563  10.034 -0.3150 -0.1742 -0.0143
  506TMC3     C 7521   3.788   3.767  10.270  1.0230 -0.3541 -0.7031
  506TMC3     O 7522   3.849   3.668  10.304  0.1187 -0.4826 -0.0916
  506TMC3     H 7523   3.644   3.879  10.065 -2.5537  0.8241  2.0480
  506TMC3    H1 7524   3.624   3.572  10.349 -1.1493 -0.3392 -0.4804
  506TMC3    H2 7525   3.508   3.489   9.961 -2.9999  0.8117  0.0568
  506TMC3    C7 7526   3.636   3.395  10.157 -0.1178 -0.2908  0.3320
  506TMC3    C8 7527   3.584   3.707   9.856 -1.2554  0.0012  0.7699
  506TMC3    O1 7528   3.594   3.300  10.094 -0.4224  0.1250  0.7879
  506TMC3    O2 7529   3.520   3.633   9.783 -0.1576 -0.7231  0.1223
  507TMC3    C1 7530   3.697   1.209  14.965  0.1773  0.4733  0.4359
  507TMC3    C2 7531   3.689   1.096  14.888 -0.3362  0.0213  0.3316
  507TMC3    C3 7532   3.725   1.102  14.754  0.3804 -0.0398  0.3199
  507TMC3    C4 7533   3.731   1.324  14.907  0.1937  0.1744  1.0028
  507TMC3    C5 7534   3.773   1.332  14.778 -0.0818 -0.5598  0.5791
  507TMC3    C6 7535   3.773   1.217  14.697  0.3222  0.1907  0.9663
  507TMC3     C 7536   3.693   1.196  15.110 -0.3910  0.8674  0.1159
  507TMC3     O 7537   3.761   1.280  15.169  0.3511  0.5640 -0.5147
  507TMC3     H 7538   3.650   1.009  14.940 -1.7045  0.6610  0.3678
  507TMC3    H1 7539   3.726   1.416  14.965 -0.6070  0.6676  0.1599
  507TMC3    H2 7540   3.803   1.227  14.593  0.9863  0.8677  1.2160
  507TMC3    C7 7541   3.723   1.440  14.694  0.0440 -0.4572 -0.7454
  507TMC3    C8 7542   3.614   1.051  14.670 -1.0641  0.2116  0.5209
  507TMC3    O1 7543   3.682   1.395  14.585 -0.3628  0.1507 -0.0675
  507TMC3    O2 7544   3.556   0.963  14.730  0.1460 -0.0282  0.0832
  508MPD2     C 7545   4.210   3.572  16.348  0.3699  0.2894 -0.3587
  508MPD2    C1 7546   4.309   3.670  16.327 -0.0555 -0.2941 -0.4534
  508MPD2    C2 7547   4.326   3.719  16.201 -0.7426 -0.4862 -0.0036
  508MPD2    C3 7548   4.243   3.674  16.095  0.5582  0.0969  0.1404
  508MPD2    C4 7549   4.144   3.580  16.117  0.4037 -0.2585  0.6657
  508MPD2    C5 7550   4.127   3.536  16.245 -0.5891 -0.2569 -0.5460
  508MPD2     H 7551   4.409   3.783  16.174 -1.2891 -0.5932 -1.9314
  508MPD2    H1 7552   4.078   3.536  16.044 -0.9634  3.0038 -0.0459
  508MPD2    H2 7553   4.190   3.546  16.451  0.2830 -0.2731 -0.5167
  508MPD2    H3 7554   4.043   3.470  16.264  0.0930 -0.8052  0.5617
  508MPD2     N 7555   4.252   3.739  15.971  1.0908 -0.1261 -0.1380
  508MPD2    H5 7556   4.314   3.819  15.972  0.6904  0.1869 -0.1991
  508MPD2    N1 7557   4.383   3.710  16.437 -0.2470 -0.3333 -0.1457
  508MPD2    H7 7558   4.365   3.663  16.525 -0.2856 -1.0017 -0.5123
  509TMC3    C1 7559   4.145   3.918  15.553 -0.4696 -0.3200 -0.2432
  509TMC3    C2 7560   4.265   3.988  15.544  0.6196 -0.2493 -0.7461
  509TMC3    C3 7561   4.364   3.941  15.622  0.1531 -0.3187 -0.6814
  509TMC3    C4 7562   4.121   3.828  15.652  0.5233 -0.3149  0.0373
  509TMC3    C5 7563   4.212   3.811  15.748 -0.1072 -0.7565 -0.8860
  509TMC3    C6 7564   4.335   3.864  15.730 -0.4234 -0.1814 -0.2972
  509TMC3     C 7565   4.023   3.975  15.491  0.5630  0.4939  0.0140
  509TMC3     O 7566   3.914   3.955  15.547 -0.1408 -0.1811 -0.4416
  509TMC3     H 7567   4.292   4.052  15.460  0.9982  1.2429  0.5105
  509TMC3    H1 7568   4.023   3.787  15.670 -0.2998  0.5394 -2.4698
  509TMC3    H2 7569   4.417   3.832  15.792  2.0081  0.9660 -2.9111
  509TMC3    C7 7570   4.194   3.712  15.849  1.0955 -0.1269  0.3328
  509TMC3    C8 7571   4.493   3.999  15.600 -0.2639 -0.2396 -0.4562
  509TMC3    O1 7572   4.119   3.618  15.821 -0.1788 -0.0297  0.1670
  509TMC3    O2 7573   4.590   3.935  15.632 -0.1094  0.1080 -0.4022
  510MPD2     C 7574   2.211   0.303  14.763  0.1451 -0.6550  0.0887
  510MPD2    C1 7575   2.199   0.402  14.854  0.3766 -0.6942  0.2776
  510MPD2    C2 7576   2.271   0.517  14.829 -0.5426  0.0489  0.6548
  510MPD2    C3 7577   2.366   0.529  14.731 -0.6900  0.1200  0.3356
  510MPD2    C4 7578   2.383   0.424  14.650 -0.7557  0.3708 -0.2562
  510MPD2    C5 7579   2.301   0.311  14.663 -0.1706 -0.2964 -0.1296
  510MPD2     H 7580   2.267   0.596  14.903  1.2721  0.4465  0.3161
  510MPD2    H1 7581   2.472   0.418  14.589 -0.8580  1.1049 -0.4751
  510MPD2    H2 7582   2.178   0.204  14.792  2.7856 -1.9437 -1.3480
  510MPD2    H3 7583   2.322   0.230  14.594  2.2682 -3.0298  3.8243
  510MPD2     N 7584   2.444   0.649  14.727 -0.2532  0.0987  0.3361
  510MPD2    H5 7585   2.449   0.706  14.811  1.3965  2.3775 -1.3155
  510MPD2    N1 7586   2.128   0.371  14.974 -0.0463  0.5857 -0.5047
  510MPD2    H7 7587   2.094   0.276  14.979 -0.6689  0.8719  0.7354
  511TMC3    C1 7588   2.005   0.391  15.166 -0.0026  0.8181 -0.0448
  511TMC3    C2 7589   1.943   0.472  15.263  0.4336  0.1546 -0.6136
  511TMC3    C3 7590   1.845   0.413  15.340 -0.6964  0.8280 -1.2358
  511TMC3    C4 7591   1.981   0.256  15.159 -0.6563 -0.1580 -0.2900
  511TMC3    C5 7592   1.894   0.200  15.251 -0.3203  0.2338  0.0003
  511TMC3    C6 7593   1.831   0.278  15.349  0.2964  0.4304  0.4939
  511TMC3     C 7594   2.089   0.454  15.070  0.1147  0.2076 -0.0319
  511TMC3     O 7595   2.110   0.571  15.089  0.1298 -0.2347 -0.1550
  511TMC3     H 7596   1.952   0.580  15.264  0.2974  0.1944 -2.6573
  511TMC3    H1 7597   2.026   0.190  15.086 -0.7648 -0.6224  0.0571
  511TMC3    H2 7598   1.755   0.233  15.412 -0.6247  0.8636 -0.3229
  511TMC3    C7 7599   1.884   0.060  15.251  0.5008  0.2676 -0.6753
  511TMC3    C8 7600   1.790   0.501  15.445 -0.8984  0.0596  0.1579
  511TMC3    O1 7601   1.960   0.001  15.175 -0.1537  0.4846  0.4269
  511TMC3    O2 7602   1.820   0.616  15.451 -0.6984 -0.1361 -0.2102
  512TMC3    C1 7603   0.759   4.427  13.468  0.1548  0.2134  0.2305
  512TMC3    C2 7604   0.880   4.426  13.532  0.0484 -0.4183 -0.0738
  512TMC3    C3 7605   0.961   4.315  13.530  0.4152  0.2375  0.0788
  512TMC3    C4 7606   0.720   4.322  13.401  0.0622 -0.0401 -0.1713
  512TMC3    C5 7607   0.798   4.208  13.412  1.2271  0.1479  0.1988
  512TMC3    C6 7608   0.919   4.208  13.461 -0.4870  0.4536  0.0148
  512TMC3     C 7609   0.672   4.540  13.484  0.2668 -0.2432 -0.1456
  512TMC3     O 7610   0.719   4.650  13.513 -0.2497  0.1180  0.3206
  512TMC3     H 7611   0.903   4.509  13.598  0.7718  0.0657 -0.9221
  512TMC3    H1 7612   0.630   4.311  13.342 -0.5240 -0.3348  0.7780
  512TMC3    H2 7613   0.979   4.118  13.459  0.0144  0.7644  0.9399
  512TMC3    C7 7614   0.751   4.090  13.345  0.0862  0.4917 -0.2139
  512TMC3    C8 7615   1.095   4.307  13.586 -0.1495 -0.5993  0.5709
  512TMC3    O1 7616   0.652   4.100  13.266  0.4815  0.2165 -0.0381
  512TMC3    O2 7617   1.136   4.192  13.603 -0.6131 -0.5350  0.0876
  513MPD2     C 7618   2.907   0.466  13.111  0.4081 -0.2264 -0.4914
  513MPD2    C1 7619   2.912   0.332  13.098 -0.1514 -0.9053  0.4380
  513MPD2    C2 7620   2.953   0.254  13.203 -0.6237  0.0456 -0.3839
  513MPD2    C3 7621   3.006   0.309  13.321 -0.0768  0.2120 -0.2575
  513MPD2    C4 7622   3.008   0.448  13.330  0.0236 -0.2602  0.0141
  513MPD2    C5 7623   2.954   0.523  13.230  0.3182 -0.2130  0.2644
  513MPD2     H 7624   2.956   0.146  13.191  0.3189 -0.2036  2.2072
  513MPD2    H1 7625   3.040   0.502  13.418 -0.3134 -1.2463  0.7403
  513MPD2    H2 7626   2.878   0.531  13.030  2.9385 -0.1888 -1.3560
  513MPD2    H3 7627   2.954   0.631  13.239 -1.1987 -0.2512  0.6634
  513MPD2     N 7628   3.067   0.228  13.418  0.5328  0.0446 -0.0508
  513MPD2    H5 7629   3.081   0.131  13.393 -1.3122 -0.4676  0.9092
  513MPD2    N1 7630   2.879   0.266  12.982 -0.6142  0.0179 -0.0279
  513MPD2    H7 7631   2.911   0.169  12.985 -0.6789 -0.0378 -1.0146
  514TMC3    C1 7632   2.863   0.224  12.756  0.0195 -0.5446  0.1343
  514TMC3    C2 7633   2.969   0.270  12.677 -0.5565 -0.3323  0.5983
  514TMC3    C3 7634   3.089   0.190  12.663  0.0359  0.4659  0.7314
  514TMC3    C4 7635   2.868   0.096  12.808 -0.7208  0.4656 -0.2829
  514TMC3    C5 7636   2.987   0.033  12.811  0.2816  0.1074  0.1618
  514TMC3    C6 7637   3.095   0.074  12.732 -0.2991 -0.2541  0.3692
  514TMC3     C 7638   2.855   0.321  12.860  0.2279 -0.3581  0.0462
  514TMC3     O 7639   2.855   0.440  12.828 -0.5391  1.0101 -0.3992
  514TMC3     H 7640   2.965   0.366  12.627  0.5587 -1.4039 -1.5749
  514TMC3    H1 7641   2.790   0.059  12.874  0.0522 -3.2743 -1.4938
  514TMC3    H2 7642   3.182   0.009  12.723  0.1825  0.5244 -0.6581
  514TMC3    C7 7643   3.012   4.677  12.929 -0.9698 -0.1704  0.1471
  514TMC3    C8 7644   3.207   0.265  12.658 -0.6515  0.0209  1.0118
  514TMC3    O1 7645   2.939   4.700  13.025 -0.4529 -0.8486 -0.6116
  514TMC3    O2 7646   3.283   0.253  12.752 -0.3188  0.1476 -0.4543
  515MPD2     C 7647   1.190   1.690  14.477  0.4888 -0.1516  0.1604
  515MPD2    C1 7648   1.091   1.710  14.573 -0.0985 -0.7134 -0.1303
  515MPD2    C2 7649   1.120   1.783  14.683 -0.0576 -0.1701  0.1532
  515MPD2    C3 7650   1.248   1.835  14.696 -0.1379 -0.2822  0.5046
  515MPD2    C4 7651   1.344   1.816  14.606  0.3629 -0.7187  0.0662
  515MPD2    C5 7652   1.317   1.742  14.494  0.1798 -0.2681 -0.0113
  515MPD2     H 7653   1.046   1.797  14.761  1.0767  0.0862  1.1769
  515MPD2    H1 7654   1.439   1.868  14.619 -1.8044  3.2560  0.1506
  515MPD2    H2 7655   1.159   1.624  14.397  0.1501  1.6248 -1.1664
  515MPD2    H3 7656   1.393   1.724  14.419 -1.1060 -0.4775 -1.2423
  515MPD2     N 7657   1.292   1.922  14.800 -0.1904  0.0020  0.0537
  515MPD2    H5 7658   1.375   1.975  14.777 -0.1264  0.7501  1.9236
  515MPD2    N1 7659   0.969   1.650  14.549 -0.3317 -0.3586  0.1086
  515MPD2    H7 7660   0.950   1.600  14.463  1.9853 -0.9445 -0.0666
  516TMC3    C1 7661   0.740   1.603  14.572  0.2832 -0.0824  0.0673
  516TMC3    C2 7662   0.723   1.608  14.439 -0.4260  0.3232 -0.5324
  516TMC3    C3 7663   0.608   1.553  14.378 -0.1311  0.1772  0.2738
  516TMC3    C4 7664   0.641   1.553  14.653  0.2017  0.0649 -0.1102
  516TMC3    C5 7665   0.531   1.489  14.593  0.0788 -0.2981 -0.1972
  516TMC3    C6 7666   0.518   1.482  14.458 -0.1487  0.2999 -0.4626
  516TMC3     C 7667   0.862   1.653  14.633  0.0839  0.2143 -0.2560
  516TMC3     O 7668   0.854   1.694  14.748  0.8571  0.1637 -0.6177
  516TMC3     H 7669   0.802   1.654  14.380 -2.4544 -0.6963 -4.0350
  516TMC3    H1 7670   0.657   1.564  14.760 -0.3971 -0.4584  0.0291
  516TMC3    H2 7671   0.439   1.425  14.411 -0.1696  0.6246 -0.8201
  516TMC3    C7 7672   0.460   1.403  14.688  0.4077  0.4350  1.0920
  516TMC3    C8 7673   0.607   1.542  14.230  0.4922 -0.0619 -0.0093
  516TMC3    O1 7674   0.502   1.401  14.803  0.2321 -0.0470  0.3299
  516TMC3    O2 7675   0.530   1.459  14.189  0.3528 -0.4314 -0.4549
  517MPD2     C 7676   0.429   3.228   0.297 -0.2465 -0.5280  0.3073
  517MPD2    C1 7677   0.568   3.243   0.304 -0.2879 -0.1283  0.6720
  517MPD2    C2 7678   0.624   3.344   0.375 -0.0499 -0.0239  1.0339
  517MPD2    C3 7679   0.542   3.428   0.451  0.9017  0.3136  0.3695
  517MPD2    C4 7680   0.404   3.417   0.442 -0.2093 -1.2750  0.0892
  517MPD2    C5 7681   0.349   3.313   0.369  0.3422  0.4587  0.0618
  517MPD2     H 7682   0.732   3.354   0.381 -0.2118  2.0672  0.3132
  517MPD2    H1 7683   0.348   3.488   0.502  1.0853 -0.4528  0.3244
  517MPD2    H2 7684   0.373   3.150   0.247 -0.9310  0.2208 -0.1005
  517MPD2    H3 7685   0.242   3.301   0.383  0.3193  0.4290 -0.1275
  517MPD2     N 7686   0.590   3.538   0.530  0.0379 -0.0201 -0.1585
  517MPD2    H5 7687   0.528   3.605   0.574 -0.0229 -0.0544 -0.1917
  517MPD2    N1 7688   0.664   3.163   0.234  0.0286  0.3532 -0.2080
  517MPD2    H7 7689   0.762   3.184   0.246  0.1905 -0.4936 -0.0196
  518TMC3    C1 7690   0.749   2.973   0.146 -0.1444  0.5258 -0.6473
  518TMC3    C2 7691   0.752   2.895   0.029  0.3596  0.0996 -0.5720
  518TMC3    C3 7692   0.874   2.839  17.684 -0.3512  1.0517 -0.0556
  518TMC3    C4 7693   0.858   2.988   0.229  0.2202 -0.0300 -0.4891
  518TMC3    C5 7694   0.976   2.935   0.189 -0.2879 -0.2057  0.1213
  518TMC3    C6 7695   0.985   2.865   0.071 -0.1341  0.4825 -0.2873
  518TMC3     C 7696   0.629   3.042   0.179 -1.1124 -0.0390 -0.6821
  518TMC3     O 7697   0.522   3.005   0.126  0.3073  0.0813  0.1649
  518TMC3     H 7698   0.657   2.890  17.671  0.1515 -1.5019 -0.0334
  518TMC3    H1 7699   0.846   3.016   0.333  0.7867 -0.6162 -0.2644
  518TMC3    H2 7700   1.082   2.849   0.026 -0.2281 -0.7453 -0.0523
  518TMC3    C7 7701   1.101   2.964   0.255 -0.7413  0.3995  0.6687
  518TMC3    C8 7702   0.877   2.715  17.612  0.2894 -0.0810 -0.2506
  518TMC3    O1 7703   1.097   3.066   0.327  0.3803 -0.5129  0.5244
  518TMC3    O2 7704   0.972   2.638  17.626  0.0213  0.3685  0.0094
  519MPD2     C 7705   2.698   1.615  14.447 -0.6300  0.1043  0.5446
  519MPD2    C1 7706   2.626   1.611  14.332  0.2806  0.4945 -0.5425
  519MPD2    C2 7707   2.652   1.526  14.226  0.4331  0.2973  0.2165
  519MPD2    C3 7708   2.757   1.434  14.248  0.0482 -0.2768 -0.5443
  519MPD2    C4 7709   2.842   1.448  14.358 -0.3077  0.1825  0.4684
  519MPD2    C5 7710   2.811   1.535  14.452  0.2226 -0.0895 -1.0891
  519MPD2     H 7711   2.585   1.518  14.142 -0.8071  1.4173  1.0952
  519MPD2    H1 7712   2.926   1.383  14.379 -0.0277  0.7524  1.0858
  519MPD2    H2 7713   2.677   1.691  14.521  0.6230  0.7216  0.2744
  519MPD2    H3 7714   2.884   1.547  14.531  0.0833 -0.4997 -0.8980
  519MPD2     N 7715   2.780   1.334  14.150  0.3005 -0.0060 -0.1902
  519MPD2    H5 7716   2.870   1.288  14.159 -0.5181 -1.5426  0.0854
  519MPD2    N1 7717   2.526   1.700  14.321  0.1835 -0.4405  0.2371
  519MPD2    H7 7718   2.512   1.749  14.409 -1.8019  0.7369 -0.7421
  520TMC3    C1 7719   2.733   1.178  13.979 -0.4791 -0.2368  0.1329
  520TMC3    C2 7720   2.638   1.079  13.960 -0.3283 -0.1006  0.1344
  520TMC3    C3 7721   2.680   0.967  13.892 -0.9646  0.2728 -0.3248
  520TMC3    C4 7722   2.862   1.171  13.951 -0.4162  0.2419  0.3909
  520TMC3    C5 7723   2.901   1.057  13.881 -0.1062 -0.3988 -0.7581
  520TMC3    C6 7724   2.808   0.958  13.842  0.6722  0.1451 -0.2901
  520TMC3     C 7725   2.685   1.292  14.057  0.3743 -0.3937 -0.0031
  520TMC3     O 7726   2.562   1.315  14.053  0.1194  0.6525 -0.0070
  520TMC3     H 7727   2.535   1.108  13.975 -0.8703 -1.7454 -0.3347
  520TMC3    H1 7728   2.934   1.251  13.965  1.3550 -1.5626  1.5765
  520TMC3    H2 7729   2.844   0.867  13.796  1.6256  0.1286  0.4836
  520TMC3    C7 7730   3.027   1.007  13.924 -0.4246  0.4495  0.0785
  520TMC3    C8 7731   2.575   0.891  13.826  0.6372  0.0206 -0.0885
  520TMC3    O1 7732   3.040   0.884  13.938 -0.8540  0.3325  0.2461
  520TMC3    O2 7733   2.608   0.839  13.721  0.0715 -0.3518 -0.1049
  521MPD2     C 7734   2.951   4.330  17.286 -0.4599 -0.0005  0.5122
  521MPD2    C1 7735   2.979   4.193  17.271  0.5809  0.0776 -0.3042
  521MPD2    C2 7736   3.108   4.160  17.244  0.2533  0.0432  0.6127
  521MPD2    C3 7737   3.215   4.253  17.248  0.3897  0.3890 -0.0472
  521MPD2    C4 7738   3.186   4.386  17.287  0.8311 -0.1374  0.0121
  521MPD2    C5 7739   3.054   4.419  17.300  0.1340  0.3405  0.5849
  521MPD2     H 7740   3.140   4.057  17.233  0.0704  0.2810 -2.0729
  521MPD2    H1 7741   3.256   4.467  17.301  0.4790  0.3231 -0.8620
  521MPD2    H2 7742   2.846   4.353  17.294 -0.4938 -0.3014  0.9589
  521MPD2    H3 7743   3.019   4.519  17.322  0.9873  1.0988 -1.4881
  521MPD2     N 7744   3.346   4.216  17.208 -0.7039  1.1986 -0.1555
  521MPD2    H5 7745   3.355   4.117  17.190 -2.1379  0.9493  0.4927
  521MPD2    N1 7746   2.872   4.102  17.276 -0.2205 -1.1751 -0.1911
  521MPD2    H7 7747   2.780   4.140  17.299 -0.1271 -0.7281 -0.5521
  522TMC3    C1 7748   3.568   4.221  17.168  0.5985  0.0578  0.0221
  522TMC3    C2 7749   3.679   4.244  17.241  0.3912  0.0385 -0.2850
  522TMC3    C3 7750   3.792   4.173  17.224  0.5421 -0.0281 -0.1174
  522TMC3    C4 7751   3.568   4.105  17.091  0.1858  0.0985 -0.3300
  522TMC3    C5 7752   3.676   4.020  17.089 -0.5874  0.2672 -0.2378
  522TMC3    C6 7753   3.792   4.051  17.154  0.1047  0.3652 -0.7448
  522TMC3     C 7754   3.452   4.301  17.184 -0.0499  0.3325  0.0739
  522TMC3     O 7755   3.472   4.418  17.214  0.0011 -0.4487 -0.1832
  522TMC3     H 7756   3.680   4.336  17.298  0.2756 -0.8438  1.1531
  522TMC3    H1 7757   3.483   4.106  17.024  0.8465 -1.0478 -1.1867
  522TMC3    H2 7758   3.878   3.986  17.146 -0.0774 -0.0701  0.8418
  522TMC3    C7 7759   3.687   3.944  16.971  0.5641  0.1889 -0.0312
  522TMC3    C8 7760   3.926   4.225  17.251 -0.1861  0.5053 -0.1173
  522TMC3    O1 7761   3.790   3.933  16.912  0.3203  0.4157 -0.3476
  522TMC3    O2 7762   3.940   4.303  17.343  0.6701 -0.1268  0.5345
  523MPD2     C 7763   1.726   3.878  10.597 -0.4567  0.0771 -0.3592
  523MPD2    C1 7764   1.726   3.797  10.485  0.0864 -0.0529 -0.0858
  523MPD2    C2 7765   1.698   3.841  10.358 -0.4585 -0.0557 -0.0275
  523MPD2    C3 7766   1.685   3.978  10.341 -0.3283  1.4014 -0.6334
  523MPD2    C4 7767   1.687   4.062  10.448 -0.2616 -0.7207  0.1352
  523MPD2    C5 7768   1.700   4.009  10.575  0.2741  0.6140 -0.4275
  523MPD2     H 7769   1.696   3.768  10.277 -0.6254  0.9180 -0.8977
  523MPD2    H1 7770   1.678   4.170  10.437 -0.5480 -0.8586 -0.9128
  523MPD2    H2 7771   1.766   3.843  10.691  0.9525 -1.1608 -1.4232
  523MPD2    H3 7772   1.707   4.071  10.664 -0.1650 -0.2802  0.2249
  523MPD2     N 7773   1.663   4.039  10.212 -0.7538  0.0198 -0.0671
  523MPD2    H5 7774   1.636   4.137  10.214  0.3070  0.3325 -0.9543
  523MPD2    N1 7775   1.761   3.661  10.509  0.5645  0.7253  0.1153
  523MPD2    H7 7776   1.784   3.645  10.607  0.5394  0.9352  0.1545
  524TMC3    C1 7777   1.616   4.054   9.991  0.0939  0.5682 -0.0014
  524TMC3    C2 7778   1.530   3.986   9.904  0.6179  0.5588 -0.4063
  524TMC3    C3 7779   1.480   4.057   9.803 -0.6778 -0.0239  0.3329
  524TMC3    C4 7780   1.624   4.188   9.993 -0.0516 -0.3952  0.5894
  524TMC3    C5 7781   1.558   4.255   9.895  0.0389 -0.2262 -0.5013
  524TMC3    C6 7782   1.483   4.194   9.796  0.2068 -0.4438 -0.1120
  524TMC3     C 7783   1.664   3.972  10.094 -0.2649 -0.1073  0.1324
  524TMC3     O 7784   1.681   3.857  10.063  0.3513  0.5141 -0.5652
  524TMC3     H 7785   1.512   3.879   9.910 -0.9960  0.8275 -0.5043
  524TMC3    H1 7786   1.672   4.241  10.074  0.3943 -1.1164  0.7914
  524TMC3    H2 7787   1.425   4.246   9.722 -0.9400 -0.1384  0.9999
  524TMC3    C7 7788   1.543   4.400   9.910  0.5625 -0.0350 -1.0621
  524TMC3    C8 7789   1.372   3.998   9.730  0.2224 -0.1451 -0.0402
  524TMC3    O1 7790   1.576   4.446  10.017  0.6444  0.2270 -0.3765
  524TMC3    O2 7791   1.271   3.964   9.794  0.1911 -0.5089  0.6192
  525MPD2     C 7792   3.883   0.870  14.454  0.2023  0.1514  0.0579
  525MPD2    C1 7793   4.002   0.885  14.523 -0.1534  0.3526  0.6844
  525MPD2    C2 7794   4.081   0.999  14.497 -0.0523 -0.6584 -1.1930
  525MPD2    C3 7795   4.029   1.108  14.434  0.3477 -0.0387  0.4717
  525MPD2    C4 7796   3.903   1.099  14.372  0.1272 -0.0145  0.4546
  525MPD2    C5 7797   3.837   0.983  14.384  0.1149  0.3970  0.2692
  525MPD2     H 7798   4.186   1.000  14.526 -0.4247 -1.9375  0.2254
  525MPD2    H1 7799   3.869   1.177  14.304  1.3550 -0.6310 -0.8785
  525MPD2    H2 7800   3.820   0.782  14.461 -1.2476  1.2127  0.2663
  525MPD2    H3 7801   3.742   0.977  14.331  0.8390 -1.0556 -0.8858
  525MPD2     N 7802   4.093   1.237  14.431  0.0155  0.0018 -0.0828
  525MPD2    H5 7803   4.024   1.309  14.411 -2.1873 -1.4184  2.4101
  525MPD2    N1 7804   4.047   0.784  14.616 -0.4694 -0.8000 -0.0851
  525MPD2    H7 7805   4.145   0.788  14.642 -0.8118 -1.6449  1.3678
  526TMC3    C1 7806   4.023   0.628  14.790  1.2486 -0.6015 -0.4503
  526TMC3    C2 7807   3.946   0.543  14.857 -0.3174 -0.0750  0.6294
  526TMC3    C3 7808   4.004   0.456  14.944  0.2916  0.5183 -0.6159
  526TMC3    C4 7809   4.155   0.624  14.811  0.3943 -0.2932  0.2263
  526TMC3    C5 7810   4.207   0.547  14.909 -0.2471  0.3432  0.2927
  526TMC3    C6 7811   4.134   0.457  14.975 -0.5370 -0.2049 -0.1149
  526TMC3     C 7812   3.960   0.707  14.689 -0.5197  0.2029 -0.0003
  526TMC3     O 7813   3.840   0.687  14.676  0.1399  0.4602 -0.4034
  526TMC3     H 7814   3.840   0.542  14.833 -0.3212 -0.7011  0.6722
  526TMC3    H1 7815   4.212   0.699  14.757  0.0339 -0.1523  0.0398
  526TMC3    H2 7816   4.173   0.403  15.060 -1.8506 -0.0892  0.5724
  526TMC3    C7 7817   4.348   0.509  14.904  0.4589  0.4154  0.0018
  526TMC3    C8 7818   3.918   0.417  15.061 -0.1645 -0.1074 -0.3939
  526TMC3    O1 7819   4.384   0.399  14.951 -0.6862 -0.0199 -0.1522
  526TMC3    O2 7820   3.980   0.425  15.165  0.4601  0.6184  0.7743
  527MPD2     C 7821   3.364   3.966   1.439 -0.2979  0.1865 -0.9014
  527MPD2    C1 7822   3.275   4.029   1.351 -0.1699 -0.1363 -0.4079
  527MPD2    C2 7823   3.247   3.971   1.228 -0.0255  0.0903 -0.3396
  527MPD2    C3 7824   3.294   3.843   1.198  0.6008  0.1240 -0.0917
  527MPD2    C4 7825   3.369   3.772   1.288 -0.0444 -0.8279 -0.3708
  527MPD2    C5 7826   3.403   3.836   1.406  0.0590 -0.1536 -0.4815
  527MPD2     H 7827   3.173   4.025   1.171  0.3053 -0.3643 -1.1944
  527MPD2    H1 7828   3.400   3.668   1.279  0.9652 -0.5048 -0.6279
  527MPD2    H2 7829   3.395   4.002   1.537 -2.6606  0.8477 -0.3974
  527MPD2    H3 7830   3.452   3.781   1.485 -0.9635 -1.5953 -0.8466
  527MPD2     N 7831   3.250   3.789   1.078  0.0071 -0.3987  0.9487
  527MPD2    H5 7832   3.161   3.823   1.041  0.5823  0.9077  0.7881
  527MPD2    N1 7833   3.209   4.145   1.387 -0.2256  0.2227  0.0174
  527MPD2    H7 7834   3.133   4.179   1.330  0.1080  0.1772 -0.4485
  528TMC3    C1 7835   3.142   4.308   1.546 -0.1768 -0.4310 -0.7557
  528TMC3    C2 7836   3.184   4.390   1.648 -0.1297  0.4086  0.9264
  528TMC3    C3 7837   3.103   4.464   1.718 -0.2938  1.0658  0.0918
  528TMC3    C4 7838   3.012   4.293   1.511  0.4887  0.0560 -1.0375
  528TMC3    C5 7839   2.932   4.382   1.575 -0.0135 -0.3637 -0.5745
  528TMC3    C6 7840   2.975   4.475   1.673  0.7564 -0.4227 -0.4746
  528TMC3     C 7841   3.248   4.221   1.490  0.7423 -0.7774  0.0947
  528TMC3     O 7842   3.362   4.224   1.530  0.1416  0.3709 -0.0313
  528TMC3     H 7843   3.289   4.397   1.674  0.5256 -0.8697 -1.3643
  528TMC3    H1 7844   2.971   4.230   1.432 -1.9367 -0.8975  0.9762
  528TMC3    H2 7845   2.912   4.526   1.744 -1.3906 -2.9015 -0.6042
  528TMC3    C7 7846   2.809   4.407   1.520 -0.2453 -0.0698 -0.1061
  528TMC3    C8 7847   3.146   4.550   1.821  0.1017 -0.5407  0.2433
  528TMC3    O1 7848   2.728   4.456   1.602  0.2704 -0.4338  0.1801
  528TMC3    O2 7849   3.086   4.653   1.839  0.2337  0.0271  0.2747
  529MPD2     C 7850   0.332   2.141   0.408  0.3011 -0.3201 -0.3580
  529MPD2    C1 7851   0.204   2.098   0.429 -0.7661 -0.3252 -0.8846
  529MPD2    C2 7852   0.133   2.062   0.319 -0.2416 -0.8964  0.1763
  529MPD2    C3 7853   0.191   2.059   0.187 -0.6910  0.1891 -0.2406
  529MPD2    C4 7854   0.322   2.092   0.177  0.1133  0.0255  0.1976
  529MPD2    C5 7855   0.393   2.131   0.285  0.0091  0.4142 -0.1208
  529MPD2     H 7856   0.031   2.034   0.344 -0.4912 -0.1588 -0.0210
  529MPD2    H1 7857   0.373   2.085   0.081  0.5868  1.3630  0.3614
  529MPD2    H2 7858   0.397   2.180   0.486 -1.7810  0.0843  1.1814
  529MPD2    H3 7859   0.498   2.154   0.277  0.4532 -1.5357  0.1492
  529MPD2     N 7860   0.127   2.016   0.069  0.7073  0.3224 -0.2685
  529MPD2    H5 7861   0.186   2.014  17.680  1.6663 -1.8385  0.4674
  529MPD2    N1 7862   0.136   2.100   0.553 -0.2560  0.9924 -0.2815
  529MPD2    H7 7863   0.038   2.072   0.549  1.0028 -3.3524 -0.5061
  530TMC3    C1 7864   0.078   2.143   0.776  0.0190  0.1068 -0.0659
  530TMC3    C2 7865   0.127   2.139   0.903  0.1670  0.6359  0.9215
  530TMC3    C3 7866   0.035   2.115   1.007  1.3520  0.1563  0.4131
  530TMC3    C4 7867   4.662   2.131   0.747 -0.3608  0.7061 -0.3859
  530TMC3    C5 7868   4.583   2.103   0.858  0.2663 -0.5332  0.6456
  530TMC3    C6 7869   4.625   2.093   0.992 -0.4715 -0.6942 -0.3027
  530TMC3     C 7870   0.176   2.157   0.668  0.1795 -0.6207  0.2445
  530TMC3     O 7871   0.285   2.198   0.694  0.8022 -0.5224  0.3856
  530TMC3     H 7872   0.233   2.148   0.920  0.3837 -0.8502  0.3315
  530TMC3    H1 7873   4.616   2.131   0.649  3.8763  0.2302 -2.3786
  530TMC3    H2 7874   4.560   2.070   1.076 -1.3215  0.7179 -0.5672
  530TMC3    C7 7875   4.454   2.041   0.841 -0.2055  0.1331 -0.0725
  530TMC3    C8 7876   0.105   2.083   1.127  0.4342  1.2399  0.1535
  530TMC3    O1 7877   4.397   2.064   0.738 -0.2131  0.1135 -0.2806
  530TMC3    O2 7878   0.215   2.023   1.120 -0.5900  0.0447 -0.4429
  531MPD2     C 7879   3.376   4.442  13.203 -0.6145  0.6441  0.6982
  531MPD2    C1 7880   3.269   4.524  13.245  0.2737 -0.4950  0.1556
  531MPD2    C2 7881   3.180   4.573  13.151  0.6219  0.1057  0.3003
  531MPD2    C3 7882   3.207   4.540  13.024 -0.5209 -0.4283 -0.1911
  531MPD2    C4 7883   3.306   4.460  12.977 -0.2067  0.1516  0.3260
  531MPD2    C5 7884   3.397   4.411  13.071  0.3451  0.1996 -0.0088
  531MPD2     H 7885   3.105   4.641  13.188 -0.2529 -0.7908  0.1844
  531MPD2    H1 7886   3.319   4.433  12.872  2.8542 -2.0889  1.2905
  531MPD2    H2 7887   3.440   4.394  13.277  0.8220  0.7967 -0.4462
  531MPD2    H3 7888   3.484   4.349  13.049  2.1141  2.8322 -0.4652
  531MPD2     N 7889   3.130   4.599  12.917  0.1395  0.1197  0.1609
  531MPD2    H5 7890   3.169   4.591  12.824 -1.1051  4.1693 -0.7252
  531MPD2    N1 7891   3.261   4.538  13.390  0.3700  0.1347 -0.3358
  531MPD2    H7 7892   3.343   4.513  13.444  0.3613 -1.2463 -0.9857
  532TMC3    C1 7893   3.155   4.638  13.586  0.6801  0.5225  0.7643
  532TMC3    C2 7894   3.095   0.038  13.583  0.3093 -0.1050 -0.3317
  532TMC3    C3 7895   3.150   0.156  13.621 -0.7872 -1.0148 -0.0303
  532TMC3    C4 7896   3.291   4.641  13.634 -0.1723  0.2307 -0.3828
  532TMC3    C5 7897   3.342   0.042  13.666 -0.4934 -0.1853  0.2503
  532TMC3    C6 7898   3.272   0.155  13.665 -0.0715 -0.0538 -0.2228
  532TMC3     C 7899   3.147   4.588  13.450  0.1532  0.1419  0.1730
  532TMC3     O 7900   3.046   4.627  13.386 -0.0065 -0.2730 -0.1277
  532TMC3     H 7901   2.987   0.038  13.572  0.2211  1.7203  0.6389
  532TMC3    H1 7902   3.349   4.550  13.631 -0.7342 -0.1990  2.0059
  532TMC3    H2 7903   3.318   0.251  13.682 -0.1787  0.2730 -1.7585
  532TMC3    C7 7904   3.468   0.051  13.736 -0.3497  0.6715 -0.1421
  532TMC3    C8 7905   3.109   0.271  13.541  0.5404 -0.3118  0.3460
  532TMC3    O1 7906   3.473   0.133  13.830 -0.4903  0.7312  0.0746
  532TMC3    O2 7907   3.097   0.373  13.606 -0.2886  0.1245 -1.2110
  533TMC3    C1 7908   4.237   1.409  14.518  0.4545 -0.4126 -0.0057
  533TMC3    C2 7909   4.366   1.458  14.519  0.5307 -0.1804 -0.4009
  533TMC3    C3 7910   4.398   1.545  14.619  0.4261  0.1423  0.5872
  533TMC3    C4 7911   4.138   1.450  14.599 -0.4498 -0.0028 -0.5033
  533TMC3    C5 7912   4.181   1.540  14.698 -0.0219 -0.0001 -0.2460
  533TMC3    C6 7913   4.304   1.596  14.713  0.6068  0.3511 -0.4565
  533TMC3     C 7914   4.224   1.273  14.459  0.5259  0.0026  0.2691
  533TMC3     O 7915   4.325   1.207  14.466  0.1304  0.3049 -0.5178
  533TMC3     H 7916   4.438   1.406  14.458 -0.4484 -2.6479  0.5434
  533TMC3    H1 7917   4.036   1.415  14.593 -0.0525 -1.3562  0.7226
  533TMC3    H2 7918   4.330   1.667  14.790 -0.8330 -2.4401  2.5890
  533TMC3    C7 7919   4.127   1.490  14.811 -0.1088  0.6697 -0.3121
  533TMC3    C8 7920   4.537   1.593  14.639 -0.1909 -0.5657  0.0293
  533TMC3    O1 7921   4.072   1.382  14.812  0.3925 -0.1466  0.0868
  533TMC3    O2 7922   4.552   1.658  14.744  0.6985  0.7598 -0.3359
  534MPD2     C 7923   1.931   2.906   1.474 -0.0473  0.0190 -0.0864
  534MPD2    C1 7924   2.015   2.826   1.549  0.0123 -0.5487 -0.2099
  534MPD2    C2 7925   1.964   2.704   1.592  0.1343  0.6561 -0.1116
  534MPD2    C3 7926   1.842   2.656   1.542 -0.2637  0.0126 -0.1205
  534MPD2    C4 7927   1.771   2.729   1.461  0.6353  0.0937 -0.2217
  534MPD2    C5 7928   1.815   2.854   1.422 -0.3304 -0.2440  0.1073
  534MPD2     H 7929   2.016   2.641   1.663 -2.0013  2.2904  2.9325
  534MPD2    H1 7930   1.680   2.694   1.413 -0.0344 -1.7104  2.3741
  534MPD2    H2 7931   1.950   3.001   1.426 -2.1802  0.3814 -0.2165
  534MPD2    H3 7932   1.755   2.920   1.361 -2.7038 -2.5294 -0.0133
  534MPD2     N 7933   1.787   2.533   1.581 -0.4925 -0.4974  0.1334
  534MPD2    H5 7934   1.707   2.500   1.529  0.2551  1.7454 -2.4415
  534MPD2    N1 7935   2.142   2.856   1.589 -0.1849 -0.1453 -0.0311
  534MPD2    H7 7936   2.202   2.784   1.628 -0.0762  0.2719  0.5616
  535TMC3    C1 7937   1.751   2.322   1.689  0.5968 -0.4427 -0.2627
  535TMC3    C2 7938   1.614   2.335   1.677 -0.6999  0.0264  0.1425
  535TMC3    C3 7939   1.539   2.223   1.665 -0.5864 -1.3274  0.5598
  535TMC3    C4 7940   1.806   2.196   1.687 -0.9128 -0.4583 -1.0089
  535TMC3    C5 7941   1.728   2.088   1.665  0.4669  0.0615 -0.1731
  535TMC3    C6 7942   1.589   2.094   1.654 -1.0338  0.4093  0.0869
  535TMC3     C 7943   1.837   2.436   1.668  0.9262  0.3938 -0.0521
  535TMC3     O 7944   1.941   2.438   1.735  0.3205 -0.0927 -0.1161
  535TMC3     H 7945   1.572   2.434   1.662  0.0237  0.2594 -0.3357
  535TMC3    H1 7946   1.913   2.186   1.675 -0.8680 -0.7476 -0.3839
  535TMC3    H2 7947   1.528   2.006   1.640  0.9453 -0.6599 -1.9734
  535TMC3    C7 7948   1.787   1.965   1.670 -0.3442 -0.0404 -0.0124
  535TMC3    C8 7949   1.393   2.230   1.660  0.3572  0.0277  0.1374
  535TMC3    O1 7950   1.757   1.886   1.577  0.0982  0.0966  0.0968
  535TMC3    O2 7951   1.341   2.127   1.620  0.2929 -0.3191 -0.2695
  536MPD2     C 7952   0.263   0.220  16.893  0.0146 -0.2624 -0.6008
  536MPD2    C1 7953   0.226   0.350  16.921 -0.5133 -0.7050  0.2102
  536MPD2    C2 7954   0.136   0.411  16.833  0.2476  1.1969 -0.5274
  536MPD2    C3 7955   0.088   0.342  16.728 -0.1133 -0.0725 -0.2336
  536MPD2    C4 7956   0.121   0.211  16.705  0.0360 -0.1537  0.6972
  536MPD2    C5 7957   0.212   0.155  16.785 -0.2390  0.8043 -0.0153
  536MPD2     H 7958   0.093   0.510  16.845  1.7958  2.0687 -2.1595
  536MPD2    H1 7959   0.083   0.165  16.615 -1.2802  0.8955  0.7230
  536MPD2    H2 7960   0.333   0.165  16.955  0.8459  1.8225  0.3122
  536MPD2    H3 7961   0.232   0.050  16.767  0.6639  1.0349 -0.3688
  536MPD2     N 7962   0.000   0.411  16.640 -0.3031 -0.7131  0.3346
  536MPD2    H5 7963   4.709   0.510  16.654 -0.3220 -0.4791 -1.4059
  536MPD2    N1 7964   0.264   0.406  17.042  0.3340 -0.3252  0.4573
  536MPD2    H7 7965   0.292   0.347  17.120  2.6694  0.2666  0.0776
  537TMC3    C1 7966   0.283   0.571  17.213  0.4252 -0.1938  0.0665
  537TMC3    C2 7967   0.329   0.700  17.230 -0.5877  0.3795 -0.1236
  537TMC3    C3 7968   0.359   0.744  17.353 -0.0394 -0.5528 -0.3480
  537TMC3    C4 7969   0.259   0.487  17.315 -0.0207 -0.1839  0.0763
  537TMC3    C5 7970   0.307   0.529  17.432 -0.1519  0.9682 -0.0815
  537TMC3    C6 7971   0.361   0.655  17.451 -0.0347 -0.8431 -0.2390
  537TMC3     C 7972   0.258   0.539  17.074 -0.4764 -0.2110  0.7003
  537TMC3     O 7973   0.232   0.631  16.992  0.0772 -0.1221 -0.5643
  537TMC3     H 7974   0.346   0.760  17.141  1.1501  0.5618  0.3351
  537TMC3    H1 7975   0.217   0.390  17.294 -1.9147  0.7970 -0.6899
  537TMC3    H2 7976   0.379   0.683  17.554  1.0253 -1.1134 -0.3509
  537TMC3    C7 7977   0.319   0.441  17.548 -0.3097 -0.0292 -0.2863
  537TMC3    C8 7978   0.439   0.863  17.370  0.0173  0.4645  0.1091
  537TMC3    O1 7979   0.349   0.491  17.658  0.1786  0.7478 -0.6218
  537TMC3    O2 7980   0.512   0.879  17.467 -0.2064 -0.0148  0.0298
  538TMC3    C1 7981   2.105   4.036  11.385 -0.4440  0.0967  0.3831
  538TMC3    C2 7982   2.188   3.925  11.381  0.1774 -0.1402 -0.1482
  538TMC3    C3 7983   2.232   3.875  11.258  0.0451  0.2541  0.5908
  538TMC3    C4 7984   2.073   4.099  11.271 -0.2504 -1.0694 -0.0410
  538TMC3    C5 7985   2.113   4.055  11.155  0.8449  0.4638  0.0764
  538TMC3    C6 7986   2.194   3.942  11.145  0.7765  0.1723  0.3821
  538TMC3     C 7987   2.016   4.071  11.501  0.0782  0.8805  0.1743
  538TMC3     O 7988   1.916   4.133  11.477  0.3790  0.4267  0.4871
  538TMC3     H 7989   2.209   3.874  11.474  0.4700 -1.5949 -1.0091
  538TMC3    H1 7990   2.008   4.186  11.272  1.7628  0.4293 -0.5276
  538TMC3    H2 7991   2.208   3.903  11.045  3.7288 -0.5075  1.0514
  538TMC3    C7 7992   2.035   4.091  11.034  0.0848 -0.0085 -0.3538
  538TMC3    C8 7993   2.353   3.787  11.261 -0.1523  0.2726  0.1629
  538TMC3    O1 7994   1.967   3.993  10.995  0.7739 -0.1943  0.5357
  538TMC3    O2 7995   2.379   3.746  11.372  0.3968  0.2049 -0.5623
  539MPD2     C 7996   2.047   3.289  12.266 -0.8637 -0.6087 -0.1230
  539MPD2    C1 7997   2.027   3.306  12.128  0.0235 -0.8720 -0.1796
  539MPD2    C2 7998   1.909   3.355  12.076  0.1741 -0.5218 -0.2029
  539MPD2    C3 7999   1.808   3.382  12.166 -0.1833 -0.1095  0.4674
  539MPD2    C4 8000   1.825   3.364  12.299 -0.0749 -0.0957 -0.2399
  539MPD2    C5 8001   1.943   3.314  12.352 -0.4590  0.2577  0.5613
  539MPD2     H 8002   1.897   3.378  11.971 -0.0801 -1.3302 -0.3450
  539MPD2    H1 8003   1.745   3.376  12.370  3.0149  0.6025  3.1370
  539MPD2    H2 8004   2.137   3.241  12.303  0.2457  1.4270 -0.1706
  539MPD2    H3 8005   1.948   3.296  12.459 -1.2855  0.7761  0.6854
  539MPD2     N 8006   1.687   3.419  12.114  0.2441 -0.4201  0.2751
  539MPD2    H5 8007   1.694   3.436  12.014  0.8082 -3.8894 -0.2918
  539MPD2    N1 8008   2.132   3.277  12.038 -0.8611 -0.0998 -0.2132
  539MPD2    H7 8009   2.223   3.260  12.078 -0.7322 -1.8780 -1.2266
  540TMC3    C1 8010   1.480   3.515  12.090 -0.2337  0.8015 -0.0370
  540TMC3    C2 8011   1.531   3.576  11.979  0.1589  0.5155  0.3554
  540TMC3    C3 8012   1.442   3.635  11.897  0.5104 -0.5728 -0.2547
  540TMC3    C4 8013   1.347   3.509  12.122  1.1346  0.0195 -1.0833
  540TMC3    C5 8014   1.265   3.577  12.037 -0.1983  0.2025  0.2684
  540TMC3    C6 8015   1.309   3.637  11.923 -0.9009  0.0428  0.3569
  540TMC3     C 8016   1.567   3.448  12.178  0.6342  0.0862  0.3671
  540TMC3     O 8017   1.525   3.401  12.282 -0.3117  0.4118  0.2422
  540TMC3     H 8018   1.637   3.595  11.966  0.9525 -3.1292  1.6579
  540TMC3    H1 8019   1.326   3.485  12.226 -1.0747  1.6409 -1.1566
  540TMC3    H2 8020   1.240   3.672  11.847 -1.0921 -1.3530 -0.1111
  540TMC3    C7 8021   1.126   3.584  12.073  0.5186  0.3398  0.1591
  540TMC3    C8 8022   1.505   3.731  11.797 -0.0642  0.3439  0.5470
  540TMC3    O1 8023   1.062   3.685  12.044 -0.4266 -0.1224  0.3744
  540TMC3    O2 8024   1.602   3.797  11.831  0.3239 -0.3360  0.2303
  541MPD2     C 8025   4.489   4.671  13.446  0.0225 -0.0424 -0.4250
  541MPD2    C1 8026   4.474   4.597  13.324  0.4061 -0.1786  0.0578
  541MPD2    C2 8027   4.521   4.657  13.205  1.1461 -0.1902 -0.0083
  541MPD2    C3 8028   4.579   0.061  13.202 -0.7895 -0.7878  0.1398
  541MPD2    C4 8029   4.582   0.129  13.323 -0.4137  0.4861 -0.1495
  541MPD2    C5 8030   4.539   0.073  13.438 -0.0756  0.3285  0.2311
  541MPD2     H 8031   4.524   4.597  13.115 -1.2797  1.4096 -1.1596
  541MPD2    H1 8032   4.623   0.229  13.333  0.7911  0.1164 -1.3783
  541MPD2    H2 8033   4.460   4.632  13.543  1.5903 -0.1387 -0.0079
  541MPD2    H3 8034   4.537   0.137  13.526 -2.7539 -0.6341  0.8789
  541MPD2     N 8035   4.639   0.113  13.082 -0.8883  0.5238 -0.3133
  541MPD2    H5 8036   4.692   0.199  13.094 -1.1579  0.5550  0.6689
  541MPD2    N1 8037   4.424   4.463  13.341  0.3066  0.4113 -0.1693
  541MPD2    H7 8038   4.407   4.430  13.436  1.1546 -0.6775 -0.3939
  542TMC3    C1 8039   4.698   0.144  12.860 -0.5028  0.5177 -0.2285
  542TMC3    C2 8040   0.027   0.082  12.754 -0.0679  0.2271  0.7929
  542TMC3    C3 8041   0.064   0.154  12.644 -0.0467  0.4969  0.1080
  542TMC3    C4 8042   4.690   0.284  12.867 -0.3787  0.1528 -1.0197
  542TMC3    C5 8043   0.021   0.351  12.762  0.6110 -0.1696  0.5525
  542TMC3    C6 8044   0.070   0.292  12.647 -0.6279  0.1594  0.2530
  542TMC3     C 8045   4.622   0.061  12.958  0.1944  0.1372 -0.2132
  542TMC3     O 8046   4.566   4.682  12.916 -0.4456  0.1246 -0.1029
  542TMC3     H 8047   0.020   4.697  12.747 -2.2993  0.4741 -0.9656
  542TMC3    H1 8048   4.622   0.331  12.938  1.2244 -1.1249  1.3770
  542TMC3    H2 8049   0.083   0.347  12.555  0.2110 -1.6871 -0.7260
  542TMC3    C7 8050   0.007   0.499  12.760  0.2344 -0.2808 -0.1237
  542TMC3    C8 8051   0.103   0.086  12.517 -0.0614 -0.3140 -0.2992
  542TMC3    O1 8052   0.063   0.546  12.660 -0.3207 -0.3260  0.0739
  542TMC3    O2 8053   0.092   0.134  12.406 -0.4717  0.4737 -0.0638
  543TMC3    C1 8054   3.505   1.204  17.664 -0.3039 -0.5581 -0.7937
  543TMC3    C2 8055   3.403   1.113  17.669 -0.2466 -0.4466  0.2198
  543TMC3    C3 8056   3.337   1.105   0.098  0.2990 -0.9871 -0.4341
  543TMC3    C4 8057   3.547   1.291   0.066  0.3313  0.5671 -0.5445
  543TMC3    C5 8058   3.468   1.286   0.184  0.0464  0.1137 -0.1868
  543TMC3    C6 8059   3.373   1.189   0.201  0.3249 -0.0830 -0.5039
  543TMC3     C 8060   3.547   1.231  17.527  0.5115 -0.3238  0.5222
  543TMC3     O 8061   3.651   1.292  17.525  0.1511  0.1612  0.3323
  543TMC3     H 8062   3.375   1.053  17.584  0.5193  1.5454 -1.4373
  543TMC3    H1 8063   3.632   1.357   0.054  0.1703  1.0065  0.7412
  543TMC3    H2 8064   3.309   1.187   0.288 -0.2154  1.6297 -0.8618
  543TMC3    C7 8065   3.498   1.370   0.299  0.6474  0.0546  0.2197
  543TMC3    C8 8066   3.215   1.029   0.108 -0.2165 -0.6007  0.1360
  543TMC3    O1 8067   3.469   1.330   0.414  0.0579 -0.4388 -0.1452
  543TMC3    O2 8068   3.128   1.070   0.183  0.5853 -0.0913 -0.2807
  544MPD2     C 8069   2.930   0.599   0.021  0.3853 -0.8230 -0.1059
  544MPD2    C1 8070   3.039   0.599  17.635  0.0850  0.0191 -0.6267
  544MPD2    C2 8071   3.121   0.712  17.629  0.8839  0.0534  1.0242
  544MPD2    C3 8072   3.111   0.814   0.023  0.1543  0.0090 -0.0692
  544MPD2    C4 8073   3.004   0.812   0.111 -0.1492  0.4502 -1.0596
  544MPD2    C5 8074   2.913   0.704   0.098 -0.9515  0.4588  0.2030
  544MPD2     H 8075   3.196   0.726  17.551  2.3258 -0.5690  2.3006
  544MPD2    H1 8076   2.990   0.892   0.183  0.0269  0.1259 -0.6634
  544MPD2    H2 8077   2.864   0.513   0.029  0.0179 -0.4743  0.5888
  544MPD2    H3 8078   2.828   0.706   0.166  0.7448  1.9386  2.3006
  544MPD2     N 8079   3.207   0.918   0.023  0.0906 -0.6032 -0.2170
  544MPD2    H5 8080   3.283   0.903  17.650  1.9535  0.2145  1.7199
  544MPD2    N1 8081   3.061   0.481  17.558 -0.2772 -0.0823  0.4154
  544MPD2    H7 8082   2.990   0.409  17.558 -0.4387  0.0747 -0.7292
  545TMC3    C1 8083   3.166   0.346  17.390  0.1137 -0.7205  0.3529
  545TMC3    C2 8084   3.246   0.343  17.281 -0.1156 -0.5376  0.6989
  545TMC3    C3 8085   3.322   0.233  17.245 -0.4312  0.0982 -0.4069
  545TMC3    C4 8086   3.160   0.230  17.469 -0.1658  0.1192 -0.3760
  545TMC3    C5 8087   3.233   0.121  17.432  0.1410 -0.9630  0.0935
  545TMC3    C6 8088   3.311   0.117  17.320 -1.0659  0.0166  0.5015
  545TMC3     C 8089   3.171   0.467  17.472  0.0091 -0.0404  0.2864
  545TMC3     O 8090   3.278   0.523  17.459 -0.4142 -0.3792  0.1704
  545TMC3     H 8091   3.247   0.428  17.214  1.9817 -2.5159 -1.8005
  545TMC3    H1 8092   3.095   0.225  17.556  0.5595  0.2522  0.1662
  545TMC3    H2 8093   3.362   0.030  17.281 -0.3944  0.0357  1.3104
  545TMC3    C7 8094   3.219   0.003  17.514  0.4985  0.2776 -0.3731
  545TMC3    C8 8095   3.409   0.227  17.133 -0.2726 -0.6728  0.1452
  545TMC3    O1 8096   3.119   4.719  17.587 -0.3851 -0.0842  0.0506
  545TMC3    O2 8097   3.418   0.119  17.075  0.1325 -0.5116  0.7480
  546MPD2     C 8098   0.694   1.274  17.674 -0.1754 -0.2881 -0.3179
  546MPD2    C1 8099   0.612   1.323  17.574 -0.6955  0.0926 -0.2080
  546MPD2    C2 8100   0.643   1.444  17.510 -0.3255  0.0765 -0.1648
  546MPD2    C3 8101   0.769   1.496  17.546  0.4956  0.1663  0.0380
  546MPD2    C4 8102   0.847   1.458  17.650 -0.3710 -0.8830  0.8575
  546MPD2    C5 8103   0.808   1.338   0.020  0.4139 -0.5102 -0.5569
  546MPD2     H 8104   0.573   1.486  17.439 -0.4163 -0.3599 -0.3341
  546MPD2    H1 8105   0.947   1.489  17.675 -0.8844  1.3521  0.2200
  546MPD2    H2 8106   0.671   1.181   0.032 -0.9269  0.4889  0.7400
  546MPD2    H3 8107   0.872   1.300   0.099 -2.3744 -1.3219  1.2975
  546MPD2     N 8108   0.833   1.602  17.472  0.2266  0.6108  0.0559
  546MPD2    H5 8109   0.924   1.635  17.502  0.4843 -0.4481  0.4217
  546MPD2    N1 8110   0.492   1.253  17.557  0.4276  0.5715 -0.7665
  546MPD2    H7 8111   0.480   1.164  17.605  2.9651  0.1421 -0.9474
  547TMC3    C1 8112   0.277   1.216  17.475 -0.8123  0.1897  0.5290
  547TMC3    C2 8113   0.205   1.226  17.363 -0.4640  0.1893 -0.3135
  547TMC3    C3 8114   0.110   1.129  17.345  1.0193  0.1495  0.1304
  547TMC3    C4 8115   0.268   1.111  17.562  0.4345 -0.9285 -0.4697
  547TMC3    C5 8116   0.170   1.022  17.542 -0.3374  0.7068 -0.2719
  547TMC3    C6 8117   0.096   1.024  17.428 -0.1620 -0.2009 -0.5249
  547TMC3     C 8118   0.383   1.305  17.487 -0.3203 -0.4712 -0.4051
  547TMC3     O 8119   0.365   1.413  17.438  0.0783 -0.4390 -0.7968
  547TMC3     H 8120   0.220   1.303  17.289  0.9883 -1.2297 -1.5192
  547TMC3    H1 8121   0.320   1.107  17.657 -3.1070  0.1416  1.4998
  547TMC3    H2 8122   0.011   0.956  17.421  1.0858 -1.7879 -0.2620
  547TMC3    C7 8123   0.154   0.908  17.631 -0.7450  0.4072 -0.0549
  547TMC3    C8 8124   0.094   1.080  17.204  0.1827 -0.1493 -0.3001
  547TMC3    O1 8125   0.209   0.917   0.047  0.1665  0.2456 -0.0238
  547TMC3    O2 8126   0.162   0.983  17.171  0.6864 -0.4359  0.5071
  548MPD2     C 8127   0.694   1.972  12.289 -0.1684  1.0612 -0.1248
  548MPD2    C1 8128   0.644   1.851  12.326 -0.1901  0.9565  0.6079
  548MPD2    C2 8129   0.710   1.737  12.289 -0.0511  0.7426 -0.3835
  548MPD2    C3 8130   0.829   1.739  12.218 -0.4033  0.2600 -0.3268
  548MPD2    C4 8131   0.880   1.867  12.191  0.3256 -0.0626 -0.3509
  548MPD2    C5 8132   0.813   1.981  12.228  1.0551 -0.6791 -0.0014
  548MPD2     H 8133   0.677   1.640  12.323 -1.5042  1.4885  0.2954
  548MPD2    H1 8134   0.978   1.887  12.150  0.9828  0.7950  1.6183
  548MPD2    H2 8135   0.655   2.060  12.340 -1.3768  0.8817 -0.7444
  548MPD2    H3 8136   0.870   2.070  12.204 -0.3449 -0.1156 -1.2748
  548MPD2     N 8137   0.903   1.622  12.187 -0.1112  0.4451  0.8061
  548MPD2    H5 8138   0.859   1.534  12.213 -0.0373  0.0368 -0.4580
  548MPD2    N1 8139   0.521   1.858  12.401  0.1284 -0.3938 -0.3929
  548MPD2    H7 8140   0.488   1.949  12.429  1.6078 -0.3955  1.3805
  549TMC3    C1 8141   0.333   1.766  12.521  0.0996 -0.7537  0.5929
  549TMC3    C2 8142   0.274   1.889  12.529  0.7118 -0.7999  0.2723
  549TMC3    C3 8143   0.150   1.891  12.599 -0.0029  0.1852 -0.0419
  549TMC3    C4 8144   0.280   1.656  12.587 -0.3549 -0.3422 -0.6708
  549TMC3    C5 8145   0.156   1.665  12.644 -0.7441 -0.0723  0.6611
  549TMC3    C6 8146   0.088   1.781  12.653 -0.1011 -1.0619 -0.1689
  549TMC3     C 8147   0.443   1.747  12.432 -0.0543  0.1411  0.0851
  549TMC3     O 8148   0.472   1.630  12.403  0.2279 -0.5442  0.3999
  549TMC3     H 8149   0.306   1.976  12.473  0.0659 -0.0303  1.0990
  549TMC3    H1 8150   0.345   1.570  12.581  0.3674  0.2875 -1.8599
  549TMC3    H2 8151   4.719   1.786  12.709 -0.6466 -0.3741 -1.1200
  549TMC3    C7 8152   0.140   1.564  12.744  0.0948 -0.3152 -0.0126
  549TMC3    C8 8153   0.069   1.999  12.567  0.5009 -0.1615 -0.0686
  549TMC3    O1 8154   0.043   1.591  12.813 -0.3709  0.0376  0.9111
  549TMC3    O2 8155   4.683   1.963  12.526 -0.2228 -0.2132 -0.3254
  550TMC3    C1 8156   4.126   4.525  12.278  0.9477  0.9989  0.2529
  550TMC3    C2 8157   4.127   4.575  12.403  0.0012  0.5792 -0.6022
  550TMC3    C3 8158   4.071   4.702  12.423  0.1676  0.6092 -0.2109
  550TMC3    C4 8159   4.050   4.581  12.176 -0.4690 -0.3679  0.0135
  550TMC3    C5 8160   3.993   4.708  12.200 -0.1687  0.1174  0.2367
  550TMC3    C6 8161   4.006   0.049  12.326 -0.2366 -0.6673 -1.1105
  550TMC3     C 8162   4.179   4.388  12.257  0.1241  0.1566  0.6862
  550TMC3     O 8163   4.195   4.321  12.360 -0.0341  0.0009  0.0303
  550TMC3     H 8164   4.187   4.521  12.475  1.2193  0.1142 -1.9626
  550TMC3    H1 8165   4.011   4.524  12.092  0.3276  0.8025 -1.1439
  550TMC3    H2 8166   3.952   0.137  12.360  1.7518 -0.3900  1.3565
  550TMC3    C7 8167   3.896   0.054  12.118  0.9236 -0.5371  0.3997
  550TMC3    C8 8168   4.063   0.048  12.556  0.5628  0.1160  0.1589
  550TMC3    O1 8169   3.842   0.149  12.166 -0.2620 -0.0075 -0.7516
  550TMC3    O2 8170   4.033   0.165  12.554 -0.2814  0.0976 -0.2537
  551TMC3    C1 8171   1.594   2.041  13.366 -0.0491  0.8452 -0.3127
  551TMC3    C2 8172   1.711   1.984  13.323 -0.3041  0.8296  0.4802
  551TMC3    C3 8173   1.827   2.045  13.369 -0.4159 -0.0504  0.2632
  551TMC3    C4 8174   1.590   2.125  13.472  0.5497 -0.3746 -0.0346
  551TMC3    C5 8175   1.702   2.182  13.521 -0.2939  0.3157  0.5418
  551TMC3    C6 8176   1.819   2.142  13.460 -1.2547 -0.5097 -0.3590
  551TMC3     C 8177   1.476   1.985  13.315  0.2045  0.0491  0.3875
  551TMC3     O 8178   1.481   1.878  13.250  0.8576 -0.2567  0.0281
  551TMC3     H 8179   1.725   1.925  13.233  1.9801  1.2644  0.5472
  551TMC3    H1 8180   1.495   2.142  13.520  0.1356 -0.7837 -0.7049
  551TMC3    H2 8181   1.909   2.185  13.500 -0.9447 -2.6097  1.1905
  551TMC3    C7 8182   1.700   2.299  13.608  0.6296  0.2852 -0.1212
  551TMC3    C8 8183   1.922   2.064  13.269  1.3477  0.0196 -0.1645
  551TMC3    O1 8184   1.806   2.358  13.625  0.0645  0.3633  0.7709
  551TMC3    O2 8185   1.946   1.966  13.196 -0.0454  0.5963  0.2094
  552MPD2     C 8186   3.351   4.485  13.999 -0.2580 -0.2492  0.0418
  552MPD2    C1 8187   3.346   4.348  14.001 -0.2496 -0.0862  0.2192
  552MPD2    C2 8188   3.442   4.272  14.062 -0.6163  0.5502 -0.1337
  552MPD2    C3 8189   3.549   4.336  14.125 -0.2100  0.8273  0.1744
  552MPD2    C4 8190   3.556   4.469  14.130 -0.6517 -0.3667  0.2698
  552MPD2    C5 8191   3.456   4.542  14.070 -0.2852 -0.6973 -0.3144
  552MPD2     H 8192   3.439   4.164  14.053 -0.5634  0.5817 -0.5417
  552MPD2    H1 8193   3.629   4.513  14.198  0.9117 -0.8545 -1.0793
  552MPD2    H2 8194   3.277   4.552  13.957  1.5800  1.0666 -1.0895
  552MPD2    H3 8195   3.455   4.650  14.083  0.7654 -0.5736 -1.1912
  552MPD2     N 8196   3.648   4.274  14.198 -0.8454 -0.3690  0.0107
  552MPD2    H5 8197   3.710   4.331  14.255 -2.1360 -1.2279  2.2571
  552MPD2    N1 8198   3.246   4.272  13.938  0.2481  0.0501 -0.3614
  552MPD2    H7 8199   3.252   4.171  13.952 -1.0913 -0.0231 -0.3268
  553TMC3    C1 8200   3.110   4.209  13.755 -0.9172  0.3489  0.0049
  553TMC3    C2 8201   3.178   4.230  13.636 -0.1192  0.4591 -0.7590
  553TMC3    C3 8202   3.269   4.145  13.584 -0.0759 -0.1401  0.2015
  553TMC3    C4 8203   3.125   4.084  13.819 -0.0104 -0.1879 -0.5653
  553TMC3    C5 8204   3.213   3.994  13.763 -0.2968 -0.2442  0.0887
  553TMC3    C6 8205   3.299   4.031  13.660 -0.2907  0.0275  0.1536
  553TMC3     C 8206   3.148   4.314  13.853 -0.3017 -0.5086  0.1757
  553TMC3     O 8207   3.119   4.428  13.817 -0.1444 -0.6663  0.2160
  553TMC3     H 8208   3.152   4.320  13.580 -0.4269  1.1546  0.4916
  553TMC3    H1 8209   3.073   4.060  13.911  0.5246  1.3826  0.1298
  553TMC3    H2 8210   3.365   3.962  13.609  2.0700 -0.3917  3.7518
  553TMC3    C7 8211   3.230   3.878  13.843 -0.6519 -0.1548 -0.0151
  553TMC3    C8 8212   3.386   4.202  13.518  0.0204  0.7030 -0.7303
  553TMC3    O1 8213   3.127   3.832  13.881 -0.0355  0.6718  0.2072
  553TMC3    O2 8214   3.473   4.269  13.585 -0.2438  0.5598 -0.3537
  554TMC3    C1 8215   0.702   3.241  11.774 -0.8183  0.2963 -0.2948
  554TMC3    C2 8216   0.631   3.230  11.665  0.3157 -0.1643  0.3256
  554TMC3    C3 8217   0.655   3.313  11.559  0.0507 -0.0766  0.1532
  554TMC3    C4 8218   0.789   3.340  11.793 -0.1696 -0.9949 -0.1192
  554TMC3    C5 8219   0.804   3.426  11.688 -0.7681  0.4805 -0.0411
  554TMC3    C6 8220   0.744   3.408  11.567  0.2029  0.3236 -0.5005
  554TMC3     C 8221   0.679   3.143  11.877  0.5322  0.3477 -0.1002
  554TMC3     O 8222   0.572   3.083  11.876  0.4551 -0.5498 -0.2560
  554TMC3     H 8223   0.563   3.145  11.656  2.6107 -1.8619 -0.9221
  554TMC3    H1 8224   0.856   3.339  11.878  0.6496 -1.2846 -0.7552
  554TMC3    H2 8225   0.755   3.485  11.492 -1.2170 -0.4175 -1.4823
  554TMC3    C7 8226   0.884   3.542  11.700  0.3457 -0.2893 -0.5424
  554TMC3    C8 8227   0.606   3.275  11.434 -0.8854  0.0782 -0.3706
  554TMC3    O1 8228   0.900   3.587  11.811  0.3677  0.3990 -0.4738
  554TMC3    O2 8229   0.684   3.297  11.345 -0.0534 -0.1222  0.8037
  555TMC3    C1 8230   4.454   2.523  15.287 -0.1376 -1.1397  0.1615
  555TMC3    C2 8231   4.380   2.611  15.360  0.6892  0.7564 -0.7539
  555TMC3    C3 8232   4.351   2.571  15.486 -0.5679 -0.6237 -0.0757
  555TMC3    C4 8233   4.506   2.401  15.328 -0.6674  0.0891 -0.6664
  555TMC3    C5 8234   4.465   2.363  15.451 -0.2168 -0.2280  0.0945
  555TMC3    C6 8235   4.392   2.447  15.527 -0.5998  0.3706 -0.3267
  555TMC3     C 8236   4.488   2.578  15.159 -0.1221 -0.9818 -0.1478
  555TMC3     O 8237   4.584   2.531  15.102  0.5904  0.2840  0.5254
  555TMC3     H 8238   4.361   2.715  15.336  1.0434  1.0638  0.3255
  555TMC3    H1 8239   4.563   2.340  15.259 -0.0204 -0.8455  0.6892
  555TMC3    H2 8240   4.371   2.425  15.631 -0.4396  3.3507  0.3352
  555TMC3    C7 8241   4.466   2.219  15.490 -0.0408 -0.6876  0.2137
  555TMC3    C8 8242   4.348   2.682  15.581 -0.8477 -0.3996 -0.2617
  555TMC3    O1 8243   4.435   2.201  15.605  0.3601 -0.1572  0.2733
  555TMC3    O2 8244   4.299   2.791  15.547 -0.3030  0.0119  0.2202
  556MPD2     C 8245   2.901   4.702  10.578 -0.0442  0.1532  0.4863
  556MPD2    C1 8246   2.831   4.636  10.678  0.1401  0.3864  0.0722
  556MPD2    C2 8247   2.820   4.503  10.671  0.4565  0.2380 -0.0488
  556MPD2    C3 8248   2.870   4.429  10.567 -0.3045  0.2508 -0.2955
  556MPD2    C4 8249   2.940   4.493  10.466 -0.2699  0.2047 -0.3597
  556MPD2    C5 8250   2.953   4.628  10.473  0.5767 -0.1139 -0.6593
  556MPD2     H 8251   2.768   4.444  10.746  0.0651 -2.9263 -2.7921
  556MPD2    H1 8252   2.965   4.432  10.380 -1.6005 -4.0640  2.2170
  556MPD2    H2 8253   2.913   0.086  10.583 -0.8679  0.2641  0.2440
  556MPD2    H3 8254   3.004   4.690  10.401  3.3924 -1.2040  0.3587
  556MPD2     N 8255   2.853   4.284  10.578 -0.4178 -0.0920  0.0697
  556MPD2    H5 8256   2.793   4.247  10.651 -0.1073 -2.2680 -0.7801
  556MPD2    N1 8257   2.793   4.705  10.800  0.0753  0.3893 -0.3387
  556MPD2    H7 8258   2.756   4.643  10.871  0.0414 -0.7227 -1.3424
  557TMC3    C1 8259   2.875   4.058  10.536  0.2016 -0.2080 -0.0940
  557TMC3    C2 8260   2.851   3.958  10.441 -0.0206 -0.7002 -0.0589
  557TMC3    C3 8261   2.843   3.825  10.477 -0.0860  0.5068 -0.1739
  557TMC3    C4 8262   2.897   4.021  10.667  0.3250  0.3122  1.0418
  557TMC3    C5 8263   2.893   3.887  10.705 -1.1134  0.6196  0.1847
  557TMC3    C6 8264   2.856   3.793  10.615 -0.0251 -0.0858 -0.3782
  557TMC3     C 8265   2.901   4.191  10.491 -0.2316 -0.3569 -0.0872
  557TMC3     O 8266   2.966   4.203  10.391  0.1345 -0.0076 -0.2423
  557TMC3     H 8267   2.823   3.994  10.343  0.9368 -3.2844 -1.2623
  557TMC3    H1 8268   2.916   4.097  10.743  1.8307 -0.3939  1.3645
  557TMC3    H2 8269   2.835   3.693  10.650 -3.4716  1.4080  1.8113
  557TMC3    C7 8270   2.812   3.884  10.820  0.1843 -0.1782  0.2580
  557TMC3    C8 8271   2.788   3.732  10.383 -0.4230  0.0699  0.2392
  557TMC3    O1 8272   2.759   3.992  10.842  0.1233  0.0663 -0.2936
  557TMC3    O2 8273   2.710   3.770  10.297 -0.2387  0.3794  0.3400
  558TMC3    C1 8274   0.705   2.410  10.499 -0.2637  0.4150 -1.2627
  558TMC3    C2 8275   0.592   2.366  10.559 -0.4578  0.6106  0.8241
  558TMC3    C3 8276   0.483   2.363  10.476  0.7721  0.5164  0.0886
  558TMC3    C4 8277   0.707   2.448  10.374  0.3811 -0.4527  0.2528
  558TMC3    C5 8278   0.600   2.431  10.293 -0.1416 -0.4669 -0.0608
  558TMC3    C6 8279   0.480   2.388  10.340  0.1266  1.0388 -0.5385
  558TMC3     C 8280   0.835   2.415  10.567  0.1297  0.4733 -0.2459
  558TMC3     O 8281   0.931   2.409  10.499 -0.2483 -0.1664 -0.6582
  558TMC3     H 8282   0.589   2.330  10.661 -0.2893 -1.2230  0.1745
  558TMC3    H1 8283   0.802   2.487  10.339 -0.4534  2.0630  0.7273
  558TMC3    H2 8284   0.391   2.394  10.278 -1.0906 -1.5525  0.9574
  558TMC3    C7 8285   0.639   2.401  10.155  0.5541 -0.8181  0.3656
  558TMC3    C8 8286   0.350   2.325  10.517 -0.2893  0.2648  0.0497
  558TMC3    O1 8287   0.743   2.453  10.118  0.1063  0.2252  0.8661
  558TMC3    O2 8288   0.281   2.261  10.440 -0.6196 -0.5894 -0.1828
  559MPD2     C 8289   0.742   2.844  10.457 -0.4765 -0.1412  0.1059
  559MPD2    C1 8290   0.658   2.803  10.554  0.0570 -0.3850  0.1007
  559MPD2    C2 8291   0.722   2.791  10.682  0.0409  0.3321  0.6512
  559MPD2    C3 8292   0.854   2.817  10.699 -0.0949  0.7781  0.7694
  559MPD2    C4 8293   0.936   2.851  10.593  0.2681 -0.3530 -0.7904
  559MPD2    C5 8294   0.875   2.864  10.474  0.8620 -0.1255  0.0584
  559MPD2     H 8295   0.662   2.762  10.768 -0.4504  2.3307  0.9675
  559MPD2    H1 8296   1.044   2.855  10.599  0.3796 -2.3587 -1.8651
  559MPD2    H2 8297   0.702   2.843  10.356 -2.3078  3.4888  0.8190
  559MPD2    H3 8298   0.941   2.888  10.391  0.0460  1.0194 -0.2681
  559MPD2     N 8299   0.903   2.829  10.831  0.0173  0.2361  0.1251
  559MPD2    H5 8300   0.847   2.795  10.908  2.6655  0.0561  1.9823
  559MPD2    N1 8301   0.528   2.765  10.525  0.1572 -0.2474  0.1012
  559MPD2    H7 8302   0.501   2.747  10.429  0.6605 -0.3256 -0.0256
  560TMC3    C1 8303   1.051   2.860  11.015  0.2748  0.2077  0.0392
  560TMC3    C2 8304   0.995   2.758  11.081  0.1525 -0.0443 -0.6723
  560TMC3    C3 8305   1.020   2.756  11.217 -0.6420 -0.5501  0.0308
  560TMC3    C4 8306   1.127   2.958  11.072 -0.1671  0.1032 -0.1573
  560TMC3    C5 8307   1.151   2.953  11.206  0.1360  0.3345  0.3522
  560TMC3    C6 8308   1.101   2.851  11.286  0.1999 -0.2341  0.0457
  560TMC3     C 8309   1.025   2.876  10.872 -0.0768 -0.3533  0.1674
  560TMC3     O 8310   1.116   2.930  10.818 -0.5242  0.8588  0.4269
  560TMC3     H 8311   0.941   2.681  11.027  2.4883 -1.5830 -0.7681
  560TMC3    H1 8312   1.174   3.036  11.013 -0.4038 -0.3666 -0.9623
  560TMC3    H2 8313   1.099   2.855  11.394 -0.9731  0.0701  0.0083
  560TMC3    C7 8314   1.248   3.038  11.269 -1.0536 -0.4690  0.8162
  560TMC3    C8 8315   0.949   2.653  11.289 -0.1708 -1.0344  0.2825
  560TMC3    O1 8316   1.297   3.126  11.201  0.0122 -0.3133 -0.1619
  560TMC3    O2 8317   0.856   2.615  11.222  0.0131 -0.0888 -0.3691
  561TMC3    C1 8318   2.949   2.213  11.277  0.3389 -0.4589 -0.1792
  561TMC3    C2 8319   2.914   2.152  11.393 -0.2930  0.9313 -0.6921
  561TMC3    C3 8320   2.916   2.226  11.508  0.0231  0.4710  0.0363
  561TMC3    C4 8321   2.996   2.334  11.272 -0.0115 -0.2226  0.1402
  561TMC3    C5 8322   3.003   2.409  11.391 -0.0973 -0.6616 -0.7619
  561TMC3    C6 8323   2.962   2.354  11.509 -0.0935 -0.3950 -0.2172
  561TMC3     C 8324   2.938   2.141  11.148  0.3715  0.8538 -0.3169
  561TMC3     O 8325   2.951   2.212  11.048 -0.0499  0.5113  0.6942
  561TMC3     H 8326   2.870   2.053  11.393  2.8797 -0.4863 -0.2534
  561TMC3    H1 8327   3.024   2.375  11.175 -0.7807 -0.3367 -0.1280
  561TMC3    H2 8328   2.961   2.412  11.601  0.8253 -0.7789  0.0306
  561TMC3    C7 8329   3.056   2.546  11.390  0.1613  0.7260  0.6398
  561TMC3    C8 8330   2.833   2.196  11.623 -0.6019  0.4060 -0.5726
  561TMC3    O1 8331   3.061   2.606  11.494  0.0975  0.4390 -0.6720
  561TMC3    O2 8332   2.797   2.287  11.696 -0.0655 -0.6488  0.0199
  562TMC3    C1 8333   3.937   2.998  16.024  0.1989  0.1006 -0.5140
  562TMC3    C2 8334   3.811   3.032  15.986 -0.4758 -0.8583  0.1008
  562TMC3    C3 8335   3.764   2.979  15.869 -1.1007  0.8959 -0.0348
  562TMC3    C4 8336   4.001   2.893  15.963  0.2943 -0.6287  0.4653
  562TMC3    C5 8337   3.933   2.823  15.863 -0.1395 -1.0785  0.4729
  562TMC3    C6 8338   3.823   2.872  15.802  0.1323 -0.3988  0.0714
  562TMC3     C 8339   4.002   3.073  16.121  0.6071  0.3579  0.1153
  562TMC3     O 8340   3.943   3.167  16.166  0.4283 -0.1414 -0.0997
  562TMC3     H 8341   3.757   3.111  16.038  0.1663 -0.0860 -0.4018
  562TMC3    H1 8342   4.103   2.860  15.978  0.4263  0.1029  1.1498
  562TMC3    H2 8343   3.763   2.822  15.727 -1.7739  0.8949  0.7186
  562TMC3    C7 8344   3.987   2.707  15.807  0.6562  0.0716 -0.3057
  562TMC3    C8 8345   3.624   3.008  15.837  0.6629  0.1134  0.0868
  562TMC3    O1 8346   3.950   2.681  15.691 -0.0351  0.3113 -0.1567
  562TMC3    O2 8347   3.549   3.075  15.912  0.3724 -0.0878 -0.3903
  563MPD2     C 8348   1.658   0.098  16.086  0.0326 -0.5143 -0.2525
  563MPD2    C1 8349   1.696   0.024  16.194 -0.0168 -0.3720  0.3230
  563MPD2    C2 8350   1.831   4.722  16.206  0.1420  0.2177 -0.3797
  563MPD2    C3 8351   1.930   0.046  16.121  0.3365 -0.3573 -0.3383
  563MPD2    C4 8352   1.883   0.121  16.017  0.3026 -0.1700 -0.3823
  563MPD2    C5 8353   1.752   0.159  16.002  0.1486 -0.1272  0.2778
  563MPD2     H 8354   1.866   4.649  16.279  0.6893 -1.2065 -2.0544
  563MPD2    H1 8355   1.959   0.164  15.953 -1.3736 -0.3361 -2.4511
  563MPD2    H2 8356   1.554   0.111  16.056  0.1130  0.9563  0.1094
  563MPD2    H3 8357   1.723   0.211  15.912  0.7351 -0.4188 -0.0757
  563MPD2     N 8358   2.063   0.005  16.137  0.0568  0.2641  0.2015
  563MPD2    H5 8359   2.092   4.680  16.222  0.1275 -0.3139 -0.1474
  563MPD2    N1 8360   1.606   4.706  16.292  0.2848 -0.4848  0.1407
  563MPD2    H7 8361   1.507   4.697  16.269  0.4614 -1.1333 -0.3583
  564TMC3    C1 8362   1.541   4.670  16.521  0.4023  0.2662 -0.2296
  564TMC3    C2 8363   1.444   4.581  16.491 -0.2098  0.0725 -0.3210
  564TMC3    C3 8364   1.385   4.512  16.596 -0.1754  0.0096  0.2030
  564TMC3    C4 8365   1.566   4.705  16.649  0.0833  0.5291 -0.0110
  564TMC3    C5 8366   1.503   4.633  16.748  0.0504  0.1059 -0.1996
  564TMC3    C6 8367   1.413   4.532  16.723 -0.1047 -0.4514 -0.4535
  564TMC3     C 8368   1.641   4.685  16.424 -0.0519 -0.2080  0.3697
  564TMC3     O 8369   1.747   0.007  16.474 -0.0161  0.1871 -0.2195
  564TMC3     H 8370   1.440   4.542  16.390  0.3532 -0.5578 -0.0989
  564TMC3    H1 8371   1.652   0.043  16.675  1.4221 -1.5390  0.3717
  564TMC3    H2 8372   1.361   4.485  16.806  0.5444 -0.6228 -0.1395
  564TMC3    C7 8373   1.583   4.616  16.865 -0.0157  0.1915  0.0507
  564TMC3    C8 8374   1.284   4.409  16.568 -0.1379 -0.4255  0.2616
  564TMC3    O1 8375   1.638   4.716  16.908 -0.3272 -0.4484 -0.1745
  564TMC3    O2 8376   1.249   4.333  16.656  0.4490  0.3772 -0.6043
  565TMC3    C1 8377   2.767   2.083   9.970  0.7624 -0.4832  0.1810
  565TMC3    C2 8378   2.630   2.058   9.990  0.2834 -0.2445  0.1933
  565TMC3    C3 8379   2.544   2.095   9.887 -0.0831 -0.0381  0.5161
  565TMC3    C4 8380   2.804   2.154   9.859 -0.5109  0.5055 -0.3906
  565TMC3    C5 8381   2.713   2.203   9.773 -0.5051 -0.4160 -0.1214
  565TMC3    C6 8382   2.576   2.169   9.774  0.3266  0.7519 -0.0559
  565TMC3     C 8383   2.875   2.026  10.053  0.3416 -0.4082  0.3044
  565TMC3     O 8384   2.991   2.047  10.025  0.0124  0.2195 -0.1946
  565TMC3     H 8385   2.590   1.996  10.069 -0.6976 -0.1667 -0.2370
  565TMC3    H1 8386   2.906   2.190   9.852 -0.0923 -0.2716  1.5140
  565TMC3    H2 8387   2.502   2.214   9.709 -0.5153 -1.1318 -0.4068
  565TMC3    C7 8388   2.743   2.331   9.713  0.0300  0.2651  0.3073
  565TMC3    C8 8389   2.409   2.060   9.916 -0.0550 -0.2091 -0.8007
  565TMC3    O1 8390   2.851   2.383   9.748  0.5209 -0.6761 -0.2537
  565TMC3    O2 8391   2.389   1.961   9.985 -0.2017  0.3509  0.4788
  566MPD2     C 8392   3.691   2.362  14.534  0.1920  0.2711  0.0152
  566MPD2    C1 8393   3.757   2.464  14.466 -0.2553 -0.4718  0.8603
  566MPD2    C2 8394   3.699   2.510  14.347  0.3079 -0.7837  0.7245
  566MPD2    C3 8395   3.584   2.452  14.290  0.3930  0.2329 -0.0890
  566MPD2    C4 8396   3.517   2.352  14.363 -1.1882  0.2747 -0.6915
  566MPD2    C5 8397   3.568   2.315  14.485 -0.5166 -0.3298  0.6428
  566MPD2     H 8398   3.739   2.601  14.303  1.3229 -1.2267  0.7263
  566MPD2    H1 8399   3.422   2.311  14.331 -0.2784 -1.0409 -1.7323
  566MPD2    H2 8400   3.731   2.327  14.629 -1.9546 -3.3184 -0.4052
  566MPD2    H3 8401   3.524   2.225  14.528 -1.6466  0.8867  2.0078
  566MPD2     N 8402   3.538   2.506  14.173 -0.0341  0.3361  0.1379
  566MPD2    H5 8403   3.598   2.572  14.124  0.6060 -0.2167  0.1858
  566MPD2    N1 8404   3.876   2.521  14.522  0.0888 -0.3967  0.2084
  566MPD2    H7 8405   3.920   2.483  14.606 -0.6308  0.1517  0.8349
  567TMC3    C1 8406   4.082   2.648  14.530  0.3766  0.9565 -0.5082
  567TMC3    C2 8407   4.159   2.742  14.474 -0.6595  0.5799  0.5238
  567TMC3    C3 8408   4.296   2.734  14.475 -0.2207 -0.2278  0.7938
  567TMC3    C4 8409   4.142   2.540  14.595  0.8316  0.2919 -0.8314
  567TMC3    C5 8410   4.272   2.540  14.604  0.3118  0.6657 -0.4200
  567TMC3    C6 8411   4.359   2.632  14.546  0.4555 -0.2739 -0.0292
  567TMC3     C 8412   3.943   2.634  14.473 -0.6399  0.6378  0.5816
  567TMC3     O 8413   3.905   2.706  14.380  1.0414 -0.1031 -0.4484
  567TMC3     H 8414   4.122   2.810  14.398 -0.8612  1.6597  1.5781
  567TMC3    H1 8415   4.089   2.457  14.639  0.9563  0.6292 -0.0380
  567TMC3    H2 8416   4.463   2.603  14.541 -0.1197 -2.2128 -0.5118
  567TMC3    C7 8417   4.317   2.491  14.736 -0.0392 -0.2162  0.1575
  567TMC3    C8 8418   4.375   2.799  14.372  0.0289 -0.0282  0.5680
  567TMC3    O1 8419   4.440   2.473  14.748  0.3425  0.2198 -0.3477
  567TMC3    O2 8420   4.338   2.907  14.330  0.4614 -0.0665  0.0414
  568MPD2     C 8421   1.076   2.961  16.538  0.6822  0.0487  0.0917
  568MPD2    C1 8422   1.115   3.037  16.638  0.2901  0.2147  0.2201
  568MPD2    C2 8423   1.076   3.171  16.642  0.7109  0.0587  0.2617
  568MPD2    C3 8424   0.996   3.224  16.546  0.8550 -0.0748 -0.5858
  568MPD2    C4 8425   0.958   3.139  16.439 -0.4104  0.1189 -0.4579
  568MPD2    C5 8426   0.999   3.008  16.439 -0.3073 -0.2052 -0.4301
  568MPD2     H 8427   1.114   3.242  16.715 -3.2735  1.9078  0.5514
  568MPD2    H1 8428   0.893   3.173  16.359  1.0007  0.0775 -1.6274
  568MPD2    H2 8429   1.108   2.858  16.530 -1.8057 -0.5945 -1.7921
  568MPD2    H3 8430   0.969   2.937  16.363 -1.8060 -0.6335  0.5534
  568MPD2     N 8431   0.971   3.362  16.549 -0.1734 -0.2723 -0.0908
  568MPD2    H5 8432   1.016   3.417  16.621  0.3289  0.4686 -0.9703
  568MPD2    N1 8433   1.189   2.976  16.734 -0.5523 -0.2114 -0.3699
  568MPD2    H7 8434   1.232   2.890  16.702  0.8293  0.7003 -0.9338
  569TMC3    C1 8435   0.873   3.565  16.503  0.3216  0.1457 -0.1314
  569TMC3    C2 8436   0.865   3.581  16.642  0.1411 -0.1724  0.0612
  569TMC3    C3 8437   0.873   3.705  16.691 -0.2760  0.0352  0.0181
  569TMC3    C4 8438   0.881   3.668  16.412 -0.8473  0.6559 -1.0227
  569TMC3    C5 8439   0.903   3.792  16.471 -0.5483  0.5244  0.5965
  569TMC3    C6 8440   0.901   3.814  16.607  0.0397  0.4277  0.4004
  569TMC3     C 8441   0.898   3.431  16.450 -0.2158 -0.7779 -0.2312
  569TMC3     O 8442   0.849   3.385  16.350 -0.1333 -0.3025  0.6233
  569TMC3     H 8443   0.852   3.493  16.705  2.8318 -1.2966 -0.9394
  569TMC3    H1 8444   0.896   3.648  16.306  1.5096 -1.7176 -0.2338
  569TMC3    H2 8445   0.909   3.911  16.654  2.5708 -0.3113  1.4933
  569TMC3    C7 8446   0.908   3.906  16.386 -0.0024  0.4147  0.2227
  569TMC3    C8 8447   0.893   3.716  16.832 -0.0385 -0.0499  0.4466
  569TMC3    O1 8448   0.840   3.907  16.281  0.1168 -0.1842  0.2036
  569TMC3    O2 8449   0.855   3.613  16.891 -0.1275  0.1364 -0.4807
  570TMC3    C1 8450   0.878   2.237  16.283 -0.3471 -0.0144 -0.5792
  570TMC3    C2 8451   0.996   2.258  16.219  0.1059  0.2278 -0.1982
  570TMC3    C3 8452   1.026   2.382  16.173  0.0361 -0.0521 -0.5243
  570TMC3    C4 8453   0.785   2.339  16.307 -0.1501 -0.1941  0.8113
  570TMC3    C5 8454   0.828   2.460  16.261 -0.5436  0.3371 -0.7677
  570TMC3    C6 8455   0.946   2.492  16.195 -0.2309  0.5210 -0.0633
  570TMC3     C 8456   0.870   2.119  16.362  0.3282  0.2479  0.6025
  570TMC3     O 8457   0.954   2.032  16.333  0.1964 -0.1529 -0.1113
  570TMC3     H 8458   1.052   2.171  16.186  0.2899  0.3826 -0.2916
  570TMC3    H1 8459   0.688   2.321  16.353 -0.6612 -0.0025 -0.1776
  570TMC3    H2 8460   0.970   2.592  16.160 -0.4695 -0.3110 -2.5720
  570TMC3    C7 8461   0.746   2.567  16.296 -0.1767  0.8580 -0.2656
  570TMC3    C8 8462   1.118   2.406  16.063 -0.2889 -0.7370  0.6350
  570TMC3    O1 8463   0.667   2.554  16.387  0.0091 -0.0042 -0.1147
  570TMC3    O2 8464   1.099   2.499  15.985 -0.0167 -0.1157 -0.1601
  571MPD2     C 8465   2.777   2.782   0.298  0.2387  0.1352  0.0461
  571MPD2    C1 8466   2.803   2.863   0.190 -0.4611  0.0198  0.2693
  571MPD2    C2 8467   2.777   2.997   0.202 -0.0136  0.3739 -0.0692
  571MPD2    C3 8468   2.751   3.051   0.332 -0.2805 -0.4827  0.0711
  571MPD2    C4 8469   2.730   2.972   0.442  0.2367 -0.2945 -0.1919
  571MPD2    C5 8470   2.750   2.837   0.422 -0.2387 -0.3441  1.0160
  571MPD2     H 8471   2.803   3.057   0.115  0.2552  2.6942  1.6016
  571MPD2    H1 8472   2.699   3.005   0.540  0.2610 -1.1137  0.0944
  571MPD2    H2 8473   2.809   2.679   0.296  1.5475  0.5288  0.8166
  571MPD2    H3 8474   2.725   2.780   0.511 -1.1328  1.0351  1.6503
  571MPD2     N 8475   2.747   3.192   0.361  0.0142  0.7937 -0.5839
  571MPD2    H5 8476   2.755   3.219   0.459 -0.5450 -0.0349 -0.3168
  571MPD2    N1 8477   2.866   2.797   0.080  0.2719 -0.5520 -0.4162
  571MPD2    H7 8478   2.875   2.697   0.090  1.1893  0.0712  5.3341
  572TMC3    C1 8479   2.792   3.420   0.339 -0.7652 -0.3072 -0.1482
  572TMC3    C2 8480   2.918   3.419   0.408 -0.0274 -0.1243  0.4778
  572TMC3    C3 8481   3.011   3.525   0.389  0.0196 -0.4303  0.4387
  572TMC3    C4 8482   2.750   3.543   0.291  0.4174  0.8398 -0.0934
  572TMC3    C5 8483   2.838   3.645   0.290  0.0539 -0.7372 -0.4910
  572TMC3    C6 8484   2.966   3.648   0.341 -0.2770 -0.3184  0.1316
  572TMC3     C 8485   2.758   3.297   0.270  0.2201 -0.0171  0.3442
  572TMC3     O 8486   2.747   3.304   0.150  0.1514 -0.0136  0.3647
  572TMC3     H 8487   2.956   3.319   0.428  0.2979  0.5226  3.0726
  572TMC3    H1 8488   2.661   3.549   0.229 -0.1557  0.4529  0.7013
  572TMC3    H2 8489   3.030   3.734   0.355 -0.7638  0.0629 -0.0008
  572TMC3    C7 8490   2.786   3.773   0.246 -0.5302  1.4644 -0.0121
  572TMC3    C8 8491   3.140   3.511   0.452  0.3680  0.3572  0.5629
  572TMC3    O1 8492   2.672   3.801   0.273 -0.1787  0.0899  0.1220
  572TMC3    O2 8493   3.173   3.396   0.480 -0.3957  0.0068 -0.5373
  573MPD2     C 8494   4.455   4.397   0.393  0.6005 -0.3010  0.2149
  573MPD2    C1 8495   4.331   4.465   0.372  0.3647 -0.5140 -0.3669
  573MPD2    C2 8496   4.242   4.409   0.286  0.1576 -0.5132  0.5786
  573MPD2    C3 8497   4.274   4.292   0.215  0.1164 -0.2837 -0.1239
  573MPD2    C4 8498   4.391   4.226   0.245  0.2100  0.0214 -0.7683
  573MPD2    C5 8499   4.483   4.277   0.334 -0.7619 -0.9193 -0.1667
  573MPD2     H 8500   4.149   4.458   0.264 -0.7518 -2.3605  0.3081
  573MPD2    H1 8501   4.428   4.145   0.184 -1.3679 -0.6889 -0.7736
  573MPD2    H2 8502   4.520   4.443   0.466 -0.1193 -0.8297  1.1913
  573MPD2    H3 8503   4.580   4.230   0.338 -0.5169 -0.3262  0.9940
  573MPD2     N 8504   4.186   4.223   0.126  0.7112  0.4747  0.2556
  573MPD2    H5 8505   4.219   4.138   0.082  2.0073  0.5199  1.1523
  573MPD2    N1 8506   4.299   4.576   0.455 -0.3297  0.2374  0.3764
  573MPD2    H7 8507   4.370   4.596   0.524 -0.9561  0.3929  0.9788
  574TMC3    C1 8508   3.993   4.171  17.693 -0.7873  0.6214  0.3376
  574TMC3    C2 8509   3.871   4.211  17.649 -1.0491 -0.0463 -0.2465
  574TMC3    C3 8510   3.797   4.111  17.588  0.6119 -0.1965 -0.9596
  574TMC3    C4 8511   4.042   4.049  17.671  0.3114 -0.5780 -0.2916
  574TMC3    C5 8512   3.966   3.961  17.596  0.4152  0.0095  0.2684
  574TMC3    C6 8513   3.841   3.986  17.549 -0.2209 -0.3133  0.1494
  574TMC3     C 8514   4.064   4.265   0.088  0.0858 -0.4286  0.2543
  574TMC3     O 8515   4.005   4.366   0.117 -0.1294 -0.0214  0.0223
  574TMC3     H 8516   3.830   4.306  17.680 -0.6240  0.2494 -0.5887
  574TMC3    H1 8517   4.143   4.024   0.005  0.1157 -0.7064  0.3035
  574TMC3    H2 8518   3.780   3.915  17.494 -0.3650 -1.8473  2.2810
  574TMC3    C7 8519   4.028   3.831  17.566  0.8224  0.2596 -0.0412
  574TMC3    C8 8520   3.654   4.133  17.610 -0.1854  0.5681  1.0077
  574TMC3    O1 8521   4.150   3.828  17.560  0.6467 -0.0477  0.1404
  574TMC3    O2 8522   3.586   4.040  17.642  0.1063 -0.3861  0.0252
  575TMC3    C1 8523   1.751   1.558  10.026 -0.2225 -0.0230  0.2899
  575TMC3    C2 8524   1.626   1.525   9.995 -0.2194  0.0969  0.1252
  575TMC3    C3 8525   1.546   1.618   9.946 -0.0413 -0.2660  0.6385
  575TMC3    C4 8526   1.800   1.682  10.019  0.1979 -0.7086  0.5497
  575TMC3    C5 8527   1.715   1.775   9.966 -0.1436 -0.5505  0.6481
  575TMC3    C6 8528   1.583   1.752   9.954  0.0625 -0.1244  0.4720
  575TMC3     C 8529   1.837   1.459  10.097 -0.2733 -0.3171 -0.4610
  575TMC3     O 8530   1.937   1.501  10.152  0.2198 -0.2554 -0.0858
  575TMC3     H 8531   1.591   1.424  10.017 -0.3036  0.4489  1.6331
  575TMC3    H1 8532   1.908   1.691  10.028  0.3345 -3.0651  1.2010
  575TMC3    H2 8533   1.514   1.829   9.919 -1.2413 -2.1724 -1.4253
  575TMC3    C7 8534   1.764   1.911   9.939 -0.2916 -0.0379  0.0611
  575TMC3    C8 8535   1.406   1.588   9.912 -1.2881  0.2310  0.1934
  575TMC3    O1 8536   1.679   1.994   9.921  0.0088 -0.2477  0.0699
  575TMC3    O2 8537   1.344   1.682   9.869 -0.3331 -0.0921  0.1213
  576MPD2     C 8538   1.933   1.882  12.658 -0.7761  0.3032 -0.6876
  576MPD2    C1 8539   1.968   2.014  12.632 -0.1966 -0.1653  0.2316
  576MPD2    C2 8540   1.935   2.114  12.719  0.1035 -0.3852  0.0831
  576MPD2    C3 8541   1.832   2.097  12.813 -0.0915  0.2544  0.6625
  576MPD2    C4 8542   1.784   1.970  12.823 -0.1821 -0.1005 -0.9820
  576MPD2    C5 8543   1.837   1.863  12.752  0.3766  0.7292  0.2747
  576MPD2     H 8544   1.987   2.208  12.702 -1.2692  0.7029  1.8815
  576MPD2    H1 8545   1.719   1.942  12.905  1.4306 -1.0796 -0.0507
  576MPD2    H2 8546   1.982   1.805  12.599  0.2041 -0.5696  1.2278
  576MPD2    H3 8547   1.810   1.761  12.777 -0.1152  0.6362 -0.6514
  576MPD2     N 8548   1.788   2.212  12.877 -0.6379  0.6062  0.2576
  576MPD2    H5 8549   1.829   2.302  12.851 -2.5765  0.9558 -1.5301
  576MPD2    N1 8550   2.043   2.056  12.523 -0.3285 -0.6207 -0.0553
  576MPD2    H7 8551   2.098   2.140  12.536  2.1463 -2.2664  0.1484
  577TMC3    C1 8552   2.160   2.052  12.326 -0.0433  0.1899  0.5942
  577TMC3    C2 8553   2.236   1.972  12.240  0.1071  0.3089 -0.0341
  577TMC3    C3 8554   2.341   2.036  12.180 -0.3825 -0.2802  0.3187
  577TMC3    C4 8555   2.153   2.191  12.318  0.5528 -0.4907  0.1775
  577TMC3    C5 8556   2.250   2.249  12.243  0.5504  0.7018  0.6804
  577TMC3    C6 8557   2.342   2.174  12.178  0.0365  0.7451  0.2009
  577TMC3     C 8558   2.066   1.986  12.412 -0.6884 -0.2611 -0.2804
  577TMC3     O 8559   2.017   1.882  12.380  0.4205  0.2685  0.2754
  577TMC3     H 8560   2.227   1.864  12.238  1.8346  0.1636  0.6079
  577TMC3    H1 8561   2.070   2.243  12.363 -0.6238 -0.6514 -1.8118
  577TMC3    H2 8562   2.429   2.221  12.133 -0.2998  0.7795 -0.4013
  577TMC3    C7 8563   2.282   2.380  12.297 -0.4831  0.9718  0.4298
  577TMC3    C8 8564   2.419   1.957  12.087 -0.2779  0.3271 -0.3511
  577TMC3    O1 8565   2.234   2.413  12.402  0.1719 -0.5142  0.2450
  577TMC3    O2 8566   2.392   1.837  12.080 -0.6765  0.3033 -0.5286
  578MPD2     C 8567   4.718   2.524   0.950  0.0963  0.3371  0.1017
  578MPD2    C1 8568   0.118   2.503   0.893  0.1548  0.2464  0.3237
  578MPD2    C2 8569   0.220   2.447   0.965  0.3737 -0.3689  0.1882
  578MPD2    C3 8570   0.204   2.428   1.098  0.1496 -0.2176  0.3790
  578MPD2    C4 8571   0.080   2.453   1.153  0.0007 -0.3171  0.5357
  578MPD2    C5 8572   4.698   2.513   1.078  0.4533 -0.1282  0.3497
  578MPD2     H 8573   0.318   2.427   0.922  0.3390  2.7586 -1.3408
  578MPD2    H1 8574   0.070   2.446   1.260 -0.1984 -0.6529  0.4948
  578MPD2    H2 8575   4.635   2.573   0.899 -1.8767 -3.3017 -0.2082
  578MPD2    H3 8576   4.611   2.544   1.134  0.8301  1.0602  0.2817
  578MPD2     N 8577   0.317   2.374   1.169  0.2503  0.3242 -0.6150
  578MPD2    H5 8578   0.389   2.331   1.111  0.6397 -1.1257  0.9378
  578MPD2    N1 8579   0.139   2.546   0.761  0.4272 -0.2736  0.7168
  578MPD2    H7 8580   0.061   2.589   0.713  0.6326 -0.9638 -0.2515
  579TMC3    C1 8581   0.448   2.288   1.337  0.4468 -0.1164  0.1458
  579TMC3    C2 8582   0.526   2.323   1.449  0.1476 -0.1801 -0.2309
  579TMC3    C3 8583   0.645   2.269   1.464 -0.3440  0.0877  0.2319
  579TMC3    C4 8584   0.477   2.180   1.262 -0.3213 -0.1753 -0.0751
  579TMC3    C5 8585   0.589   2.110   1.296 -0.0641 -0.4293  0.1918
  579TMC3    C6 8586   0.675   2.154   1.395 -0.2011  0.4408  0.3614
  579TMC3     C 8587   0.334   2.367   1.303  0.0172 -0.1339  0.3176
  579TMC3     O 8588   0.287   2.439   1.393  0.1605 -0.5329 -0.0800
  579TMC3     H 8589   0.505   2.420   1.493  0.7843 -0.3155  0.3725
  579TMC3    H1 8590   0.419   2.161   1.173 -0.0386  0.3241 -0.3640
  579TMC3    H2 8591   0.759   2.093   1.429 -0.5362 -0.7496 -0.9434
  579TMC3    C7 8592   0.609   1.971   1.242  0.2858 -0.8748  0.5857
  579TMC3    C8 8593   0.725   2.334   1.573 -0.5886  0.2626  0.9346
  579TMC3    O1 8594   0.713   1.914   1.272 -0.2821 -0.6684 -0.2748
  579TMC3    O2 8595   0.666   2.409   1.648 -0.3977  0.6978  0.1641
  580TMC3    C1 8596   4.468   1.231  11.978 -1.1723  0.5013  1.0905
  580TMC3    C2 8597   4.453   1.214  11.840 -0.3651  0.5973 -0.5594
  580TMC3    C3 8598   4.463   1.084  11.808 -0.3291  0.2224 -0.7715
  580TMC3    C4 8599   4.492   1.130  12.071  0.1804  0.7396  0.4829
  580TMC3    C5 8600   4.513   1.004  12.022  0.4683  0.0391  0.2322
  580TMC3    C6 8601   4.493   0.980  11.893  0.7611 -0.2541  0.4142
  580TMC3     C 8602   4.497   1.369  12.016 -0.1382  0.5995 -0.2577
  580TMC3     O 8603   4.518   1.452  11.925 -0.4916 -0.3549 -0.3211
  580TMC3     H 8604   4.443   1.302  11.777  0.2646  0.7067 -0.5098
  580TMC3    H1 8605   4.521   1.152  12.173 -1.6470  4.1784  0.2690
  580TMC3    H2 8606   4.505   0.882  11.850 -0.8673 -0.7842  1.1325
  580TMC3    C7 8607   4.597   0.921  12.101  0.0754  0.1711  0.2241
  580TMC3    C8 8608   4.525   1.065  11.674  0.3016  0.0006  0.7088
  580TMC3    O1 8609   4.650   0.978  12.197  0.2547 -0.3303  0.0646
  580TMC3    O2 8610   4.449   1.026  11.588  0.0863  0.0287  0.2873
  581MPD2     C 8611   2.448   1.227  15.525 -1.1574 -0.4146  0.2931
  581MPD2    C1 8612   2.474   1.189  15.396  0.2100  0.5484 -0.1619
  581MPD2    C2 8613   2.432   1.262  15.288 -0.6336 -0.1911 -0.4492
  581MPD2    C3 8614   2.363   1.383  15.306  0.7830  0.1025 -0.0212
  581MPD2    C4 8615   2.343   1.422  15.442 -0.4997 -0.4378 -0.2344
  581MPD2    C5 8616   2.381   1.343  15.548  0.1170 -0.7095 -1.1331
  581MPD2     H 8617   2.459   1.230  15.188 -1.8352 -0.4510 -0.6949
  581MPD2    H1 8618   2.304   1.520  15.467  0.2397 -0.5045  1.1331
  581MPD2    H2 8619   2.478   1.158  15.603 -1.0768  0.9642  1.4723
  581MPD2    H3 8620   2.360   1.379  15.648 -0.0183  1.6821 -2.0301
  581MPD2     N 8621   2.338   1.467  15.196  0.3570  0.5434 -0.0408
  581MPD2    H5 8622   2.379   1.432  15.110 -1.4195 -0.4445 -0.4985
  581MPD2    N1 8623   2.524   1.056  15.385 -0.6829  0.4018 -0.2999
  581MPD2    H7 8624   2.525   1.012  15.476  1.0745 -0.1923 -0.6173
  582TMC3    C1 8625   2.572   0.842  15.301 -0.6990  0.7607 -1.0341
  582TMC3    C2 8626   2.642   0.819  15.420  1.1181 -0.5728  0.1032
  582TMC3    C3 8627   2.624   0.695  15.477  0.2626 -0.0983  0.7920
  582TMC3    C4 8628   2.471   0.763  15.255 -0.5844 -0.3480 -0.0299
  582TMC3    C5 8629   2.446   0.646  15.317  0.4394 -0.0380 -1.4499
  582TMC3    C6 8630   2.524   0.615  15.428  0.4995  0.6165 -0.0559
  582TMC3     C 8631   2.547   0.981  15.270  0.5869 -0.6197  0.3505
  582TMC3     O 8632   2.517   1.004  15.150 -0.2274 -0.0883 -0.0054
  582TMC3     H 8633   2.719   0.880  15.466 -1.4327  2.0240  0.8952
  582TMC3    H1 8634   2.425   0.793  15.161  0.8349 -0.5612 -0.7914
  582TMC3    H2 8635   2.505   0.523  15.482  2.8888  1.2080  1.7732
  582TMC3    C7 8636   2.308   0.613  15.337  0.3366 -0.6328  1.2242
  582TMC3    C8 8637   2.616   0.701  15.613 -0.7584 -0.0037  0.5398
  582TMC3    O1 8638   2.272   0.505  15.382  0.0777 -0.0610  0.1443
  582TMC3    O2 8639   2.508   0.712  15.664  0.2300 -0.1652 -0.2062
  583MPD2     C 8640   2.498   2.218  17.193  0.0438  0.6487  0.4516
  583MPD2    C1 8641   2.440   2.292  17.088 -0.5354  0.4230  0.8312
  583MPD2    C2 8642   2.358   2.401  17.115 -0.1145  0.3419 -0.0797
  583MPD2    C3 8643   2.329   2.433  17.248  0.1384 -0.8698  0.0476
  583MPD2    C4 8644   2.397   2.365  17.347 -0.6307 -0.7515 -0.7009
  583MPD2    C5 8645   2.472   2.254  17.318  0.1792 -0.1979  0.4043
  583MPD2     H 8646   2.314   2.458  17.034 -1.1650 -1.1208 -0.5628
  583MPD2    H1 8647   2.397   2.395  17.451 -0.1561 -1.0583 -0.6089
  583MPD2    H2 8648   2.564   2.132  17.181  0.0049  0.2700  2.8697
  583MPD2    H3 8649   2.531   2.208  17.397  0.7388  0.2208  0.2275
  583MPD2     N 8650   2.266   2.556  17.268 -0.3483 -0.0075  0.5572
  583MPD2    H5 8651   2.228   2.608  17.190  0.7460  1.5794  1.0934
  583MPD2    N1 8652   2.480   2.264  16.951 -0.0929 -0.2710  0.6694
  583MPD2    H7 8653   2.435   2.325  16.883  0.8363 -0.1226  0.1981
  584TMC3    C1 8654   2.190   2.730  17.406 -0.0046  0.2280 -0.6609
  584TMC3    C2 8655   2.184   2.819  17.300 -0.0502  0.0020  0.2866
  584TMC3    C3 8656   2.131   2.941  17.312 -0.2345  0.4167  0.1484
  584TMC3    C4 8657   2.147   2.773  17.525  0.3026 -0.3165 -0.1498
  584TMC3    C5 8658   2.109   2.900  17.544 -0.0495  0.1362 -0.1015
  584TMC3    C6 8659   2.103   2.988  17.440 -0.4118  0.9502 -0.3349
  584TMC3     C 8660   2.238   2.596  17.404 -0.1740  0.3489  0.2906
  584TMC3     O 8661   2.254   2.536  17.511  0.3435 -0.1687 -0.3794
  584TMC3     H 8662   2.214   2.787  17.201 -1.3299 -1.9610  0.5258
  584TMC3    H1 8663   2.138   2.706  17.609 -0.7239  1.0433  0.8381
  584TMC3    H2 8664   2.073   3.092  17.451 -1.0796  0.3992  2.9174
  584TMC3    C7 8665   2.051   2.924  17.675 -0.3514  0.5190  0.5338
  584TMC3    C8 8666   2.135   3.023  17.191  0.5833  0.2918  0.3361
  584TMC3    O1 8667   2.080   2.842   0.069 -0.2222  0.4995  0.1430
  584TMC3    O2 8668   2.148   2.966  17.083  0.2401  0.0379 -0.9104
  585MPD2     C 8669   1.733   1.370   1.150 -0.2033  0.0862 -0.4385
  585MPD2    C1 8670   1.861   1.389   1.110  0.2479 -0.1061  0.4757
  585MPD2    C2 8671   1.879   1.430   0.975 -0.8696 -0.3061  0.1432
  585MPD2    C3 8672   1.774   1.447   0.886  0.2037  0.2833  0.6946
  585MPD2    C4 8673   1.653   1.417   0.934  0.5580  0.1503  0.3092
  585MPD2    C5 8674   1.632   1.399   1.067 -0.4621  0.4409 -0.2997
  585MPD2     H 8675   1.977   1.474   0.955 -1.5648  1.1426 -0.0675
  585MPD2    H1 8676   1.563   1.431   0.876  1.1029  0.9268 -0.3512
  585MPD2    H2 8677   1.704   1.344   1.251  1.1570  0.7007  0.1170
  585MPD2    H3 8678   1.531   1.384   1.104  0.1044 -0.1560  1.0263
  585MPD2     N 8679   1.785   1.480   0.750  0.1521 -0.0732 -0.1115
  585MPD2    H5 8680   1.698   1.491   0.698  0.0841 -1.4663 -0.2850
  585MPD2    N1 8681   1.960   1.366   1.205  0.5793  0.0562  0.3208
  585MPD2    H7 8682   1.927   1.331   1.294  0.0718 -0.7470 -0.1815
  586TMC3    C1 8683   1.892   1.572   0.555  0.1450 -0.9903 -0.2104
  586TMC3    C2 8684   2.013   1.605   0.498 -0.5709  0.2232 -0.3127
  586TMC3    C3 8685   2.015   1.659   0.373 -0.1443  0.1272  0.2249
  586TMC3    C4 8686   1.768   1.605   0.499  0.1073 -0.8594 -0.0508
  586TMC3    C5 8687   1.782   1.649   0.374 -0.0616 -0.5180 -0.6484
  586TMC3    C6 8688   1.897   1.682   0.307  0.3764 -0.0152  0.4171
  586TMC3     C 8689   1.901   1.517   0.691  0.8707  0.2614  0.2028
  586TMC3     O 8690   2.013   1.513   0.739  0.4208 -0.0110  0.1178
  586TMC3     H 8691   2.105   1.581   0.549 -0.1800  1.2330 -0.5460
  586TMC3    H1 8692   1.670   1.578   0.535 -1.5869  2.4621 -2.2020
  586TMC3    H2 8693   1.889   1.715   0.204  3.8978 -0.6407 -0.0606
  586TMC3    C7 8694   1.678   1.594   0.291  0.1904  0.1662 -0.7003
  586TMC3    C8 8695   2.110   1.597   0.279 -0.2133 -0.2604 -0.4464
  586TMC3    O1 8696   1.646   1.479   0.305 -0.3939  0.3954  0.0552
  586TMC3    O2 8697   2.184   1.514   0.332 -0.2422  0.2194 -0.0049
  587TMC3    C1 8698   3.532   4.543  16.019  1.0090 -0.1880 -1.0987
  587TMC3    C2 8699   3.579   4.624  16.119  0.1421 -0.5933  0.0379
  587TMC3    C3 8700   3.699   4.588  16.180 -0.1708  0.0096 -0.6662
  587TMC3    C4 8701   3.591   4.421  15.987 -0.8073  0.1322  0.5372
  587TMC3    C5 8702   3.715   4.393  16.045  0.2403 -0.4619  0.3502
  587TMC3    C6 8703   3.762   4.470  16.143 -0.1817 -0.8120 -0.2966
  587TMC3     C 8704   3.413   4.588  15.943  0.1401 -0.0432  0.4131
  587TMC3     O 8705   3.400   4.532  15.835  0.4461  0.1673  0.4169
  587TMC3     H 8706   3.560   0.007  16.119  0.2033 -0.5829 -0.4480
  587TMC3    H1 8707   3.557   4.368  15.899  1.5193 -1.2884  0.4804
  587TMC3    H2 8708   3.861   4.457  16.185  0.4250  3.3619 -0.4454
  587TMC3    C7 8709   3.781   4.267  16.019 -0.3564  0.7387  0.2624
  587TMC3    C8 8710   3.779   4.703  16.238 -0.4381 -0.3475  0.5314
  587TMC3    O1 8711   3.898   4.252  16.049 -0.7161 -0.3518 -0.1828
  587TMC3    O2 8712   3.903   4.695  16.247  0.1977 -0.2800  0.2177
  588TMC3    C1 8713   2.403   2.872  10.137 -0.1079  0.0192  0.4623
  588TMC3    C2 8714   2.332   2.754  10.147 -0.4516 -0.3516 -1.4213
  588TMC3    C3 8715   2.379   2.665  10.233  0.3232  0.0881  0.4429
  588TMC3    C4 8716   2.520   2.895  10.208  0.4967 -0.0518 -0.3528
  588TMC3    C5 8717   2.565   2.794  10.284 -0.5564 -0.7149 -0.3428
  588TMC3    C6 8718   2.500   2.675  10.298 -0.2126 -0.8619  0.6339
  588TMC3     C 8719   2.358   2.986  10.058 -0.4537  0.1485 -0.2092
  588TMC3     O 8720   2.284   2.970   9.964  0.2348 -0.4648  0.2390
  588TMC3     H 8721   2.235   2.757  10.097 -0.6504 -0.8721 -1.0657
  588TMC3    H1 8722   2.587   2.977  10.186  0.6810  0.1544  0.9399
  588TMC3    H2 8723   2.528   2.611  10.381  0.1119 -1.0983  0.3454
  588TMC3    C7 8724   2.639   2.829  10.405  0.3164 -1.0877  0.4679
  588TMC3    C8 8725   2.298   2.547  10.240 -0.7118  0.2406  0.5259
  588TMC3    O1 8726   2.707   2.743  10.463  0.1948  0.2295 -0.0945
  588TMC3    O2 8727   2.178   2.560  10.223 -0.2156 -0.0005  0.1170
  589TMC3    C1 8728   0.738   0.581   1.344 -0.9201 -0.0102 -0.3706
  589TMC3    C2 8729   0.798   0.561   1.466  0.9195 -0.1141  0.9589
  589TMC3    C3 8730   0.901   0.468   1.478 -0.3449  0.1073  0.1217
  589TMC3    C4 8731   0.773   0.505   1.236  0.0368  0.2144 -0.4589
  589TMC3    C5 8732   0.871   0.403   1.256  0.2217  0.5248 -0.7232
  589TMC3    C6 8733   0.937   0.388   1.377  0.1503 -0.2711 -0.4578
  589TMC3     C 8734   0.633   0.680   1.324  0.1831 -0.4060 -0.2697
  589TMC3     O 8735   0.548   0.654   1.238  0.0751  0.6130  0.0612
  589TMC3     H 8736   0.755   0.616   1.550 -0.2142  0.6191 -0.0997
  589TMC3    H1 8737   0.722   0.520   1.141  0.4035 -1.3807 -0.8986
  589TMC3    H2 8738   0.989   0.295   1.394 -2.6091 -1.4387  1.5132
  589TMC3    C7 8739   0.867   0.289   1.174  0.1183 -0.3901 -1.1979
  589TMC3    C8 8740   0.943   0.430   1.609 -0.3648 -0.4990 -0.1083
  589TMC3    O1 8741   0.881   0.186   1.236 -0.2139  0.3963  0.4407
  589TMC3    O2 8742   0.868   0.454   1.706  0.4477 -0.2711  0.0279
  590MPD2     C 8743   0.235   4.335  16.761  1.0300  0.2232  0.2471
  590MPD2    C1 8744   0.214   4.242  16.662  0.2885 -0.4511  0.2545
  590MPD2    C2 8745   0.262   4.257  16.538 -0.5237  0.0651 -0.5532
  590MPD2    C3 8746   0.316   4.379  16.510 -0.2837 -0.6592  0.0129
  590MPD2    C4 8747   0.320   4.475  16.595 -0.1493 -0.4386  0.0073
  590MPD2    C5 8748   0.286   4.459  16.727  0.4877  0.2634  0.4293
  590MPD2     H 8749   0.240   4.189  16.457 -1.1418 -0.9283  0.4574
  590MPD2    H1 8750   0.350   4.575  16.569  2.2363 -1.2469 -0.3673
  590MPD2    H2 8751   0.204   4.332  16.864  2.2104  0.3057  0.6033
  590MPD2    H3 8752   0.293   4.532  16.807 -2.0777 -0.5663  1.4222
  590MPD2     N 8753   0.336   4.403  16.371 -0.6130  0.2410  0.3265
  590MPD2    H5 8754   0.326   4.324  16.308 -1.2561  1.0784 -0.6374
  590MPD2    N1 8755   0.130   4.127  16.702  0.1963  0.4295  0.2455
  590MPD2    H7 8756   0.091   4.136  16.795 -2.5502 -1.0383 -0.7844
  591TMC3    C1 8757   0.414   4.524  16.181 -0.3069  0.5093  0.3849
  591TMC3    C2 8758   0.481   4.407  16.143  1.2587  0.2721 -0.6454
  591TMC3    C3 8759   0.566   4.419  16.031 -0.6192  0.0034 -0.1118
  591TMC3    C4 8760   0.426   4.645  16.113 -0.0458  0.0471 -0.6657
  591TMC3    C5 8761   0.505   4.643  16.004  0.3837 -1.1609 -0.7193
  591TMC3    C6 8762   0.572   4.533  15.954 -0.1944 -0.2160  0.2238
  591TMC3     C 8763   0.354   4.526  16.316 -1.0268  0.3490 -0.1331
  591TMC3     O 8764   0.353   4.638  16.361  0.8867  0.2222 -0.1405
  591TMC3     H 8765   0.493   4.316  16.201  1.2043  0.4600 -0.3414
  591TMC3    H1 8766   0.368   0.008  16.144  1.0172 -0.4946  2.7889
  591TMC3    H2 8767   0.615   4.545  15.855 -0.3352  0.2351  0.2174
  591TMC3    C7 8768   0.526   0.045  15.939  0.0132 -0.1050  0.8556
  591TMC3    C8 8769   0.639   4.298  15.982 -1.1388 -0.2737  0.0338
  591TMC3    O1 8770   0.437   0.125  15.964 -0.5131 -0.3895  0.2560
  591TMC3    O2 8771   0.582   4.192  16.001 -0.4234  0.4460 -0.4941
  592MPD2     C 8772   1.096   0.843  11.371  0.2201 -0.2650 -0.6317
  592MPD2    C1 8773   1.068   0.898  11.492 -0.1572  0.7933 -0.0409
  592MPD2    C2 8774   0.957   0.864  11.560 -0.3362  0.4636 -0.0970
  592MPD2    C3 8775   0.867   0.772  11.506 -0.2937  0.1600 -0.6475
  592MPD2    C4 8776   0.903   0.703  11.388 -0.1949 -0.3252  0.1079
  592MPD2    C5 8777   1.012   0.751  11.317 -0.4940 -0.8231 -0.0591
  592MPD2     H 8778   0.929   0.911  11.654  1.4083  0.2991  0.5141
  592MPD2    H1 8779   0.833   0.637  11.339  0.1555  1.5786 -2.9732
  592MPD2    H2 8780   1.187   0.873  11.321  0.5460 -0.6542 -0.2714
  592MPD2    H3 8781   1.050   0.710  11.224  1.1883 -1.3302  0.8421
  592MPD2     N 8782   0.757   0.745  11.588  0.1132 -0.0430  0.0878
  592MPD2    H5 8783   0.743   0.799  11.672 -0.4038 -3.5669  2.2552
  592MPD2    N1 8784   1.164   0.986  11.543 -0.0085  0.2111 -0.1982
  592MPD2    H7 8785   1.246   0.995  11.484  0.6008  0.4761  0.6853
  593TMC3    C1 8786   1.280   1.116  11.689 -0.8591 -0.3282  0.4450
  593TMC3    C2 8787   1.318   1.125  11.816 -0.8718 -0.0259 -0.4729
  593TMC3    C3 8788   1.431   1.199  11.839 -0.7534  0.1327  0.5333
  593TMC3    C4 8789   1.346   1.167  11.579  0.4937  0.0755  0.2740
  593TMC3    C5 8790   1.454   1.255  11.613  0.3440 -0.1148  0.5062
  593TMC3    C6 8791   1.499   1.260  11.743 -0.1141 -0.9758 -0.1377
  593TMC3     C 8792   1.170   1.028  11.674 -0.3462  0.3225  0.5453
  593TMC3     O 8793   1.094   1.008  11.767  0.1767  0.3561  0.5028
  593TMC3     H 8794   1.280   1.065  11.898 -0.1118 -0.5915 -0.5325
  593TMC3    H1 8795   1.304   1.172  11.479 -0.6114 -0.2712  0.7284
  593TMC3    H2 8796   1.601   1.295  11.756 -0.5909  1.1210 -1.9107
  593TMC3    C7 8797   1.508   1.350  11.519 -0.7726  0.0938 -1.2549
  593TMC3    C8 8798   1.418   1.292  11.952 -0.5730 -0.5867  0.0536
  593TMC3    O1 8799   1.591   1.426  11.566 -0.2688  0.2778  0.0207
  593TMC3    O2 8800   1.307   1.320  11.997  0.5387 -0.4184 -0.1303
  594MPD2     C 8801   4.219   4.443  14.091 -0.1788  0.0779 -0.1697
  594MPD2    C1 8802   4.223   4.394  14.217 -0.1489  0.1813 -0.4445
  594MPD2    C2 8803   4.328   4.431  14.301  0.1249 -0.4338 -0.4562
  594MPD2    C3 8804   4.433   4.508  14.258  0.3784  0.0129  0.0469
  594MPD2    C4 8805   4.426   4.556  14.125 -0.2311 -0.8483 -0.2189
  594MPD2    C5 8806   4.325   4.512  14.040  0.7254  0.0955 -0.5068
  594MPD2     H 8807   4.331   4.405  14.406 -2.3982 -0.9659 -0.5240
  594MPD2    H1 8808   4.509   4.613  14.085  1.2900 -3.1990 -0.4328
  594MPD2    H2 8809   4.156   4.391  14.020  0.0185  0.7009 -0.8030
  594MPD2    H3 8810   4.342   4.537  13.936 -1.5764 -1.0044 -1.1305
  594MPD2     N 8811   4.542   4.549  14.346  0.2012 -0.2722  0.1059
  594MPD2    H5 8812   4.525   4.527  14.444 -1.1521 -0.1632 -0.1034
  594MPD2    N1 8813   4.111   4.310  14.254  0.4566  0.0037 -0.9615
  594MPD2    H7 8814   4.035   4.291  14.190  2.6420  1.9563 -4.1211
  595TMC3    C1 8815   0.229   0.020  14.484 -0.2986 -0.5973  0.2484
  595TMC3    C2 8816   0.156   4.680  14.386 -0.4211  0.1977 -0.2959
  595TMC3    C3 8817   0.024   4.653  14.404 -0.0129  0.1124 -0.2940
  595TMC3    C4 8818   0.164   0.074  14.596 -0.1215 -0.3224  0.0746
  595TMC3    C5 8819   0.023   0.056  14.605  0.0828 -0.1756  0.3373
  595TMC3    C6 8820   4.678   0.003  14.499  0.1424 -0.2367 -0.5954
  595TMC3     C 8821   0.371   0.042  14.491  0.6360  0.4204  0.9081
  595TMC3     O 8822   0.414   0.121  14.574 -0.6664 -0.0057  0.6054
  595TMC3     H 8823   0.205   4.635  14.300 -0.4025 -0.1743 -0.0917
  595TMC3    H1 8824   0.213   0.129  14.676 -1.7477  2.1778 -0.6528
  595TMC3    H2 8825   4.569   0.007  14.493  0.2613 -0.2718 -2.6325
  595TMC3    C7 8826   4.671   0.170  14.658  0.1068  0.8831  0.2988
  595TMC3    C8 8827   4.665   4.593  14.301 -0.3589  0.3570 -0.9971
  595TMC3    O1 8828   4.563   0.143  14.708  0.4229  0.2525  0.1820
  595TMC3    O2 8829   4.706   4.593  14.186 -0.0635 -0.2040  0.1172
  596MPD2     C 8830   3.282   2.328  16.896 -0.3552 -0.7482 -0.0385
  596MPD2    C1 8831   3.279   2.453  16.839 -0.6782  0.6681  0.0582
  596MPD2    C2 8832   3.325   2.467  16.712 -0.4861  0.2095  0.3540
  596MPD2    C3 8833   3.356   2.360  16.633  0.0077 -0.0753 -0.3877
  596MPD2    C4 8834   3.346   2.234  16.684  0.0218 -0.2955 -0.1617
  596MPD2    C5 8835   3.318   2.220  16.819 -0.1069 -0.3989  0.1628
  596MPD2     H 8836   3.347   2.561  16.662 -0.0574  1.0236  2.0731
  596MPD2    H1 8837   3.360   2.148  16.620 -0.4734 -0.4214 -0.1072
  596MPD2    H2 8838   3.242   2.306  16.994  0.2661 -0.3987  0.2959
  596MPD2    H3 8839   3.322   2.120  16.859 -2.9969  0.3910  2.4890
  596MPD2     N 8840   3.393   2.372  16.498 -0.0278 -0.5459  0.3282
  596MPD2    H5 8841   3.437   2.290  16.457 -0.1354  0.6789 -2.2425
  596MPD2    N1 8842   3.225   2.567  16.905  0.3321 -0.0538  0.2494
  596MPD2    H7 8843   3.232   2.659  16.862 -1.5363  1.1488  2.5118
  597TMC3    C1 8844   3.120   2.702  17.070 -0.3314  0.7244 -0.5578
  597TMC3    C2 8845   3.195   2.808  17.028 -1.1163  0.0297 -0.4461
  597TMC3    C3 8846   3.166   2.924  17.091  0.2937  0.1295  0.0136
  597TMC3    C4 8847   3.012   2.717  17.154  0.1579 -0.0428  0.0614
  597TMC3    C5 8848   2.981   2.838  17.208 -0.2904  0.6937  0.4596
  597TMC3    C6 8849   3.058   2.943  17.177 -0.0998  0.6010 -0.0726
  597TMC3     C 8850   3.153   2.568  17.027 -0.2224 -0.0182  0.4902
  597TMC3     O 8851   3.127   2.476  17.102  0.0359  0.6817  0.4088
  597TMC3     H 8852   3.292   2.795  16.980  0.8260  0.5754  3.2606
  597TMC3    H1 8853   2.954   2.627  17.167  1.6286 -1.0960 -0.6563
  597TMC3    H2 8854   3.050   3.043  17.220 -1.4647  0.4761 -0.0205
  597TMC3    C7 8855   2.862   2.864  17.292 -0.1375  0.2266 -0.0837
  597TMC3    C8 8856   3.244   3.038  17.052 -0.1617  0.1752 -0.4624
  597TMC3    O1 8857   2.815   2.763  17.345 -0.2850 -0.2580  0.0917
  597TMC3    O2 8858   3.228   3.136  17.121 -0.2101  0.0945 -0.4144
  598TMC3    C1 8859   1.364   4.296  15.936 -0.1335 -0.6373 -0.1615
  598TMC3    C2 8860   1.281   4.189  15.945  0.4089  0.1446 -0.4882
  598TMC3    C3 8861   1.270   4.108  15.831 -0.2838 -0.3261  0.1950
  598TMC3    C4 8862   1.435   4.330  15.818  0.3365 -0.3068 -0.4864
  598TMC3    C5 8863   1.417   4.251  15.712 -0.4673 -0.3495  0.2951
  598TMC3    C6 8864   1.344   4.137  15.716 -0.0444  0.5139 -0.8472
  598TMC3     C 8865   1.410   4.358  16.063  0.2348 -0.1172  0.4030
  598TMC3     O 8866   1.472   4.465  16.060 -0.3214 -0.2578  0.3675
  598TMC3     H 8867   1.209   4.175  16.024  0.3310 -2.6618 -1.0350
  598TMC3    H1 8868   1.491   4.422  15.828 -1.1277  0.2862  2.2808
  598TMC3    H2 8869   1.356   4.064  15.636 -1.5623  0.0840 -0.7005
  598TMC3    C7 8870   1.511   4.267  15.603 -0.7844  0.0301 -0.3650
  598TMC3    C8 8871   1.186   3.987  15.833 -0.2649 -0.8944  0.5856
  598TMC3    O1 8872   1.531   4.167  15.533  0.4671 -0.0720  0.1690
  598TMC3    O2 8873   1.127   3.956  15.939 -0.3918  0.5170  0.0194
  599MPD2     C 8874   1.522   2.261  16.263 -0.2691  0.3111 -0.2573
  599MPD2    C1 8875   1.505   2.124  16.287 -0.2310 -0.3795 -0.2094
  599MPD2    C2 8876   1.402   2.083  16.369 -0.9393  0.6224  0.4455
  599MPD2    C3 8877   1.317   2.178  16.430 -0.1039  0.9959 -0.4297
  599MPD2    C4 8878   1.337   2.315  16.406  0.0010 -1.1195 -0.5132
  599MPD2    C5 8879   1.438   2.356  16.325  0.0546  0.2386 -0.1250
  599MPD2     H 8880   1.387   1.976  16.384  0.2941  0.1705 -1.4789
  599MPD2    H1 8881   1.276   2.393  16.450 -0.9088 -1.5481 -1.0109
  599MPD2    H2 8882   1.596   2.304  16.196 -2.1546  1.6743 -1.4627
  599MPD2    H3 8883   1.446   2.463  16.305 -0.3551  0.3180  0.1408
  599MPD2     N 8884   1.208   2.133  16.511 -0.3205  0.7686  0.3732
  599MPD2    H5 8885   1.157   2.206  16.561  0.8997 -0.0612  2.8044
  599MPD2    N1 8886   1.600   2.038  16.228  1.4930 -0.0874  0.2754
  599MPD2    H7 8887   1.676   2.082  16.176  0.9106  0.0198 -0.4913
  600TMC3    C1 8888   1.102   2.003  16.687  0.1118 -0.1534  0.4364
  600TMC3    C2 8889   1.120   1.901  16.774  0.1198 -0.1087 -0.3584
  600TMC3    C3 8890   1.102   1.922  16.905  0.2916  0.1564 -0.6810
  600TMC3    C4 8891   1.051   2.117  16.731 -0.0399 -0.5923 -0.8179
  600TMC3    C5 8892   1.032   2.139  16.868  0.9965 -0.7468 -0.5744
  600TMC3    C6 8893   1.055   2.040  16.956 -0.2713  0.2250  0.1594
  600TMC3     C 8894   1.192   2.015  16.574 -0.1152 -0.1706  0.0989
  600TMC3     O 8895   1.260   1.916  16.564  0.2006  0.0330 -0.1718
  600TMC3     H 8896   1.171   1.813  16.737  0.4947  0.5558 -1.4444
  600TMC3    H1 8897   1.022   2.202  16.671  0.1503 -1.3816 -2.0320
  600TMC3    H2 8898   1.035   2.041  17.063 -0.6277  1.4609  0.0790
  600TMC3    C7 8899   0.991   2.270  16.908 -0.1560 -1.0695 -0.3599
  600TMC3    C8 8900   1.135   1.809  16.988  0.8033 -0.0046 -0.5112
  600TMC3    O1 8901   0.930   2.338  16.821  0.2346 -0.1166  0.1501
  600TMC3    O2 8902   1.178   1.826  17.106 -0.5184  0.3996 -0.1180
  601MPD2     C 8903   2.817   4.169  17.606  0.0326  0.2269  0.0226
  601MPD2    C1 8904   2.721   4.125  17.693 -0.0513  0.2035 -0.0666
  601MPD2    C2 8905   2.744   4.020   0.081  0.1504 -0.5662  0.4757
  601MPD2    C3 8906   2.854   3.936   0.068 -0.1741 -0.0522 -0.1872
  601MPD2    C4 8907   2.946   3.975  17.662 -0.4031 -0.2941  0.2529
  601MPD2    C5 8908   2.926   4.090  17.596 -0.0002 -0.9322  0.5191
  601MPD2     H 8909   2.664   3.975   0.140 -0.7071  0.3236 -0.0060
  601MPD2    H1 8910   3.037   3.926  17.629 -0.2236 -1.3788  2.3941
  601MPD2    H2 8911   2.815   4.257  17.543 -1.5912  0.1631 -0.0347
  601MPD2    H3 8912   3.002   4.100  17.519  2.4004 -0.0953  2.9991
  601MPD2     N 8913   2.867   3.821   0.145 -0.2926 -0.4724  0.8543
  601MPD2    H5 8914   2.937   3.754   0.116  1.6916  1.7877  0.4270
  601MPD2    N1 8915   2.596   4.198  17.690  0.8204  0.4822  0.5889
  601MPD2    H7 8916   2.588   4.285  17.638  0.2067  0.3958  0.5385
  602TMC3    C1 8917   2.418   4.301   0.074 -0.3404 -0.3476 -0.2460
  602TMC3    C2 8918   2.400   4.365   0.196 -0.3769  0.0701  0.1471
  602TMC3    C3 8919   2.316   4.474   0.195 -0.0134  0.2937 -0.5276
  602TMC3    C4 8920   2.341   4.323  17.655 -0.4427  0.3743  0.0369
  602TMC3    C5 8921   2.245   4.423  17.673  0.1654 -0.3492 -0.5361
  602TMC3    C6 8922   2.248   4.511   0.085 -0.0956  0.2009 -0.2497
  602TMC3     C 8923   2.492   4.175   0.078  0.0495 -0.2759 -0.1291
  602TMC3     O 8924   2.470   4.096   0.168 -0.1212  0.2194 -0.0997
  602TMC3     H 8925   2.448   4.340   0.290  0.5274 -0.4615 -0.4524
  602TMC3    H1 8926   2.341   4.255  17.571  0.5111  1.6051 -0.9575
  602TMC3    H2 8927   2.158   4.571   0.098  0.4068  1.0267 -0.6132
  602TMC3    C7 8928   2.196   4.464  17.547  0.3728  0.2253  0.0088
  602TMC3    C8 8929   2.283   4.545   0.313 -0.1459  0.1920  0.3172
  602TMC3    O1 8930   2.181   4.386  17.453  0.3003  0.0050 -0.0730
  602TMC3    O2 8931   2.263   4.481   0.416  0.1935  0.0082 -0.8538
  603TMC3    C1 8932   2.277   0.343  11.008  0.4624 -0.4918  0.2721
  603TMC3    C2 8933   2.286   0.351  11.147 -0.1426 -0.3737 -0.1112
  603TMC3    C3 8934   2.237   0.459  11.210 -0.2648 -0.3694  0.3608
  603TMC3    C4 8935   2.202   0.428  10.933  0.0944  0.0583  0.3884
  603TMC3    C5 8936   2.162   0.536  11.002 -0.8276 -0.5656  0.1119
  603TMC3    C6 8937   2.191   0.563  11.133 -0.3808 -0.2707 -0.2765
  603TMC3     C 8938   2.360   0.240  10.944  0.4390 -0.4752 -0.0877
  603TMC3     O 8939   2.384   0.143  11.010 -0.2500  0.3155 -0.3968
  603TMC3     H 8940   2.336   0.267  11.194  0.4640 -1.0966 -2.0212
  603TMC3    H1 8941   2.158   0.392  10.841 -1.3307  0.6508  0.8448
  603TMC3    H2 8942   2.141   0.644  11.184 -0.6995 -2.0741  2.2900
  603TMC3    C7 8943   2.121   0.641  10.913 -0.3323 -1.0093  0.1636
  603TMC3    C8 8944   2.205   0.449  11.353  0.8831 -0.1728  0.6587
  603TMC3    O1 8945   2.085   0.622  10.795 -0.2824 -0.0905  0.0529
  603TMC3    O2 8946   2.260   0.365  11.417  0.6026 -0.0193  0.2213
  604MPD2     C 8947   1.853   3.209  16.668  0.0546 -0.5746  0.6402
  604MPD2    C1 8948   1.831   3.341  16.621 -0.6045 -0.0559  0.0136
  604MPD2    C2 8949   1.840   3.369  16.487 -0.4506 -0.2841  0.0182
  604MPD2    C3 8950   1.878   3.271  16.394 -0.5693 -0.0479  0.1649
  604MPD2    C4 8951   1.895   3.142  16.441 -0.1198  0.1757  0.1403
  604MPD2    C5 8952   1.877   3.112  16.579 -0.3899 -0.4162 -0.5224
  604MPD2     H 8953   1.825   3.468  16.446  2.6268  0.0045 -0.4296
  604MPD2    H1 8954   1.922   3.059  16.376 -0.1691  0.4933 -0.2902
  604MPD2    H2 8955   1.859   3.189  16.774 -0.4248 -0.6293  0.6567
  604MPD2    H3 8956   1.891   3.010  16.614 -0.3475  0.1034  0.9957
  604MPD2     N 8957   1.891   3.313  16.257  0.3428 -0.0323 -0.6088
  604MPD2    H5 8958   1.878   3.411  16.233 -3.2087 -0.8881 -2.1692
  604MPD2    N1 8959   1.835   3.443  16.715 -0.9113 -0.0312 -0.5658
  604MPD2    H7 8960   1.829   3.409  16.811 -1.6140 -0.0305 -0.6103
  605TMC3    C1 8961   1.843   3.651  16.817 -0.0122 -0.4930  0.2906
  605TMC3    C2 8962   1.959   3.629  16.879  0.8158  0.2377  0.4915
  605TMC3    C3 8963   2.023   3.735  16.939  0.7218 -0.1190  0.0149
  605TMC3    C4 8964   1.785   3.777  16.814  0.6454  0.1189  0.0522
  605TMC3    C5 8965   1.847   3.885  16.874  0.1648 -0.7557 -0.4049
  605TMC3    C6 8966   1.967   3.864  16.938  1.3897 -0.7544  0.8730
  605TMC3     C 8967   1.830   3.574  16.694  0.0702  0.3424  0.2994
  605TMC3     O 8968   1.814   3.639  16.588 -0.7151  0.0596  0.0098
  605TMC3     H 8969   2.024   3.545  16.860  1.3517  0.1158  2.9001
  605TMC3    H1 8970   1.698   3.798  16.753  0.5764  2.3286  0.9065
  605TMC3    H2 8971   2.039   3.944  16.956  0.1376  0.4061  0.6921
  605TMC3    C7 8972   1.768   3.998  16.894 -0.2065 -0.0261  0.2598
  605TMC3    C8 8973   2.169   3.726  16.919 -0.3470 -0.3353  0.3462
  605TMC3    O1 8974   1.673   4.021  16.820  0.2625 -0.2037 -0.6901
  605TMC3    O2 8975   2.215   3.669  16.819 -0.0096 -0.8748  0.3679
  606TMC3    C1 8976   3.588   2.045  17.066 -0.7715 -0.4514 -0.3982
  606TMC3    C2 8977   3.678   1.954  17.119  0.1219  0.3921 -0.4750
  606TMC3    C3 8978   3.715   1.966  17.247 -0.1782 -0.0629 -0.0085
  606TMC3    C4 8979   3.549   2.152  17.144  0.2810  0.7932 -0.4532
  606TMC3    C5 8980   3.587   2.160  17.274 -0.0944  0.7394 -0.0755
  606TMC3    C6 8981   3.670   2.066  17.327  0.0005  0.3147  0.3080
  606TMC3     C 8982   3.601   2.080  16.927 -0.2520  0.2430 -0.3040
  606TMC3     O 8983   3.625   2.197  16.901 -0.1488  0.1411  0.1762
  606TMC3     H 8984   3.726   1.879  17.058  0.4396 -0.6426  1.0764
  606TMC3    H1 8985   3.494   2.229  17.090 -1.2168 -0.0361 -0.1200
  606TMC3    H2 8986   3.713   2.076  17.426 -1.5445 -0.6584  1.0830
  606TMC3    C7 8987   3.551   2.262  17.360  0.1434 -0.5113 -1.0427
  606TMC3    C8 8988   3.826   1.890  17.289 -0.3566  0.3247 -0.6871
  606TMC3    O1 8989   3.514   2.370  17.319  0.5796 -0.1002  0.0756
  606TMC3    O2 8990   3.912   1.868  17.204  0.3410  0.7612 -0.3592
  607MPD2     C 8991   1.439   4.665  11.615 -0.1138 -0.7721  0.1065
  607MPD2    C1 8992   1.319   4.692  11.671  0.0645 -1.0298  0.1967
  607MPD2    C2 8993   1.282   4.636  11.793  0.3847  0.1332  0.1407
  607MPD2    C3 8994   1.373   4.553  11.854  0.0470  0.2108 -1.3679
  607MPD2    C4 8995   1.497   4.524  11.800 -0.1300  0.3020  0.0083
  607MPD2    C5 8996   1.524   4.584  11.681  0.1241  0.8398  0.1866
  607MPD2     H 8997   1.187   4.663  11.839  0.1147 -2.6186  1.2056
  607MPD2    H1 8998   1.574   4.464  11.848 -1.3033 -1.3305 -0.1531
  607MPD2    H2 8999   1.466   4.713  11.522  3.4707 -0.0926  1.5083
  607MPD2    H3 9000   1.621   4.567  11.636  0.8301  1.2318  1.5540
  607MPD2     N 9001   1.333   4.518  11.984 -0.2593 -0.5908 -0.0823
  607MPD2    H5 9002   1.245   4.551  12.021 -0.2630 -1.1018  0.3705
  607MPD2    N1 9003   1.246   0.072  11.612  0.0234 -0.0774 -0.1596
  607MPD2    H7 9004   1.275   0.095  11.517  0.9556 -1.5031 -0.2084
  608TMC3    C1 9005   1.081   0.255  11.579 -0.2112  0.9550  0.1951
  608TMC3    C2 9006   0.965   0.302  11.645  0.2128  0.4118  0.2445
  608TMC3    C3 9007   0.957   0.433  11.677  0.4537 -0.4098  0.0474
  608TMC3    C4 9008   1.179   0.345  11.540  0.5233 -0.5835  0.4293
  608TMC3    C5 9009   1.170   0.475  11.583 -0.2344  0.1377  0.1828
  608TMC3    C6 9010   1.060   0.519  11.646 -0.5239 -0.0711  0.9262
  608TMC3     C 9011   1.137   0.146  11.661 -0.6359 -0.3068 -0.3236
  608TMC3     O 9012   1.065   0.117  11.756  0.4720 -0.3975 -0.2783
  608TMC3     H 9013   0.885   0.233  11.668  0.6567 -0.4547 -0.7866
  608TMC3    H1 9014   1.276   0.305  11.514  0.3838 -0.4545 -0.2767
  608TMC3    H2 9015   1.051   0.623  11.675 -1.2141  0.6202 -1.7888
  608TMC3    C7 9016   1.276   0.563  11.548  0.2458 -0.7360  0.0482
  608TMC3    C8 9017   0.916   0.446  11.813  0.3355  0.2485 -0.3700
  608TMC3    O1 9018   1.327   0.555  11.436  0.0876  0.3661 -0.2239
  608TMC3    O2 9019   0.885   0.555  11.857  0.1632  0.0959 -0.0899
  609TMC3    C1 9020   0.939   3.600   9.244 -0.1640  0.0761 -0.1431
  609TMC3    C2 9021   0.995   3.577   9.122 -0.3851  0.6673 -0.1512
  609TMC3    C3 9022   1.128   3.552   9.119  0.6092  0.6885  0.6966
  609TMC3    C4 9023   1.012   3.617   9.361 -0.2398 -0.4939  0.1131
  609TMC3    C5 9024   1.146   3.591   9.350  0.1839 -0.0583  0.2390
  609TMC3    C6 9025   1.207   3.554   9.230  0.9862  0.6084 -0.0043
  609TMC3     C 9026   0.797   3.616   9.265 -0.5684 -0.3071  0.0232
  609TMC3     O 9027   0.766   3.698   9.357  0.3570  0.1356  0.8665
  609TMC3     H 9028   0.932   3.566   9.035 -1.5223 -0.7618  0.8438
  609TMC3    H1 9029   0.974   3.653   9.456 -1.1038 -1.8503  0.2821
  609TMC3    H2 9030   1.307   3.512   9.232  0.3413 -0.8890  1.3476
  609TMC3    C7 9031   1.213   3.594   9.483 -0.2291 -0.1737 -0.4675
  609TMC3    C8 9032   1.184   3.492   9.002  0.0035 -0.2002 -0.5017
  609TMC3    O1 9033   1.154   3.576   9.592 -0.3540 -0.3413 -0.7792
  609TMC3    O2 9034   1.307   3.493   8.997 -1.3450  0.5061 -0.0216
  610TMC3    C1 9035   1.186   0.802  13.711  0.3972  0.8681  0.2362
  610TMC3    C2 9036   1.243   0.877  13.809 -0.3677 -0.2832 -0.3512
  610TMC3    C3 9037   1.380   0.864  13.830 -0.0222  0.4061  0.6427
  610TMC3    C4 9038   1.261   0.730  13.622  0.5842 -0.3174  0.0060
  610TMC3    C5 9039   1.397   0.733  13.634  0.8562 -0.0755  0.0726
  610TMC3    C6 9040   1.458   0.792  13.739 -0.2451  0.5262 -0.2658
  610TMC3     C 9041   1.045   0.770  13.717 -0.1529 -0.8365 -0.1283
  610TMC3     O 9042   1.012   0.683  13.638 -0.1456 -0.4975  0.7711
  610TMC3     H 9043   1.184   0.916  13.891  1.6713  1.0662  0.4742
  610TMC3    H1 9044   1.216   0.682  13.535 -0.4303 -0.7268  0.7575
  610TMC3    H2 9045   1.565   0.803  13.754 -0.5857 -0.4189  2.8494
  610TMC3    C7 9046   1.474   0.620  13.574 -0.3800  0.1266  0.3168
  610TMC3    C8 9047   1.428   0.921  13.959 -0.0495 -0.0515  0.9373
  610TMC3    O1 9048   1.592   0.633  13.561  0.1053 -0.1157  0.0135
  610TMC3    O2 9049   1.361   1.006  14.014  0.5411 -0.2315  0.5614
  611MPD2     C 9050   1.452   0.409  10.228  0.1306  0.2198 -1.2357
  611MPD2    C1 9051   1.365   0.506  10.260  0.3836  0.2838  0.5750
  611MPD2    C2 9052   1.411   0.632  10.291 -0.0920  0.3182 -0.1391
  611MPD2    C3 9053   1.548   0.656  10.302  0.1855  0.1103 -0.3211
  611MPD2    C4 9054   1.636   0.553  10.294  0.6007  0.5353  0.7375
  611MPD2    C5 9055   1.584   0.429  10.262 -0.3399  0.1476 -0.2034
  611MPD2     H 9056   1.342   0.715  10.298 -0.7144 -0.3429  1.4880
  611MPD2    H1 9057   1.739   0.555  10.327  1.0230  0.8576 -0.5786
  611MPD2    H2 9058   1.423   0.309  10.197  2.9021 -0.8861 -0.2629
  611MPD2    H3 9059   1.651   0.344  10.258 -1.3677 -0.6814  0.3145
  611MPD2     N 9060   1.606   0.785  10.325  0.1868 -0.0402  0.0582
  611MPD2    H5 9061   1.701   0.782  10.360  0.0282 -0.2951  0.4636
  611MPD2    N1 9062   1.229   0.461  10.245 -0.1190  0.1446  0.7646
  611MPD2    H7 9063   1.216   0.372  10.198  0.2527  0.6899 -0.3828
  612TMC3    C1 9064   1.607   1.026  10.359  0.4760 -0.1470 -0.1761
  612TMC3    C2 9065   1.707   1.027  10.450  0.7646 -0.2090  0.2613
  612TMC3    C3 9066   1.755   1.149  10.495  0.5332 -0.0690 -0.2272
  612TMC3    C4 9067   1.555   1.147  10.312 -0.4104 -0.2946 -0.6768
  612TMC3    C5 9068   1.599   1.269  10.366  0.3272 -0.0328 -0.2631
  612TMC3    C6 9069   1.700   1.270  10.459 -0.3263  0.3027  0.6543
  612TMC3     C 9070   1.547   0.907  10.301  0.2797 -0.1915 -0.5330
  612TMC3     O 9071   1.448   0.929  10.231  0.4300  0.7011  0.0876
  612TMC3     H 9072   1.741   0.929  10.480  0.9120 -0.3548 -0.3981
  612TMC3    H1 9073   1.481   1.155  10.234  0.3619 -0.5338 -1.4403
  612TMC3    H2 9074   1.744   1.364  10.492  1.0019  0.1244 -0.6092
  612TMC3    C7 9075   1.545   1.390  10.310  0.0818 -0.4188 -0.3122
  612TMC3    C8 9076   1.864   1.158  10.597  0.3041  0.1603 -0.0654
  612TMC3    O1 9077   1.480   1.384  10.207  0.0692 -0.1863 -0.1660
  612TMC3    O2 9078   1.916   1.270  10.611 -0.2195 -0.3645  0.1131
  613MPD2     C 9079   0.048   2.314  16.867 -0.5145  0.1561 -0.2525
  613MPD2    C1 9080   4.718   2.368  16.748  0.5997 -0.7032 -0.4044
  613MPD2    C2 9081   4.623   2.302  16.669 -0.3863 -0.3230  0.0624
  613MPD2    C3 9082   4.567   2.190  16.722 -0.0852  0.1599  0.8987
  613MPD2    C4 9083   4.620   2.137  16.841 -0.5528 -0.1904 -0.7824
  613MPD2    C5 9084   0.000   2.197  16.914 -0.7957  0.5864 -0.4753
  613MPD2     H 9085   4.594   2.340  16.572 -0.8484 -0.1106  0.2825
  613MPD2    H1 9086   4.579   2.044  16.879 -0.0146 -0.2809 -0.4203
  613MPD2    H2 9087   0.132   2.357  16.921 -1.2377 -0.0067  0.9985
  613MPD2    H3 9088   0.046   2.155  17.003 -0.1890 -2.3484 -2.1372
  613MPD2     N 9089   4.465   2.117  16.655 -0.3971 -0.2328  0.1911
  613MPD2    H5 9090   4.439   2.029  16.699 -0.5790 -0.2133  0.1209
  613MPD2    N1 9091   0.045   2.496  16.721 -0.0192  0.0113  0.1583
  613MPD2    H7 9092   0.127   2.531  16.769 -0.0806 -0.3813  0.5523
  614TMC3    C1 9093   0.077   2.642  16.529  0.0652  0.3789 -0.0370
  614TMC3    C2 9094   0.153   2.545  16.474  0.2093 -0.1597 -0.4868
  614TMC3    C3 9095   0.144   2.519  16.342  0.3828 -0.0629  0.4645
  614TMC3    C4 9096   0.005   2.729  16.449 -0.0952  0.3159  0.5952
  614TMC3    C5 9097   0.008   2.704  16.314  0.3544 -0.1890 -0.0916
  614TMC3    C6 9098   0.076   2.599  16.258  0.2581  0.7513  0.5425
  614TMC3     C 9099   4.714   2.583  16.632 -0.1855 -0.3319 -0.2486
  614TMC3     O 9100   4.599   2.585  16.589  0.2094  0.2735 -0.5434
  614TMC3     H 9101   0.208   2.483  16.544 -0.7395  0.1270  0.5016
  614TMC3    H1 9102   4.670   2.808  16.495 -1.2347 -0.5478  0.6546
  614TMC3    H2 9103   0.081   2.574  16.153  0.1139  0.0488  0.7063
  614TMC3    C7 9104   4.620   2.768  16.246 -0.0695 -0.3619 -0.0785
  614TMC3    C8 9105   0.108   2.382  16.314  0.1868 -0.2321 -0.2667
  614TMC3    O1 9106   4.576   2.871  16.294 -0.3188  0.0627 -0.4041
  614TMC3    O2 9107   0.001   2.379  16.260  0.2561  0.1145  0.1325
  615MPD2     C 9108   3.739   3.479  16.030  0.2267 -1.1764 -1.0215
  615MPD2    C1 9109   3.615   3.537  16.010  0.1678  0.0362  0.3162
  615MPD2    C2 9110   3.539   3.496  15.904  0.0650 -1.1760 -0.0949
  615MPD2    C3 9111   3.593   3.419  15.803  0.1295  0.7649 -0.0235
  615MPD2    C4 9112   3.713   3.356  15.821 -0.3203  0.0581 -0.2093
  615MPD2    C5 9113   3.781   3.382  15.938 -0.1241  0.4136  0.2266
  615MPD2     H 9114   3.450   3.557  15.895  1.4587  1.0674  1.1854
  615MPD2    H1 9115   3.758   3.279  15.759 -0.0513 -1.5261  1.9568
  615MPD2    H2 9116   3.802   3.514  16.110  0.4261 -1.1352 -1.1954
  615MPD2    H3 9117   3.882   3.340  15.939 -0.1706  0.2485 -2.2250
  615MPD2     N 9118   3.529   3.407  15.675 -0.1176  0.1242 -0.5071
  615MPD2    H5 9119   3.594   3.395  15.598  0.2106  1.6044 -0.4523
  615MPD2    N1 9120   3.574   3.660  16.067  0.2729  0.4646  0.0585
  615MPD2    H7 9121   3.492   3.708  16.031 -0.9487 -2.2356 -0.7796
  616TMC3    C1 9122   3.563   3.838  16.212 -0.2621  0.2350 -0.0899
  616TMC3    C2 9123   3.632   3.918  16.299 -0.0216 -0.4023  0.3415
  616TMC3    C3 9124   3.561   4.033  16.335 -0.1409  0.3098 -0.2322
  616TMC3    C4 9125   3.429   3.859  16.175  0.5117  0.1628 -0.3133
  616TMC3    C5 9126   3.360   3.971  16.220 -0.6944 -0.4838  0.2277
  616TMC3    C6 9127   3.433   4.054  16.300 -0.6710  0.3808 -0.2986
  616TMC3     C 9128   3.630   3.715  16.177  0.0899  1.0178  0.1752
  616TMC3     O 9129   3.713   3.672  16.251 -0.1522 -0.2565 -0.1648
  616TMC3     H 9130   3.720   3.880  16.349  0.2233  0.8010  0.8299
  616TMC3    H1 9131   3.373   3.794  16.109  0.4624 -1.1782  1.0554
  616TMC3    H2 9132   3.380   4.143  16.333 -1.6321  0.2073 -1.3702
  616TMC3    C7 9133   3.281   4.026  16.106  0.0202  0.0601  0.3853
  616TMC3    C8 9134   3.628   4.156  16.365 -0.1911 -0.5768  0.2133
  616TMC3    O1 9135   3.283   3.977  15.991  0.0850 -0.0545 -0.1195
  616TMC3    O2 9136   3.557   4.249  16.399 -0.1365 -0.1930  0.3441
  617MPD2     C 9137   2.355   2.405  13.512  0.3489 -0.5751  0.4447
  617MPD2    C1 9138   2.382   2.378  13.641 -0.1595 -0.0908  0.7112
  617MPD2    C2 9139   2.294   2.368  13.749 -0.0398 -0.0673 -0.2962
  617MPD2    C3 9140   2.160   2.371  13.717 -0.2952  0.1644 -0.1417
  617MPD2    C4 9141   2.126   2.400  13.584 -0.2915 -0.0280 -0.7862
  617MPD2    C5 9142   2.223   2.419  13.488  0.1305 -0.6128 -0.5449
  617MPD2     H 9143   2.316   2.337  13.851 -1.6735  0.0674  0.0979
  617MPD2    H1 9144   2.020   2.418  13.566 -0.0377 -0.5577 -2.7614
  617MPD2    H2 9145   2.434   2.434  13.444 -0.6870  0.1952 -0.4350
  617MPD2    H3 9146   2.198   2.446  13.386 -1.8561 -1.5095 -0.2893
  617MPD2     N 9147   2.054   2.356  13.809  0.0934  0.4138  0.0230
  617MPD2    H5 9148   1.962   2.344  13.769  0.1292  1.0023 -0.2368
  617MPD2    N1 9149   2.520   2.365  13.667  0.1925 -0.0441  0.1042
  617MPD2    H7 9150   2.586   2.359  13.590 -0.0138  0.2272 -0.0932
  618TMC3    C1 9151   2.721   2.320  13.790  0.1141  0.0468  0.8104
  618TMC3    C2 9152   2.771   2.198  13.810  0.6424 -0.7578  0.1707
  618TMC3    C3 9153   2.908   2.183  13.803  0.7734 -0.2511  0.1131
  618TMC3    C4 9154   2.800   2.430  13.750  0.5582 -0.1072  0.3138
  618TMC3    C5 9155   2.934   2.402  13.734  0.3152 -0.4023 -0.5333
  618TMC3    C6 9156   2.990   2.283  13.773 -0.4251  0.4174 -0.6076
  618TMC3     C 9157   2.575   2.338  13.791  0.1856  0.2348  0.5168
  618TMC3     O 9158   2.520   2.287  13.890 -0.5567 -0.6253  0.2426
  618TMC3     H 9159   2.713   2.113  13.844  0.3913 -0.2408  1.0372
  618TMC3    H1 9160   2.769   2.534  13.739 -1.3110 -0.6936  0.1791
  618TMC3    H2 9161   3.097   2.271  13.763 -0.5109 -1.8785  1.0179
  618TMC3    C7 9162   3.022   2.500  13.674 -0.0689 -0.5864  0.5469
  618TMC3    C8 9163   2.947   2.048  13.803  0.5236  0.8774 -0.1344
  618TMC3    O1 9164   3.129   2.506  13.728  0.0572  0.3742  0.2499
  618TMC3    O2 9165   2.871   1.963  13.752 -0.1731  0.0337 -0.3800
  619MPD2     C 9166   3.735   3.554  13.836 -0.3635  0.4529 -0.1568
  619MPD2    C1 9167   3.700   3.655  13.744  0.0418 -0.0285  0.0994
  619MPD2    C2 9168   3.578   3.632  13.674  0.0565 -0.6524  0.0269
  619MPD2    C3 9169   3.487   3.529  13.710  0.3240  0.0908 -0.0588
  619MPD2    C4 9170   3.527   3.441  13.813  0.2111  0.6315  0.3420
  619MPD2    C5 9171   3.648   3.452  13.868  0.4519 -0.3217 -0.3640
  619MPD2     H 9172   3.564   3.700  13.591  2.4733  0.6634  0.7085
  619MPD2    H1 9173   3.469   3.351  13.832  1.6520 -0.6307 -1.2612
  619MPD2    H2 9174   3.833   3.546  13.882  0.1128  0.5678 -1.1401
  619MPD2    H3 9175   3.685   3.393  13.951 -1.4820 -0.8477  0.1140
  619MPD2     N 9176   3.358   3.510  13.666  0.1887  0.2847 -0.1653
  619MPD2    H5 9177   3.295   3.446  13.713 -0.9650  1.8765  0.4667
  619MPD2    N1 9178   3.787   3.758  13.705 -0.2317  0.4495 -0.7190
  619MPD2    H7 9179   3.763   3.811  13.622  0.6950 -0.5534 -1.6415
  620TMC3    C1 9180   3.941   3.927  13.746 -0.0560 -0.2440 -0.4451
  620TMC3    C2 9181   3.948   3.948  13.608 -0.8174  0.1814 -0.2755
  620TMC3    C3 9182   3.991   4.071  13.573  0.3258  0.6973  0.2781
  620TMC3    C4 9183   3.967   4.026  13.840 -0.2138 -0.1496  0.8224
  620TMC3    C5 9184   4.010   4.146  13.800  0.3727 -0.2103  0.9927
  620TMC3    C6 9185   4.024   4.171  13.664 -0.0318 -0.2312 -0.0524
  620TMC3     C 9186   3.872   3.808  13.796  0.2529  0.7710 -0.2780
  620TMC3     O 9187   3.876   3.807  13.917 -0.0517 -0.1269  0.0389
  620TMC3     H 9188   3.930   3.872  13.533 -0.4927 -1.0644  0.8909
  620TMC3    H1 9189   3.950   4.013  13.947  1.2011 -0.4458  1.0171
  620TMC3    H2 9190   4.058   4.268  13.629 -1.0080 -0.3763 -1.3546
  620TMC3    C7 9191   3.958   4.260  13.878 -0.5748  0.2396  0.5701
  620TMC3    C8 9192   3.885   4.126  13.498 -0.8016 -1.0126 -0.5723
  620TMC3    O1 9193   3.965   4.265  14.000 -0.0911  0.4371  0.3426
  620TMC3    O2 9194   3.838   4.225  13.555  0.1926  0.5521  0.3853
  621MPD2     C 9195   0.084   4.139   9.635  0.0067  0.1043  0.1804
  621MPD2    C1 9196   0.179   4.081   9.715  0.7032 -0.2739  0.2392
  621MPD2    C2 9197   0.283   4.156   9.754  0.4582  0.7023  0.2100
  621MPD2    C3 9198   0.307   4.288   9.720  0.7818  0.1698 -0.9125
  621MPD2    C4 9199   0.211   4.338   9.630 -0.4465 -0.8603 -0.2783
  621MPD2    C5 9200   0.096   4.266   9.595  0.4675 -0.2457 -0.1213
  621MPD2     H 9201   0.353   4.111   9.824 -1.2132  0.2222  1.5675
  621MPD2    H1 9202   0.219   4.441   9.596  1.5710 -0.4714  1.3532
  621MPD2    H2 9203   4.714   4.087   9.614 -0.3585  1.9350 -2.7806
  621MPD2    H3 9204   0.016   4.303   9.533  0.5587 -0.4162 -0.3366
  621MPD2     N 9205   0.420   4.349   9.765 -0.2255  0.3284  0.2213
  621MPD2    H5 9206   0.474   4.301   9.836 -0.7655  0.9481  1.0529
  621MPD2    N1 9207   0.181   3.942   9.765 -0.5274 -0.0978  0.0926
  621MPD2    H7 9208   0.257   3.908   9.823  0.6163  1.2622 -0.5865
  622TMC3    C1 9209   0.127   3.710   9.759  0.2159  0.2914  0.3450
  622TMC3    C2 9210   0.031   3.617   9.754  0.9417 -0.0647 -0.2072
  622TMC3    C3 9211   0.073   3.488   9.761  0.6279  0.4527 -0.0564
  622TMC3    C4 9212   0.260   3.687   9.740 -0.0638 -0.3450  0.4324
  622TMC3    C5 9213   0.293   3.553   9.741  0.5196 -0.0045  0.3729
  622TMC3    C6 9214   0.201   3.452   9.757  0.0811  0.0791 -0.7396
  622TMC3     C 9215   0.085   3.847   9.730 -0.4226  0.0012  0.4416
  622TMC3     O 9216   4.706   3.860   9.660 -0.1008 -0.0995 -0.4367
  622TMC3     H 9217   4.651   3.648   9.772  1.0398 -0.3315  0.8528
  622TMC3    H1 9218   0.340   3.760   9.747  0.7992 -1.3169  0.7605
  622TMC3    H2 9219   0.229   3.350   9.783 -1.3178 -0.2368 -0.4673
  622TMC3    C7 9220   0.420   3.516   9.692 -0.1468 -0.4031  0.5294
  622TMC3    C8 9221   4.702   3.382   9.785 -0.0143 -0.3289  0.4497
  622TMC3    O1 9222   0.510   3.595   9.712 -0.0922 -0.2836  0.0920
  622TMC3    O2 9223   0.019   3.269   9.760  0.1445 -0.1631  0.3879
  623MPD2     C 9224   2.694   4.158  15.949  0.0927 -0.0836 -0.2329
  623MPD2    C1 9225   2.643   4.190  16.072 -0.1250  0.1315  0.5454
  623MPD2    C2 9226   2.668   4.110  16.180 -0.5099  0.3537 -0.1626
  623MPD2    C3 9227   2.755   4.001  16.171 -0.2236 -0.1633  0.8557
  623MPD2    C4 9228   2.814   3.976  16.043  0.1630 -0.0838 -0.1612
  623MPD2    C5 9229   2.768   4.042  15.933 -0.5198  0.1821 -0.6205
  623MPD2     H 9230   2.636   4.119  16.283  2.6613 -0.2361  0.8771
  623MPD2    H1 9231   2.892   3.903  16.021 -0.0447  0.4365 -2.6243
  623MPD2    H2 9232   2.662   4.219  15.865  0.3787  0.4662  0.0612
  623MPD2    H3 9233   2.815   4.015  15.839 -0.8297 -1.5764 -0.2590
  623MPD2     N 9234   2.779   3.927  16.289 -0.3513 -0.1161 -0.1750
  623MPD2    H5 9235   2.734   3.965  16.372 -0.4609 -1.0302  0.1918
  623MPD2    N1 9236   2.564   4.307  16.098  0.0627 -0.1108  0.0378
  623MPD2    H7 9237   2.560   4.339  16.195  0.5321  1.0161 -0.3197
  624TMC3    C1 9238   2.999   3.738  16.616 -0.3560  0.2373  0.2001
  624TMC3    C2 9239   2.888   3.724  16.697  0.3007 -0.5047 -0.0100
  624TMC3    C3 9240   2.768   3.728  16.632  0.7017  0.3434 -0.0027
  624TMC3    C4 9241   2.998   3.760  16.483 -0.3542 -0.5500 -0.1392
  624TMC3    C5 9242   2.871   3.767  16.428 -0.4184  0.0030  0.0538
  624TMC3    C6 9243   2.754   3.744  16.501  0.1196  0.1438  0.1879
  624TMC3     C 9244   3.128   3.746  16.685 -0.2279 -0.2137 -0.7199
  624TMC3     O 9245   3.126   3.761  16.804  0.5780  0.3325  0.0285
  624TMC3     H 9246   2.893   3.714  16.805 -1.4263  0.4033  0.1497
  624TMC3    H1 9247   3.078   3.798  16.420  0.7955 -0.1820  1.5489
  624TMC3    H2 9248   2.656   3.751  16.456 -0.2071  2.2197  1.2053
  624TMC3    C7 9249   2.871   3.821  16.294 -0.1128 -0.2836  0.0225
  624TMC3    C8 9250   2.648   3.755  16.707 -0.2680  0.2940 -0.1910
  624TMC3    O1 9251   2.960   3.790  16.216 -0.0573 -0.5743 -0.0639
  624TMC3    O2 9252   2.543   3.719  16.655  0.0594 -0.2318  0.6172
  625MPD2     C 9253   3.353   0.756   1.046 -0.0200  0.8015  1.0313
  625MPD2    C1 9254   3.325   0.791   0.917 -0.1696 -0.8128  0.2709
  625MPD2    C2 9255   3.420   0.774   0.820 -0.7219  0.4272 -0.0456
  625MPD2    C3 9256   3.541   0.716   0.857  0.8596  0.0281 -0.6320
  625MPD2    C4 9257   3.561   0.667   0.982 -0.5491  0.6726  0.0417
  625MPD2    C5 9258   3.470   0.695   1.079 -0.4041 -0.0517  0.2122
  625MPD2     H 9259   3.391   0.808   0.721  0.0023  1.2231  0.0159
  625MPD2    H1 9260   3.648   0.624   1.030 -0.4364  1.0326  0.1625
  625MPD2    H2 9261   3.275   0.749   1.120 -1.0300 -3.0068 -0.3927
  625MPD2    H3 9262   3.474   0.677   1.186  0.1740  1.5634  0.4646
  625MPD2     N 9263   3.642   0.708   0.762 -0.6552 -0.5303  0.0081
  625MPD2    H5 9264   3.624   0.766   0.681  0.2538  0.6357  0.6376
  625MPD2    N1 9265   3.196   0.833   0.881 -0.2831  0.0701 -0.5277
  625MPD2    H7 9266   3.189   0.849   0.781 -2.8720 -1.0783 -0.5239
  626TMC3    C1 9267   2.987   0.931   0.900  0.4296  0.6837  0.6519
  626TMC3    C2 9268   2.957   0.901   0.767  0.0164  0.2878  0.4492
  626TMC3    C3 9269   2.831   0.918   0.733  0.2642  0.2138  0.2486
  626TMC3    C4 9270   2.889   0.975   0.989  0.1876  0.6901 -0.4993
  626TMC3    C5 9271   2.763   0.992   0.948 -0.1228  0.5590  0.2019
  626TMC3    C6 9272   2.733   0.963   0.815  0.2948  0.0085 -0.7036
  626TMC3     C 9273   3.091   0.859   0.966  0.6191 -0.0675  0.1328
  626TMC3     O 9274   3.081   0.834   1.086  0.2798 -0.1658  1.0566
  626TMC3     H 9275   3.033   0.859   0.701 -1.2664 -3.0991  1.1709
  626TMC3    H1 9276   2.916   0.976   1.094  0.3574 -1.6520 -0.5149
  626TMC3    H2 9277   2.632   0.970   0.776  1.2221  1.4723 -2.8016
  626TMC3    C7 9278   2.654   0.976   1.058  1.0126  0.3478  0.1842
  626TMC3    C8 9279   2.810   0.918   0.596 -0.7664 -0.0487  0.1528
  626TMC3    O1 9280   2.680   0.926   1.167  0.3983 -0.2713  0.1336
  626TMC3    O2 9281   2.891   0.974   0.529 -0.0578  0.0267  0.2178
  627MPD2     C 9282   2.405   1.386  14.507  0.4252 -0.4359 -0.7472
  627MPD2    C1 9283   2.382   1.352  14.640  0.3095  0.6525 -0.3554
  627MPD2    C2 9284   2.369   1.219  14.673  0.2028 -0.4023  0.0487
  627MPD2    C3 9285   2.356   1.118  14.575  0.2118  0.2807 -0.2344
  627MPD2    C4 9286   2.365   1.156  14.440 -0.4275 -0.1504  0.1731
  627MPD2    C5 9287   2.396   1.286  14.412  0.7819 -0.0028 -0.0323
  627MPD2     H 9288   2.347   1.189  14.775 -1.6659 -0.8163 -0.4945
  627MPD2    H1 9289   2.370   1.086  14.358 -2.3768 -0.1338  0.0416
  627MPD2    H2 9290   2.430   1.482  14.465  0.3395  0.4561  1.2601
  627MPD2    H3 9291   2.420   1.302  14.308 -1.6455  0.9517 -0.4587
  627MPD2     N 9292   2.311   0.988  14.612  0.4797  0.2396  0.1615
  627MPD2    H5 9293   2.298   0.979  14.712 -0.0487 -0.3801  0.0373
  627MPD2    N1 9294   2.370   1.447  14.746 -0.3390  0.0960  0.5667
  627MPD2    H7 9295   2.342   1.406  14.834 -0.7414  1.4905  1.0815
  628TMC3    C1 9296   2.348   1.652  14.848  0.1593  0.1814 -0.1818
  628TMC3    C2 9297   2.358   1.599  14.977  0.1235  0.5328 -0.0084
  628TMC3    C3 9298   2.275   1.648  15.072 -0.1461  0.3886  0.3411
  628TMC3    C4 9299   2.272   1.768  14.831 -0.3267  0.5177  0.9876
  628TMC3    C5 9300   2.207   1.823  14.935 -1.0913  0.3164 -0.0931
  628TMC3    C6 9301   2.198   1.764  15.056  0.0639  0.5696  0.3091
  628TMC3     C 9302   2.389   1.584  14.733 -0.4296 -0.5793 -0.2177
  628TMC3     O 9303   2.443   1.654  14.648 -0.3228 -0.5360  0.1896
  628TMC3     H 9304   2.448   1.542  14.995  0.8088  2.0476  1.3857
  628TMC3    H1 9305   2.272   1.810  14.731 -1.5989  2.8955  1.9881
  628TMC3    H2 9306   2.129   1.799  15.132 -2.4388  0.3706 -1.8721
  628TMC3    C7 9307   2.142   1.943  14.913  0.0333  0.3774 -0.0913
  628TMC3    C8 9308   2.262   1.583  15.200 -0.2838 -0.8343 -0.0649
  628TMC3    O1 9309   2.120   2.020  15.007 -0.5789 -0.1803  0.1370
  628TMC3    O2 9310   2.199   1.637  15.287  0.5858 -0.6540  0.2062
  629MPD2     C 9311   4.054   4.419  16.503  0.6556 -0.1474 -0.3622
  629MPD2    C1 9312   4.093   4.326  16.407  0.3262 -0.7041  0.0699
  629MPD2    C2 9313   3.996   4.237  16.356  0.0136 -0.4020 -0.0234
  629MPD2    C3 9314   3.866   4.246  16.393  0.1204  0.2336 -0.5870
  629MPD2    C4 9315   3.829   4.356  16.469  0.3858  0.4732 -0.2361
  629MPD2    C5 9316   3.926   4.429  16.534  0.3461  0.7966 -0.1063
  629MPD2     H 9317   4.029   4.162  16.285  1.3375  0.2975 -0.1540
  629MPD2    H1 9318   3.727   4.383  16.490  0.3451  1.0627 -1.2041
  629MPD2    H2 9319   4.120   4.494  16.545  0.1236  0.0206  0.1699
  629MPD2    H3 9320   3.892   4.512  16.596 -0.0232  0.5396  0.0330
  629MPD2     N 9321   3.772   4.146  16.346  0.3473 -0.3073 -0.8385
  629MPD2    H5 9322   3.813   4.061  16.310 -0.6581 -0.7463 -0.9675
  629MPD2    N1 9323   4.228   4.315  16.377 -0.5160  0.1497 -0.0695
  629MPD2    H7 9324   4.282   4.388  16.422  0.9114 -0.9357 -0.0195
  630TMC3    C1 9325   4.433   4.250  16.291  0.2245  0.1568 -0.2528
  630TMC3    C2 9326   4.509   4.332  16.210  0.2061  0.9624 -1.2624
  630TMC3    C3 9327   4.623   4.388  16.255 -0.5999  0.0474 -0.6430
  630TMC3    C4 9328   4.475   4.231  16.421 -0.3695  0.8275  0.2339
  630TMC3    C5 9329   4.581   4.300  16.460 -0.3034 -0.7425  0.1353
  630TMC3    C6 9330   4.656   4.382  16.386 -0.8619 -0.0757 -0.1582
  630TMC3     C 9331   4.292   4.240  16.281  0.2018  0.0614  0.1593
  630TMC3     O 9332   4.254   4.171  16.192 -0.2712 -0.5113  0.5282
  630TMC3     H 9333   4.469   4.346  16.110 -1.4488 -0.1451 -0.7583
  630TMC3    H1 9334   4.406   4.200  16.499 -0.7221  0.7448 -0.1139
  630TMC3    H2 9335   0.018   4.430  16.432 -0.2819 -0.2695 -1.0255
  630TMC3    C7 9336   4.577   4.334  16.603  0.0292  0.5862 -0.2138
  630TMC3    C8 9337   4.683   4.494  16.177 -0.1976 -0.4784 -0.6491
  630TMC3    O1 9338   4.523   4.251  16.672  0.1666 -0.1895  0.2795
  630TMC3    O2 9339   0.081   4.477  16.177 -0.2217 -0.1965 -0.2806
  631MPD2     C 9340   2.768   4.063  15.337 -0.2702 -0.5399  0.0283
  631MPD2    C1 9341   2.897   4.098  15.299 -0.2188 -0.2252 -0.3207
  631MPD2    C2 9342   2.991   3.994  15.283  0.7245 -0.3846  0.2092
  631MPD2    C3 9343   2.969   3.873  15.335  0.3225 -0.2315  0.0659
  631MPD2    C4 9344   2.851   3.838  15.383 -0.0670  0.3871 -0.1064
  631MPD2    C5 9345   2.757   3.935  15.374 -0.1993 -0.0729 -0.3534
  631MPD2     H 9346   3.082   4.012  15.225  0.7018 -0.0261  0.2813
  631MPD2    H1 9347   2.824   3.739  15.416  0.7044 -0.3611 -1.7208
  631MPD2    H2 9348   2.683   4.128  15.354  0.7269  1.7061 -3.4370
  631MPD2    H3 9349   2.664   3.901  15.418  0.0615  1.0037  1.0030
  631MPD2     N 9350   3.079   3.785  15.329  0.1465 -0.4910 -0.6177
  631MPD2    H5 9351   3.163   3.813  15.279  1.9898 -3.3730  0.8989
  631MPD2    N1 9352   2.927   4.231  15.278 -0.0581  0.2334  0.1790
  631MPD2    H7 9353   2.851   4.296  15.296  0.8852  0.8288  2.0065
  632TMC3    C1 9354   3.047   4.434  15.212  0.3547 -0.9210 -0.3863
  632TMC3    C2 9355   2.945   4.505  15.270 -0.4259  0.8208 -0.0078
  632TMC3    C3 9356   2.952   4.641  15.255  0.1067  0.1016  0.2005
  632TMC3    C4 9357   3.158   4.490  15.154  0.8119  0.2089  0.2409
  632TMC3    C5 9358   3.145   4.622  15.122 -0.0119  0.0835 -0.2802
  632TMC3    C6 9359   3.041   4.705  15.170  0.0497 -0.1948 -0.1347
  632TMC3     C 9360   3.037   4.288  15.217  0.1561 -0.0240  0.1662
  632TMC3     O 9361   3.127   4.225  15.157  0.2407 -0.7144 -0.4711
  632TMC3     H 9362   2.877   4.460  15.342 -0.5844  0.0105 -0.6674
  632TMC3    H1 9363   3.244   4.432  15.121  0.9075 -0.5403  1.8058
  632TMC3    H2 9364   3.023   0.084  15.140  0.8859 -0.9786 -3.2822
  632TMC3    C7 9365   3.219   4.680  15.009  1.2177 -0.0287  0.3753
  632TMC3    C8 9366   2.826   4.710  15.286 -0.9457 -0.7506 -0.2083
  632TMC3    O1 9367   3.164   0.059  14.963  1.0393  0.1080  0.4964
  632TMC3    O2 9368   2.768   4.664  15.383 -0.6640  0.1397  0.2209
  633MPD2     C 9369   2.671   2.446   0.139  0.4658 -0.1790  0.1036
  633MPD2    C1 9370   2.752   2.350   0.090  0.0200 -0.1016  1.2087
  633MPD2    C2 9371   2.813   2.263   0.176  0.4906  0.1159 -0.3237
  633MPD2    C3 9372   2.807   2.281   0.313 -0.2677 -0.4821  0.8008
  633MPD2    C4 9373   2.722   2.381   0.361 -0.0635 -0.1302 -0.1484
  633MPD2    C5 9374   2.667   2.474   0.276 -0.3497  0.4854  0.6289
  633MPD2     H 9375   2.889   2.196   0.139 -0.8766 -0.2051 -2.5243
  633MPD2    H1 9376   2.708   2.382   0.469 -1.3659 -3.7535 -0.2625
  633MPD2    H2 9377   2.605   2.502   0.073 -1.1665 -0.9609  1.0843
  633MPD2    H3 9378   2.617   2.563   0.313  0.8548  1.6631 -0.5878
  633MPD2     N 9379   2.889   2.204   0.393 -0.3880  0.3170 -0.0594
  633MPD2    H5 9380   2.890   2.232   0.491 -0.2794  0.6275 -0.1491
  633MPD2    N1 9381   2.774   2.330  17.648 -0.0037  0.3338  1.0644
  633MPD2    H7 9382   2.831   2.250  17.620 -0.4531  0.7515 -1.0334
  634TMC3    C1 9383   2.786   2.381  17.414 -0.0894  0.3072  1.0355
  634TMC3    C2 9384   2.845   2.260  17.378  0.1777  0.8071  0.3039
  634TMC3    C3 9385   2.864   2.231  17.242  1.0804 -0.2509 -0.0871
  634TMC3    C4 9386   2.746   2.467  17.316 -1.2623  0.4824  0.1301
  634TMC3    C5 9387   2.760   2.432  17.182  0.4852  0.0906 -0.4761
  634TMC3    C6 9388   2.827   2.320  17.143 -0.1198 -0.3631 -0.1995
  634TMC3     C 9389   2.741   2.416  17.548 -0.9894 -0.5700  0.1310
  634TMC3     O 9390   2.685   2.523  17.553  0.1859 -0.2638 -0.1515
  634TMC3     H 9391   2.897   2.198  17.450  0.3580 -0.7744 -1.1974
  634TMC3    H1 9392   2.702   2.565  17.336  0.2239  1.1202  0.2934
  634TMC3    H2 9393   2.830   2.299  17.037 -2.5849  0.6945 -0.4837
  634TMC3    C7 9394   2.695   2.514  17.078 -0.4876 -0.0182 -0.0126
  634TMC3    C8 9395   2.943   2.115  17.195 -0.8922  0.6270  0.0143
  634TMC3    O1 9396   2.725   2.490  16.962  0.1061  0.3475  0.1774
  634TMC3    O2 9397   2.937   2.020  17.270  0.1218 -0.2960 -0.0737
  635TMC3    C1 9398   3.017   2.761  17.606 -1.1332  0.3950 -0.1677
  635TMC3    C2 9399   3.123   2.804  17.530  0.0598 -0.2330  0.3544
  635TMC3    C3 9400   3.206   2.704  17.479 -0.4028 -0.3734  0.0155
  635TMC3    C4 9401   3.003   2.627  17.629  0.1875 -0.4325 -0.1503
  635TMC3    C5 9402   3.095   2.541  17.582  0.1396 -0.5560  0.1975
  635TMC3    C6 9403   3.198   2.576  17.505 -0.5660 -0.1709 -0.1055
  635TMC3     C 9404   2.945   2.857  17.679 -0.4557  0.3229  0.2772
  635TMC3     O 9405   2.984   2.973  17.676 -0.3727  0.6663 -0.2126
  635TMC3     H 9406   3.122   2.911  17.510  0.5597 -0.1427  0.8156
  635TMC3    H1 9407   2.914   2.588  17.679  2.1456 -0.4066  3.3700
  635TMC3    H2 9408   3.279   2.513  17.471  2.3759  3.4130  0.3660
  635TMC3    C7 9409   3.098   2.413  17.644 -0.7164  0.5373  0.2680
  635TMC3    C8 9410   3.323   2.747  17.388 -0.1211  0.1415 -0.6935
  635TMC3    O1 9411   3.052   2.413   0.063 -0.1800 -0.0764  0.1952
  635TMC3    O2 9412   3.353   2.675  17.292 -0.0329  0.2363 -0.0830
  636MPD2     C 9413   4.107   2.432  15.749  0.0589 -0.3144  0.8346
  636MPD2    C1 9414   4.110   2.494  15.872 -0.4798 -0.0588  0.0276
  636MPD2    C2 9415   4.156   2.426  15.983 -0.2635  0.3427  0.9993
  636MPD2    C3 9416   4.181   2.291  15.973 -0.6269 -0.3814  0.0288
  636MPD2    C4 9417   4.155   2.229  15.850  0.7910  0.0084 -0.1634
  636MPD2    C5 9418   4.122   2.297  15.744 -0.0862 -0.2337 -0.1442
  636MPD2     H 9419   4.153   2.473  16.081  0.3413  0.5941  0.8949
  636MPD2    H1 9420   4.175   2.123  15.840 -0.7481 -0.2691 -0.4159
  636MPD2    H2 9421   4.073   2.486  15.662  2.3221 -0.2249  0.0054
  636MPD2    H3 9422   4.117   2.244  15.650 -0.8746 -0.1390 -0.1635
  636MPD2     N 9423   4.209   2.220  16.090 -1.1370  0.0053  0.1619
  636MPD2    H5 9424   4.242   2.271  16.172  0.1052  0.5186 -0.6645
  636MPD2    N1 9425   4.051   2.623  15.892  0.6011 -0.3421  1.0612
  636MPD2    H7 9426   4.061   2.664  15.984 -0.8821 -1.5130  1.7444
  637TMC3    C1 9427   4.287   2.052  16.230  0.4812  0.4631  0.1272
  637TMC3    C2 9428   4.273   2.125  16.347  0.5928 -0.3127  0.3817
  637TMC3    C3 9429   4.333   2.079  16.465 -0.8723  0.2215  0.0524
  637TMC3    C4 9430   4.350   1.925  16.230 -0.3246  0.1116  1.0317
  637TMC3    C5 9431   4.391   1.877  16.355 -0.6347  0.0302 -0.4305
  637TMC3    C6 9432   4.377   1.950  16.473  0.2778 -0.0360 -0.3725
  637TMC3     C 9433   4.238   2.090  16.102  0.0113  0.2539 -0.1987
  637TMC3     O 9434   4.247   2.004  16.016  0.5484  0.5176  0.5660
  637TMC3     H 9435   4.251   2.231  16.341 -0.3883 -0.5527 -0.3182
  637TMC3    H1 9436   4.352   1.861  16.143 -0.8988  0.7182  0.5778
  637TMC3    H2 9437   4.428   1.901  16.555  1.1834  1.1059 -0.2503
  637TMC3    C7 9438   4.529   1.829  16.358 -0.1816 -0.0641  0.0681
  637TMC3    C8 9439   4.392   2.174  16.553 -0.1893  0.1003 -0.0320
  637TMC3    O1 9440   4.566   1.750  16.446 -0.1569  0.1256 -0.0418
  637TMC3    O2 9441   4.373   2.292  16.525 -0.0196  0.0245  0.3064
  638MPD2     C 9442   4.162   1.628  15.144 -0.0604 -0.1431  0.5176
  638MPD2    C1 9443   4.153   1.528  15.051 -0.4240 -0.0398 -0.1617
  638MPD2    C2 9444   4.146   1.402  15.096  0.6949  0.3321  0.2549
  638MPD2    C3 9445   4.136   1.373  15.227  0.3278 -0.2136 -0.4790
  638MPD2    C4 9446   4.128   1.466  15.321  0.2930  0.0054 -0.2734
  638MPD2    C5 9447   4.146   1.591  15.279  0.1081  0.1018 -0.1775
  638MPD2     H 9448   4.156   1.323  15.022 -1.2272 -0.0161  0.3664
  638MPD2    H1 9449   4.112   1.453  15.427  0.0078  0.4509 -0.2655
  638MPD2    H2 9450   4.190   1.727  15.110  0.6526 -0.8539 -0.9540
  638MPD2    H3 9451   4.150   1.678  15.344 -1.3144 -0.3864  0.5530
  638MPD2     N 9452   4.111   1.231  15.257  0.4495  0.0217 -0.0594
  638MPD2    H5 9453   4.120   1.171  15.176 -1.7239 -0.2978 -0.0635
  638MPD2    N1 9454   4.161   1.563  14.915 -0.0902 -0.5655  0.3375
  638MPD2    H7 9455   4.196   1.657  14.899 -1.9927  0.8608  4.6401
  639TMC3    C1 9456   4.071   1.038  15.362  0.1059  0.9640  0.1371
  639TMC3    C2 9457   3.995   1.002  15.247  0.1840 -0.1791  0.0423
  639TMC3    C3 9458   3.924   0.885  15.249  0.1321  0.3022  0.1002
  639TMC3    C4 9459   4.084   0.948  15.462  0.2231  0.6229 -0.5134
  639TMC3    C5 9460   4.022   0.819  15.446 -0.2239 -0.2294  0.1249
  639TMC3    C6 9461   3.943   0.788  15.344  0.4434  0.0524  0.2729
  639TMC3     C 9462   4.117   1.172  15.378 -0.4424  0.6182 -0.4573
  639TMC3     O 9463   4.147   1.219  15.486 -0.1446  0.0299  0.0436
  639TMC3     H 9464   3.970   1.076  15.173 -1.9577 -0.6294  0.3129
  639TMC3    H1 9465   4.147   0.964  15.549 -0.3838  2.6827 -0.4532
  639TMC3    H2 9466   3.910   0.685  15.340 -2.1264  0.9038 -1.0757
  639TMC3    C7 9467   4.127   0.724  15.451  0.3143  0.5503 -0.4236
  639TMC3    C8 9468   3.849   0.852  15.136 -0.2399  0.1852 -0.0488
  639TMC3    O1 9469   4.093   0.604  15.448 -0.1985  0.1129  0.1413
  639TMC3    O2 9470   3.874   0.911  15.032  0.3359  0.2747 -0.0104
  640MPD2     C 9471   0.671   0.038   9.451  0.9136  0.2045 -0.0362
  640MPD2    C1 9472   0.741   0.100   9.547  0.3858  0.1861 -0.0188
  640MPD2    C2 9473   0.720   0.235   9.574  0.8412  0.0745  0.5751
  640MPD2    C3 9474   0.639   0.313   9.489 -0.0138  0.2901  0.0727
  640MPD2    C4 9475   0.582   0.249   9.384  0.3075 -0.3687  0.4227
  640MPD2    C5 9476   0.587   0.110   9.375 -0.1239 -1.0428  0.3017
  640MPD2     H 9477   0.767   0.290   9.654  0.9803  1.3494 -0.3808
  640MPD2    H1 9478   0.530   0.313   9.313  1.9868  1.6453  1.0391
  640MPD2    H2 9479   0.680   4.655   9.430  0.9413  0.3482 -0.7255
  640MPD2    H3 9480   0.543   0.067   9.287  2.4298 -2.3273 -0.3545
  640MPD2     N 9481   0.596   0.447   9.509 -0.6851  0.0954 -0.3323
  640MPD2    H5 9482   0.523   0.480   9.446 -1.9988 -1.4895  0.3590
  640MPD2    N1 9483   0.828   0.016   9.620 -0.7227  0.3016  0.1370
  640MPD2    H7 9484   0.829   4.643   9.585  2.4727  0.5709 -0.5306
  641TMC3    C1 9485   1.026   4.665   9.735 -0.2762 -0.8271  0.5213
  641TMC3    C2 9486   1.068   4.644   9.861 -0.1122  0.7643 -0.4029
  641TMC3    C3 9487   1.139   4.527   9.882 -0.0483  0.0957  0.5059
  641TMC3    C4 9488   1.048   4.576   9.636  0.4371 -0.0639 -0.0350
  641TMC3    C5 9489   1.109   4.460   9.660 -0.2829  0.1674  0.1967
  641TMC3    C6 9490   1.167   4.439   9.782 -0.4116 -0.3461  0.3945
  641TMC3     C 9491   0.924   0.049   9.713  0.3030  0.7417  0.1979
  641TMC3     O 9492   0.919   0.148   9.785 -0.2380 -0.1210  0.0545
  641TMC3     H 9493   1.057   4.719   9.938  4.8912  0.3360  0.7137
  641TMC3    H1 9494   1.010   4.597   9.536 -1.6521 -3.5027  0.0103
  641TMC3    H2 9495   1.226   4.353   9.810  1.7613  0.9844 -0.0928
  641TMC3    C7 9496   1.189   4.424   9.550  0.1319 -0.2662  0.1132
  641TMC3    C8 9497   1.190   4.507  10.020 -0.2219  0.7128  0.2390
  641TMC3    O1 9498   1.302   4.381   9.580  0.0941 -0.8340  0.0829
  641TMC3    O2 9499   1.201   4.606  10.092  0.4481  0.0628 -0.2547
  642TMC3    C1 9500   1.079   1.478  12.169  0.5071 -0.4362 -0.3403
  642TMC3    C2 9501   1.185   1.463  12.246 -0.4706 -0.2211  0.3349
  642TMC3    C3 9502   1.196   1.340  12.315  0.7801 -0.2916 -0.0336
  642TMC3    C4 9503   0.977   1.386  12.150  0.2636  0.4054 -0.2741
  642TMC3    C5 9504   0.991   1.262  12.213 -0.1130  0.8840  0.3809
  642TMC3    C6 9505   1.104   1.233  12.288  0.2154 -0.0075 -0.4185
  642TMC3     C 9506   1.032   1.608  12.144  0.1516 -0.2713  0.3172
  642TMC3     O 9507   1.111   1.697  12.110 -0.3904  0.3960  0.3925
  642TMC3     H 9508   1.262   1.539  12.245 -0.2518 -0.4321  1.0497
  642TMC3    H1 9509   0.905   1.404  12.072 -0.4773  1.0944  0.5706
  642TMC3    H2 9510   1.114   1.134  12.332 -1.3451  0.8358  1.7998
  642TMC3    C7 9511   0.896   1.166  12.182  0.2182  0.2972 -0.3071
  642TMC3    C8 9512   1.276   1.315  12.436  0.1554  0.1517  0.2493
  642TMC3    O1 9513   0.832   1.176  12.074  0.3910 -0.6754 -0.3132
  642TMC3    O2 9514   1.282   1.206  12.489 -0.2473  0.0902  0.0775
  643TMC3    C1 9515   0.087   0.778   0.687  0.3654 -0.1545 -0.0501
  643TMC3    C2 9516   4.684   0.808   0.655  0.4690  0.1638  0.4272
  643TMC3    C3 9517   4.612   0.712   0.587 -0.4508 -0.2566  0.4472
  643TMC3    C4 9518   0.154   0.671   0.627  0.1021 -0.3576 -0.5328
  643TMC3    C5 9519   0.085   0.592   0.533 -0.1899  0.6451  0.4416
  643TMC3    C6 9520   4.676   0.603   0.538  0.3119 -0.2654 -0.1069
  643TMC3     C 9521   0.160   0.898   0.712  0.2232 -0.2569 -0.5220
  643TMC3     O 9522   0.116   0.989   0.648  0.8335  0.1528 -0.3841
  643TMC3     H 9523   4.630   0.883   0.713  1.1362  3.2534 -2.9916
  643TMC3    H1 9524   0.260   0.647   0.637 -0.6423 -3.0268  0.8858
  643TMC3    H2 9525   4.620   0.543   0.467  1.0812 -2.8453  1.4632
  643TMC3    C7 9526   0.134   0.624   0.395 -0.4181 -0.2905 -0.2065
  643TMC3    C8 9527   4.533   0.776   0.490  0.1319 -0.3518  0.0679
  643TMC3    O1 9528   0.188   0.734   0.377  0.6712 -0.4947 -0.4865
  643TMC3    O2 9529   4.451   0.710   0.424 -0.1061  1.0515 -0.6197
  644MPD2     C 9530   0.789   0.011   8.902 -0.0330 -0.5342 -0.2602
  644MPD2    C1 9531   0.800   4.703   9.038  0.2513  0.2682  0.8966
  644MPD2    C2 9532   0.781   4.571   9.081 -0.3413 -0.3438 -0.2137
  644MPD2    C3 9533   0.745   4.478   8.986 -0.2913 -0.9918 -0.4548
  644MPD2    C4 9534   0.711   4.515   8.852 -0.0497 -0.0592  0.3714
  644MPD2    C5 9535   0.731   4.644   8.823 -0.4312 -0.1432 -1.3207
  644MPD2     H 9536   0.794   4.546   9.186  2.4577 -0.9127 -0.6850
  644MPD2    H1 9537   0.662   4.460   8.773 -0.4275  0.6718  0.0906
  644MPD2    H2 9538   0.808   0.109   8.860  0.0847 -0.3177  0.2953
  644MPD2    H3 9539   0.711   4.672   8.720 -2.6352 -2.0247 -1.3946
  644MPD2     N 9540   0.735   4.340   9.023 -0.1024 -0.2193  0.1054
  644MPD2    H5 9541   0.763   4.319   9.118  0.1409 -0.2362  0.0297
  644MPD2    N1 9542   0.855   0.081   9.128 -0.3969 -0.4535  0.3981
  644MPD2    H7 9543   0.851   0.176   9.093 -0.9418 -0.3776  0.6687
  645TMC3    C1 9544   0.669   4.117   9.010  0.1169 -0.1501  0.3943
  645TMC3    C2 9545   0.791   4.055   8.996 -0.1960  0.6174  0.1198
  645TMC3    C3 9546   0.802   3.920   8.971 -0.2169  0.5528  0.0588
  645TMC3    C4 9547   0.559   4.043   8.991 -0.6642 -0.2436  0.1335
  645TMC3    C5 9548   0.572   3.907   8.968 -0.6755  0.1110  0.5302
  645TMC3    C6 9549   0.694   3.841   8.971  0.6810  0.0165 -1.0649
  645TMC3     C 9550   0.668   4.248   8.950  0.0825  0.0266 -0.6259
  645TMC3     O 9551   0.596   4.263   8.849 -0.2054  0.1186 -0.5748
  645TMC3     H 9552   0.879   4.117   9.013 -0.8483  2.0428 -1.8580
  645TMC3    H1 9553   0.463   4.092   8.976 -0.4806  0.0025 -0.2375
  645TMC3    H2 9554   0.693   3.733   8.968  0.6041 -0.0404  1.2283
  645TMC3    C7 9555   0.457   3.831   8.925 -0.3557  0.1417  0.2249
  645TMC3    C8 9556   0.926   3.865   8.910 -0.4786  0.3722  0.3526
  645TMC3    O1 9557   0.475   3.729   8.856 -0.2541  0.2981  0.0921
  645TMC3    O2 9558   0.927   3.745   8.888  0.9128  0.1607  0.5597
  646MPD2     C 9559   4.321   0.344  14.549  0.2481  0.6064 -0.3175
  646MPD2    C1 9560   4.220   0.293  14.628  0.4606  0.4155 -0.2309
  646MPD2    C2 9561   4.092   0.325  14.600  0.5280 -0.3745 -0.2769
  646MPD2    C3 9562   4.056   0.409  14.499  0.2532 -1.0516 -0.0086
  646MPD2    C4 9563   4.161   0.471  14.437  0.0373 -0.3611 -0.3311
  646MPD2    C5 9564   4.290   0.435  14.453  0.1582 -0.3515  0.0275
  646MPD2     H 9565   4.010   0.275  14.649  1.4446 -2.5574 -0.9442
  646MPD2    H1 9566   4.141   0.541  14.357  0.3962 -0.0894 -0.1811
  646MPD2    H2 9567   4.427   0.329  14.565 -0.2382  0.1077  2.4460
  646MPD2    H3 9568   4.366   0.475  14.386  0.1214  2.6431  1.7954
  646MPD2     N 9569   3.921   0.435  14.469 -0.1777 -0.6212  0.7250
  646MPD2    H5 9570   3.857   0.377  14.521  1.0282 -4.0327 -1.6267
  646MPD2    N1 9571   4.256   0.206  14.735 -0.1253  0.0249 -0.5544
  646MPD2    H7 9572   4.357   0.191  14.742 -0.3515 -1.5043 -0.6325
  647TMC3    C1 9573   4.253   0.043  14.907 -0.8089 -0.2172 -0.2706
  647TMC3    C2 9574   4.186   4.664  14.974 -0.0020  0.0266 -0.1726
  647TMC3    C3 9575   4.267   4.584  15.052  0.4875  0.9369 -0.2539
  647TMC3    C4 9576   4.384   0.081  14.941 -0.1782 -0.2111  0.6270
  647TMC3    C5 9577   4.454   0.002  15.025  0.0256 -0.2626 -0.6099
  647TMC3    C6 9578   4.401   4.612  15.083  0.1943 -0.2116 -0.2374
  647TMC3     C 9579   4.176   0.127  14.816 -0.2470  0.3813  0.2714
  647TMC3     O 9580   4.055   0.123  14.824 -0.7606 -0.0747  0.3467
  647TMC3     H 9581   4.079   4.651  14.963 -0.3924  2.4269  0.7375
  647TMC3    H1 9582   4.423   0.173  14.899 -2.0452  0.5910  0.6134
  647TMC3    H2 9583   4.459   4.547  15.147 -1.5212  0.6600  2.2282
  647TMC3    C7 9584   4.575   0.046  15.090  0.0710 -0.5679  0.4315
  647TMC3    C8 9585   4.219   4.459  15.100  0.3125 -0.4894  0.6054
  647TMC3    O1 9586   4.645   4.692  15.150  0.1406 -0.5658 -0.6382
  647TMC3    O2 9587   4.302   4.372  15.125  0.7537 -0.2189  0.3991
  648TMC3    C1 9588   3.365   2.429  16.274 -0.9049 -0.0075 -0.6668
  648TMC3    C2 9589   3.454   2.332  16.238  0.1242 -0.1569 -0.2501
  648TMC3    C3 9590   3.452   2.277  16.113 -0.7193  0.9431 -0.3988
  648TMC3    C4 9591   3.256   2.451  16.194 -0.0584  0.3548 -0.4762
  648TMC3    C5 9592   3.257   2.396  16.063  0.8060  0.7481 -0.0896
  648TMC3    C6 9593   3.352   2.307  16.026  0.1590 -0.6127  0.2914
  648TMC3     C 9594   3.354   2.472  16.411  0.2881 -0.0994 -0.1541
  648TMC3     O 9595   3.282   2.568  16.441 -0.4666  0.5558 -0.2828
  648TMC3     H 9596   3.533   2.301  16.305 -1.1157  1.1548  1.8216
  648TMC3    H1 9597   3.181   2.521  16.229  0.9523  0.4967  1.3991
  648TMC3    H2 9598   3.342   2.246  15.937 -0.0626  1.7729 -1.3176
  648TMC3    C7 9599   3.145   2.407  15.980  0.7947  0.0047 -0.0722
  648TMC3    C8 9600   3.540   2.168  16.073  0.5297 -0.7018  0.3247
  648TMC3    O1 9601   3.159   2.361  15.867 -0.9226 -0.0531 -0.1279
  648TMC3    O2 9602   3.655   2.168  16.119 -0.2797 -0.1515  0.2694
  649TMC3    C1 9603   2.698   3.669  13.174  0.8806 -0.1767 -0.5018
  649TMC3    C2 9604   2.800   3.582  13.183  0.4351  0.1071 -0.2915
  649TMC3    C3 9605   2.787   3.472  13.254 -0.3092  0.2313 -0.0033
  649TMC3    C4 9606   2.573   3.651  13.242 -0.0330  0.0041 -0.0885
  649TMC3    C5 9607   2.576   3.549  13.330  0.4728  0.2594  0.4223
  649TMC3    C6 9608   2.676   3.458  13.334  0.1728 -0.3078 -0.0295
  649TMC3     C 9609   2.701   3.777  13.079 -0.7878 -0.1444  0.2657
  649TMC3     O 9610   2.590   3.819  13.053  0.4037  0.4254  0.0634
  649TMC3     H 9611   2.879   3.585  13.109  0.3125  1.3479 -0.3756
  649TMC3    H1 9612   2.493   3.723  13.236  0.5737  0.7783  1.0912
  649TMC3    H2 9613   2.673   3.362  13.385  3.2166  0.0234  0.7392
  649TMC3    C7 9614   2.472   3.561  13.429 -0.2671 -0.0566 -0.0252
  649TMC3    C8 9615   2.900   3.388  13.278  0.3307 -0.4683 -0.9394
  649TMC3    O1 9616   2.381   3.645  13.419 -0.1569 -0.0502 -0.2168
  649TMC3    O2 9617   2.881   3.271  13.317 -0.8173  0.5242 -0.3492
  650TMC3    C1 9618   0.367   0.582  12.802 -0.3443 -0.0062 -0.8132
  650TMC3    C2 9619   0.389   0.719  12.813 -0.4363 -0.7396 -0.3927
  650TMC3    C3 9620   0.403   0.788  12.694 -0.3845 -0.5381  0.2400
  650TMC3    C4 9621   0.367   0.513  12.684  0.1027 -0.1213 -0.1232
  650TMC3    C5 9622   0.373   0.596  12.572 -0.6432  0.7982  0.1925
  650TMC3    C6 9623   0.388   0.733  12.575 -0.6609  0.1466  0.9355
  650TMC3     C 9624   0.357   0.509  12.923 -0.4215  0.1510  0.1732
  650TMC3     O 9625   0.335   0.586  13.012 -0.5839 -0.0875 -0.9524
  650TMC3     H 9626   0.402   0.767  12.910  3.0030  2.4963 -2.4732
  650TMC3    H1 9627   0.352   0.407  12.670  1.0812 -0.4917  1.6936
  650TMC3    H2 9628   0.411   0.787  12.485  0.1568  0.3604  1.2782
  650TMC3    C7 9629   0.307   0.546  12.454 -0.8014 -0.7539 -0.0835
  650TMC3    C8 9630   0.379   0.931  12.686  0.0236  1.1825  0.0181
  650TMC3    O1 9631   0.316   0.425  12.444  0.1501  0.4189  0.1774
  650TMC3    O2 9632   0.399   1.001  12.587 -0.0273 -0.1668 -0.0516
  651MPD2     C 9633   4.244   2.623  10.961 -0.2677  0.0378 -0.0204
  651MPD2    C1 9634   4.221   2.692  10.847  0.0942 -0.6599  0.8104
  651MPD2    C2 9635   4.329   2.718  10.762  0.7393 -0.5068 -0.3493
  651MPD2    C3 9636   4.454   2.674  10.790  0.5733 -0.1216 -0.4912
  651MPD2    C4 9637   4.472   2.596  10.902 -0.5341  0.7050  0.3483
  651MPD2    C5 9638   4.366   2.568  10.985 -0.3140 -0.5082 -0.2107
  651MPD2     H 9639   4.316   2.777  10.672 -3.3354  0.5777  0.9169
  651MPD2    H1 9640   4.561   2.544  10.936 -1.7445 -0.2033  2.1502
  651MPD2    H2 9641   4.162   2.597  11.026  0.1657 -0.4225  0.3488
  651MPD2    H3 9642   4.371   2.510  11.076 -0.2183 -0.8057 -0.4076
  651MPD2     N 9643   4.564   2.701  10.697 -0.0004  0.7605 -0.7386
  651MPD2    H5 9644   4.542   2.744  10.607 -0.3562  2.6220  0.2358
  651MPD2    N1 9645   4.087   2.730  10.812  0.7348  0.9038  0.3573
  651MPD2    H7 9646   4.072   2.758  10.716 -1.5422  2.0158  1.0328
  652TMC3    C1 9647   0.302   2.707  10.567  0.1415 -0.1966 -0.0891
  652TMC3    C2 9648   0.204   2.662  10.656 -0.4224 -0.3161 -0.0807
  652TMC3    C3 9649   0.073   2.694  10.623 -0.2337  0.1986  0.2838
  652TMC3    C4 9650   0.267   2.792  10.464 -0.4466  0.1847 -0.1670
  652TMC3    C5 9651   0.132   2.803  10.427 -0.4215  0.2006 -0.6157
  652TMC3    C6 9652   0.034   2.755  10.508  0.1029  0.8781 -0.2597
  652TMC3     C 9653   0.435   2.728  10.619  1.0473 -0.7574 -0.0670
  652TMC3     O 9654   0.449   2.696  10.737  0.5811 -0.2357  0.5180
  652TMC3     H 9655   0.239   2.617  10.748  0.6189  1.8522  0.5847
  652TMC3    H1 9656   0.337   2.820  10.386  0.4550 -0.1107  0.5446
  652TMC3    H2 9657   4.653   2.775  10.486 -0.0162  1.1921  0.5989
  652TMC3    C7 9658   0.106   2.918  10.337  0.4596 -0.0755 -0.0670
  652TMC3    C8 9659   4.694   2.656  10.727  0.0247  0.8888  0.4482
  652TMC3    O1 9660   0.012   2.902  10.263  0.2781 -0.2536 -0.1061
  652TMC3    O2 9661   0.019   2.604  10.830  0.8214 -0.7591  0.4487
  653MPD2     C 9662   2.373   2.411   0.362  0.1944  0.7749  1.1547
  653MPD2    C1 9663   2.344   2.502   0.260 -0.3267  0.1791  1.0274
  653MPD2    C2 9664   2.286   2.456   0.141  0.2102 -0.3069 -0.2331
  653MPD2    C3 9665   2.272   2.323   0.117 -0.5092  0.1549  0.9340
  653MPD2    C4 9666   2.307   2.231   0.215  0.5119 -0.6445  0.3969
  653MPD2    C5 9667   2.362   2.276   0.335  0.8575  0.2421  0.2009
  653MPD2     H 9668   2.249   2.528   0.069 -1.6296 -0.2130  0.7872
  653MPD2    H1 9669   2.304   2.125   0.198  2.8222 -0.7071  0.3433
  653MPD2    H2 9670   2.405   2.441   0.461 -0.0842  0.0673  1.4658
  653MPD2    H3 9671   2.379   2.210   0.420 -0.7800 -1.9487 -1.1470
  653MPD2     N 9672   2.227   2.280  17.681 -0.4339  0.0811  0.1333
  653MPD2    H5 9673   2.198   2.348  17.611  3.0214  0.0451 -1.3036
  653MPD2    N1 9674   2.354   2.643   0.275 -0.3927  0.5346  0.5313
  653MPD2    H7 9675   2.312   2.693   0.197  1.3100  2.2565  0.7226
  654TMC3    C1 9676   2.183   2.142  17.503 -0.3052  0.8759 -0.0403
  654TMC3    C2 9677   2.102   2.246  17.449 -0.2181 -0.4289  0.2305
  654TMC3    C3 9678   2.071   2.227  17.314  0.2569 -0.4091 -0.1404
  654TMC3    C4 9679   2.228   2.037  17.431 -0.5127 -0.1327  1.0180
  654TMC3    C5 9680   2.203   2.024  17.300 -0.1844 -0.5502  0.1815
  654TMC3    C6 9681   2.122   2.117  17.246 -0.8720 -0.1147 -0.1513
  654TMC3     C 9682   2.225   2.151  17.634  0.1553 -0.5233  0.1660
  654TMC3     O 9683   2.250   2.050   0.000 -0.3298 -0.0621 -0.1947
  654TMC3     H 9684   2.068   2.334  17.503  0.6690  0.4280 -0.6177
  654TMC3    H1 9685   2.309   1.982  17.478 -0.3292 -0.4928  0.2843
  654TMC3    H2 9686   2.091   2.092  17.146 -0.6696 -0.1451 -0.2066
  654TMC3    C7 9687   2.243   1.911  17.220  0.1633  0.2776 -0.0740
  654TMC3    C8 9688   1.982   2.328  17.250 -0.7802  0.2986 -0.4526
  654TMC3    O1 9689   2.182   1.895  17.113  0.3654 -0.6548  0.8917
  654TMC3    O2 9690   1.958   2.429  17.315  0.1860 -0.1943  0.2888
  655MPD2     C 9691   3.540   2.724  16.043 -0.9862 -0.0705 -0.5065
  655MPD2    C1 9692   3.436   2.728  15.952  0.5514 -0.6055 -0.8403
  655MPD2    C2 9693   3.448   2.641  15.834 -0.7052  0.4258  0.5291
  655MPD2    C3 9694   3.557   2.563  15.815 -0.1635  0.2085 -0.6143
  655MPD2    C4 9695   3.645   2.550  15.917 -0.3103  0.5269  0.3734
  655MPD2    C5 9696   3.639   2.631  16.028  0.2467 -0.4276 -0.9673
  655MPD2     H 9697   3.381   2.651  15.749  0.0203 -0.1087 -0.0954
  655MPD2    H1 9698   3.737   2.493  15.913 -0.8839 -0.2706 -1.3993
  655MPD2    H2 9699   3.542   2.779  16.137  1.9238 -2.1602  0.6484
  655MPD2    H3 9700   3.719   2.630  16.102 -0.7175  1.2811  0.0949
  655MPD2     N 9701   3.578   2.498  15.687  0.3594 -0.2682 -0.1342
  655MPD2    H5 9702   3.515   2.519  15.611  0.7947 -2.2849 -1.0423
  655MPD2    N1 9703   3.318   2.803  15.964  0.6379 -0.5309  0.6795
  655MPD2    H7 9704   3.243   2.788  15.896  2.6887  0.4822 -1.7827
  656TMC3    C1 9705   3.150   2.938  16.062  0.4629 -0.2014  0.0747
  656TMC3    C2 9706   3.083   2.945  16.182  0.2901  0.0520 -0.0275
  656TMC3    C3 9707   2.954   2.965  16.189 -0.0405 -0.3073 -0.8103
  656TMC3    C4 9708   3.084   2.939  15.941  0.4520 -0.6078 -0.5178
  656TMC3    C5 9709   2.947   2.974  15.955 -0.5426  0.0434 -0.1105
  656TMC3    C6 9710   2.879   2.987  16.074  0.5267  0.3369 -0.4581
  656TMC3     C 9711   3.286   2.888  16.067 -0.2053 -0.1721 -0.6709
  656TMC3     O 9712   3.351   2.920  16.168 -0.6166  0.1986 -0.5421
  656TMC3     H 9713   3.143   2.925  16.270  0.2730 -2.4236 -0.5885
  656TMC3    H1 9714   3.138   2.946  15.847  2.9469  0.7905  1.0208
  656TMC3    H2 9715   2.771   2.995  16.081  0.6057  1.5798 -0.6182
  656TMC3    C7 9716   2.867   2.974  15.834 -0.4891  1.1345 -0.1648
  656TMC3    C8 9717   2.878   2.893  16.294 -0.1211 -0.1327 -0.1439
  656TMC3    O1 9718   2.920   2.943  15.728 -0.3665  0.1076  0.8006
  656TMC3    O2 9719   2.777   2.836  16.257  0.1240  0.2461 -0.8354
  657TMC3    C1 9720   3.067   2.005  14.638 -0.2417 -0.2182  0.0705
  657TMC3    C2 9721   2.988   2.053  14.741 -0.4194 -0.0841 -1.4445
  657TMC3    C3 9722   2.933   2.170  14.718  0.5465  0.0070  0.5573
  657TMC3    C4 9723   3.075   2.067  14.516  0.2115 -0.0647 -0.1877
  657TMC3    C5 9724   3.011   2.178  14.500  0.2417 -0.6645  0.9942
  657TMC3    C6 9725   2.937   2.234  14.596  0.1287  0.1399  0.2281
  657TMC3     C 9726   3.090   1.863  14.620  0.1011  0.1400  0.0861
  657TMC3     O 9727   3.072   1.815  14.505  0.1818  0.0163 -0.0778
  657TMC3     H 9728   2.959   1.991  14.825  2.8736  0.4350  0.0532
  657TMC3    H1 9729   3.147   2.034  14.442  1.7523  1.1758  0.7764
  657TMC3    H2 9730   2.907   2.337  14.583 -0.2044 -0.1177 -1.0604
  657TMC3    C7 9731   3.006   2.237  14.368 -0.6151 -0.0685  0.7147
  657TMC3    C8 9732   2.868   2.247  14.826  0.4134  0.3407  0.3653
  657TMC3    O1 9733   3.112   2.229  14.308 -0.0253  0.2439  0.9321
  657TMC3    O2 9734   2.817   2.355  14.796 -0.1533 -0.2137 -0.0925
  658MPD2     C 9735   4.220   2.246  15.167 -0.1655  0.1702  0.4201
  658MPD2    C1 9736   4.121   2.341  15.149  0.0294 -0.2550 -0.1449
  658MPD2    C2 9737   4.123   2.424  15.037 -0.5420 -0.8791  0.0544
  658MPD2    C3 9738   4.223   2.409  14.949  0.0836 -0.9306 -0.2843
  658MPD2    C4 9739   4.322   2.323  14.976  0.3896  0.2977  0.7577
  658MPD2    C5 9740   4.323   2.236  15.083  0.4477 -0.2945  0.1923
  658MPD2     H 9741   4.046   2.499  15.026 -0.1106 -0.2586  1.3675
  658MPD2    H1 9742   4.407   2.316  14.909 -0.8908  0.4854 -0.8989
  658MPD2    H2 9743   4.216   2.170  15.244  0.8566  0.7573  1.0481
  658MPD2    H3 9744   4.404   2.166  15.099  0.5545 -0.3403 -0.5714
  658MPD2     N 9745   4.219   2.483  14.829  0.6621 -0.4891  0.3801
  658MPD2    H5 9746   4.127   2.521  14.808  1.4763  1.8099  0.9423
  658MPD2    N1 9747   4.008   2.344  15.234 -0.1894  0.6421  0.1287
  658MPD2    H7 9748   3.944   2.423  15.220 -0.5253  0.4039  0.3088
  659TMC3    C1 9749   3.834   2.265  15.375  0.6532  0.2234 -0.1674
  659TMC3    C2 9750   3.805   2.285  15.507  0.3921  0.3820  0.4746
  659TMC3    C3 9751   3.689   2.354  15.523 -0.2353  0.0809 -0.1953
  659TMC3    C4 9752   3.756   2.311  15.273  0.2462  0.1251 -0.0886
  659TMC3    C5 9753   3.636   2.371  15.300 -0.4903 -0.7575 -0.2520
  659TMC3    C6 9754   3.604   2.392  15.429 -0.6723  0.0730  0.1608
  659TMC3     C 9755   3.974   2.260  15.343  0.7987  0.1097 -0.4748
  659TMC3     O 9756   4.037   2.171  15.400  0.1054  0.2583 -0.6639
  659TMC3     H 9757   3.880   2.289  15.585 -1.4002 -0.6899  2.2497
  659TMC3    H1 9758   3.780   2.292  15.169 -1.0238  1.5450 -0.6383
  659TMC3    H2 9759   3.510   2.443  15.447 -0.3157  0.4288  0.9937
  659TMC3    C7 9760   3.524   2.402  15.206  0.3081 -0.2662  0.2774
  659TMC3    C8 9761   3.666   2.395  15.666  0.2333 -0.0936 -0.2396
  659TMC3    O1 9762   3.434   2.474  15.235  0.2528 -0.3837 -0.5542
  659TMC3    O2 9763   3.731   2.330  15.748  0.0399  0.2851  0.1113
  660MPD2     C 9764   2.320   1.529  12.967 -0.7794  0.0024 -0.1839
  660MPD2    C1 9765   2.194   1.532  12.897  0.4916 -0.1929 -0.3620
  660MPD2    C2 9766   2.090   1.454  12.950  0.2659  0.0262  0.2425
  660MPD2    C3 9767   2.113   1.372  13.052 -0.2616  0.2506 -0.6673
  660MPD2    C4 9768   2.235   1.369  13.114  0.3185  0.2051 -0.2430
  660MPD2    C5 9769   2.342   1.451  13.078  0.2013 -0.5447 -0.0790
  660MPD2     H 9770   1.995   1.452  12.898 -0.6788 -0.7048  2.0054
  660MPD2    H1 9771   2.244   1.301  13.198  1.1666  2.7014  1.6952
  660MPD2    H2 9772   2.401   1.594  12.937 -1.6618  0.7485 -0.9711
  660MPD2    H3 9773   2.440   1.445  13.124  1.3687  0.1229 -2.4729
  660MPD2     N 9774   2.014   1.284  13.105 -0.3223  0.2667  0.5261
  660MPD2    H5 9775   2.054   1.213  13.165  1.3733  1.0949  0.3495
  660MPD2    N1 9776   2.198   1.586  12.768 -0.4700 -0.1329 -0.4933
  660MPD2    H7 9777   2.288   1.623  12.741 -0.4505  0.2255  0.0760
  661TMC3    C1 9778   2.143   1.574  12.529 -0.0792  0.3411 -0.2886
  661TMC3    C2 9779   2.275   1.583  12.502  0.1663  0.3052 -0.4157
  661TMC3    C3 9780   2.300   1.564  12.365  0.3115 -0.1216  0.5310
  661TMC3    C4 9781   2.043   1.563  12.438 -0.0092 -0.0612 -0.6578
  661TMC3    C5 9782   2.074   1.557  12.305  0.3135  0.8558 -0.6353
  661TMC3    C6 9783   2.202   1.555  12.262 -0.6061  0.4969 -0.2979
  661TMC3     C 9784   2.098   1.557  12.672  1.0087  0.5213 -0.5428
  661TMC3     O 9785   1.988   1.513  12.692  0.1207  0.2528  0.2460
  661TMC3     H 9786   2.353   1.590  12.576  1.0625  1.6952 -1.4954
  661TMC3    H1 9787   1.939   1.552  12.466 -0.0683 -0.0505 -0.8721
  661TMC3    H2 9788   2.217   1.552  12.154 -1.3125  1.0761 -0.4116
  661TMC3    C7 9789   1.972   1.564  12.200 -0.0392  0.3551  0.2496
  661TMC3    C8 9790   2.441   1.536  12.330  0.4689  0.3471  0.3963
  661TMC3    O1 9791   2.003   1.523  12.090  1.1397 -0.0583  0.0240
  661TMC3    O2 9792   2.514   1.519  12.428  0.1845  0.8271 -0.5276
  662MPD2     C 9793   2.168   1.463  17.488 -0.5115  0.8654 -0.3342
  662MPD2    C1 9794   2.159   1.389  17.601  0.4907 -0.0604 -0.6524
  662MPD2    C2 9795   2.148   1.448   0.028  0.6521 -0.0685  0.1670
  662MPD2    C3 9796   2.138   1.586   0.043 -0.3955 -0.7630 -0.4904
  662MPD2    C4 9797   2.157   1.660  17.618  0.2173 -0.8090  0.4404
  662MPD2    C5 9798   2.161   1.599  17.494  0.1049  0.3492 -0.2848
  662MPD2     H 9799   2.162   1.388   0.117  2.5576 -3.7104 -2.5957
  662MPD2    H1 9800   2.161   1.768  17.625  2.0263 -0.6086 -3.9222
  662MPD2    H2 9801   2.180   1.415  17.392  1.5483 -0.1752  0.4540
  662MPD2    H3 9802   2.163   1.668  17.410 -3.0199 -0.4047 -0.9896
  662MPD2     N 9803   2.122   1.660   0.162 -0.4598  0.1649 -0.2084
  662MPD2    H5 9804   2.072   1.748   0.146  1.5506  0.9174 -2.3125
  662MPD2    N1 9805   2.150   1.249  17.597 -0.4689 -0.1237  0.0469
  662MPD2    H7 9806   2.113   1.203  17.679 -3.4113 -2.2477 -2.4814
  663TMC3    C1 9807   2.122   1.032  17.518  0.0482  0.5416 -0.5760
  663TMC3    C2 9808   2.115   1.018  17.654 -0.0990  0.1085 -0.6406
  663TMC3    C3 9809   2.004   0.958   0.015  0.0615  0.2437 -0.2942
  663TMC3    C4 9810   2.019   0.983  17.436 -0.6059  0.1253  0.5363
  663TMC3    C5 9811   1.915   0.920  17.498 -0.2268 -0.0892  0.0173
  663TMC3    C6 9812   1.904   0.917  17.630  0.0857 -0.6685  0.3984
  663TMC3     C 9813   2.138   1.172  17.488  0.4382 -0.0425  0.0046
  663TMC3     O 9814   2.128   1.206  17.373 -0.5100 -0.3342  0.3431
  663TMC3     H 9815   2.204   1.029   0.021  0.0834 -0.8102 -0.7345
  663TMC3    H1 9816   2.040   0.984  17.329 -0.6360  0.8398  0.5374
  663TMC3    H2 9817   1.818   0.870  17.676 -0.9101 -1.6986 -2.5390
  663TMC3    C7 9818   1.851   0.818  17.415 -0.0976  0.0139 -0.4657
  663TMC3    C8 9819   1.966   1.040   0.124 -0.0848 -0.7096  0.4222
  663TMC3    O1 9820   1.903   0.807  17.306  0.0412  0.5831  0.1552
  663TMC3    O2 9821   2.013   1.150   0.135 -0.5034 -0.1445 -0.0498
  664MPD2     C 9822   0.060   3.889   0.033 -0.1705  0.7624  0.5755
  664MPD2    C1 9823   0.098   4.013   0.063  0.2674 -0.3532  0.5425
  664MPD2    C2 9824   0.093   4.059   0.194  0.6290  0.1073 -0.1725
  664MPD2    C3 9825   0.048   3.974   0.291 -0.5851  0.6994  0.3470
  664MPD2    C4 9826   0.015   3.845   0.266  0.1430  0.1544  0.4968
  664MPD2    C5 9827   0.014   3.807   0.133 -0.1259  0.5106 -0.5782
  664MPD2     H 9828   0.118   4.163   0.211  0.0386 -0.1631  2.3715
  664MPD2    H1 9829   0.000   3.779   0.351  0.6816 -1.2844 -0.5137
  664MPD2    H2 9830   0.059   3.839  17.631  3.0066 -1.8145  1.8840
  664MPD2    H3 9831   4.715   3.706   0.099 -1.8590  1.1963 -1.5333
  664MPD2     N 9832   0.053   4.022   0.424 -0.0766 -0.6808 -0.8047
  664MPD2    H5 9833   0.084   4.118   0.434 -1.9123 -0.2872  0.9527
  664MPD2    N1 9834   0.146   4.106  17.656  0.2790 -0.2233 -0.3816
  664MPD2    H7 9835   0.145   4.204  17.684 -0.2498 -0.5405  0.7028
  665TMC3    C1 9836   0.031   4.030   0.653 -0.0155 -0.2086 -0.2075
  665TMC3    C2 9837   4.650   4.054   0.743 -0.5901 -0.4224 -0.1333
  665TMC3    C3 9838   4.681   4.134   0.853  0.0969  0.3666  0.3668
  665TMC3    C4 9839   0.155   4.090   0.662 -0.8296 -0.4444 -0.4942
  665TMC3    C5 9840   0.178   4.166   0.777  0.6282 -0.3707 -0.0538
  665TMC3    C6 9841   0.079   4.182   0.876 -0.3632  0.5680  0.7848
  665TMC3     C 9842   4.712   3.963   0.534 -0.3648  0.2204  0.5102
  665TMC3     O 9843   4.658   3.855   0.544  0.0642 -0.1935 -0.3272
  665TMC3     H 9844   4.554   4.004   0.750  0.1163 -2.0029 -1.7695
  665TMC3    H1 9845   0.228   4.083   0.582 -0.6183 -0.6552 -0.2834
  665TMC3    H2 9846   0.084   4.258   0.953 -0.7962  3.3950 -1.9937
  665TMC3    C7 9847   0.282   4.266   0.763  0.2479  0.3194 -0.0575
  665TMC3    C8 9848   4.563   4.203   0.910 -0.0463  0.7464 -0.5954
  665TMC3    O1 9849   0.341   4.263   0.656  0.3783  0.3095  0.6778
  665TMC3    O2 9850   4.568   4.245   1.020 -0.9298 -0.3573  0.3381
  666TMC3    C1 9851   0.599   4.496   9.766  0.1857 -0.2476  0.8155
  666TMC3    C2 9852   0.664   4.404   9.843 -0.3782  0.1715  0.5893
  666TMC3    C3 9853   0.712   4.443   9.960 -0.4015 -0.4149  0.3459
  666TMC3    C4 9854   0.604   4.630   9.803 -0.3999  0.0730  0.0766
  666TMC3    C5 9855   0.659   4.662   9.922  0.1059  0.0550  0.0926
  666TMC3    C6 9856   0.710   4.569  10.008  0.4253 -0.2279  0.4010
  666TMC3     C 9857   0.467   4.469   9.715 -0.1679 -0.4270  0.1643
  666TMC3     O 9858   0.411   4.551   9.638  0.3086 -0.8574  0.5420
  666TMC3     H 9859   0.678   4.301   9.810 -0.8097 -0.3403  2.0004
  666TMC3    H1 9860   0.541   4.696   9.744 -2.9348 -0.8256  1.7622
  666TMC3    H2 9861   0.735   4.602  10.108  2.5187  1.7131 -0.7593
  666TMC3    C7 9862   0.604   0.063   9.981  0.3005  0.2671 -1.2648
  666TMC3    C8 9863   0.778   4.341  10.037 -0.4411 -0.1109 -0.3845
  666TMC3    O1 9864   0.518   0.042  10.066 -0.0247 -0.0680 -0.1537
  666TMC3    O2 9865   0.749   4.228  10.005  0.3630 -0.3221  0.2020
  667MPD2     C 9866   1.533   3.962  14.927  0.1194 -1.1273 -0.5162
  667MPD2    C1 9867   1.441   4.055  14.970  0.8535  0.0089  0.3149
  667MPD2    C2 9868   1.312   4.025  14.920  0.2110 -0.5059  0.4545
  667MPD2    C3 9869   1.280   3.920  14.838 -0.5210 -0.0021  0.6827
  667MPD2    C4 9870   1.375   3.831  14.802 -0.1296 -0.3597  0.0478
  667MPD2    C5 9871   1.501   3.856  14.846 -0.0894  0.6563  0.1002
  667MPD2     H 9872   1.239   4.102  14.941  0.1984 -0.2699 -0.4703
  667MPD2    H1 9873   1.357   3.750  14.733  1.1749  0.9346 -1.7965
  667MPD2    H2 9874   1.638   3.968  14.954  0.3717  0.7207 -1.9076
  667MPD2    H3 9875   1.582   3.790  14.818 -1.3738 -0.9813  0.2955
  667MPD2     N 9876   1.144   3.905  14.787  0.3862  0.3574  0.0156
  667MPD2    H5 9877   1.128   3.823  14.731 -0.2812 -0.5094  1.4830
  667MPD2    N1 9878   1.468   4.173  15.043 -0.2664  0.1987 -0.0348
  667MPD2    H7 9879   1.382   4.202  15.087  0.3157  0.9481  0.6067
  668TMC3    C1 9880   1.560   4.351  15.127  0.3816 -0.2216 -0.3581
  668TMC3    C2 9881   1.609   4.460  15.061  0.3267  0.4563  0.4127
  668TMC3    C3 9882   1.531   4.574  15.072 -0.4954 -0.4473  0.1073
  668TMC3    C4 9883   1.448   4.356  15.209  0.8935  0.2243 -0.3309
  668TMC3    C5 9884   1.371   4.465  15.197  0.0745 -0.0881 -0.1489
  668TMC3    C6 9885   1.408   4.581  15.130  0.1335 -0.3406  0.7035
  668TMC3     C 9886   1.588   4.218  15.075 -0.2165 -0.1184 -0.6549
  668TMC3     O 9887   1.695   4.197  15.017 -0.0180 -0.3333 -0.4674
  668TMC3     H 9888   1.698   4.448  15.001  0.5250  1.8923  0.4346
  668TMC3    H1 9889   1.408   4.272  15.263  0.5305  2.9169  3.6000
  668TMC3    H2 9890   1.337   4.661  15.111 -0.1113 -0.4313  1.2575
  668TMC3    C7 9891   1.248   4.466  15.275  0.7712  0.1805  0.0466
  668TMC3    C8 9892   1.602   4.696  15.043  0.0487 -0.1412  0.6937
  668TMC3    O1 9893   1.247   4.431  15.394 -0.1415 -0.2700 -0.1190
  668TMC3    O2 9894   1.582   0.070  15.114 -0.0077 -0.2292  0.4027
  669TMC3    C1 9895   3.894   3.928  14.393  0.0365  0.4285  0.4111
  669TMC3    C2 9896   3.779   3.968  14.327  0.1524  0.4722  0.0257
  669TMC3    C3 9897   3.774   4.098  14.282  0.7978 -0.0105  0.2798
  669TMC3    C4 9898   3.989   4.031  14.427  0.9381 -0.9430 -0.0191
  669TMC3    C5 9899   3.983   4.156  14.368 -0.4325  0.2137 -0.2768
  669TMC3    C6 9900   3.876   4.187  14.288  0.3062 -0.1995 -0.5250
  669TMC3     C 9901   3.862   3.819  14.484  1.2338 -0.1632 -0.3953
  669TMC3     O 9902   3.754   3.759  14.481 -0.9659  0.0158  0.1294
  669TMC3     H 9903   3.694   3.904  14.304  0.5324  0.0443 -0.1797
  669TMC3    H1 9904   4.072   4.006  14.492  2.3795  1.5854 -0.9196
  669TMC3    H2 9905   3.878   4.276  14.226 -0.3896  1.9709  2.5658
  669TMC3    C7 9906   4.104   4.240  14.370 -0.4568  0.1347 -0.1112
  669TMC3    C8 9907   3.664   4.136  14.205 -0.3228 -0.4306 -0.1068
  669TMC3    O1 9908   4.187   4.224  14.456 -0.3980  0.2696  0.1114
  669TMC3    O2 9909   3.599   4.040  14.157 -0.0496  0.0549  0.0232
  670MPD2     C 9910   2.053   1.878  13.519  0.0388  0.0776 -0.0698
  670MPD2    C1 9911   2.165   1.951  13.561 -0.2584 -0.2037  0.3359
  670MPD2    C2 9912   2.171   1.999  13.691  0.1640 -0.4591  0.0411
  670MPD2    C3 9913   2.088   1.948  13.791  0.1606  0.3061 -0.1319
  670MPD2    C4 9914   1.977   1.876  13.754 -0.3238 -0.2551  0.8517
  670MPD2    C5 9915   1.960   1.845  13.619 -0.9059  0.9695  0.4379
  670MPD2     H 9916   2.253   2.064  13.719 -1.6618  0.7205  2.6369
  670MPD2    H1 9917   1.903   1.826  13.815 -0.5376  2.5959  2.9154
  670MPD2    H2 9918   2.025   1.861  13.416 -1.0266  1.7988 -0.0688
  670MPD2    H3 9919   1.879   1.781  13.585 -0.4831  0.1639  0.9246
  670MPD2     N 9920   2.122   1.968  13.924 -0.4390 -0.1164 -0.1101
  670MPD2    H5 9921   2.208   2.017  13.945 -0.9703 -0.1617  2.1919
  670MPD2    N1 9922   2.265   1.995  13.476 -0.9526 -0.2318 -0.0599
  670MPD2    H7 9923   2.342   2.040  13.525 -1.0015 -1.6216  1.3157
  671TMC3    C1 9924   2.146   1.902  14.147  0.5963 -0.0832 -0.0032
  671TMC3    C2 9925   2.281   1.881  14.133  1.0591  0.1664  0.2544
  671TMC3    C3 9926   2.355   1.844  14.245 -0.7927  0.3253 -0.2572
  671TMC3    C4 9927   2.089   1.883  14.271 -0.3826 -0.3593  0.6709
  671TMC3    C5 9928   2.167   1.859  14.379 -0.2238  0.7609 -0.3314
  671TMC3    C6 9929   2.303   1.843  14.367  0.5748 -0.5095  0.1772
  671TMC3     C 9930   2.055   1.913  14.034  0.5865 -0.8452 -0.0567
  671TMC3     O 9931   1.951   1.852  14.045 -0.0403 -0.1840 -0.6147
  671TMC3     H 9932   2.319   1.869  14.032  1.1481 -0.1650  0.3285
  671TMC3    H1 9933   1.981   1.873  14.279 -0.2229  0.4557  3.8501
  671TMC3    H2 9934   2.350   1.800  14.455 -1.8270  0.3879  1.8982
  671TMC3    C7 9935   2.120   1.756  14.459 -0.0105 -0.5415 -0.2701
  671TMC3    C8 9936   2.448   1.733  14.213  0.0786  0.2232 -0.0360
  671TMC3    O1 9937   2.100   1.792  14.576 -0.0219  0.7206 -0.3754
  671TMC3    O2 9938   2.454   1.698  14.096  0.8213 -0.3092  0.4023
  672MPD2     C 9939   2.710   2.628   1.592 -0.1722 -0.2672  0.2877
  672MPD2    C1 9940   2.685   2.530   1.498 -0.5198 -0.2146  0.3523
  672MPD2    C2 9941   2.782   2.498   1.402  0.2031 -0.0482  0.2524
  672MPD2    C3 9942   2.909   2.568   1.401 -0.0054 -0.1843  0.7520
  672MPD2    C4 9943   2.929   2.671   1.490  0.4831 -0.2835 -0.1024
  672MPD2    C5 9944   2.832   2.690   1.587 -0.5642  0.0737  0.0077
  672MPD2     H 9945   2.770   2.417   1.332 -1.4980 -0.8929  1.5315
  672MPD2    H1 9946   3.015   2.736   1.487 -1.8470  2.8049  0.4149
  672MPD2    H2 9947   2.649   2.655   1.677  1.5290 -0.5011  1.6008
  672MPD2    H3 9948   2.854   2.775   1.650  2.4469 -0.6835 -0.0430
  672MPD2     N 9949   3.012   2.542   1.304 -0.2182  0.4087 -0.5453
  672MPD2    H5 9950   3.091   2.605   1.311  0.0244  0.3379 -2.8027
  672MPD2    N1 9951   2.575   2.454   1.505 -0.5694 -0.3545  0.0712
  672MPD2    H7 9952   2.570   2.370   1.449  1.7572 -0.1426 -0.4636
  673TMC3    C1 9953   2.354   2.389   1.527 -0.4875 -0.2497 -0.3202
  673TMC3    C2 9954   2.386   2.256   1.520 -0.0059 -0.1514 -0.2157
  673TMC3    C3 9955   2.284   2.172   1.497  0.7224  0.1398  0.3646
  673TMC3    C4 9956   2.230   2.438   1.517 -0.3433 -0.3770 -1.0398
  673TMC3    C5 9957   2.134   2.347   1.491 -0.2107 -0.0285  0.2185
  673TMC3    C6 9958   2.160   2.216   1.483  0.0756 -0.3922 -0.7251
  673TMC3     C 9959   2.459   2.484   1.569 -0.1944 -0.2599  0.8817
  673TMC3     O 9960   2.423   2.586   1.627  0.2908 -0.0676  0.4319
  673TMC3     H 9961   2.488   2.229   1.543 -0.4354 -1.4151  0.1774
  673TMC3    H1 9962   2.207   2.543   1.533 -1.1988 -0.7772  0.3119
  673TMC3    H2 9963   2.086   2.140   1.462  2.5025 -3.2488  0.9596
  673TMC3    C7 9964   2.027   2.384   1.399  0.4312 -0.5733 -0.0295
  673TMC3    C8 9965   2.302   2.041   1.548  0.1592 -0.2005 -0.0555
  673TMC3    O1 9966   1.936   2.307   1.381 -0.5567  0.0642 -0.3732
  673TMC3    O2 9967   2.203   1.986   1.592 -0.1751  0.0584 -0.2453
  674MPD2     C 9968   2.960   1.224   1.231 -0.5602 -0.5117 -0.6888
  674MPD2    C1 9969   2.880   1.293   1.150  0.0797 -0.2062 -0.9050
  674MPD2    C2 9970   2.754   1.333   1.196  0.5437 -0.6186 -0.0316
  674MPD2    C3 9971   2.711   1.299   1.322 -0.2571  0.4428 -0.0410
  674MPD2    C4 9972   2.793   1.224   1.405 -0.2229 -0.1426 -0.4097
  674MPD2    C5 9973   2.917   1.190   1.353  0.1712 -0.2205  0.0081
  674MPD2     H 9974   2.688   1.397   1.139 -2.1936 -1.2800  2.3739
  674MPD2    H1 9975   2.763   1.198   1.506  2.1546 -0.9339  0.1066
  674MPD2    H2 9976   3.058   1.196   1.193 -0.6236 -1.4001 -0.2059
  674MPD2    H3 9977   2.982   1.127   1.413 -2.3586  0.2277  3.2706
  674MPD2     N 9978   2.578   1.339   1.343 -0.1579  0.7633 -0.2939
  674MPD2    H5 9979   2.524   1.397   1.281  0.6729  0.8318 -0.9533
  674MPD2    N1 9980   2.918   1.304   1.015  0.4556  0.2323  0.5452
  674MPD2    H7 9981   3.013   1.276   0.995  0.3036 -0.1883  0.4010
  675TMC3    C1 9982   2.884   1.323   0.776 -0.4543  0.6165  0.0599
  675TMC3    C2 9983   2.806   1.351   0.670 -0.4911 -0.1472  0.0397
  675TMC3    C3 9984   2.862   1.331   0.548  0.2303 -0.4505 -0.5965
  675TMC3    C4 9985   3.003   1.265   0.758  0.3728 -0.5281  0.5831
  675TMC3    C5 9986   3.049   1.232   0.634  0.8009  0.0441 -0.2126
  675TMC3    C6 9987   2.979   1.270   0.524  0.2813  0.6412 -0.2612
  675TMC3     C 9988   2.835   1.345   0.914  0.0857  0.1712  0.0636
  675TMC3     O 9989   2.716   1.382   0.914  0.2239  0.3819  0.0401
  675TMC3     H 9990   2.706   1.389   0.682 -1.5685 -1.9639 -3.2952
  675TMC3    H1 9991   3.062   1.240   0.846  1.3288  0.4206  0.2057
  675TMC3    H2 9992   3.008   1.244   0.423 -0.9271  1.5372 -0.8409
  675TMC3    C7 9993   3.167   1.146   0.623 -0.5026  0.4092 -0.6348
  675TMC3    C8 9994   2.767   1.311   0.439 -0.3149 -0.3725  0.2325
  675TMC3    O1 9995   3.249   1.154   0.709 -0.3344 -0.2126 -0.0922
  675TMC3    O2 9996   2.807   1.312   0.324 -0.6547 -0.2682  0.4616
  676MPD2     C 9997   0.461   0.667  11.050  0.1915  0.1119  0.0017
  676MPD2    C1 9998   0.391   0.576  11.126  0.1070  0.5942  0.3411
  676MPD2    C2 9999   0.433   0.445  11.135  0.4585 -0.1449  0.5368
  676MPD2    C310000   0.559   0.403  11.082 -0.1869  0.3491  0.2241
  676MPD2    C410001   0.631   0.497  11.022 -0.3963  0.1320  0.2625
  676MPD2    C510002   0.584   0.626  11.004  0.0842  0.6189 -0.0497
  676MPD2     H10003   0.371   0.375  11.190 -1.5628 -0.6796 -2.3965
  676MPD2    H110004   0.730   0.471  10.986  0.5186  3.3186  0.4452
  676MPD2    H210005   0.419   0.763  11.021 -3.7503 -1.7718 -0.4947
  676MPD2    H310006   0.641   0.692  10.939  0.4299  1.0391  0.6840
  676MPD2     N10007   0.614   0.277  11.099  0.7713  0.3535  0.7362
  676MPD2    H510008   0.703   0.262  11.051  1.3304 -0.2630  1.9850
  676MPD2    N110009   0.261   0.605  11.182 -0.4475  0.3046  0.0849
  676MPD2    H710010   0.201   0.526  11.207  0.2563  0.2368  1.5324
  677TMC3    C110011   0.099   0.718  11.308 -0.0317 -0.1022 -0.5334
  677TMC3    C210012   4.709   0.642  11.278 -0.5819 -0.1124  0.1336
  677TMC3    C310013   4.620   0.627  11.383 -0.9053  0.0780  0.1040
  677TMC3    C410014   0.125   0.774  11.429 -0.0435 -0.3726  1.0474
  677TMC3    C510015   0.026   0.768  11.529 -0.5762  0.6406  0.0648
  677TMC3    C610016   4.636   0.687  11.510  0.4839  0.5166  0.3103
  677TMC3     C10017   0.213   0.726  11.214  0.1144  0.8952  1.0036
  677TMC3     O10018   0.269   0.831  11.198 -0.2449 -0.2556 -0.7936
  677TMC3     H10019   4.692   0.596  11.182  1.9594  1.3471 -1.0155
  677TMC3    H110020   0.212   0.838  11.436  0.2706 -0.7405  0.5514
  677TMC3    H210021   4.562   0.673  11.588 -0.5656  2.9454 -0.2631
  677TMC3    C710022   0.065   0.804  11.661 -0.3849  0.1630 -0.2677
  677TMC3    C810023   4.509   0.536  11.361 -0.7139 -0.0772  0.0406
  677TMC3    O110024   4.694   0.801  11.737 -0.1112 -0.3916 -0.0799
  677TMC3    O210025   4.440   0.560  11.265  0.0147 -0.3113  0.2670
  678MPD2     C10026   1.250   0.110   1.853 -1.1693  0.4851  0.1337
  678MPD2    C110027   1.301   0.137   1.730  0.2776 -0.3904 -0.4038
  678MPD2    C210028   1.236   0.220   1.649 -0.4435 -0.6012 -0.0479
  678MPD2    C310029   1.122   0.280   1.694 -0.1061  0.3388 -0.1168
  678MPD2    C410030   1.065   0.250   1.821 -0.0705  0.1101  0.0461
  678MPD2    C510031   1.135   0.170   1.902  1.0694 -0.6837  0.6217
  678MPD2     H10032   1.282   0.246   1.554 -0.1123  1.9259  0.7964
  678MPD2    H110033   0.975   0.294   1.862 -1.6415 -3.2386  0.1122
  678MPD2    H210034   1.311   0.046   1.916  0.7723  1.0394 -1.1896
  678MPD2    H310035   1.100   0.152   2.003 -1.4329  0.3181 -0.0447
  678MPD2     N10036   1.062   0.366   1.604 -0.2379  0.1027 -0.0186
  678MPD2    H510037   1.114   0.371   1.517 -1.4274  2.1577 -0.6160
  678MPD2    N110038   1.418   0.084   1.671 -0.4168 -1.3593  0.1059
  678MPD2    H710039   1.451   0.129   1.586 -0.2935 -0.3823  0.6754
  679TMC3    C110040   1.793   4.611   1.576  0.0063 -0.1282 -0.2383
  679TMC3    C210041   1.684   4.600   1.656 -0.3769  0.6223 -0.2437
  679TMC3    C310042   1.563   4.634   1.607 -0.0519  0.1259  0.2926
  679TMC3    C410043   1.783   4.655   1.447 -0.7798  0.0689  0.0623
  679TMC3    C510044   1.656   4.675   1.400  0.2700 -0.2931 -0.5357
  679TMC3    C610045   1.547   4.669   1.476 -0.2900  0.1038  0.0411
  679TMC3     C10046   1.927   4.630   1.627 -0.0611  0.4211  0.5221
  679TMC3     O10047   2.009   4.680   1.544 -0.5498 -0.0438  0.0361
  679TMC3     H10048   1.680   4.598   1.764  0.1343 -0.9430 -0.2547
  679TMC3    H110049   1.855   4.665   1.367  0.1871 -0.0885  0.9260
  679TMC3    H210050   1.455   4.704   1.430 -0.5191 -0.8842 -0.2343
  679TMC3    C710051   1.640   0.036   1.279 -0.7571 -0.2609  0.0916
  679TMC3    C810052   1.462   4.677   1.699  0.2282  0.0521  0.3477
  679TMC3    O110053   1.554   0.123   1.284  0.0051  0.3701  0.1111
  679TMC3    O210054   1.440   4.602   1.793 -0.5185 -0.3849  0.0903
  680MPD2     C10055   1.865   4.193  13.765 -0.3776 -0.3650 -0.1037
  680MPD2    C110056   1.938   4.089  13.815 -0.0261  0.6566 -0.4924
  680MPD2    C210057   2.073   4.115  13.845  0.6741 -0.3630  0.3526
  680MPD2    C310058   2.132   4.236  13.810  0.0335  0.1102  0.2941
  680MPD2    C410059   2.050   4.342  13.763  0.3445  0.1690 -0.0934
  680MPD2    C510060   1.918   4.318  13.751  0.4753 -0.3962  0.1980
  680MPD2     H10061   2.130   4.032  13.885  0.4588 -0.5520  0.2729
  680MPD2    H110062   2.090   4.442  13.747 -3.3735  1.4988 -1.1485
  680MPD2    H210063   1.760   4.178  13.739 -0.3857  0.4597 -0.5563
  680MPD2    H310064   1.860   4.407  13.729  1.6081  0.3709  0.2780
  680MPD2     N10065   2.267   4.256  13.826 -0.0398 -0.8063 -0.8058
  680MPD2    H510066   2.296   4.348  13.795 -0.9944 -0.5372 -0.9203
  680MPD2    N110067   1.888   3.956  13.833 -0.2349  0.6652  0.1485
  680MPD2    H710068   1.953   3.892  13.879  1.8695  2.7633  0.0922
  681TMC3    C110069   1.769   3.765  13.843 -0.1205 -0.6974  0.1462
  681TMC3    C210070   1.682   3.751  13.944 -0.3117 -0.2865 -0.9889
  681TMC3    C310071   1.712   3.663  14.047 -0.1791  0.0005  0.0237
  681TMC3    C410072   1.888   3.699  13.844  0.2791  0.0822  0.7931
  681TMC3    C510073   1.908   3.595  13.927 -0.1620  0.9082 -0.1732
  681TMC3    C610074   1.820   3.574  14.026  0.3166  0.3854  0.2330
  681TMC3     C10075   1.766   3.907  13.801 -0.1402 -0.1772  0.0037
  681TMC3     O10076   1.665   3.971  13.777  0.2270  0.1399  0.8228
  681TMC3     H10077   1.606   3.824  13.969 -0.0070 -0.8596  1.5440
  681TMC3    H110078   1.969   3.738  13.783 -1.4428  2.0243 -0.2465
  681TMC3    H210079   1.850   3.506  14.105 -0.0554 -4.0922 -3.5422
  681TMC3    C710080   2.021   3.508  13.928  0.0538  0.2607 -0.0192
  681TMC3    C810081   1.704   3.728  14.178 -0.5577 -0.2991 -0.3056
  681TMC3    O110082   2.040   3.433  14.019  0.1680 -0.3559  0.4547
  681TMC3    O210083   1.603   3.776  14.226  0.8445 -0.4570 -0.0270
  682MPD2     C10084   4.524   0.958  10.661 -0.7147 -0.5908  0.1987
  682MPD2    C110085   4.520   0.827  10.649  0.8777 -0.0356  0.2624
  682MPD2    C210086   4.414   0.748  10.696 -0.4499 -0.4340 -0.5437
  682MPD2    C310087   4.316   0.816  10.767 -0.5524 -0.7274  0.4109
  682MPD2    C410088   4.325   0.952  10.787  0.0749  0.0346  0.0140
  682MPD2    C510089   4.430   1.022  10.736 -0.1938  0.2660  0.7818
  682MPD2     H10090   4.431   0.641  10.682 -2.7137 -0.8452 -0.0314
  682MPD2    H110091   4.262   0.999  10.862  0.3437 -1.0146  0.9051
  682MPD2    H210092   4.600   1.017  10.610 -0.8379  0.5168  1.2843
  682MPD2    H310093   4.438   1.128  10.757 -0.2215  0.0350  2.0033
  682MPD2     N10094   4.211   0.746  10.830  0.0772 -0.2790  0.5642
  682MPD2    H510095   4.167   0.795  10.907  2.6865  2.2542  0.4697
  682MPD2    N110096   4.609   0.755  10.566  0.1289  0.3097 -0.5070
  682MPD2    H710097   4.574   0.662  10.546 -1.4630  0.5866  1.0360
  683TMC3    C110098   4.088   0.458  11.104 -0.1656  0.0603  0.0329
  683TMC3    C210099   4.065   0.335  11.052 -0.1153 -0.2154 -0.3517
  683TMC3    C310100   4.076   0.310  10.918 -0.1201  0.4022  0.0107
  683TMC3    C410101   4.118   0.558  11.017  0.9297 -0.3366 -0.1945
  683TMC3    C510102   4.114   0.533  10.883  0.7814  0.5031 -0.0960
  683TMC3    C610103   4.090   0.412  10.828  0.1204  0.5728  0.7398
  683TMC3     C10104   4.074   0.489  11.252  0.3707 -0.5626  0.8914
  683TMC3     O10105   4.079   0.605  11.278  0.3874 -0.2909 -0.0774
  683TMC3     H10106   4.051   0.254  11.122  2.8983  0.0913  0.6262
  683TMC3    H110107   4.119   0.659  11.056 -0.0366 -0.2888 -0.2829
  683TMC3    H210108   4.090   0.390  10.722 -0.2739 -0.9445  1.0623
  683TMC3    C710109   4.189   0.609  10.791 -0.4382 -0.1648  0.6377
  683TMC3    C810110   4.083   0.177  10.868  0.0438  0.2367 -0.1497
  683TMC3    O110111   4.218   0.558  10.683 -0.2312 -0.3119  0.3796
  683TMC3    O210112   4.035   0.162  10.754  0.0927 -0.3350 -0.0877
  684MPD2     C10113   2.673   0.196  16.524 -0.5948 -0.0950 -0.2719
  684MPD2    C110114   2.563   0.224  16.443  0.1133  0.0468  0.1099
  684MPD2    C210115   2.511   0.348  16.458 -0.0738  0.5035 -0.2840
  684MPD2    C310116   2.551   0.444  16.550  0.0291  0.0054 -0.1174
  684MPD2    C410117   2.669   0.421  16.619 -0.5542 -0.7381 -0.2862
  684MPD2    C510118   2.723   0.298  16.606 -0.3529 -0.0883  0.2632
  684MPD2     H10119   2.434   0.372  16.385 -0.5480 -2.2039 -0.6792
  684MPD2    H110120   2.714   0.492  16.688  1.2899 -1.1443 -1.0442
  684MPD2    H210121   2.731   0.104  16.531  1.5690  1.1800 -1.2942
  684MPD2    H310122   2.812   0.278  16.664 -0.0762  0.3888 -0.0037
  684MPD2     N10123   2.482   0.563  16.567 -0.5725 -0.4416  0.6505
  684MPD2    H510124   2.522   0.637  16.624  1.8190  1.1615 -3.0876
  684MPD2    N110125   2.491   0.127  16.366 -0.0025 -0.1009  0.6913
  684MPD2    H710126   2.410   0.162  16.317  0.6795  1.9662  1.0352
  685TMC3    C110127   2.455   4.659  16.234 -0.2876  0.6289  0.7610
  685TMC3    C210128   2.341   4.714  16.188 -0.1026 -0.1632 -0.1722
  685TMC3    C310129   2.287   4.665  16.070  0.4594  0.8880 -0.4314
  685TMC3    C410130   2.516   4.554  16.171  0.2596  0.1436 -0.3798
  685TMC3    C510131   2.458   4.510  16.056  0.4287  0.3592  0.6457
  685TMC3    C610132   2.348   4.570  16.004  0.2266 -0.4453  0.0535
  685TMC3     C10133   2.532   0.002  16.341 -1.1730  0.0649  0.3504
  685TMC3     O10134   2.636   4.667  16.376 -0.1140  0.8581 -0.4121
  685TMC3     H10135   2.283   0.051  16.257 -0.8112 -0.3703 -0.5924
  685TMC3    H110136   2.617   4.521  16.193  0.7251  1.6108 -0.3005
  685TMC3    H210137   2.311   4.514  15.919 -0.2721  3.7576 -2.5295
  685TMC3    C710138   2.513   4.381  16.004 -0.0344  0.5595  0.3170
  685TMC3    C810139   2.161   4.722  16.030 -0.0267  0.0208  0.1715
  685TMC3    O110140   2.498   4.355  15.886 -0.2988 -0.3025  0.9134
  685TMC3    O210141   2.135   0.016  15.909 -0.2555 -0.6442  0.2235
  686MPD2     C10142   3.248   4.084  15.520  0.7254  0.1395 -0.4163
  686MPD2    C110143   3.287   3.962  15.569  0.8915  0.9334  0.2479
  686MPD2    C210144   3.386   3.888  15.497 -0.9555  1.0065 -0.0812
  686MPD2    C310145   3.443   3.929  15.377 -0.3594  0.4476 -0.3139
  686MPD2    C410146   3.402   4.050  15.335 -0.0545  0.4997 -0.4087
  686MPD2    C510147   3.305   4.125  15.406  0.3399 -0.3661  0.2339
  686MPD2     H10148   3.405   3.788  15.534  1.2636  1.2004 -0.7371
  686MPD2    H110149   3.449   4.084  15.243 -0.4735  2.3771  0.0803
  686MPD2    H210150   3.169   4.144  15.564 -0.1985 -0.1869 -1.6478
  686MPD2    H310151   3.280   4.220  15.362  0.2398 -1.0138 -1.1207
  686MPD2     N10152   3.534   3.847  15.303  0.1613 -0.4624  0.3904
  686MPD2    H510153   3.593   3.900  15.239 -2.5698  3.9602  1.5303
  686MPD2    N110154   3.212   3.896  15.666 -0.1103 -0.1156  0.6073
  686MPD2    H710155   3.125   3.937  15.701  0.6622 -0.2635  2.7061
  687TMC3    C110156   3.447   3.630  15.359 -0.1267 -0.8504  0.7248
  687TMC3    C210157   3.320   3.656  15.310  0.0274  0.2831  0.0261
  687TMC3    C310158   3.213   3.594  15.374  0.2777 -0.1190  0.0061
  687TMC3    C410159   3.474   3.550  15.461 -0.4676  0.1527  0.0378
  687TMC3    C510160   3.370   3.489  15.524 -0.1263  0.2038 -0.1567
  687TMC3    C610161   3.241   3.515  15.483 -0.2608 -0.0467  0.3127
  687TMC3     C10162   3.557   3.711  15.316  0.3155  0.1185 -0.0146
  687TMC3     O10163   3.654   3.648  15.276  0.2047  0.1030  0.0866
  687TMC3     H10164   3.315   3.709  15.215  1.4017 -0.0072 -0.2120
  687TMC3    H110165   3.576   3.555  15.496 -0.0394  1.7807 -1.4322
  687TMC3    H210166   3.163   3.454  15.528 -1.5762  2.3270  1.2710
  687TMC3    C710167   3.394   3.441  15.661  0.4960 -0.5980 -0.0467
  687TMC3    C810168   3.083   3.655  15.380 -0.2577 -0.3870 -0.2587
  687TMC3    O110169   3.304   3.441  15.742 -0.2628 -0.0292  0.5425
  687TMC3    O210170   2.998   3.588  15.436 -0.3868 -0.7278 -0.2448
  688MPD2     C10171   2.518   3.198  17.498  1.4250 -0.3273 -0.3487
  688MPD2    C110172   2.556   3.072  17.544 -0.0764 -1.0138 -0.1379
  688MPD2    C210173   2.650   3.001  17.475  0.6300 -0.0314 -0.2885
  688MPD2    C310174   2.709   3.054  17.359  0.2744  0.6452 -0.9584
  688MPD2    C410175   2.669   3.177  17.319  1.0945 -0.4503 -0.3676
  688MPD2    C510176   2.575   3.247  17.387  0.5728  0.2795  0.1305
  688MPD2     H10177   2.683   2.903  17.506  0.2256  0.0289  0.3410
  688MPD2    H110178   2.705   3.225  17.229  1.0713 -1.7932 -1.0949
  688MPD2    H210179   2.431   3.248  17.539  1.5699 -2.3950  2.4964
  688MPD2    H310180   2.555   3.343  17.343 -3.7892 -1.0849 -0.8578
  688MPD2     N10181   2.817   2.993  17.293  0.2544  1.2203  0.1710
  688MPD2    H510182   2.869   3.047  17.225 -0.7366  1.3631 -0.4740
  688MPD2    N110183   2.505   3.022  17.672  0.2687  0.5437 -0.1216
  688MPD2    H710184   2.557   2.942   0.013  0.4114  1.1797  1.1051
  689TMC3    C110185   2.386   3.034   0.187 -0.0359  0.1787  0.0225
  689TMC3    C210186   2.369   3.123   0.290 -0.3554  0.0045  0.0248
  689TMC3    C310187   2.384   3.075   0.415  0.4587 -0.4018  0.3251
  689TMC3    C410188   2.412   2.901   0.215 -0.4862 -0.6891  0.3376
  689TMC3    C510189   2.419   2.857   0.344 -0.4524  0.5064  0.7449
  689TMC3    C610190   2.405   2.943   0.447 -0.1968 -0.4995 -0.4538
  689TMC3     C10191   2.405   3.085   0.055 -0.2999  0.1911  0.6482
  689TMC3     O10192   2.322   3.171   0.032 -0.3281 -0.1075 -0.8610
  689TMC3     H10193   2.376   3.229   0.270  1.0333 -0.5273 -2.2670
  689TMC3    H110194   2.442   2.837   0.133  1.8640  2.7728 -1.4893
  689TMC3    H210195   2.410   2.897   0.545 -0.3450 -0.9402 -0.6502
  689TMC3    C710196   2.409   2.721   0.370 -0.0809 -0.5762 -0.2515
  689TMC3    C810197   2.427   3.168   0.516 -0.0358  0.2323 -0.4260
  689TMC3    O110198   2.436   2.680   0.484 -0.2949 -0.0523  0.3374
  689TMC3    O210199   2.482   3.120   0.610  0.2841  0.3840  0.3794
  690MPD2     C10200   0.254   0.496  15.796  0.4749  0.6510 -0.1879
  690MPD2    C110201   0.226   0.462  15.665 -0.6018 -0.3753  0.3305
  690MPD2    C210202   0.299   0.525  15.571 -0.4827 -0.1975  0.5278
  690MPD2    C310203   0.402   0.618  15.600  0.7860 -0.8418 -0.1284
  690MPD2    C410204   0.433   0.641  15.729 -0.1360 -0.7093 -0.4073
  690MPD2    C510205   0.365   0.577  15.829 -0.7432  0.2025 -0.0437
  690MPD2     H10206   0.279   0.495  15.469 -1.6139 -1.7766  1.2098
  690MPD2    H110207   0.520   0.697  15.759 -0.8899  0.8941 -1.2087
  690MPD2    H210208   0.190   0.472  15.880  2.0560 -3.0237 -0.0301
  690MPD2    H310209   0.385   0.605  15.932 -0.7667  2.5630 -0.6758
  690MPD2     N10210   0.485   0.670  15.494 -0.1154 -0.5205  0.2972
  690MPD2    H510211   0.443   0.650  15.404  2.5964  0.1844 -1.1260
  690MPD2    N110212   0.123   0.381  15.619 -0.1420  0.0903  0.1517
  690MPD2    H710213   0.119   0.349  15.523 -2.0572 -1.5946  0.7905
  691TMC3    C110214   4.663   0.243  15.616  0.1671 -0.6408  0.2577
  691TMC3    C210215   4.527   0.235  15.625 -0.4062 -0.0023 -0.7346
  691TMC3    C310216   4.455   0.144  15.550  0.1341  0.0340 -0.2872
  691TMC3    C410217   0.011   0.152  15.538 -0.0851 -0.4847 -0.1521
  691TMC3    C510218   4.656   0.064  15.464  0.5302  0.6526  0.9327
  691TMC3    C610219   4.522   0.054  15.470 -0.4194 -0.4350  0.0812
  691TMC3     C10220   0.018   0.339  15.692 -0.7239 -0.4826 -0.1576
  691TMC3     O10221   4.702   0.384  15.802 -0.1837 -0.3446  0.1493
  691TMC3     H10222   4.469   0.289  15.699  2.2351  1.1788  0.4810
  691TMC3    H110223   0.119   0.155  15.536 -0.1431  2.4150  1.5314
  691TMC3    H210224   4.474   4.708  15.402 -0.5052 -0.9644  0.6802
  691TMC3    C710225   0.013   4.662  15.437 -0.2440  0.8469 -0.8463
  691TMC3    C810226   4.344   0.077  15.615  0.0561 -0.9173  0.0229
  691TMC3    O110227   0.133   4.668  15.411  0.6525 -0.0437 -0.1034
  691TMC3    O210228   4.349   4.678  15.615 -0.4196 -0.0664 -0.0801
  692TMC3    C110229   1.737   1.844  16.191 -0.2678 -0.0275 -0.6194
  692TMC3    C210230   1.851   1.916  16.226  0.7768 -0.4273 -0.1711
  692TMC3    C310231   1.968   1.844  16.249 -0.5262  0.6064 -0.3519
  692TMC3    C410232   1.739   1.710  16.184 -0.1685  0.5902  0.1889
  692TMC3    C510233   1.857   1.646  16.218 -0.4758  0.3803 -0.1423
  692TMC3    C610234   1.963   1.709  16.266 -0.0737  0.5107  0.0344
  692TMC3     C10235   1.607   1.900  16.231 -0.1843 -0.5526 -0.2839
  692TMC3     O10236   1.525   1.820  16.271  0.3622 -0.3043  0.2829
  692TMC3     H10237   1.850   2.019  16.258  1.9377  0.3728 -2.7205
  692TMC3    H110238   1.661   1.653  16.136 -0.5592 -0.2137  1.7713
  692TMC3    H210239   2.058   1.657  16.275 -1.0227 -0.6499  3.3574
  692TMC3    C710240   1.887   1.515  16.156 -0.2395 -0.3662 -0.1480
  692TMC3    C810241   2.058   1.906  16.342  0.1601 -0.8113 -0.5119
  692TMC3    O110242   1.821   1.491  16.059  0.4781 -0.2374  0.1506
  692TMC3    O210243   2.081   2.026  16.336  0.0427  0.0107 -0.3509
  693MPD2     C10244   1.660   4.441  10.914 -0.1541  0.0389 -0.2257
  693MPD2    C110245   1.654   4.306  10.927 -0.2639  0.4465  0.1813
  693MPD2    C210246   1.771   4.233  10.961  0.6578  0.3764  0.3603
  693MPD2    C310247   1.890   4.293  10.988  0.2611  0.0326 -0.4966
  693MPD2    C410248   1.897   4.429  10.974  0.0612 -0.3997 -0.3872
  693MPD2    C510249   1.781   4.499  10.941 -0.1101 -0.0049 -0.0387
  693MPD2     H10250   1.766   4.125  10.973 -2.6001  0.5908  1.0162
  693MPD2    H110251   1.989   4.479  11.001 -0.5497  0.3909  0.2312
  693MPD2    H210252   1.578   4.500  10.876  0.4909  0.9071 -0.2789
  693MPD2    H310253   1.783   4.608  10.934  0.2133 -0.1492 -2.0770
  693MPD2     N10254   2.007   4.224  11.030 -0.6235  0.2503 -0.2511
  693MPD2    H510255   2.084   4.274  11.072  0.2904  0.7528 -2.5343
  693MPD2    N110256   1.532   4.235  10.898  0.3575  0.1436 -0.9310
  693MPD2    H710257   1.446   4.287  10.886  0.9183  1.2174 -0.3165
  694TMC3    C110258   1.377   4.066  10.917 -0.0689  0.9752  0.5548
  694TMC3    C210259   1.323   3.969  10.834  0.6053  0.0056  0.0294
  694TMC3    C310260   1.242   3.882  10.897 -0.0395  0.8244 -0.2701
  694TMC3    C410261   1.347   4.078  11.054  0.4594 -0.1540  0.8017
  694TMC3    C510262   1.282   3.968  11.109  0.0333  0.2480 -0.0406
  694TMC3    C610263   1.219   3.876  11.033  0.1636 -0.3972 -0.0627
  694TMC3     C10264   1.516   4.098  10.903 -0.0769 -0.2982 -0.5536
  694TMC3     O10265   1.590   4.007  10.877 -0.5273 -0.4884 -0.6019
  694TMC3     H10266   1.344   3.978  10.728 -1.3311  0.6694 -0.2854
  694TMC3    H110267   1.397   4.158  11.108 -1.0201  1.8589 -0.7827
  694TMC3    H210268   1.162   3.792  11.070  0.1244 -0.4154 -0.1652
  694TMC3    C710269   1.260   3.971  11.251 -0.2021  0.7115  0.2662
  694TMC3    C810270   1.148   3.798  10.822 -0.4661 -0.7518 -0.3832
  694TMC3    O110271   1.299   4.073  11.315 -0.1748  0.2837 -0.6896
  694TMC3    O210272   1.061   3.748  10.891  0.3664  0.2080  0.1991
  695MPD2     C10273   2.312   0.821  13.710  0.5435 -0.1769 -0.3253
  695MPD2    C110274   2.325   0.888  13.826 -0.7228 -0.2563 -0.1704
  695MPD2    C210275   2.212   0.946  13.884 -0.1907  0.1974  0.1170
  695MPD2    C310276   2.086   0.932  13.828  0.0574  0.0207  0.4273
  695MPD2    C410277   2.072   0.854  13.715 -0.1462 -1.1102 -0.1049
  695MPD2    C510278   2.187   0.801  13.661  0.1281  0.1509 -0.1526
  695MPD2     H10279   2.230   1.010  13.970  0.5321 -1.2972  1.0695
  695MPD2    H110280   1.983   0.824  13.661 -0.3533  0.9196 -0.8934
  695MPD2    H210281   2.389   0.768  13.655  0.8918 -0.5049  0.4748
  695MPD2    H310282   2.173   0.737  13.575  1.5648 -0.0512 -0.2305
  695MPD2     N10283   1.971   1.000  13.886  0.2303  0.1648 -0.4959
  695MPD2    H510284   1.992   1.062  13.963  0.0654  0.3312 -0.5849
  695MPD2    N110285   2.451   0.911  13.888 -0.4911 -0.0925  0.9204
  695MPD2    H710286   2.459   0.952  13.981 -0.4198 -0.0692  0.9036
  696TMC3    C110287   1.774   1.116  13.893  0.0598 -0.1207 -0.2531
  696TMC3    C210288   1.800   1.153  14.019 -0.0672  0.4169 -0.0887
  696TMC3    C310289   1.714   1.235  14.081 -0.9799  0.7877 -0.0692
  696TMC3    C410290   1.671   1.167  13.819 -0.0697 -0.5788  0.5415
  696TMC3    C510291   1.581   1.250  13.882 -0.2753  0.2078  0.3704
  696TMC3    C610292   1.602   1.286  14.010 -0.4833  0.0441 -0.5965
  696TMC3     C10293   1.849   1.005  13.829  0.7010 -0.3382  0.0029
  696TMC3     O10294   1.800   0.943  13.736 -0.3574  0.1536  0.4754
  696TMC3     H10295   1.890   1.127  14.073  1.0558  1.5857 -1.4120
  696TMC3    H110296   1.657   1.149  13.714 -0.9936 -0.6649  0.6782
  696TMC3    H210297   1.530   1.346  14.064 -0.0891  0.7359 -0.8486
  696TMC3    C710298   1.539   1.360  13.797  0.5956 -0.5839  0.0382
  696TMC3    C810299   1.765   1.334  14.171  0.5845 -1.2697  0.6101
  696TMC3    O110300   1.451   1.347  13.714 -0.2699  0.4607  0.3170
  696TMC3    O210301   1.758   1.450  14.131  0.3688  0.2922 -0.1230
  697MPD2     C10302   1.430   3.373  15.554  0.3128 -0.5516 -0.1835
  697MPD2    C110303   1.477   3.299  15.443  0.1447  0.8827  0.3808
  697MPD2    C210304   1.538   3.377  15.350 -0.9483 -0.6490  0.4608
  697MPD2    C310305   1.565   3.516  15.360  0.0935  0.0115  0.2707
  697MPD2    C410306   1.517   3.578  15.473 -0.2029  0.6169 -0.3254
  697MPD2    C510307   1.447   3.505  15.566  0.2181 -0.6292 -0.0658
  697MPD2     H10308   1.576   3.325  15.263 -0.8894 -2.9409  1.8570
  697MPD2    H110309   1.519   3.684  15.493  1.6775 -0.0495  2.9428
  697MPD2    H210310   1.376   3.330  15.638 -0.0993 -1.7130 -1.0571
  697MPD2    H310311   1.414   3.557  15.655  1.4835 -0.2523  0.1857
  697MPD2     N10312   1.627   3.577  15.245 -1.0085 -0.3975  0.1369
  697MPD2    H510313   1.658   3.513  15.172  2.0345  2.8480 -1.4504
  697MPD2    N110314   1.474   3.161  15.432 -0.4448 -0.4356  0.4450
  697MPD2    H710315   1.536   3.119  15.364 -2.2549  0.5107 -1.7626
  698TMC3    C110316   1.755   3.725  15.120  0.1134 -0.2192 -0.6845
  698TMC3    C210317   1.883   3.773  15.142 -0.1294 -0.1407  0.1507
  698TMC3    C310318   1.984   3.742  15.049 -0.1467 -0.1057 -0.4735
  698TMC3    C410319   1.734   3.657  15.001 -0.5024 -0.0436  0.2801
  698TMC3    C510320   1.834   3.622  14.916 -0.0927  0.7261 -0.1366
  698TMC3    C610321   1.965   3.662  14.941 -0.4098  0.3351 -0.1347
  698TMC3     C10322   1.659   3.710  15.233  0.0142  0.2248 -0.1777
  698TMC3     O10323   1.653   3.800  15.321 -0.3361  0.2000 -0.7768
  698TMC3     H10324   1.910   3.832  15.229  0.3988  0.2046 -0.2492
  698TMC3    H110325   1.635   3.622  14.973 -0.4517  0.1679 -0.1616
  698TMC3    H210326   2.046   3.632  14.876 -1.9562 -1.6270 -1.1658
  698TMC3    C710327   1.798   3.558  14.791  0.4181  0.6944  0.4850
  698TMC3    C810328   2.105   3.715  15.128 -0.0083 -0.4479 -0.0044
  698TMC3    O110329   1.674   3.556  14.770  0.0727  0.1864  0.2311
  698TMC3    O210330   2.077   3.684  15.244  0.1558  0.1335  0.0363
  699TMC3    C110331   1.803   1.221  13.166 -0.2847  0.3741 -0.8181
  699TMC3    C210332   1.826   1.090  13.147  0.1043  1.3240  0.9993
  699TMC3    C310333   1.727   0.997  13.150 -0.2060 -0.3676  0.4702
  699TMC3    C410334   1.677   1.265  13.197  0.0124  0.9060 -0.3507
  699TMC3    C510335   1.572   1.175  13.191  1.0622  0.4199  0.1949
  699TMC3    C610336   1.601   1.041  13.173 -0.1348  0.1695 -0.0894
  699TMC3     C10337   1.875   1.306  13.089  0.1767 -0.1341  0.4270
  699TMC3     O10338   1.817   1.409  13.062 -0.0963 -0.6680 -0.6219
  699TMC3     H10339   1.928   1.056  13.130 -0.5647  0.3742 -1.0244
  699TMC3    H110340   1.650   1.367  13.224 -0.9455 -0.0742  2.3045
  699TMC3    H210341   1.520   0.969  13.171  0.0445 -0.1048  3.6312
  699TMC3    C710342   1.454   1.200  13.284 -0.1079  0.1383 -0.4281
  699TMC3    C810343   1.762   0.875  13.214 -0.6535  0.1571  0.4732
  699TMC3    O110344   1.468   1.294  13.361 -0.3551  0.2853  0.3888
  699TMC3    O210345   1.664   0.826  13.270  0.4051  0.0948 -0.1909
  700TMC3    C110346   0.500   3.392  17.563 -0.0435  0.5556  0.2793
  700TMC3    C210347   0.591   3.288  17.562  0.4915 -0.8406  0.8479
  700TMC3    C310348   0.707   3.306  17.635  0.4126 -0.1478  0.0896
  700TMC3    C410349   0.507   3.500  17.639  0.4851  0.1466 -0.4081
  700TMC3    C510350   0.615   3.504   0.034 -0.2252 -0.2265  0.4045
  700TMC3    C610351   0.725   3.415   0.018 -0.5393 -0.3169 -0.3293
  700TMC3     C10352   0.444   3.414  17.430 -0.2112 -0.6755  0.2157
  700TMC3     O10353   0.394   3.318  17.373  0.2177 -0.0286 -0.3950
  700TMC3     H10354   0.570   3.198  17.507 -2.4451  1.5421 -1.9360
  700TMC3    H110355   0.429   3.575  17.637 -0.2133 -0.5892 -1.1019
  700TMC3    H210356   0.808   3.419   0.087  0.3069 -2.7897 -1.1913
  700TMC3    C710357   0.640   3.616   0.115  0.0859  0.2141 -0.2214
  700TMC3    C810358   0.817   3.225  17.580  0.3062  0.7787  0.1389
  700TMC3    O110359   0.751   3.622   0.167  0.7391 -0.2253 -0.8279
  700TMC3    O210360   0.792   3.167  17.476  0.1837  0.6922 -0.3083
  701TMC3    C110361   1.027   2.502  15.621 -0.0730  0.8276 -0.0291
  701TMC3    C210362   1.081   2.464  15.502  0.2472  0.0436  0.1448
  701TMC3    C310363   1.091   2.564  15.412 -0.2516 -0.1816  0.4434
  701TMC3    C410364   0.992   2.630  15.657 -0.1053 -0.1554 -0.6218
  701TMC3    C510365   0.998   2.725  15.555  0.2464 -0.2406 -0.2293
  701TMC3    C610366   1.036   2.692  15.433  0.2088  0.0905 -0.2899
  701TMC3     C10367   0.979   2.398  15.709 -0.6142 -0.0161  0.0078
  701TMC3     O10368   0.870   2.416  15.764 -0.2046 -0.4185 -0.0816
  701TMC3     H10369   1.088   2.358  15.479 -1.2102 -0.5839  2.5862
  701TMC3    H110370   0.969   2.656  15.760  1.4150 -0.3632 -0.2314
  701TMC3    H210371   1.036   2.756  15.345  3.0565  1.1879  0.5225
  701TMC3    C710372   0.964   2.860  15.591  0.5781  0.8556 -0.0034
  701TMC3    C810373   1.125   2.529  15.278  0.5597 -0.4226  0.0139
  701TMC3    O110374   0.977   2.932  15.491  0.2843  0.0481 -0.6568
  701TMC3    O210375   1.199   2.595  15.207  0.3138  0.0755  0.0259
  702MPD2     C10376   1.058   4.569  10.774  0.1493  0.2065  0.2748
  702MPD2    C110377   0.962   4.664  10.802 -0.6249 -0.7089 -0.7074
  702MPD2    C210378   0.937   0.043  10.712  0.3126  0.1057 -0.5048
  702MPD2    C310379   1.002   0.039  10.590  0.5248 -0.1572  0.5567
  702MPD2    C410380   1.106   4.676  10.567 -0.6844 -0.8805 -0.1473
  702MPD2    C510381   1.130   4.573  10.655 -0.0239  0.0284  0.1536
  702MPD2     H10382   0.857   0.113  10.736  0.4800 -0.0174  0.4320
  702MPD2    H110383   1.159   4.670  10.472 -0.8357  0.7846 -0.3283
  702MPD2    H210384   1.084   4.499  10.853  2.5412 -0.2200 -0.8685
  702MPD2    H310385   1.208   4.501  10.634 -1.0928 -0.6093 -1.6252
  702MPD2     N10386   0.977   0.138  10.488  0.0409 -0.1808 -0.7728
  702MPD2    H510387   1.040   0.132  10.409  1.4406 -0.4718  0.3506
  702MPD2    N110388   0.886   4.675  10.917  0.2360  0.1033 -0.0473
  702MPD2    H710389   0.809   0.019  10.915  1.1994  1.2358  0.4415
  703TMC3    C110390   0.862   0.303  10.361 -0.4977  0.2240 -0.4877
  703TMC3    C210391   0.747   0.375  10.354  0.7034  0.0960 -0.3476
  703TMC3    C310392   0.751   0.495  10.298 -0.1875  0.7652  0.6334
  703TMC3    C410393   0.982   0.340  10.298 -0.2786  0.8954 -0.3669
  703TMC3    C510394   0.984   0.467  10.250  0.7637 -0.1068 -0.0014
  703TMC3    C610395   0.870   0.547  10.254  1.4653 -0.3300 -0.2240
  703TMC3     C10396   0.873   0.225  10.481  0.2040  0.1319  0.5845
  703TMC3     O10397   0.787   0.241  10.566  0.5610 -0.2539  0.3127
  703TMC3     H10398   0.659   0.313  10.365  0.5864  0.3553  0.1629
  703TMC3    H110399   1.068   0.277  10.318 -1.6414 -1.4563 -1.7739
  703TMC3    H210400   0.873   0.651  10.225 -2.6309 -0.5150 -1.3120
  703TMC3    C710401   1.114   0.537  10.262  0.0996  0.6038  0.8168
  703TMC3    C810402   0.653   0.592  10.338  0.2332  0.2063  0.4169
  703TMC3    O110403   1.120   0.660  10.281 -0.1342 -0.3735  0.0216
  703TMC3    O210404   0.661   0.706  10.292  0.1341  0.3652  0.2961
  704TMC3    C110405   3.306   2.808  12.838  0.4659  0.2939  0.1175
  704TMC3    C210406   3.392   2.823  12.730 -0.2598 -0.8059 -1.0098
  704TMC3    C310407   3.526   2.789  12.731  0.2977 -0.2235 -0.8585
  704TMC3    C410408   3.353   2.756  12.949 -0.5272  0.4804 -0.7349
  704TMC3    C510409   3.481   2.706  12.951 -1.0809  0.8430  0.6766
  704TMC3    C610410   3.570   2.720  12.842  0.7526 -0.2988 -0.0353
  704TMC3     C10411   3.167   2.772  12.811  0.2733  0.5095 -0.3142
  704TMC3     O10412   3.090   2.759  12.905 -0.1091 -0.4426 -0.3369
  704TMC3     H10413   3.355   2.873  12.641 -0.1469 -4.1964 -2.9248
  704TMC3    H110414   3.285   2.754  13.033  0.9903  0.3358  0.4981
  704TMC3    H210415   3.674   2.707  12.868  0.5785  0.2169  0.9027
  704TMC3    C710416   3.545   2.648  13.077  0.2092 -0.2340 -0.2806
  704TMC3    C810417   3.571   2.764  12.594  0.0226  0.2520  0.1806
  704TMC3    O110418   3.656   2.691  13.099 -0.3102  0.9168  0.4246
  704TMC3    O210419   3.490   2.764  12.499 -0.1146 -0.2197  0.0029
  705MPD2     C10420   2.470   1.152  16.907  0.6321 -0.8515 -0.9299
  705MPD2    C110421   2.353   1.160  16.835  0.2767 -0.3309  0.0429
  705MPD2    C210422   2.230   1.170  16.892 -0.2550  0.0022 -0.1735
  705MPD2    C310423   2.214   1.174  17.027 -0.2693 -0.7667  0.1891
  705MPD2    C410424   2.328   1.174  17.104 -0.3846 -0.5120  0.6658
  705MPD2    C510425   2.451   1.169  17.045  0.0287 -0.1614  0.1421
  705MPD2     H10426   2.151   1.188  16.821 -0.4268 -0.7378 -0.1778
  705MPD2    H110427   2.333   1.188  17.211  1.1267  0.1836  0.5056
  705MPD2    H210428   2.571   1.157  16.866  0.7792 -0.9990 -0.5883
  705MPD2    H310429   2.538   1.193  17.105  1.3543 -0.8338 -1.5167
  705MPD2     N10430   2.087   1.180  17.094  0.0856  1.0258 -0.3205
  705MPD2    H510431   2.090   1.187  17.195 -1.4224  0.6452 -0.2481
  705MPD2    N110432   2.350   1.157  16.695 -0.5714 -0.4061 -0.1636
  705MPD2    H710433   2.264   1.181  16.646 -0.6107  1.0668  0.6349
  706TMC3    C110434   2.533   1.055  16.275 -0.0082 -1.1500  0.1025
  706TMC3    C210435   2.477   1.161  16.214 -0.7891 -0.0448  0.0048
  706TMC3    C310436   2.387   1.241  16.285  0.4894  0.5520 -0.0773
  706TMC3    C410437   2.522   1.028  16.405 -0.4303 -0.7983 -0.3583
  706TMC3    C510438   2.436   1.112  16.478  0.1191 -0.6272 -0.2596
  706TMC3    C610439   2.369   1.218  16.420  0.6332 -0.4823  0.0364
  706TMC3     C10440   2.653   1.014  16.212  0.6876  0.0197 -0.1176
  706TMC3     O10441   2.756   1.041  16.277  0.1953 -0.1503 -0.1021
  706TMC3     H10442   2.510   1.190  16.115 -1.3345 -0.7846 -0.3898
  706TMC3    H110443   2.575   0.949  16.456  2.5242  0.0178 -2.1396
  706TMC3    H210444   2.312   1.286  16.481  1.1675  0.3240 -0.3529
  706TMC3    C710445   2.456   1.109  16.619 -0.6248 -0.0589  0.1903
  706TMC3    C810446   2.382   1.378  16.239 -0.2375 -0.6418  0.2225
  706TMC3    O110447   2.552   1.039  16.658  0.2690 -0.3871 -0.0152
  706TMC3    O210448   2.353   1.395  16.120 -0.5712 -0.6407 -0.6286
  707TMC3    C110449   3.329   0.334   0.920  0.3245 -0.1447 -0.3946
  707TMC3    C210450   3.360   0.312   1.050  0.1974  0.5912 -0.6305
  707TMC3    C310451   3.263   0.321   1.143  0.0976 -0.2175  0.6416
  707TMC3    C410452   3.207   0.391   0.879 -0.6813  0.2901  0.2392
  707TMC3    C510453   3.118   0.398   0.982  0.1162 -1.7034  0.4379
  707TMC3    C610454   3.136   0.372   1.117  0.3235 -0.0786  0.3845
  707TMC3     C10455   3.451   0.342   0.836  0.0933  0.2429  0.0024
  707TMC3     O10456   3.557   0.315   0.890  0.5840  0.2861 -0.4308
  707TMC3     H10457   3.455   0.271   1.081  0.6913  1.0874 -1.5219
  707TMC3    H110458   3.187   0.397   0.773  0.7470 -0.6870 -0.0920
  707TMC3    H210459   3.058   0.370   1.192 -0.5885 -0.4242 -0.5697
  707TMC3    C710460   2.995   0.460   0.941 -0.4284  0.1723  0.1189
  707TMC3    C810461   3.305   0.345   1.280 -0.1006 -0.7033 -0.5694
  707TMC3    O110462   2.989   0.476   0.819 -0.2885 -0.0232  0.2548
  707TMC3    O210463   3.245   0.437   1.337 -0.5058  0.2997 -0.4610
  708MPD2     C10464   0.819   4.663  13.878  0.1231 -0.0097 -0.5510
  708MPD2    C110465   0.746   4.548  13.900 -0.6416  0.1943  0.2110
  708MPD2    C210466   0.817   4.438  13.950  0.5041 -0.1718  0.0870
  708MPD2    C310467   0.954   4.435  13.963 -0.1719 -0.5377  0.1325
  708MPD2    C410468   1.026   4.547  13.936 -0.0257 -0.2316  0.5024
  708MPD2    C510469   0.955   4.657  13.885 -0.9731 -0.3396  0.7366
  708MPD2     H10470   0.753   4.363  13.996 -1.1479 -1.0031 -3.5201
  708MPD2    H110471   1.133   4.550  13.954 -0.0636 -2.2911  1.0830
  708MPD2    H210472   0.778   0.026  13.825 -0.3839  1.4256  2.1802
  708MPD2    H310473   1.018   0.017  13.857  1.4955 -2.0254  1.2133
  708MPD2     N10474   1.025   4.319  14.023  0.5308  0.4010  0.4357
  708MPD2    H510475   1.127   4.317  14.027  0.4457  1.0084  2.6100
  708MPD2    N110476   0.605   4.553  13.897 -0.1203  0.0928 -0.0850
  708MPD2    H710477   0.553   4.640  13.894 -1.7477 -0.9394 -1.3419
  709TMC3    C110478   0.383   4.468  13.898 -0.5094 -0.0001  0.5404
  709TMC3    C210479   0.305   4.385  13.820  0.1370 -0.2931  1.0603
  709TMC3    C310480   0.203   4.309  13.882  0.4046  0.2627 -0.0450
  709TMC3    C410481   0.340   4.491  14.023 -0.0622  0.3890 -0.4102
  709TMC3    C510482   0.234   4.420  14.078  0.9781  0.4449  0.5485
  709TMC3    C610483   0.166   4.328  14.007 -0.1305  0.4715 -0.8378
  709TMC3     C10484   0.527   4.445  13.893 -0.1943 -0.4821 -0.4806
  709TMC3     O10485   0.562   4.332  13.857  0.0295 -0.4186  0.2140
  709TMC3     H10486   0.312   4.388  13.712  4.5670  1.5404  1.4312
  709TMC3    H110487   0.403   4.561  14.078  0.6769  0.0834 -0.8641
  709TMC3    H210488   0.071   4.283  14.037  0.2698  1.5682  2.0189
  709TMC3    C710489   0.267   4.375  14.215 -0.6599 -0.0711 -0.2197
  709TMC3    C810490   0.135   4.211  13.810 -0.1014 -1.1276 -0.8168
  709TMC3    O110491   0.347   4.453  14.270 -0.7015 -0.1590  0.3984
  709TMC3    O210492   0.028   4.165  13.852 -0.2240 -0.1767  0.2039
  710TMC3    C110493   1.323   0.680   0.775 -0.2753 -0.2671  0.5665
  710TMC3    C210494   1.415   0.756   0.714  0.1420  0.7044  0.6882
  710TMC3    C310495   1.544   0.709   0.699  0.7050 -1.0303  0.4895
  710TMC3    C410496   1.351   0.559   0.825  0.5011  0.6986  0.7804
  710TMC3    C510497   1.479   0.517   0.815  0.3608  0.1734 -0.0129
  710TMC3    C610498   1.575   0.582   0.738  0.1982 -0.0899  0.2705
  710TMC3     C10499   1.199   0.749   0.818  0.0907  0.0225  0.3382
  710TMC3     O10500   1.094   0.690   0.800 -0.5626  0.0047 -0.3633
  710TMC3     H10501   1.387   0.855   0.678  1.4201  1.1087  0.8130
  710TMC3    H110502   1.271   0.524   0.888  0.3025  1.6459  1.0538
  710TMC3    H210503   1.676   0.544   0.725 -0.8150 -2.2282 -1.3994
  710TMC3    C710504   1.519   0.395   0.887 -0.6859  0.1840  0.6212
  710TMC3    C810505   1.635   0.770   0.602  0.4083 -0.3148 -0.3503
  710TMC3    O110506   1.460   0.369   0.992 -0.0500  0.0640 -0.3522
  710TMC3    O210507   1.724   0.705   0.545 -0.2127  0.5933 -0.6080
  711TMC3    C110508   1.297   2.040  15.002 -0.3913  0.3093 -0.0729
  711TMC3    C210509   1.248   2.043  15.130 -0.1759 -0.7665 -0.6012
  711TMC3    C310510   1.339   2.079  15.232  0.2497 -0.4352  0.2200
  711TMC3    C410511   1.427   2.079  14.974  0.2880 -0.0955  0.2785
  711TMC3    C510512   1.506   2.129  15.072  0.5811 -0.0661  0.7459
  711TMC3    C610513   1.456   2.137  15.200  0.0383 -0.4697  0.3928
  711TMC3     C10514   1.223   1.952  14.913 -0.0918  0.1809  0.0566
  711TMC3     O10515   1.113   1.912  14.952  0.1710 -0.5835 -1.0403
  711TMC3     H10516   1.156   1.994  15.159  0.4514 -0.2996  2.1546
  711TMC3    H110517   1.463   2.094  14.872 -2.6667 -2.5050 -1.1309
  711TMC3    H210518   1.517   2.196  15.267  0.2365  0.6621 -0.7996
  711TMC3    C710519   1.628   2.054  15.085  0.2103 -0.5454 -0.0305
  711TMC3    C810520   1.343   1.995  15.351 -0.9515  0.0609  0.4349
  711TMC3    O110521   1.673   2.042  15.198 -0.6541 -0.2186  0.6100
  711TMC3    O210522   1.245   1.932  15.389  0.2537 -0.2844  0.0976
  712MPD2     C10523   2.833   2.851  13.758 -0.2827  0.4131  0.0578
  712MPD2    C110524   2.762   2.928  13.669 -0.2093  0.5174  0.0478
  712MPD2    C210525   2.805   3.052  13.635 -0.0222  0.1843  0.2400
  712MPD2    C310526   2.921   3.102  13.695  0.1718  0.4621  0.4472
  712MPD2    C410527   3.000   3.024  13.776 -0.4066 -0.2893  0.0429
  712MPD2    C510528   2.936   2.908  13.826  0.2343 -0.0932 -0.4583
  712MPD2     H10529   2.750   3.115  13.566 -1.0122 -0.7258  0.1945
  712MPD2    H110530   3.084   3.060  13.834 -0.1119 -0.9152  0.0013
  712MPD2    H210531   2.796   2.752  13.785  0.7152 -0.7513 -2.8463
  712MPD2    H310532   2.987   2.852  13.904 -1.3424 -0.6735  0.1480
  712MPD2     N10533   2.958   3.236  13.685  0.0002 -0.1906  0.4402
  712MPD2    H510534   3.046   3.260  13.729  0.4910 -2.9061  0.9325
  712MPD2    N110535   2.647   2.870  13.593  0.1170  0.3081  0.9838
  712MPD2    H710536   2.617   2.929  13.516  0.0688 -0.2135  0.6036
  713TMC3    C110537   2.954   3.462  13.614  0.3908 -0.2239 -0.7245
  713TMC3    C210538   3.089   3.458  13.612  0.1660 -0.4852 -0.4914
  713TMC3    C310539   3.152   3.585  13.593 -0.1055  0.6660  0.1929
  713TMC3    C410540   2.881   3.577  13.610  0.1115 -0.4729 -0.3936
  713TMC3    C510541   2.943   3.693  13.601 -0.7871 -0.5188 -0.0020
  713TMC3    C610542   3.080   3.699  13.591  0.3878 -0.2406  0.5432
  713TMC3     C10543   2.885   3.334  13.617  0.0104  0.0019 -0.3736
  713TMC3     O10544   2.766   3.339  13.587  0.3928  0.1704 -0.3538
  713TMC3     H10545   3.156   3.373  13.619  0.3053 -0.4507 -1.4121
  713TMC3    H110546   2.773   3.581  13.621 -0.0635 -0.5553 -2.0816
  713TMC3    H210547   3.123   3.796  13.569  0.1596  0.2336  2.1929
  713TMC3    C710548   2.884   3.807  13.523 -0.2086 -0.2208  0.1022
  713TMC3    C810549   3.295   3.609  13.592 -0.9269 -0.3958  0.6065
  713TMC3    O110550   2.963   3.880  13.471 -0.1282 -0.3714 -0.3604
  713TMC3    O210551   3.333   3.712  13.538  0.5393  0.2234  0.2510
  714MPD2     C10552   0.153   2.086   1.632 -0.0811  0.3163 -0.0648
  714MPD2    C110553   0.218   2.003   1.544  0.1842  0.2578 -0.3548
  714MPD2    C210554   0.180   2.012   1.410  0.2945 -0.0277  0.6376
  714MPD2    C310555   0.082   2.099   1.369 -0.5598 -0.5441 -0.1450
  714MPD2    C410556   0.017   2.175   1.457  0.2521 -0.0429  0.0370
  714MPD2    C510557   0.053   2.168   1.586 -0.1652 -0.0222  0.3904
  714MPD2     H10558   0.222   1.945   1.336  0.8611 -0.3225  1.2308
  714MPD2    H110559   4.665   2.244   1.421  2.3484  1.1364 -2.0237
  714MPD2    H210560   0.181   2.090   1.736 -0.0807 -0.9913 -0.0077
  714MPD2    H310561   0.001   2.234   1.654 -2.0647 -3.7557  2.5487
  714MPD2     N10562   0.041   2.123   1.236  0.5199  0.8447 -0.5364
  714MPD2    H510563   4.686   2.186   1.220 -1.1690 -1.0518  0.2534
  714MPD2    N110564   0.322   1.914   1.590 -0.0739 -0.4292 -1.0264
  714MPD2    H710565   0.348   1.927   1.687 -0.3168  0.7198 -1.1094
  715TMC3    C110566   0.515   1.806   1.551 -0.0649 -0.0845 -1.1951
  715TMC3    C210567   0.580   1.693   1.506  0.5509 -0.0729  0.6079
  715TMC3    C310568   0.706   1.664   1.539 -0.1945  0.2598 -0.0776
  715TMC3    C410569   0.572   1.880   1.653 -0.1925  0.4276 -0.2091
  715TMC3    C510570   0.703   1.859   1.676  0.2202  0.1949 -0.7005
  715TMC3    C610571   0.770   1.754   1.617  0.4851 -0.0145 -0.1556
  715TMC3     C10572   0.382   1.824   1.509  0.4437  0.1404  0.1203
  715TMC3     O10573   0.338   1.767   1.413  0.3794  1.0447  0.1313
  715TMC3     H10574   0.533   1.627   1.434  2.5503  1.7458 -2.3373
  715TMC3    H110575   0.524   1.972   1.687 -0.2507  0.8053 -1.3126
  715TMC3    H210576   0.878   1.756   1.630  0.2475  0.5116  1.7951
  715TMC3    C710577   0.779   1.967   1.727  0.2516 -0.4181 -0.0352
  715TMC3    C810578   0.764   1.531   1.511 -0.2091  0.9257  0.7290
  715TMC3    O110579   0.892   1.982   1.685  0.5412  0.1833 -0.0822
  715TMC3    O210580   0.708   1.468   1.423 -0.0203  0.5861 -0.3221
  716MPD2     C10581   1.342   4.408  10.269 -0.3055 -0.2059 -0.6864
  716MPD2    C110582   1.282   4.330  10.167  0.5398 -0.1865 -0.4394
  716MPD2    C210583   1.290   4.192  10.180  0.1972  0.1032  0.0534
  716MPD2    C310584   1.350   4.124  10.283  0.6511 -0.4262  0.1026
  716MPD2    C410585   1.396   4.200  10.391  0.0356 -0.2137  0.2288
  716MPD2    C510586   1.392   4.340  10.383 -0.1419 -0.1371 -0.2457
  716MPD2     H10587   1.267   4.131  10.093 -0.2713 -0.7781  0.7893
  716MPD2    H110588   1.447   4.166  10.481 -2.1027  0.3956  1.6789
  716MPD2    H210589   1.347   4.516  10.266 -0.0612 -0.2473 -1.5610
  716MPD2    H310590   1.434   4.394  10.467 -0.1756  1.5197 -1.3050
  716MPD2     N10591   1.348   3.977  10.281 -0.2765 -0.7257 -0.5322
  716MPD2    H510592   1.297   3.938  10.203 -1.4779  1.0588 -0.6263
  716MPD2    N110593   1.222   4.379  10.053 -0.4288 -0.3128  0.4592
  716MPD2    H710594   1.192   4.307   9.989  3.2704 -1.1976 -0.2575
  717TMC3    C110595   1.381   3.757  10.340  0.8636  0.1394 -0.0949
  717TMC3    C210596   1.395   3.730  10.207  0.2203 -0.3877 -0.7493
  717TMC3    C310597   1.355   3.611  10.154  0.1066  0.5016 -0.2743
  717TMC3    C410598   1.336   3.663  10.431  0.1525 -0.8461 -0.5109
  717TMC3    C510599   1.275   3.551  10.369  0.1648  0.4941 -0.0021
  717TMC3    C610600   1.277   3.528  10.232 -0.0031 -0.0385 -0.1049
  717TMC3     C10601   1.385   3.893  10.387 -0.2763  0.8230  0.5900
  717TMC3     O10602   1.375   3.920  10.507  0.2207  0.4774  0.0894
  717TMC3     H10603   1.438   3.803  10.140 -0.6510  1.8966  1.1549
  717TMC3    H110604   1.324   3.685  10.537 -1.7761 -1.1852 -0.6622
  717TMC3    H210605   1.246   3.439  10.179  2.5010 -1.2568  0.4896
  717TMC3    C710606   1.193   3.454  10.440 -0.1416 -0.1728  0.0394
  717TMC3    C810607   1.353   3.599  10.002  0.1463  0.1102  0.1236
  717TMC3    O110608   1.127   3.381  10.368  0.4860  0.9231 -0.0322
  717TMC3    O210609   1.260   3.533   9.959  0.0612  0.2874 -0.6824
  718MPD2     C10610   4.477   2.889  13.045  0.2030 -0.2352 -0.9470
  718MPD2    C110611   4.352   2.877  12.976 -0.9045  0.4205 -0.5216
  718MPD2    C210612   4.238   2.847  13.050 -0.3011  0.3410 -0.8396
  718MPD2    C310613   4.248   2.845  13.189 -0.1464 -0.3365  0.5648
  718MPD2    C410614   4.364   2.858  13.258 -0.2090 -0.1540 -0.1537
  718MPD2    C510615   4.474   2.895  13.188  0.5423 -0.4050 -0.3853
  718MPD2     H10616   4.139   2.844  13.004 -1.9044 -0.5515  2.6933
  718MPD2    H110617   4.372   2.855  13.366 -0.0700  0.4816 -0.1450
  718MPD2    H210618   4.568   2.912  12.990 -1.4919  2.7537 -2.5155
  718MPD2    H310619   4.565   2.916  13.243  0.9060 -0.1102 -1.0973
  718MPD2     N10620   4.126   2.833  13.260  1.0311 -0.1607 -0.4565
  718MPD2    H510621   4.044   2.831  13.202  0.3923 -0.6778  0.4655
  718MPD2    N110622   4.342   2.883  12.834  1.2913  0.2460  0.3714
  718MPD2    H710623   4.251   2.888  12.791  1.9361  1.3045 -0.8745
  719TMC3    C110624   4.409   2.954  12.618 -0.2069 -0.0293 -0.0639
  719TMC3    C210625   4.275   2.933  12.592  0.2574  0.6533 -0.6729
  719TMC3    C310626   4.198   3.040  12.557  0.0091 -0.1162  0.2238
  719TMC3    C410627   4.466   3.070  12.574  0.6402  0.0027  0.3945
  719TMC3    C510628   4.389   3.161  12.510  0.6125  0.5887  0.1244
  719TMC3    C610629   4.255   3.153  12.510  0.5170  0.1346  0.8593
  719TMC3     C10630   4.452   2.897  12.750 -0.0006 -0.1983  0.3088
  719TMC3     O10631   4.574   2.886  12.767  0.0321  0.4922  0.0244
  719TMC3     H10632   4.232   2.837  12.619  0.6670 -0.5586 -4.2900
  719TMC3    H110633   4.573   3.086  12.584  0.5414  2.2193 -2.0184
  719TMC3    H210634   4.202   3.246  12.493  0.7691  0.5491  2.3319
  719TMC3    C710635   4.466   3.242  12.410  0.3256  0.2086  0.3634
  719TMC3    C810636   4.102   3.066  12.666  0.0654 -0.4240  0.3894
  719TMC3    O110637   4.571   3.200  12.374 -0.1779 -0.0835  0.2627
  719TMC3    O210638   4.094   2.985  12.755 -0.3192  0.6915  0.6301
  720MPD2     C10639   2.817   0.091  13.829 -0.2147 -0.2457  0.0070
  720MPD2    C110640   2.876   0.212  13.815 -0.4435 -0.5821 -0.3086
  720MPD2    C210641   2.987   0.236  13.889 -0.0074  0.3811  0.3727
  720MPD2    C310642   3.055   0.145  13.968  0.0313 -0.1314  0.0773
  720MPD2    C410643   2.998   0.017  13.979  0.2291 -0.3921 -0.4377
  720MPD2    C510644   2.880   4.720  13.913 -0.3982  0.2338 -0.3233
  720MPD2     H10645   3.022   0.339  13.888 -0.3071  0.5197  2.6386
  720MPD2    H110646   3.040   4.664  14.044 -0.5814 -0.0103  0.5263
  720MPD2    H210647   2.723   0.062  13.785 -0.4060 -1.7535  1.4020
  720MPD2    H310648   2.838   4.621  13.922 -1.0855  0.4601 -1.0458
  720MPD2     N10649   3.174   0.191  14.031 -0.2713  1.2768  0.5936
  720MPD2    H510650   3.196   0.286  14.004  0.1215  0.8781 -0.5101
  720MPD2    N110651   2.817   0.317  13.738  0.1781  0.4064 -0.3073
  720MPD2    H710652   2.865   0.406  13.742  2.1217 -0.5678 -1.8486
  721TMC3    C110653   3.362   0.194  14.183 -0.6417  0.2169  1.0365
  721TMC3    C210654   3.393   0.165  14.316 -0.1785 -0.1485  0.0191
  721TMC3    C310655   3.523   0.187  14.355  0.7295 -0.0304  0.7444
  721TMC3    C410656   3.448   0.259  14.097 -0.4080 -0.6576  0.5781
  721TMC3    C510657   3.570   0.285  14.143 -0.1952 -0.5763  0.0284
  721TMC3    C610658   3.616   0.252  14.272  0.2436  0.3022  0.5238
  721TMC3     C10659   3.247   0.124  14.128  0.2836 -0.4709  0.1601
  721TMC3     O10660   3.215   0.025  14.187 -0.0851 -0.5178  0.3305
  721TMC3     H10661   3.320   0.113  14.376 -1.6936  3.0581  0.8729
  721TMC3    H110662   3.405   0.279  14.000 -1.9802 -0.3856  1.3161
  721TMC3    H210663   3.717   0.274  14.304 -0.4002  1.5985  1.6438
  721TMC3    C710664   3.687   0.332  14.059  0.6249  0.0165  0.9669
  721TMC3    C810665   3.575   0.163  14.488  0.0844  0.3203 -0.2884
  721TMC3    O110666   3.795   0.300  14.103  0.0093 -0.0951 -0.1187
  721TMC3    O210667   3.690   0.198  14.511  0.5101 -0.0447 -0.3446
  722MPD2     C10668   1.822   3.465  13.621  0.2704 -0.1544  0.3434
  722MPD2    C110669   1.743   3.561  13.563  0.1191  0.0326 -0.4154
  722MPD2    C210670   1.607   3.542  13.564 -0.5435  0.3063  0.2862
  722MPD2    C310671   1.549   3.433  13.626 -0.1085 -0.6509  0.2533
  722MPD2    C410672   1.631   3.342  13.689  0.0499  0.2228 -0.2696
  722MPD2    C510673   1.761   3.364  13.690 -0.8236  0.1565  0.2516
  722MPD2     H10674   1.543   3.619  13.523 -2.4654 -1.7919 -0.6900
  722MPD2    H110675   1.593   3.255  13.741  0.0610 -1.5947 -3.3581
  722MPD2    H210676   1.930   3.457  13.621  0.4339  1.8875 -2.1882
  722MPD2    H310677   1.816   3.288  13.744 -0.8172 -0.2066 -0.2700
  722MPD2     N10678   1.405   3.431  13.635  0.2682 -0.3989  0.4428
  722MPD2    H510679   1.358   3.500  13.578  0.6714 -1.4305 -1.1606
  722MPD2    N110680   1.796   3.683  13.520  0.4936 -0.0820  0.1633
  722MPD2    H710681   1.731   3.749  13.479 -0.4531 -0.3201  1.2959
  723TMC3    C110682   1.202   3.311  13.635 -0.4380 -0.2622 -0.1802
  723TMC3    C210683   1.151   3.190  13.648  0.3755  0.7087  0.3700
  723TMC3    C310684   1.065   3.138  13.555  0.2819 -0.4507  1.5300
  723TMC3    C410685   1.159   3.387  13.533  0.0863 -0.0907 -0.0000
  723TMC3    C510686   1.074   3.336  13.442 -1.7743  0.8310 -0.2897
  723TMC3    C610687   1.023   3.202  13.441  0.3093  0.6370 -0.3509
  723TMC3     C10688   1.334   3.327  13.685 -0.3624  0.2944  0.1675
  723TMC3     O10689   1.373   3.229  13.749  0.1719 -0.4735 -0.6369
  723TMC3     H10690   1.162   3.129  13.737  0.6217  2.2004  1.3683
  723TMC3    H110691   1.196   3.489  13.531  1.8117 -0.7167  0.0361
  723TMC3    H210692   0.952   3.178  13.363  2.1542  0.3380 -1.9361
  723TMC3    C710693   1.013   3.413  13.338  0.9541  0.3444  0.0791
  723TMC3    C810694   1.043   2.994  13.558 -0.1911  0.7557  0.1303
  723TMC3    O110695   0.997   3.363  13.231  0.7800  0.1104 -0.4076
  723TMC3    O210696   0.984   2.948  13.657 -0.3419 -0.1621  0.3276
  724TMC3    C110697   3.454   2.814   9.794  0.8322  0.4563  0.3338
  724TMC3    C210698   3.380   2.742   9.886  0.6592  0.4890 -0.5371
  724TMC3    C310699   3.427   2.625   9.936 -0.0612 -0.4356 -0.1144
  724TMC3    C410700   3.569   2.756   9.745 -0.0313 -0.4116 -0.5299
  724TMC3    C510701   3.613   2.638   9.796 -0.0819  0.8452  0.3148
  724TMC3    C610702   3.544   2.569   9.891  0.0023  0.2864  0.4337
  724TMC3     C10703   3.413   2.954   9.757  0.3754 -0.2700 -0.0636
  724TMC3     O10704   3.337   3.003   9.838  0.1861  0.3142  0.4051
  724TMC3     H10705   3.308   2.795   9.947 -0.5974  1.3802 -2.7719
  724TMC3    H110706   3.637   2.827   9.699 -1.3036  1.9953  1.2859
  724TMC3    H210707   3.564   2.464   9.908  3.4372  0.5679 -1.9346
  724TMC3    C710708   3.736   2.574   9.749  0.7539 -0.0384 -0.0296
  724TMC3    C810709   3.383   2.594  10.069  0.4619 -0.3725  0.2416
  724TMC3    O110710   3.783   2.479   9.820 -0.1295 -0.4458  0.1757
  724TMC3    O210711   3.272   2.638  10.102  0.0883 -0.2720 -0.1152
  725TMC3    C110712   3.974   0.636  13.256  0.2373  0.9491 -0.2533
  725TMC3    C210713   3.852   0.687  13.243  0.6762  0.4726 -0.2149
  725TMC3    C310714   3.780   0.646  13.134 -0.3569  0.2827  0.7271
  725TMC3    C410715   4.015   0.531  13.176  0.2403  0.5664 -0.2927
  725TMC3    C510716   3.922   0.477  13.081 -0.0882  0.1079  0.0192
  725TMC3    C610717   3.804   0.532  13.055 -0.2257  0.3995  0.6978
  725TMC3     C10718   4.070   0.723  13.317  0.1681  0.1614 -0.1077
  725TMC3     O10719   4.179   0.735  13.263 -0.5617  0.0823 -0.0057
  725TMC3     H10720   3.828   0.784  13.284  0.9825  0.8726 -0.9645
  725TMC3    H110721   4.118   0.497  13.182 -0.2829 -0.8387  1.0199
  725TMC3    H210722   3.735   0.496  12.980  0.5165  0.8286 -0.1991
  725TMC3    C710723   3.971   0.372  12.986  0.6846 -0.4367  0.7983
  725TMC3    C810724   3.688   0.746  13.080  0.0469 -0.2454 -0.4749
  725TMC3    O110725   3.903   0.360  12.884 -0.0627 -0.2512 -0.3164
  725TMC3    O210726   3.648   0.832  13.163 -0.6521 -0.0469 -0.7478
  726MPD2     C10727   1.845   1.879  10.771  0.7110 -0.3803  0.0847
  726MPD2    C110728   1.796   2.004  10.791  1.0777 -0.1766 -0.4993
  726MPD2    C210729   1.673   2.031  10.854 -0.2903  0.5712 -0.2172
  726MPD2    C310730   1.588   1.917  10.886 -0.5884  0.1416 -0.1642
  726MPD2    C410731   1.640   1.798  10.861 -0.5547  0.0729  0.2355
  726MPD2    C510732   1.766   1.776  10.813  0.4551 -0.2234  0.0780
  726MPD2     H10733   1.647   2.135  10.868 -2.6019  0.2131 -1.6817
  726MPD2    H110734   1.580   1.713  10.891 -1.9196  1.2906  0.9555
  726MPD2    H210735   1.944   1.861  10.730  0.5234 -0.8176 -0.1820
  726MPD2    H310736   1.800   1.676  10.791  0.0717 -0.5456  0.9645
  726MPD2     N10737   1.467   1.931  10.955  0.3461  0.1719  0.7778
  726MPD2    H510738   1.415   1.844  10.959  0.1646  0.2411 -0.2308
  726MPD2    N110739   1.864   2.121  10.752  0.5038  0.4682  0.4325
  726MPD2    H710740   1.805   2.203  10.759 -0.4978 -0.1917 -0.2708
  727TMC3    C110741   1.996   2.264  10.643  0.2727  0.4325 -0.1000
  727TMC3    C210742   2.114   2.327  10.656 -0.1070  1.0312 -0.5995
  727TMC3    C310743   2.132   2.447  10.593  0.4169  0.4427 -0.2770
  727TMC3    C410744   1.909   2.295  10.550 -0.0908 -0.3103  0.5762
  727TMC3    C510745   1.936   2.408  10.473  0.6399 -0.3161 -0.5364
  727TMC3    C610746   2.048   2.483  10.497  0.2111 -0.1160  0.6675
  727TMC3     C10747   1.992   2.133  10.703  0.1289 -0.3431  0.3585
  727TMC3     O10748   2.081   2.048  10.705 -0.1256 -0.1735  0.3579
  727TMC3     H10749   2.186   2.297  10.731 -0.8586  1.4169  0.2772
  727TMC3    H110750   1.821   2.234  10.536 -0.2455 -0.0290  0.3236
  727TMC3    H210751   2.069   2.577  10.449 -0.2985 -0.0257  0.6172
  727TMC3    C710752   1.834   2.446  10.383  0.1090  0.9459  0.2946
  727TMC3    C810753   2.235   2.526  10.643 -0.3959  0.2981  0.4331
  727TMC3    O110754   1.722   2.400  10.406  0.6665  0.3239 -0.1653
  727TMC3    O210755   2.315   2.472  10.717 -0.4097 -0.6135 -0.0185
  728TMC3    C110756   0.608   0.813  15.366 -0.9472  0.1295  0.0437
  728TMC3    C210757   0.736   0.848  15.336 -0.7857  0.7455 -0.0484
  728TMC3    C310758   0.759   0.872  15.200  0.1889  0.0088 -0.3913
  728TMC3    C410759   0.506   0.826  15.270 -1.0460  0.6646  1.3540
  728TMC3    C510760   0.530   0.864  15.141  0.0503  0.7068 -0.4040
  728TMC3    C610761   0.663   0.892  15.103  0.0979 -0.0841  0.2387
  728TMC3     C10762   0.591   0.762  15.501 -0.6530  0.6599 -0.4058
  728TMC3     O10763   0.662   0.808  15.590  0.1464  0.4361 -0.0696
  728TMC3     H10764   0.816   0.824  15.406 -0.9459 -0.5647 -0.3116
  728TMC3    H110765   0.403   0.791  15.276 -1.3422  0.8773 -2.4491
  728TMC3    H210766   0.693   0.904  15.000  1.1033  0.4501  0.5881
  728TMC3    C710767   0.426   0.879  15.036 -0.1249 -0.0417 -0.1694
  728TMC3    C810768   0.897   0.880  15.152 -0.0962 -0.4267  0.0923
  728TMC3    O110769   0.315   0.830  15.062  0.3883  0.2012 -0.2775
  728TMC3    O210770   0.912   0.881  15.031  0.2027  0.8519 -0.2464
  729MPD2     C10771   3.178   1.429   0.015 -0.2037  0.5683  0.4884
  729MPD2    C110772   3.275   1.524   0.012 -0.2640  0.5483 -0.6056
  729MPD2    C210773   3.300   1.608   0.117 -0.1884 -0.2771  0.2798
  729MPD2    C310774   3.217   1.603   0.229 -0.5767 -0.9889  0.5396
  729MPD2    C410775   3.111   1.509   0.229 -0.1403 -0.4724  0.3341
  729MPD2    C510776   3.104   1.417   0.131  0.3597  0.1817 -0.4035
  729MPD2     H10777   3.390   1.666   0.130 -0.7479  1.0035 -1.5715
  729MPD2    H110778   3.038   1.504   0.308 -0.8824 -3.1859 -0.5268
  729MPD2    H210779   3.154   1.361  17.627 -0.4243  2.6287 -1.1616
  729MPD2    H310780   3.021   1.348   0.133 -0.1995  0.8770  0.1182
  729MPD2     N10781   3.216   1.696   0.331 -0.2064  0.1230 -0.2171
  729MPD2    H510782   3.150   1.674   0.405  2.0610  2.7518  2.5886
  729MPD2    N110783   3.339   1.550  17.583  0.5273  0.5875  0.6026
  729MPD2    H710784   3.310   1.504  17.498  1.4954 -0.4962  0.8417
  730TMC3    C110785   3.230   1.903   0.433 -0.2416 -0.0460  0.5372
  730TMC3    C210786   3.314   2.011   0.430 -0.0552  0.5758 -0.2101
  730TMC3    C310787   3.270   2.137   0.440 -0.5430  0.2884  0.3546
  730TMC3    C410788   3.099   1.921   0.437 -0.3114  0.2149  0.2753
  730TMC3    C510789   3.049   2.053   0.449  0.2093 -0.3533  0.0617
  730TMC3    C610790   3.133   2.161   0.461 -0.5150 -0.6076 -0.1397
  730TMC3     C10791   3.280   1.811   0.333  0.0210  0.6021 -0.8145
  730TMC3     O10792   3.371   1.855   0.260  0.6367  0.2980  0.3362
  730TMC3     H10793   3.420   1.995   0.441  0.0419  1.3766  0.0112
  730TMC3    H110794   3.035   1.834   0.430  1.6532 -1.1367 -1.0878
  730TMC3    H210795   3.105   2.264   0.483  0.4510 -0.5160  0.6288
  730TMC3    C710796   2.929   2.081   0.371 -0.2361  0.5262  0.5486
  730TMC3    C810797   3.334   2.246   0.370 -0.2543  0.1735  0.6124
  730TMC3    O110798   2.900   2.008   0.279  0.0459  0.2395 -0.0688
  730TMC3    O210799   3.295   2.358   0.389  0.4994 -0.3514 -0.6308
  731MPD2     C10800   3.510   0.575  12.364 -0.2568 -0.2796 -0.2724
  731MPD2    C110801   3.384   0.568  12.305  0.1991  0.0076 -0.0776
  731MPD2    C210802   3.286   0.495  12.369 -0.6065  0.2450  0.4227
  731MPD2    C310803   3.315   0.435  12.494  0.3240 -0.2241 -1.2731
  731MPD2    C410804   3.434   0.449  12.558  0.0934  0.3181  0.6891
  731MPD2    C510805   3.527   0.527  12.492 -0.8094 -0.4770 -0.1844
  731MPD2     H10806   3.194   0.464  12.321  0.6068 -0.4643 -1.4515
  731MPD2    H110807   3.461   0.408  12.655 -0.0376 -1.8921 -0.2310
  731MPD2    H210808   3.594   0.629  12.323  0.0155  0.4268  1.1878
  731MPD2    H310809   3.624   0.542  12.537 -0.8031 -1.0300 -0.0227
  731MPD2     N10810   3.218   0.343  12.542  0.1025 -0.4428 -0.2215
  731MPD2    H510811   3.148   0.328  12.470  0.5911 -3.7171 -0.0367
  731MPD2    N110812   3.368   0.613  12.173  0.6374  0.6896  0.3131
  731MPD2    H710813   3.449   0.646  12.122  0.6435 -1.1408 -0.8410
  732TMC3    C110814   3.283   0.597  11.954 -0.5645 -0.2185 -0.7227
  732TMC3    C210815   3.159   0.596  11.899 -0.0595 -0.3262  0.8827
  732TMC3    C310816   3.130   0.508  11.801 -0.8920 -0.3479  0.2282
  732TMC3    C410817   3.382   0.509  11.916  0.8307 -0.7125 -0.2943
  732TMC3    C510818   3.342   0.420  11.819 -0.2652 -0.0297 -0.1834
  732TMC3    C610819   3.220   0.420  11.759  0.6691 -0.2043  0.0472
  732TMC3     C10820   3.258   0.600  12.095 -0.4721  0.1118  0.4430
  732TMC3     O10821   3.142   0.570  12.123  0.0458 -0.0604 -0.1031
  732TMC3     H10822   3.082   0.664  11.935 -1.3576  1.0420 -4.5511
  732TMC3    H110823   3.479   0.514  11.964  0.4566 -1.4643  0.5287
  732TMC3    H210824   3.199   0.345  11.684 -0.3266 -2.1572  2.2553
  732TMC3    C710825   3.434   0.333  11.761 -0.6386 -1.0696 -0.1211
  732TMC3    C810826   3.014   0.535  11.722  0.3321 -0.3604  0.3643
  732TMC3    O110827   3.413   0.286  11.650 -0.0147  0.1709  1.0618
  732TMC3    O210828   3.016   0.518  11.603 -0.4819 -0.7618  0.4239
  733TMC3    C110829   3.749   2.952  13.405  0.2242  0.1155  0.3664
  733TMC3    C210830   3.866   2.876  13.430  0.0625  0.3701 -0.7440
  733TMC3    C310831   3.984   2.943  13.408 -0.0259  0.1078  0.3899
  733TMC3    C410832   3.761   3.075  13.360 -0.4943 -0.1648 -0.2124
  733TMC3    C510833   3.887   3.137  13.347  0.6491  0.8803 -0.1160
  733TMC3    C610834   3.998   3.065  13.363  0.2854 -0.5234 -0.7855
  733TMC3     C10835   3.625   2.879  13.391 -0.4832 -0.2334  0.2604
  733TMC3     O10836   3.606   2.782  13.465 -0.5667 -0.9803  0.6242
  733TMC3     H10837   3.858   2.768  13.443  0.3740  0.4808  0.3563
  733TMC3    H110838   3.673   3.131  13.331 -1.4182 -1.4390  0.1450
  733TMC3    H210839   4.093   3.116  13.358 -0.2416  0.5613  0.3836
  733TMC3    C710840   3.880   3.248  13.253 -0.3452 -0.0988 -0.1167
  733TMC3    C810841   4.103   2.861  13.393  0.4538  0.5239  0.1964
  733TMC3    O110842   3.779   3.317  13.255 -0.2456  0.2209 -0.2943
  733TMC3    O210843   4.184   2.859  13.485  0.2955  0.3522  0.3472
  734MPD2     C10844   0.890   0.233  12.287  0.3546  0.5248  0.2988
  734MPD2    C110845   0.947   0.141  12.200 -0.1315  0.4135  0.3487
  734MPD2    C210846   0.946   0.167  12.063  0.6267  0.2992  0.0315
  734MPD2    C310847   0.905   0.293  12.015 -0.3555 -0.3618 -0.6375
  734MPD2    C410848   0.838   0.383  12.101 -0.5359  0.3932 -0.1105
  734MPD2    C510849   0.850   0.360  12.237  0.3051 -0.2748 -0.6617
  734MPD2     H10850   0.990   0.096  11.994 -0.7729  0.3710 -0.9168
  734MPD2    H110851   0.797   0.479  12.070 -2.2543  0.1909  1.5527
  734MPD2    H210852   0.893   0.215  12.394 -0.8113  0.1426  0.2676
  734MPD2    H310853   0.822   0.439  12.305 -0.3801 -0.7148 -0.4368
  734MPD2     N10854   0.936   0.321  11.876  0.1399 -0.4116  0.1029
  734MPD2    H510855   0.991   0.255  11.822  0.4361 -0.3789  0.3606
  734MPD2    N110856   1.013   0.027  12.254  0.1706  0.0093  0.4111
  734MPD2    H710857   1.006   0.016  12.355 -2.6907 -2.2840 -0.0551
  735TMC3    C110858   1.169   4.570  12.265  0.0078  0.4720  0.0947
  735TMC3    C210859   1.220   4.462  12.200  0.3542  0.0053  0.3973
  735TMC3    C310860   1.352   4.440  12.203 -0.2271  0.1704 -0.2295
  735TMC3    C410861   1.252   4.639  12.356 -0.7772  0.3475  0.0834
  735TMC3    C510862   1.381   4.603  12.369 -0.4465  0.3187 -0.5583
  735TMC3    C610863   1.435   4.498  12.295  0.4030 -0.3561  0.2335
  735TMC3     C10864   1.082   4.653  12.188  0.8558  0.1088  0.1280
  735TMC3     O10865   1.098   4.631  12.070 -0.7256  0.5335 -0.1051
  735TMC3     H10866   1.156   4.400  12.139 -0.6442 -0.7401  2.2133
  735TMC3    H110867   1.219   0.012  12.395  0.0034  1.8053 -2.7828
  735TMC3    H210868   1.542   4.481  12.289  0.7272  1.3579  1.2196
  735TMC3    C710869   1.474   4.695  12.427 -0.4039 -0.3481 -0.0995
  735TMC3    C810870   1.412   4.438  12.070  0.2891 -0.1914  0.0355
  735TMC3    O110871   1.477   0.087  12.382  0.8874  0.3004  0.6945
  735TMC3    O210872   1.529   4.395  12.056 -0.0561 -0.1274  0.4777
  736MPD2     C10873   1.754   4.594  12.664  0.9513 -0.5323  0.0548
  736MPD2    C110874   1.689   4.658  12.555  0.3186 -0.8942 -0.0015
  736MPD2    C210875   1.761   0.016  12.469  1.0488  0.7107  0.4278
  736MPD2    C310876   1.893   0.025  12.491  0.1690  0.3321 -0.2530
  736MPD2    C410877   1.960   4.688  12.590  0.2507  0.1637  0.1385
  736MPD2    C510878   1.892   4.620  12.690 -0.2638 -0.0084  0.2958
  736MPD2     H10879   1.720   0.067  12.382 -1.3408 -0.1288  1.0783
  736MPD2    H110880   2.067   4.696  12.605  0.2405 -2.1690  1.4569
  736MPD2    H210881   1.700   4.526  12.729 -3.4037  3.7028  0.8475
  736MPD2    H310882   1.937   4.577  12.779  1.8357  1.6020 -0.0093
  736MPD2     N10883   1.957   0.084  12.376  0.8572 -0.3609 -0.8154
  736MPD2    H510884   1.899   0.137  12.312 -2.0204 -2.9018 -0.3087
  736MPD2    N110885   1.556   4.619  12.517  0.5117  0.2990 -0.0908
  736MPD2    H710886   1.524   4.531  12.556 -2.8790  2.4183  1.9059
  737TMC3    C110887   2.102   0.065  12.189 -0.4908  0.2365  0.3102
  737TMC3    C210888   2.050   0.188  12.146  0.0217  0.3956  0.4106
  737TMC3    C310889   2.082   0.224  12.015  0.7158 -0.3822  0.7104
  737TMC3    C410890   2.181   4.706  12.114  0.7834  0.0667  0.5502
  737TMC3    C510891   2.212   0.029  11.988  0.2863 -0.1180 -0.0757
  737TMC3    C610892   2.149   0.139  11.930 -0.5104  0.0213  0.0380
  737TMC3     C10893   2.079   0.037  12.332 -0.0831 -0.2009  0.0469
  737TMC3     O10894   2.160   4.685  12.387 -0.3109  0.1350 -0.2355
  737TMC3     H10895   1.990   0.258  12.203  0.5237  0.2368  1.1487
  737TMC3    H110896   2.213   4.608  12.147  0.3679  0.0675  0.9457
  737TMC3    H210897   2.177   0.175  11.832  0.2258 -2.6713 -0.7362
  737TMC3    C710898   2.305   4.675  11.915  0.4892  0.0678  1.1687
  737TMC3    C810899   2.026   0.347  11.959 -0.2323  0.6432  0.0315
  737TMC3    O110900   2.340   4.571  11.971  0.3579 -0.2938 -0.3945
  737TMC3    O210901   1.938   0.394  12.028  0.2902 -0.5909  0.2508
  738MPD2     C10902   2.358   3.635  15.239 -0.2680  0.6583 -0.3628
  738MPD2    C110903   2.341   3.722  15.130 -0.0065  0.0064  0.1382
  738MPD2    C210904   2.451   3.778  15.067 -0.1235 -0.6461  0.5380
  738MPD2    C310905   2.578   3.752  15.119  0.3276 -0.5600 -0.3894
  738MPD2    C410906   2.591   3.657  15.219  1.5897  0.1005 -0.5862
  738MPD2    C510907   2.482   3.605  15.285 -0.3154  0.4770  0.1573
  738MPD2     H10908   2.430   3.831  14.974 -1.1085 -1.6556  0.1791
  738MPD2    H110909   2.689   3.620  15.247  1.7371  0.7727 -0.2022
  738MPD2    H210910   2.274   3.589  15.290 -0.5300  2.3191  0.6901
  738MPD2    H310911   2.490   3.533  15.365  0.0018 -0.3686 -0.6447
  738MPD2     N10912   2.692   3.802  15.054 -0.4125 -0.6283  0.3970
  738MPD2    H510913   2.779   3.762  15.087  1.7653  1.8682 -2.3167
  738MPD2    N110914   2.221   3.746  15.064 -0.3111  0.0256 -0.3521
  738MPD2    H710915   2.206   3.793  14.976 -0.9298  0.6479  0.0879
  739TMC3    C110916   2.828   3.931  14.893 -0.8864 -0.6660 -0.7446
  739TMC3    C210917   2.819   3.976  14.762  0.5956 -0.1676  0.0957
  739TMC3    C310918   2.937   3.998  14.700  0.3149  0.0907 -0.7368
  739TMC3    C410919   2.945   3.910  14.961 -0.1363  0.3430  0.0924
  739TMC3    C510920   3.057   3.930  14.886 -0.1495  0.7195 -0.4380
  739TMC3    C610921   3.057   3.985  14.763 -0.3272  0.1523  0.0143
  739TMC3     C10922   2.698   3.899  14.951  0.4309  0.8320  0.3790
  739TMC3     O10923   2.601   3.960  14.909  0.1960 -0.2676  0.2853
  739TMC3     H10924   2.722   3.994  14.717  0.3055  2.0780  1.6256
  739TMC3    H110925   2.958   3.858  15.055 -0.4096  1.1843  0.5902
  739TMC3    H210926   3.147   3.985  14.702  0.1119 -0.2638  0.6490
  739TMC3    C710927   3.182   3.918  14.955 -0.9846  0.5024 -0.1847
  739TMC3    C810928   2.931   4.051  14.566 -0.1503  0.2447  0.4421
  739TMC3    O110929   3.191   3.854  15.055  0.2180  0.3419  0.0961
  739TMC3    O210930   2.847   3.996  14.499 -0.3690  0.3218  0.1083
  740TMC3    C110931   2.615   0.793  14.668  0.0199 -0.2381  0.4300
  740TMC3    C210932   2.639   0.789  14.804 -0.2381 -0.0453 -0.5417
  740TMC3    C310933   2.764   0.829  14.850  0.5821 -0.4040  0.2517
  740TMC3    C410934   2.725   0.792  14.587 -0.2633  0.5984 -0.2621
  740TMC3    C510935   2.848   0.824  14.634  0.5123 -0.3832 -0.0869
  740TMC3    C610936   2.875   0.848  14.765  0.5149  0.9682  0.6700
  740TMC3     C10937   2.525   0.686  14.628 -0.0846 -0.3771 -0.1121
  740TMC3     O10938   2.539   0.636  14.514  0.2014  0.1397  0.2479
  740TMC3     H10939   2.564   0.780  14.881 -0.1534 -1.8984 -0.6836
  740TMC3    H110940   2.724   0.789  14.478 -1.4804  0.9914 -0.2646
  740TMC3    H210941   2.971   0.882  14.802  1.5477 -1.2162 -0.0361
  740TMC3    C710942   2.942   0.729  14.582  0.6276  0.2707 -0.7642
  740TMC3    C810943   2.794   0.793  14.984 -0.2590  0.0501  0.1862
  740TMC3    O110944   3.021   0.684  14.663 -0.1717 -0.6380  0.4048
  740TMC3    O210945   2.702   0.738  15.045  0.1763 -0.8985 -0.1756
  741TMC3    C110946   2.703   4.721  14.205 -0.2129 -0.5228 -0.5453
  741TMC3    C210947   2.590   4.655  14.153 -0.2893 -0.2065  0.0653
  741TMC3    C310948   2.569   4.524  14.205 -0.7589  0.3186  0.4105
  741TMC3    C410949   2.785   4.668  14.307  0.2718  0.0759  0.1934
  741TMC3    C510950   2.766   4.537  14.347 -0.7021 -0.7535 -0.3108
  741TMC3    C610951   2.657   4.467  14.298  0.6923 -0.2832 -0.2639
  741TMC3     C10952   2.708   0.143  14.206 -0.2342 -0.4395  0.8716
  741TMC3     O10953   2.779   0.199  14.287 -0.2069 -0.7615  0.0271
  741TMC3     H10954   2.514   4.699  14.090 -0.5844 -0.1733  0.4440
  741TMC3    H110955   2.859   0.007  14.355  0.9708 -1.6552  1.3378
  741TMC3    H210956   2.644   4.368  14.341 -0.1000 -1.0974 -2.4060
  741TMC3    C710957   2.829   4.500  14.474 -0.4050 -0.2313 -0.5620
  741TMC3    C810958   2.448   4.453  14.159  0.3005 -0.3029 -0.1850
  741TMC3    O110959   2.945   4.537  14.483 -0.3492  0.1208 -0.4742
  741TMC3    O210960   2.381   4.515  14.081 -0.0717  0.0769  0.2209
  742TMC3    C110961   2.007   3.033  15.305  0.4691 -0.7940 -0.1782
  742TMC3    C210962   1.967   3.038  15.175 -0.4090  0.3859  0.4184
  742TMC3    C310963   2.058   3.011  15.082 -0.5779  0.5235  0.5146
  742TMC3    C410964   2.122   2.962  15.345  0.3532 -0.3096 -0.4265
  742TMC3    C510965   2.202   2.918  15.241  0.0206  1.0078 -0.3933
  742TMC3    C610966   2.177   2.949  15.106  0.6452 -0.5795 -0.8706
  742TMC3     C10967   1.912   3.080  15.405 -0.6591  0.1089  1.0281
  742TMC3     O10968   1.823   3.152  15.360 -0.3916  0.0323  0.5260
  742TMC3     H10969   1.889   3.109  15.151 -1.0627 -0.4669 -0.0010
  742TMC3    H110970   2.152   2.951  15.448 -2.0147  0.9996  0.3962
  742TMC3    H210971   2.235   2.903  15.026 -0.0689  0.1312 -1.8006
  742TMC3    C710972   2.314   2.829  15.262  0.0524  0.0905  0.1445
  742TMC3    C810973   2.028   3.045  14.942  0.4150 -0.3792 -0.4735
  742TMC3    O110974   2.367   2.794  15.157 -0.1057 -0.2591  0.1929
  742TMC3    O210975   2.117   3.024  14.861  0.2067 -0.1190 -0.2779
  743MPD2     C10976   4.415   0.453   1.672  0.2610 -0.6791 -0.0238
  743MPD2    C110977   4.455   0.324   1.632 -0.0269 -0.2371 -0.1973
  743MPD2    C210978   4.582   0.294   1.642  0.2947 -0.3734  0.4896
  743MPD2    C310979   4.670   0.374   1.715  0.2363  0.1231 -0.6200
  743MPD2    C410980   4.635   0.500   1.751  0.1719  0.3020  0.1552
  743MPD2    C510981   4.503   0.536   1.734 -0.1642  0.9181  0.9052
  743MPD2     H10982   4.614   0.200   1.598 -1.5280  0.0024 -1.6434
  743MPD2    H110983   4.698   0.570   1.805  0.0545  1.5249 -1.2793
  743MPD2    H210984   4.313   0.487   1.660  0.2462 -0.5766  0.4100
  743MPD2    H310985   4.463   0.630   1.771 -0.1758  1.3840 -0.2787
  743MPD2     N10986   0.083   0.332   1.727 -0.7579  0.1178 -0.0458
  743MPD2    H510987   0.103   0.237   1.698  0.7119  0.1654  0.7879
  743MPD2    N110988   4.357   0.248   1.563 -0.1393  0.1713  0.4181
  743MPD2    H710989   4.273   0.296   1.531 -0.8369 -1.0009  0.4936
  744TMC3    C110990   4.272   0.086   1.417 -0.0953 -0.2757  0.9122
  744TMC3    C210991   4.145   0.133   1.447 -0.1037  0.1290 -0.2156
  744TMC3    C310992   4.044   0.082   1.366  0.7084  0.1282 -0.3112
  744TMC3    C410993   4.300   0.003   1.315  0.5907  0.2037 -0.4351
  744TMC3    C510994   4.200   4.688   1.233  0.0175 -0.5042 -0.0157
  744TMC3    C610995   4.068   4.710   1.269 -0.3678  0.1013  0.2947
  744TMC3     C10996   4.382   0.134   1.492  1.1012 -0.0038  0.3109
  744TMC3     O10997   4.488   0.073   1.480 -0.7039  0.1323 -0.4537
  744TMC3     H10998   4.126   0.213   1.518  1.2388  1.3545 -1.2224
  744TMC3    H110999   4.402   4.708   1.281 -0.3354 -0.3049 -2.9473
  744TMC3    H211000   3.986   4.685   1.202  2.4593 -0.9466 -2.7617
  744TMC3    C711001   4.247   4.567   1.166  0.0909  0.3330  0.7629
  744TMC3    C811002   3.903   0.115   1.377  0.3283 -0.9034  0.1781
  744TMC3    O111003   4.335   4.493   1.212  0.1491  0.3282 -0.1677
  744TMC3    O211004   3.823   0.038   1.323 -0.1441 -0.6065 -0.1035
  745TMC3    C111005   2.464   2.738  13.533  0.1478 -0.0295  0.0688
  745TMC3    C211006   2.353   2.705  13.608 -0.0453  0.1761 -0.1568
  745TMC3    C311007   2.235   2.770  13.587 -0.0598  0.9156 -0.7683
  745TMC3    C411008   2.454   2.831  13.430 -0.0109 -1.2649 -0.2477
  745TMC3    C511009   2.337   2.900  13.419  0.1346  0.0697 -0.0644
  745TMC3    C611010   2.228   2.872  13.489  0.2847  0.0551 -0.1051
  745TMC3     C11011   2.568   2.759  13.628  0.5370 -0.7162 -0.0100
  745TMC3     O11012   2.566   2.698  13.735  0.4943  0.4381 -0.0363
  745TMC3     H11013   2.349   2.635  13.691 -0.6875  0.6072  0.1726
  745TMC3    H111014   2.541   2.855  13.369 -0.9308 -0.2809 -1.1594
  745TMC3    H211015   2.148   2.945  13.486 -2.0281 -2.5014 -0.8830
  745TMC3    C711016   2.334   3.029  13.351 -0.6867  0.8085 -0.7749
  745TMC3    C811017   2.188   2.824  13.713  0.6609 -0.0655  0.3322
  745TMC3    O111018   2.256   3.116  13.387 -0.7894 -0.1281 -0.6203
  745TMC3    O211019   2.088   2.898  13.706  0.2673 -0.6452  0.2283
  746TMC3    C111020   0.618   0.059  11.179  0.7872  0.8303 -0.2460
  746TMC3    C211021   0.742   0.038  11.127 -0.1723  0.1315 -0.2071
  746TMC3    C311022   0.785   4.636  11.118  0.4635 -0.1810  0.3468
  746TMC3    C411023   0.543   4.672  11.220  0.8145 -0.1136 -0.6145
  746TMC3    C511024   0.592   4.545  11.203 -0.2606 -0.5030 -0.5800
  746TMC3    C611025   0.710   4.523  11.148  0.9581  0.1197 -0.0707
  746TMC3     C11026   0.548   0.180  11.176  0.8424  0.0156  0.5605
  746TMC3     O11027   0.442   0.181  11.235  0.0673 -0.5544  0.2745
  746TMC3     H11028   0.816   0.116  11.112  1.1554 -1.3145 -1.0448
  746TMC3    H111029   0.445   4.683  11.265 -1.1179 -3.5030 -4.0279
  746TMC3    H211030   0.748   4.424  11.130 -1.9480 -0.7743 -1.3214
  746TMC3    C711031   0.488   4.456  11.162 -0.0807 -0.1843  0.0019
  746TMC3    C811032   0.893   4.597  11.024  1.3051  0.0073 -0.5382
  746TMC3    O111033   0.386   4.512  11.126 -0.0920  0.5225 -0.7843
  746TMC3    O211034   0.963   4.489  11.031  0.6488  0.2216 -0.2942
  747TMC3    C111035   2.753   0.145  10.959  0.2611 -0.1571  0.2251
  747TMC3    C211036   2.728   0.047  11.049  0.7798  0.4345 -0.3282
  747TMC3    C311037   2.696   0.085  11.177 -0.2180 -0.7244 -0.3014
  747TMC3    C411038   2.749   0.278  10.992  0.2404 -0.4587  0.6545
  747TMC3    C511039   2.723   0.311  11.118  0.7505 -0.2787 -0.2750
  747TMC3    C611040   2.700   0.215  11.213  0.4843 -0.2651 -0.3518
  747TMC3     C11041   2.801   0.115  10.826  0.1014  0.0099 -0.3695
  747TMC3     O11042   2.821   0.204  10.743  0.5528  0.5039 -0.3054
  747TMC3     H11043   2.728   4.664  11.028  2.2288  0.1948  0.8368
  747TMC3    H111044   2.767   0.355  10.918 -0.8754 -1.5270 -0.7340
  747TMC3    H211045   2.676   0.244  11.315  1.9286  1.3525 -0.4694
  747TMC3    C711046   2.737   0.452  11.165  0.6660  0.7903 -0.2928
  747TMC3    C811047   2.671   4.711  11.284 -0.4509  0.0357 -0.4123
  747TMC3    O111048   2.672   0.477  11.264  0.8915  0.4714 -0.1793
  747TMC3    O211049   2.711   4.602  11.252  0.3090  0.5617  0.1163
  748MPD2     C11050   4.200   1.193   2.111  0.1868  0.0089  0.6661
  748MPD2    C111051   4.142   1.163   1.987 -0.4737 -0.2925  0.1156
  748MPD2    C211052   4.231   1.118   1.889 -0.4304 -0.7973  0.6295
  748MPD2    C311053   4.363   1.082   1.918 -0.1211  0.2321 -0.1460
  748MPD2    C411054   4.407   1.097   2.049  0.0569  0.1292  0.9704
  748MPD2    C511055   4.329   1.161   2.140  0.7972 -0.5479  0.5854
  748MPD2     H11056   4.182   1.086   1.798 -0.7850  0.1011  0.5001
  748MPD2    H111057   4.504   1.059   2.079  0.7901  0.1230 -1.4468
  748MPD2    H211058   4.132   1.211   2.193 -1.2564  0.1546 -0.5757
  748MPD2    H311059   4.370   1.164   2.240  3.1076  1.4751 -0.4215
  748MPD2     N11060   4.444   1.030   1.816 -0.2752 -0.1941 -0.0560
  748MPD2    H511061   4.409   1.031   1.721 -1.2694  2.5882  0.3430
  748MPD2    N111062   3.999   1.181   1.973  0.5818 -0.4204 -0.0421
  748MPD2    H711063   3.953   1.208   2.060  1.0865  2.7201 -0.7431
  749TMC3    C111064   4.639   0.977   1.683 -0.2791 -0.6896 -0.1003
  749TMC3    C211065   0.039   0.924   1.688  0.1713  0.0255  0.2114
  749TMC3    C311066   0.100   0.908   1.566  0.1719  0.2752 -0.3922
  749TMC3    C411067   4.578   1.022   1.567 -0.2933  0.8596  1.0048
  749TMC3    C511068   4.646   1.007   1.451 -0.3219 -0.2560 -0.5904
  749TMC3    C611069   0.050   0.959   1.453  1.1118 -0.2757 -0.5115
  749TMC3     C11070   4.579   1.011   1.817 -0.6279  0.2933  0.2284
  749TMC3     O11071   4.658   1.004   1.912  0.4408  0.3833  0.0304
  749TMC3     H11072   0.089   0.902   1.782  0.4441  1.5348  0.4235
  749TMC3    H111073   4.486   1.078   1.567 -0.7215  0.1408 -0.2472
  749TMC3    H211074   0.104   0.933   1.363 -1.0702 -2.1071 -1.3123
  749TMC3    C711075   4.614   1.083   1.334  0.5179 -0.2184 -0.8688
  749TMC3    C811076   0.210   0.815   1.560 -0.0058 -0.4012 -0.1731
  749TMC3    O111077   4.708   1.112   1.258 -0.2424 -0.2695 -0.3997
  749TMC3    O211078   0.230   0.747   1.455 -0.0697 -0.1222 -0.2676
  750MPD2     C11079   0.652   1.706  11.468 -0.4563  0.2844  0.3213
  750MPD2    C111080   0.516   1.710  11.495  0.1331  0.5235 -0.6418
  750MPD2    C211081   0.431   1.649  11.403 -0.4391 -0.3570 -0.6271
  750MPD2    C311082   0.483   1.576  11.295  0.1244 -0.9029  0.7237
  750MPD2    C411083   0.619   1.575  11.276  1.1265  0.0265  1.0559
  750MPD2    C511084   0.711   1.636  11.362 -0.5931  0.2477  0.4715
  750MPD2     H11085   0.325   1.664  11.417 -0.4568 -1.0981  0.0038
  750MPD2    H111086   0.661   1.514  11.196 -1.6091 -2.7679  1.7795
  750MPD2    H211087   0.724   1.742  11.541  0.4733  0.6034 -0.7482
  750MPD2    H311088   0.819   1.628  11.351 -0.3658  1.0636  2.0524
  750MPD2     N11089   0.402   1.507  11.198  0.5590 -0.1281  0.1753
  750MPD2    H511090   0.460   1.456  11.132  3.0482  1.5142  1.0549
  750MPD2    N111091   0.479   1.774  11.610  0.0484  0.2507  0.5512
  750MPD2    H711092   0.557   1.819  11.658  1.4699 -1.0247 -0.5579
  751TMC3    C111093   0.214   1.441  11.073 -0.0726 -0.1029 -0.2584
  751TMC3    C211094   0.086   1.393  11.067 -0.8525  0.7459 -0.0092
  751TMC3    C311095   0.054   1.320  10.954  1.1831  0.3358  0.5682
  751TMC3    C411096   0.308   1.427  10.971 -0.6600 -0.3159  0.8658
  751TMC3    C511097   0.264   1.368  10.856  0.6753 -0.7026  0.7425
  751TMC3    C611098   0.137   1.319  10.847 -0.0730 -0.4946  0.6276
  751TMC3     C11099   0.262   1.502  11.198 -0.2992 -0.3910  0.7867
  751TMC3     O11100   0.176   1.550  11.271  0.1153  0.3654 -0.3909
  751TMC3     H11101   0.018   1.391  11.152 -3.9814 -2.0967 -2.5797
  751TMC3    H111102   0.392   1.495  10.964 -2.2894  1.6453  0.4505
  751TMC3    H211103   0.118   1.267  10.754 -2.2195  1.6283 -0.1067
  751TMC3    C711104   0.360   1.335  10.752  0.9496 -0.2255  0.1403
  751TMC3    C811105   4.666   1.228  10.950 -0.1312 -0.4531 -0.1480
  751TMC3    O111106   0.466   1.397  10.757 -0.4375  0.6800 -0.3105
  751TMC3    O211107   4.666   1.156  10.847  0.3027 -0.2243 -0.0959
  752TMC3    C111108   4.297   1.265   0.242  0.5875 -0.4002 -0.5805
  752TMC3    C211109   4.189   1.212   0.301 -0.3815  0.2323 -0.0009
  752TMC3    C311110   4.195   1.209   0.440 -0.8024 -0.2269  0.0643
  752TMC3    C411111   4.415   1.292   0.301  0.3048 -0.0524 -0.3660
  752TMC3    C511112   4.418   1.292   0.439 -1.1640 -0.3136 -0.3017
  752TMC3    C611113   4.310   1.243   0.510 -0.1287  0.5719  0.7454
  752TMC3     C11114   4.288   1.292   0.094 -0.1864  0.1414 -0.3996
  752TMC3     O11115   4.395   1.320   0.049  0.2502 -0.0345 -0.0968
  752TMC3     H11116   4.110   1.167   0.241 -1.7378  0.7003  1.4144
  752TMC3    H111117   4.494   1.341   0.246  0.0799  0.9861  0.2245
  752TMC3    H211118   4.316   1.249   0.618 -1.5116 -1.9899  0.9629
  752TMC3    C711119   4.549   1.296   0.504  0.0682 -0.2112 -0.7250
  752TMC3    C811120   4.077   1.162   0.517  0.3749 -0.0085 -0.2219
  752TMC3    O111121   4.563   1.239   0.611  0.2422  0.3757 -0.8689
  752TMC3    O211122   3.964   1.164   0.466 -0.1561  0.3067  0.3996
  753TMC3    C111123   0.719   2.798  13.485  0.5454 -0.2179 -0.1165
  753TMC3    C211124   0.730   2.793  13.622 -0.2289  0.4426 -0.4945
  753TMC3    C311125   0.751   2.668  13.675  0.6132 -0.1007 -0.6668
  753TMC3    C411126   0.731   2.692  13.403 -0.1639  0.1413  0.2891
  753TMC3    C511127   0.749   2.570  13.465 -0.7304 -0.5504 -0.2526
  753TMC3    C611128   0.756   2.551  13.604  0.3836  1.1524 -0.0845
  753TMC3     C11129   0.709   2.929  13.423  0.1122 -0.1386 -0.1924
  753TMC3     O11130   0.700   2.932  13.303  0.7526  0.0425 -0.6293
  753TMC3     H11131   0.705   2.869  13.695  1.2963  2.1404 -1.7537
  753TMC3    H111132   0.735   2.706  13.296  1.3072 -0.4232  0.2719
  753TMC3    H211133   0.789   2.464  13.660 -0.7602  1.2382  0.7382
  753TMC3    C711134   0.748   2.453  13.381 -0.6477  0.2962  0.1596
  753TMC3    C811135   0.790   2.665  13.816 -0.2392 -0.0178 -0.4259
  753TMC3    O111136   0.749   2.473  13.262  0.0147  0.0135  0.2247
  753TMC3    O211137   0.763   2.571  13.890  0.5711 -0.0481  0.3317
  754MPD2     C11138   0.288   1.806  13.048  0.5815  0.0505  0.1055
  754MPD2    C111139   0.295   1.673  13.092 -0.3734  0.5489 -0.6553
  754MPD2    C211140   0.178   1.611  13.127 -0.2798 -0.8586 -0.5715
  754MPD2    C311141   0.061   1.675  13.130  1.2737  0.5519  0.4280
  754MPD2    C411142   0.060   1.799  13.077 -0.5971  0.5197 -0.1445
  754MPD2    C511143   0.170   1.867  13.044 -0.2867 -0.2322 -0.4077
  754MPD2     H11144   0.181   1.508  13.163  2.0711 -0.9325 -0.9833
  754MPD2    H111145   4.690   1.855  13.083 -1.2453 -0.7500  1.6128
  754MPD2    H211146   0.373   1.862  13.013  1.1160 -0.9524 -0.2089
  754MPD2    H311147   0.162   1.970  13.010 -1.7492  0.3459  1.7097
  754MPD2     N11148   4.670   1.610  13.169 -0.1282 -0.5674  0.1146
  754MPD2    H511149   4.580   1.658  13.168  0.2280  0.1048  1.7006
  754MPD2    N111150   0.423   1.613  13.109 -0.4327  0.1180  0.3150
  754MPD2    H711151   0.503   1.668  13.078 -0.3189 -0.5358 -0.5558
  755MPD2     C11152   3.930   1.981  13.514 -0.4887 -0.3504 -0.5671
  755MPD2    C111153   3.985   1.908  13.612  0.5853 -0.2077 -0.2238
  755MPD2    C211154   4.090   1.823  13.581 -0.0330  0.1580  0.2549
  755MPD2    C311155   4.143   1.812  13.455 -0.0847  0.2722 -0.1361
  755MPD2    C411156   4.093   1.889  13.351  0.6213 -0.2986 -0.2900
  755MPD2    C511157   3.983   1.972  13.385 -0.6764 -0.5071 -0.7297
  755MPD2     H11158   4.133   1.772  13.666 -0.6404  0.3401  0.6671
  755MPD2    H111159   4.129   1.880  13.250  0.4891 -2.3779 -0.1404
  755MPD2    H211160   3.844   2.046  13.520 -0.9034 -0.8683 -0.8043
  755MPD2    H311161   3.935   2.042  13.318  0.2287  0.3415 -0.4876
  755MPD2     N11162   4.240   1.716  13.420  0.3150 -0.0695 -0.0697
  755MPD2    H511163   4.272   1.701  13.325 -1.1162  1.3249 -0.7676
  755MPD2    N111164   3.937   1.930  13.739 -0.4253  0.7636  1.2741
  755MPD2    H711165   3.861   1.997  13.740 -1.8136 -0.7713 -0.1116
  756MPD2     C11166   0.695   2.288   9.878 -0.2063 -0.0286 -0.1205
  756MPD2    C111167   0.590   2.248   9.961  0.3400 -0.0327 -0.2305
  756MPD2    C211168   0.499   2.150   9.921  0.2869  0.1767 -0.4468
  756MPD2    C311169   0.534   2.070   9.816  0.4328 -0.5113  0.6236
  756MPD2    C411170   0.648   2.099   9.743 -0.5207  0.2419  0.1183
  756MPD2    C511171   0.723   2.210   9.772 -0.6472  0.6568  0.4669
  756MPD2     H11172   0.415   2.129   9.985 -0.0171  0.2229 -0.8315
  756MPD2    H111173   0.680   2.061   9.646  0.3065  2.2756 -0.4133
  756MPD2    H211174   0.762   2.371   9.892  0.4053 -0.4261 -0.6906
  756MPD2    H311175   0.805   2.249   9.713 -1.3109  0.4316 -0.6076
  756MPD2     N11176   0.453   1.960   9.785  0.0954 -0.2889 -0.0915
  756MPD2    H511177   0.379   1.947   9.854  1.8265 -1.6498  1.4953
  756MPD2    N111178   0.562   2.306  10.093  0.3771 -0.0854  0.5116
  756MPD2    H711179   0.491   2.265  10.153  0.5972  1.1973  1.6604
  757MPD2     C11180   0.453   0.927   9.397 -0.2710  0.1936 -0.3326
  757MPD2    C111181   0.318   0.932   9.440 -0.1104  0.1049  0.0831
  757MPD2    C211182   0.278   1.064   9.481  0.3076 -0.6373 -0.3516
  757MPD2    C311183   0.366   1.173   9.486  0.2712 -0.7665 -0.2461
  757MPD2    C411184   0.499   1.148   9.454  0.0326  0.5813  0.4752
  757MPD2    C511185   0.544   1.026   9.407  0.3080  0.5440 -0.1232
  757MPD2     H11186   0.177   1.083   9.515  0.8048  1.4030 -0.0461
  757MPD2    H111187   0.567   1.232   9.455  1.9469 -0.9648  0.5993
  757MPD2    H211188   0.485   0.828   9.364  0.4259  0.9726 -1.9768
  757MPD2    H311189   0.650   1.010   9.391  0.0961  0.2861 -1.2909
  757MPD2     N11190   0.319   1.296   9.551 -0.6296  0.1085 -0.0543
  757MPD2    H511191   0.225   1.288   9.586 -0.8085  0.8465 -0.3757
  757MPD2    N111192   0.235   0.812   9.438  0.6439 -0.1171 -0.2162
  757MPD2    H711193   0.276   0.733   9.390 -1.1374  0.7147 -3.1206
  758MPD2     C11194   4.054   0.793  16.156  0.5747 -0.2435  0.5636
  758MPD2    C111195   4.129   0.770  16.266  0.5825  0.0676 -0.1174
  758MPD2    C211196   4.115   0.859  16.371  0.1930 -0.7707  0.0282
  758MPD2    C311197   4.012   0.952  16.370  0.0317 -0.0095  0.0918
  758MPD2    C411198   3.938   0.967  16.261  0.6457  0.2635 -0.3611
  758MPD2    C511199   3.961   0.892  16.150  0.4584 -0.2861 -0.3704
  758MPD2     H11200   4.176   0.847  16.460  0.4202  0.4061  0.0323
  758MPD2    H111201   3.857   1.038  16.261 -0.6064 -1.1467 -2.7077
  758MPD2    H211202   4.069   0.733  16.067  0.7792  2.1001 -0.9707
  758MPD2    H311203   3.915   0.927  16.058 -0.0183 -0.9760 -0.3947
  758MPD2     N11204   3.985   1.042  16.475 -0.0162  0.3368 -0.5480
  758MPD2    H511205   3.896   1.091  16.464  0.5192  1.5954  0.6823
  758MPD2    N111206   4.226   0.667  16.252  0.7775  0.4434 -0.3462
  758MPD2    H711207   4.229   0.613  16.166 -1.4730 -1.5926  0.8472
  759MPD2     C11208   4.033   3.767   9.275 -0.1255 -0.4867 -0.0277
  759MPD2    C111209   4.092   3.736   9.389  0.2415 -0.8758 -0.6473
  759MPD2    C211210   4.223   3.774   9.406 -0.3673 -0.1246  0.5495
  759MPD2    C311211   4.285   3.855   9.307 -0.6338 -0.3586  0.3024
  759MPD2    C411212   4.219   3.881   9.186  0.3290 -0.0517 -0.1546
  759MPD2    C511213   4.092   3.831   9.175  0.5333  0.4093  0.2110
  759MPD2     H11214   4.271   3.761   9.502 -1.0874  1.1490  1.0936
  759MPD2    H111215   4.269   3.921   9.099  0.2018 -2.5020 -1.3532
  759MPD2    H211216   3.927   3.756   9.257  0.2021  0.2607 -2.3483
  759MPD2    H311217   4.045   3.858   9.081 -1.4219 -0.0811  1.0625
  759MPD2     N11218   4.416   3.893   9.335  0.4784 -0.7761  0.0587
  759MPD2    H511219   4.452   3.852   9.421  1.7647 -2.0585 -1.1084
  759MPD2    N111220   4.032   3.669   9.498  0.5344 -0.8606 -0.0273
  759MPD2    H711221   4.083   3.659   9.585  1.0406  2.0753 -0.0070
  760MPD2     C11222   3.071   1.494  12.088 -0.0415  0.5135 -0.6237
  760MPD2    C111223   3.197   1.536  12.052 -0.0418  0.0481 -0.0636
  760MPD2    C211224   3.303   1.453  12.072  0.4002  0.1099 -0.1240
  760MPD2    C311225   3.282   1.339  12.137  0.3061 -0.0246  0.0280
  760MPD2    C411226   3.159   1.307  12.190  0.1361  0.0713 -0.0139
  760MPD2    C511227   3.053   1.388  12.168 -0.0229 -0.2790  0.0286
  760MPD2     H11228   3.404   1.481  12.046 -0.3471  2.2428 -0.7132
  760MPD2    H111229   3.163   1.212  12.242  2.0472 -0.6160 -1.4120
  760MPD2    H211230   2.988   1.563  12.084 -1.8045 -1.5754  0.0994
  760MPD2    H311231   2.957   1.363  12.213  0.0904 -1.7258 -0.5073
  760MPD2     N11232   3.387   1.253  12.154  0.4425  0.3471 -0.7452
  760MPD2    H511233   3.377   1.180  12.223  0.5600  1.5571  0.5718
  760MPD2    N111234   3.229   1.662  12.000  0.3151  0.1955  0.0722
  760MPD2    H711235   3.328   1.681  11.993 -0.1049  2.1928 -0.6238
  761MPD2     C11236   4.348   0.903  11.184 -0.0911 -0.3149  0.1144
  761MPD2    C111237   4.464   0.886  11.111 -0.2111 -0.7524  0.5222
  761MPD2    C211238   4.526   1.002  11.062 -0.4561  0.1550 -0.3334
  761MPD2    C311239   4.485   1.129  11.087  0.2041 -0.3766  0.2202
  761MPD2    C411240   4.383   1.141  11.180  0.3918  0.1142 -0.3074
  761MPD2    C511241   4.315   1.030  11.225 -0.0245  0.4140 -0.0545
  761MPD2     H11242   4.614   0.983  11.002 -0.8141 -0.0118 -0.8054
  761MPD2    H111243   4.348   1.239  11.210 -0.2155 -0.6627  1.4792
  761MPD2    H211244   4.303   0.816  11.229  1.7624 -1.3273  0.0372
  761MPD2    H311245   4.227   1.048  11.284  0.6748  0.4679  0.9643
  761MPD2     N11246   4.559   1.243  11.041 -0.6283 -0.6422  0.1440
  761MPD2    H511247   4.529   1.335  11.070 -0.8165  0.1074 -2.4883
  761MPD2    N111248   4.495   0.759  11.075 -0.3417  0.8986  0.2377
  761MPD2    H711249   4.435   0.684  11.107  0.5472 -0.7713 -2.0053
  762MPD2     C11250   0.385   0.768  10.738  0.5968  0.0158  0.5304
  762MPD2    C111251   0.348   0.637  10.729  0.1594  0.0090 -0.1263
  762MPD2    C211252   0.409   0.561  10.623 -0.3519 -0.5426  0.1017
  762MPD2    C311253   0.498   0.620  10.533  0.4579  0.3436 -1.1337
  762MPD2    C411254   0.526   0.752  10.554 -0.2394  0.4092  0.1972
  762MPD2    C511255   0.473   0.827  10.658  0.1020  0.1025  0.1281
  762MPD2     H11256   0.395   0.454  10.614  0.5391 -0.4518 -2.3625
  762MPD2    H111257   0.595   0.806  10.490 -0.1500 -0.8322 -0.7468
  762MPD2    H211258   0.345   0.824  10.822 -0.4545  0.2020 -0.0866
  762MPD2    H311259   0.504   0.931  10.668 -0.9082  0.3437  0.6966
  762MPD2     N11260   0.575   0.540  10.442 -0.7836 -0.2983  0.5771
  762MPD2    H511261   0.568   0.439  10.453  1.2500 -0.4259  0.7338
  762MPD2    N111262   0.243   0.588  10.811 -0.4127  0.4050 -0.2189
  762MPD2    H711263   0.198   0.650  10.877  0.7913  2.0051 -0.9048
  763MPD2     C11264   1.454   1.129  16.638  0.5479  0.0709  0.6412
  763MPD2    C111265   1.553   1.198  16.569 -0.4554  0.0995 -0.2528
  763MPD2    C211266   1.624   1.291  16.638 -0.2888  0.4213 -0.7169
  763MPD2    C311267   1.595   1.306  16.775 -0.0812 -0.3692  0.2866
  763MPD2    C411268   1.503   1.230  16.845  0.3121  0.5977 -0.7161
  763MPD2    C511269   1.428   1.148  16.771  0.0777 -0.4879  0.3451
  763MPD2     H11270   1.704   1.340  16.585  1.3626 -0.9560  0.4989
  763MPD2    H111271   1.477   1.231  16.950 -0.7580  0.2812 -0.9733
  763MPD2    H211272   1.396   1.054  16.586  0.1093  1.5035 -0.9270
  763MPD2    H311273   1.356   1.081  16.816  0.3321 -0.8890  0.1581
  763MPD2     N11274   1.683   1.397  16.842  0.1926  1.1801  0.4605
  763MPD2    H511275   1.746   1.437  16.774  0.8462  2.3449  1.7720
  763MPD2    N111276   1.599   1.169  16.442 -0.2032 -0.1793 -0.4685
  763MPD2    H711277   1.669   1.230  16.401  0.8617  0.1757  1.8513
  764MPD2     C11278   4.386   2.498  17.036 -0.4373 -0.1131 -0.3327
  764MPD2    C111279   4.326   2.375  17.038 -0.8650  0.6355 -0.6496
  764MPD2    C211280   4.384   2.272  17.114 -0.0567  0.1068  0.4514
  764MPD2    C311281   4.510   2.287  17.168  0.6641  0.2606 -0.8988
  764MPD2    C411282   4.585   2.400  17.140  0.0709 -0.0493 -0.0994
  764MPD2    C511283   4.518   2.507  17.084  0.1953 -0.1475 -0.3057
  764MPD2     H11284   4.332   2.178  17.124 -1.5094  0.5780 -2.8217
  764MPD2    H111285   4.684   2.418  17.179  0.3681  0.5344 -1.1184
  764MPD2    H211286   4.338   2.586  16.996 -0.9096  0.2767  1.0909
  764MPD2    H311287   4.573   2.600  17.069 -2.0407  0.9235 -1.9312
  764MPD2     N11288   4.557   2.176  17.250  0.2717 -0.3236 -0.0798
  764MPD2    H511289   4.482   2.110  17.268  2.0811 -2.9695 -2.1213
  764MPD2    N111290   4.210   2.349  16.966 -0.9667  0.2694 -0.8647
  764MPD2    H711291   4.153   2.267  16.986 -0.6749  0.3624  0.3777
  765MPD2     C11292   3.923   0.073  15.913  0.4873 -0.3161  0.1911
  765MPD2    C111293   3.938   0.201  15.867  0.2290  0.0852  0.4152
  765MPD2    C211294   4.050   0.225  15.785 -0.1730  0.2498 -0.0567
  765MPD2    C311295   4.147   0.125  15.759 -0.2789 -0.8521  0.2768
  765MPD2    C411296   4.128   0.001  15.809 -0.1041 -0.0932 -0.4712
  765MPD2    C511297   4.018   4.700  15.887 -0.3654  0.2114  0.2127
  765MPD2     H11298   4.073   0.324  15.748  0.6795  0.7729  1.8479
  765MPD2    H111299   4.194   4.640  15.789  0.1454 -0.0694  0.2670
  765MPD2    H211300   3.843   0.043  15.980  2.0613 -0.7296  1.8608
  765MPD2    H311301   4.005   4.598  15.921  0.6068 -0.0807 -0.3136
  765MPD2     N11302   4.258   0.164  15.676 -0.1412  0.0929  0.5079
  765MPD2    H511303   4.267   0.264  15.658  0.0266  0.0283  0.2444
  765MPD2    N111304   3.835   0.300  15.886 -0.1358 -0.3803  0.2693
  765MPD2    H711305   3.748   0.266  15.927  0.0282  1.2131  1.9970
  766MPD2     C11306   3.508   0.269  15.318 -0.0651  0.0282  0.9844
  766MPD2    C111307   3.594   0.368  15.345 -0.6530  0.3000 -0.7535
  766MPD2    C211308   3.685   0.398  15.246  0.7840 -0.6635 -0.2149
  766MPD2    C311309   3.694   0.331  15.122 -0.2275 -0.6145  0.1154
  766MPD2    C411310   3.584   0.248  15.092 -0.3230  0.1514 -0.6157
  766MPD2    C511311   3.496   0.216  15.193  0.0774  0.5722  0.9771
  766MPD2     H11312   3.747   0.483  15.273 -1.3614  1.3522 -1.6771
  766MPD2    H111313   3.575   0.191  15.000 -2.8767 -1.2407  0.4817
  766MPD2    H211314   3.437   0.240  15.395  0.2697 -0.4328  1.1224
  766MPD2    H311315   3.411   0.152  15.171  0.8058  0.3574 -1.2019
  766MPD2     N11316   3.792   0.371  15.022  0.1520 -0.0168 -0.1464
  766MPD2    H511317   3.782   0.357  14.922 -0.4975  2.1608 -0.3704
  766MPD2    N111318   3.578   0.436  15.468 -0.0680  0.0456  0.2589
  766MPD2    H711319   3.506   0.400  15.531  1.3330 -1.8519  0.7637
  767MPD2     C11320   3.526   0.688  15.162  0.1898 -0.6256 -0.2783
  767MPD2    C111321   3.642   0.732  15.099  0.0540  0.3147  0.6039
  767MPD2    C211322   3.657   0.720  14.962  0.1371  0.0530 -0.4274
  767MPD2    C311323   3.553   0.662  14.884 -0.4977 -0.3538  0.0322
  767MPD2    C411324   3.439   0.618  14.947 -0.3766  0.7717  0.0103
  767MPD2    C511325   3.425   0.635  15.083  0.2744 -0.0325 -0.1468
  767MPD2     H11326   3.751   0.752  14.916  0.8850 -0.8434  0.4928
  767MPD2    H111327   3.350   0.586  14.893  0.3144  0.7734 -1.1251
  767MPD2    H211328   3.518   0.695  15.270  0.9354  0.9388 -0.3225
  767MPD2    H311329   3.326   0.614  15.123 -0.1952 -0.0269 -1.3119
  767MPD2     N11330   3.570   0.655  14.744 -0.5771  0.2499  0.1219
  767MPD2    H511331   3.663   0.686  14.716  0.0890 -0.9526  0.9997
  767MPD2    N111332   3.745   0.776  15.179 -0.4889 -0.1988  0.3965
  767MPD2    H711333   3.732   0.757  15.277 -1.1065 -0.1774  0.3238
  768MPD2     C11334   0.641   4.387  10.550 -0.2833 -0.3252 -0.3134
  768MPD2    C111335   0.571   4.270  10.579  0.2635  0.0478  0.3777
  768MPD2    C211336   0.612   4.191  10.688 -0.1879  0.6538  0.6744
  768MPD2    C311337   0.731   4.230  10.760  0.6925 -0.4241 -0.2581
  768MPD2    C411338   0.796   4.348  10.721 -0.0724 -0.7828  0.4921
  768MPD2    C511339   0.744   4.427  10.624  0.4095 -0.4684  0.0098
  768MPD2     H11340   0.557   4.105  10.723  2.5779 -0.4343  2.3659
  768MPD2    H111341   0.889   4.375  10.768  0.4516 -0.3759 -0.7773
  768MPD2    H211342   0.616   4.458  10.472 -1.3255  1.7732  1.9077
  768MPD2    H311343   0.804   4.513  10.596  0.1223 -0.3007 -0.0934
  768MPD2     N11344   0.784   4.169  10.875 -0.3904 -0.3238 -0.4035
  768MPD2    H511345   0.864   4.212  10.920  0.2063 -0.4329 -1.3708
  768MPD2    N111346   0.453   4.236  10.516  1.0426  0.5852 -1.0295
  768MPD2    H711347   0.403   4.157  10.556  0.1955  1.5542 -0.1710
  769MPD2     C11348   1.011   2.236  14.874  0.3287 -0.5705  0.0641
  769MPD2    C111349   0.903   2.236  14.965  0.4096 -0.0739  0.1160
  769MPD2    C211350   0.927   2.303  15.085  0.1077  0.8212 -0.9097
  769MPD2    C311351   1.042   2.361  15.117  0.1968  0.0345  0.0321
  769MPD2    C411352   1.149   2.351  15.032 -0.0080 -0.0988  0.6013
  769MPD2    C511353   1.129   2.292  14.915  0.4260 -0.6328  0.8633
  769MPD2     H11354   0.850   2.305  15.162  1.2308 -0.9357  0.2368
  769MPD2    H111355   1.249   2.391  15.045 -0.0467  0.0828  0.3462
  769MPD2    H211356   1.005   2.182  14.780 -2.6961 -2.2751  1.2225
  769MPD2    H311357   1.214   2.291  14.847 -1.8025  0.3212 -1.9230
  769MPD2     N11358   1.040   2.426  15.240  0.1525  0.1648 -0.0861
  769MPD2    H511359   0.960   2.418  15.302  0.2045 -0.1794 -0.0663
  769MPD2    N111360   0.785   2.164  14.939 -0.4146  0.2425 -0.0737
  769MPD2    H711361   0.779   2.113  14.852  1.9107 -0.4832  0.2095
  770MPD2     C11362   0.150   1.520  15.515 -0.3347 -0.7368  0.2349
  770MPD2    C111363   0.217   1.456  15.415  0.4916  0.3216  0.0209
  770MPD2    C211364   0.266   1.524  15.312  0.3397 -0.1234  0.7009
  770MPD2    C311365   0.254   1.658  15.306  0.8851 -0.3521  0.3039
  770MPD2    C411366   0.178   1.724  15.399 -0.4029 -0.7687  0.5689
  770MPD2    C511367   0.134   1.656  15.511 -0.4005 -0.0862 -0.1138
  770MPD2     H11368   0.320   1.479  15.230 -1.3771  0.8139 -0.9439
  770MPD2    H111369   0.172   1.832  15.405  1.6980 -0.6655  1.1656
  770MPD2    H211370   0.134   1.469  15.609 -0.3889 -0.6986  0.2466
  770MPD2    H311371   0.071   1.706  15.584 -0.4682 -0.3383  0.0009
  770MPD2     N11372   0.327   1.726  15.212 -0.1447  0.5449 -1.1668
  770MPD2    H511373   0.379   1.671  15.145  1.5173  1.8444 -0.9419
  770MPD2    N111374   0.252   1.317  15.441 -0.7667  0.2122  0.3164
  770MPD2    H711375   0.216   1.280  15.528 -0.5463 -2.9372 -0.9332
  771MPD2     C11376   1.556   4.463  13.723  0.0981  0.7454  0.4210
  771MPD2    C111377   1.474   4.570  13.726 -0.0606  0.0759 -1.6066
  771MPD2    C211378   1.338   4.553  13.703 -0.2970 -0.2003 -0.6527
  771MPD2    C311379   1.286   4.434  13.662 -0.6076  0.0283  0.0618
  771MPD2    C411380   1.373   4.329  13.651  0.9260 -0.6301 -0.1319
  771MPD2    C511381   1.505   4.348  13.675  0.6034 -0.1005 -0.1502
  771MPD2     H11382   1.272   4.639  13.706 -1.0263 -0.7294 -1.4878
  771MPD2    H111383   1.339   4.229  13.625  0.5130 -0.3976 -0.4966
  771MPD2    H211384   1.663   4.467  13.739  0.7611 -2.1898 -3.6331
  771MPD2    H311385   1.574   4.266  13.659  2.5959  1.2331  1.5959
  771MPD2     N11386   1.150   4.425  13.622  0.3260 -0.2703  0.1840
  771MPD2    H511387   1.093   4.508  13.620  0.1079 -0.3253  2.9774
  771MPD2    N111388   1.517   4.702  13.754 -0.3671  0.1865  0.9685
  771MPD2    H711389   1.444   0.050  13.750 -0.7317 -0.0478  3.1854
  772MPD2     C11390   1.304   0.606  14.079  0.2634  0.2864  0.1142
  772MPD2    C111391   1.271   0.498  13.993  0.8314 -0.3142  0.5309
  772MPD2    C211392   1.143   0.443  13.993  0.1843 -0.5489  1.4128
  772MPD2    C311393   1.047   0.514  14.069 -0.6482  0.6900 -0.4014
  772MPD2    C411394   1.081   0.628  14.135 -0.2381  0.1343 -0.7050
  772MPD2    C511395   1.207   0.677  14.145  0.1348  0.6103  0.6154
  772MPD2     H11396   1.125   0.358  13.928 -0.6304  0.7225 -0.0409
  772MPD2    H111397   1.012   0.682  14.200  0.0482  0.6585 -0.8408
  772MPD2    H211398   1.406   0.632  14.102  0.0437 -0.1316  1.5450
  772MPD2    H311399   1.229   0.769  14.198 -0.0212  0.6119  0.6779
  772MPD2     N11400   0.911   0.481  14.073  0.5249  0.6669 -0.1422
  772MPD2    H511401   0.860   0.555  14.121 -2.6949 -0.3745 -2.0060
  772MPD2    N111402   1.376   0.428  13.919 -0.6176 -0.2649 -0.1289
  772MPD2    H711403   1.349   0.337  13.884 -0.7413  0.0142 -0.7591
  773MPD2     C11404   0.660   1.459   0.379 -0.1502  0.6314 -0.0569
  773MPD2    C111405   0.564   1.371   0.346  0.0910 -0.1848  0.0592
  773MPD2    C211406   0.577   1.243   0.400  0.6823  0.7426 -0.0275
  773MPD2    C311407   0.679   1.195   0.474 -0.0119  0.4744 -0.4329
  773MPD2    C411408   0.773   1.286   0.502 -0.0995 -0.6169 -0.6066
  773MPD2    C511409   0.762   1.413   0.452  0.1550 -0.2963  0.1054
  773MPD2     H11410   0.496   1.180   0.365  0.9703  0.9405 -1.0520
  773MPD2    H111411   0.860   1.269   0.564  0.3266  0.1267 -0.9849
  773MPD2    H211412   0.659   1.562   0.347 -1.5592  0.1203 -1.6732
  773MPD2    H311413   0.845   1.481   0.471 -0.5040  0.6178 -0.2969
  773MPD2     N11414   0.673   1.066   0.521  0.1718 -0.2655 -0.4674
  773MPD2    H511415   0.592   1.009   0.503 -1.9201  1.8459  2.2280
  773MPD2    N111416   0.450   1.402   0.266 -0.0662  0.5025  0.1992
  773MPD2    H711417   0.396   1.319   0.243  0.3430 -0.3592  2.3680
  774MPD2     C11418   0.034   0.635  13.360 -0.9976  0.1969 -0.1157
  774MPD2    C111419   4.722   0.733  13.452  0.7622  0.1599 -0.2267
  774MPD2    C211420   0.047   0.858  13.446 -0.4436 -0.3946  0.7362
  774MPD2    C311421   0.138   0.884  13.345 -0.0362  0.3876 -0.4846
  774MPD2    C411422   0.173   0.792  13.248  0.0547  0.0417 -0.8122
  774MPD2    C511423   0.123   0.663  13.266 -0.4096  0.0264  0.2525
  774MPD2     H11424   0.018   0.945  13.504 -0.7920  0.8757 -1.3585
  774MPD2    H111425   0.242   0.810  13.167 -0.2896  0.8627 -0.9206
  774MPD2    H211426   4.699   0.543  13.356 -2.3454  1.0793 -1.1306
  774MPD2    H311427   0.150   0.593  13.189 -1.6547 -0.8670  0.6336
  774MPD2     N11428   0.183   1.015  13.341  0.5506  0.1051  0.3827
  774MPD2    H511429   0.149   1.079  13.412 -0.1288  0.5937 -0.3880
  774MPD2    N111430   4.610   0.693  13.537 -0.2026  0.0626 -0.0850
  774MPD2    H711431   4.561   0.606  13.519 -2.3591  1.1163  0.7219
  775MPD2     C11432   1.416   2.208  15.980  0.7229  0.3688  0.0685
  775MPD2    C111433   1.334   2.317  15.975 -0.1765 -0.3472 -0.5893
  775MPD2    C211434   1.359   2.416  15.877  0.1757 -0.2322 -0.0912
  775MPD2    C311435   1.481   2.416  15.805 -0.1129  0.0845 -0.2969
  775MPD2    C411436   1.556   2.299  15.816 -0.0262  0.2945 -0.0646
  775MPD2    C511437   1.526   2.197  15.898  0.6198  0.6517  0.6706
  775MPD2     H11438   1.293   2.503  15.874 -0.0400 -0.3749  0.6552
  775MPD2    H111439   1.643   2.292  15.752  0.2801 -2.4504  0.6544
  775MPD2    H211440   1.396   2.123  16.045 -3.0176  0.9538 -0.3332
  775MPD2    H311441   1.593   2.113  15.907 -1.5555 -1.1000  0.4056
  775MPD2     N11442   1.509   2.523  15.711 -0.6147  0.1811 -0.0651
  775MPD2    H511443   1.586   2.503  15.648  0.0097 -0.6046  0.9377
  775MPD2    N111444   1.221   2.316  16.058  0.4872 -0.2169 -0.5509
  775MPD2    H711445   1.215   2.241  16.126  0.2282 -0.8970 -1.3214
  776MPD2     C11446   0.625   2.377  12.167 -0.1020 -0.0568 -1.0436
  776MPD2    C111447   0.566   2.354  12.046 -0.3090 -0.3402  0.3299
  776MPD2    C211448   0.568   2.455  11.950 -0.4864  0.0235 -0.4315
  776MPD2    C311449   0.639   2.570  11.967  0.6718  0.0489  0.1437
  776MPD2    C411450   0.703   2.587  12.086 -0.1732 -0.2916  0.5883
  776MPD2    C511451   0.701   2.494  12.190  0.0355 -0.1846  0.3199
  776MPD2     H11452   0.534   2.432  11.849 -0.8221 -2.1686  0.1720
  776MPD2    H111453   0.771   2.667  12.111  1.1651 -0.5953 -2.1925
  776MPD2    H211454   0.638   2.300  12.241  1.4854  0.6037 -0.6251
  776MPD2    H311455   0.753   2.512  12.284 -0.9638 -1.6470  1.1437
  776MPD2     N11456   0.652   2.674  11.870 -0.7626  0.1289 -0.0268
  776MPD2    H511457   0.730   2.735  11.893 -0.4271 -0.0130 -0.7849
  776MPD2    N111458   0.509   2.229  12.023 -0.0760  0.0794  0.4696
  776MPD2    H711459   0.492   2.169  12.103  0.5548  0.0672  0.5976
  777MPD2     C11460   0.451   4.715   0.878 -0.1922 -0.0700 -0.4360
  777MPD2    C111461   0.453   4.649   0.996 -0.3216 -0.3839  0.7945
  777MPD2    C211462   0.405   4.518   0.996 -0.1526  0.3005  0.0271
  777MPD2    C311463   0.370   4.461   0.872  0.1137 -0.3956 -0.5412
  777MPD2    C411464   0.402   4.523   0.754 -0.2763  0.4537  0.1242
  777MPD2    C511465   0.440   4.648   0.757 -0.3689 -0.2818 -0.0230
  777MPD2     H11466   0.394   4.459   1.086  1.0804 -0.0459 -0.0513
  777MPD2    H111467   0.374   4.486   0.656  1.4116 -2.2299  0.6308
  777MPD2    H211468   0.482   0.095   0.872 -0.1427 -0.0000  0.9354
  777MPD2    H311469   0.459   4.701   0.665  2.0669 -1.8852 -0.4712
  777MPD2     N11470   0.296   4.343   0.874 -0.5926 -0.9530 -0.6420
  777MPD2    H511471   0.270   4.310   0.966  0.4155  1.9182  0.6641
  777MPD2    N111472   0.491   4.720   1.111 -0.3677 -0.0791  0.0244
  777MPD2    H711473   0.531   0.088   1.089  0.3052  0.6351  4.1634
  778MPD2     C11474   1.718   0.216  14.909 -0.0443  0.4145 -0.4172
  778MPD2    C111475   1.730   0.077  14.875  0.2537 -0.2677  0.2598
  778MPD2    C211476   1.811   0.053  14.763 -0.0417  0.1312  0.5824
  778MPD2    C311477   1.882   0.151  14.692  0.3294  0.5567  0.3403
  778MPD2    C411478   1.850   0.279  14.724 -0.3516 -0.2001  0.1300
  778MPD2    C511479   1.779   0.315  14.835  0.8737  0.2939 -0.2278
  778MPD2     H11480   1.830   4.675  14.729 -0.1537 -0.6105  2.7271
  778MPD2    H111481   1.898   0.358  14.667 -1.3866  0.7397  0.5791
  778MPD2    H211482   1.648   0.249  14.985  1.5741 -0.7480  1.5737
  778MPD2    H311483   1.776   0.420  14.861 -2.2007  0.5694 -1.7936
  778MPD2     N11484   1.971   0.130  14.585 -0.9296  0.0342 -0.3516
  778MPD2    H511485   2.017   0.212  14.547  0.8514 -0.8926 -0.1947
  778MPD2    N111486   1.669   4.692  14.934 -0.1762 -0.8851 -0.9355
  778MPD2    H711487   1.672   4.602  14.887 -0.8114  0.0633 -2.8102
  779MPD2     C11488   1.242   3.902  13.899 -0.1761 -0.0684 -0.1523
  779MPD2    C111489   1.303   3.874  14.020  0.2530 -0.2206  0.2591
  779MPD2    C211490   1.365   3.973  14.095  0.0565 -0.2604  0.2090
  779MPD2    C311491   1.363   4.101  14.043 -0.8796 -0.9021 -0.6218
  779MPD2    C411492   1.291   4.133  13.931  0.8074 -0.2122 -0.6958
  779MPD2    C511493   1.229   4.038  13.863 -0.0409  0.0677 -0.1852
  779MPD2     H11494   1.432   3.960  14.179 -0.5286 -0.0889  0.7007
  779MPD2    H111495   1.295   4.230  13.883  1.0718  0.5371  0.8161
  779MPD2    H211496   1.211   3.826  13.829  0.8425  0.8639 -1.6102
  779MPD2    H311497   1.193   4.058  13.763 -0.2202 -0.3144 -0.1986
  779MPD2     N11498   1.444   4.202  14.099  0.1902  0.5126 -0.9568
  779MPD2    H511499   1.523   4.169  14.154 -1.7786  1.0517  2.1989
  779MPD2    N111500   1.314   3.736  14.061 -0.0637 -0.3666  0.3713
  779MPD2    H711501   1.360   3.725  14.150  0.6716 -0.6132 -0.0402
  780MPD2     C11502   0.520   3.448   1.396 -0.2658  1.1776  0.0752
  780MPD2    C111503   0.498   3.384   1.274 -0.3195 -0.6914  0.1271
  780MPD2    C211504   0.521   3.441   1.151  0.1002 -0.1682  0.2594
  780MPD2    C311505   0.584   3.557   1.145  0.6169 -0.6372 -0.2502
  780MPD2    C411506   0.596   3.627   1.260 -0.8126  0.4139 -0.1523
  780MPD2    C511507   0.562   3.577   1.385 -0.5774 -0.0586  0.2667
  780MPD2     H11508   0.494   3.404   1.052 -0.2189  1.7741 -0.3794
  780MPD2    H111509   0.625   3.732   1.259  2.1320 -0.3943  0.5164
  780MPD2    H211510   0.491   3.399   1.488  1.3972  0.8470  0.4218
  780MPD2    H311511   0.579   3.640   1.472 -0.5101  1.1906 -0.6443
  780MPD2     N11512   0.625   3.606   1.018  0.1335 -0.1238  0.0827
  780MPD2    H511513   0.615   3.547   0.936  1.7583 -0.9641  0.4907
  780MPD2    N111514   0.438   3.253   1.286  0.6380 -0.8406 -0.7312
  780MPD2    H711515   0.424   3.202   1.373 -0.5303  0.8225  0.0583
  781MPD2     C11516   3.189   0.914  12.146 -0.2718  0.6716 -0.2288
  781MPD2    C111517   3.065   0.899  12.203 -0.1865 -0.2095 -0.0073
  781MPD2    C211518   2.956   0.923  12.121  0.8000 -0.3378 -0.6243
  781MPD2    C311519   2.972   0.966  11.987  0.2456 -0.6077  0.0925
  781MPD2    C411520   3.097   0.998  11.940 -0.6198  0.0188 -0.1166
  781MPD2    C511521   3.202   0.961  12.012  0.7406 -0.2775 -0.3020
  781MPD2     H11522   2.858   0.917  12.167  0.6596  2.1321 -0.5888
  781MPD2    H111523   3.110   1.032  11.838 -1.2733  0.0590 -0.1904
  781MPD2    H211524   3.279   0.883  12.197  1.0534  1.2522 -2.2274
  781MPD2    H311525   3.304   0.953  11.976  0.3985 -4.3277 -0.4101
  781MPD2     N11526   2.867   0.979  11.892 -0.3328  0.1860 -0.5889
  781MPD2    H511527   2.887   1.003  11.796 -0.6384 -1.0726 -0.9778
  781MPD2    N111528   3.046   0.856  12.335  0.5151  0.0003  0.0446
  781MPD2    H711529   2.948   0.840  12.359  0.8375 -0.8096  0.8444
  782MPD2     C11530   0.947   1.932  10.424 -0.8792 -0.0719 -0.0171
  782MPD2    C111531   1.006   1.830  10.489 -0.3556  0.2629 -0.3704
  782MPD2    C211532   1.022   1.845  10.626  0.5668 -0.1606  0.4718
  782MPD2    C311533   0.979   1.952  10.698  0.2898  0.2192 -0.1880
  782MPD2    C411534   0.925   2.055  10.632  0.0960 -0.2090  0.8808
  782MPD2    C511535   0.903   2.044  10.495 -0.6274 -0.7906 -0.2477
  782MPD2     H11536   1.061   1.764  10.686 -1.2062 -0.1546  1.6273
  782MPD2    H111537   0.898   2.152  10.672 -0.6330 -0.1489  0.2378
  782MPD2    H211538   0.927   1.929  10.318  0.7806  0.7010 -0.3511
  782MPD2    H311539   0.870   2.125  10.431  1.6435  2.3287  2.5336
  782MPD2     N11540   1.002   1.952  10.837 -0.6620  0.3667 -0.2425
  782MPD2    H511541   1.066   1.890  10.884 -1.3112 -0.2035 -0.1117
  782MPD2    N111542   1.017   1.696  10.431 -0.3194 -0.1295  0.1752
  782MPD2    H711543   1.047   1.622  10.494 -0.8265 -0.2739  0.2493
  783MPD2     C11544   0.352   1.069  10.490  0.5694  0.0019 -0.0343
  783MPD2    C111545   0.396   1.186  10.554  0.0292 -0.1691  0.1611
  783MPD2    C211546   0.510   1.255  10.505  0.2517 -0.0834 -0.4344
  783MPD2    C311547   0.584   1.212  10.395  0.0720 -0.1398  1.0597
  783MPD2    C411548   0.542   1.086  10.354  0.7035 -0.3701  1.1297
  783MPD2    C511549   0.431   1.018  10.397 -0.6231 -0.7524 -0.0610
  783MPD2     H11550   0.547   1.347  10.550 -3.9142  1.2351  0.2856
  783MPD2    H111551   0.594   1.039  10.271  1.9952  2.3460  0.4052
  783MPD2    H211552   0.261   1.017  10.518 -0.2240  0.7817 -1.1449
  783MPD2    H311553   0.416   0.921  10.352  1.3490 -1.7242  1.3934
  783MPD2     N11554   0.697   1.282  10.350 -0.7846  0.6205 -0.6836
  783MPD2    H511555   0.726   1.365  10.401  1.0612 -0.3608 -0.1142
  783MPD2    N111556   0.325   1.222  10.673 -0.4585 -0.4395  0.5710
  783MPD2    H711557   0.246   1.165  10.702  1.3909 -3.6120 -0.6634
  784MPD2     C11558   2.578   1.625   1.660 -0.3100 -0.3163  0.2705
  784MPD2    C111559   2.656   1.701   1.569  0.0916  0.8762 -0.0779
  784MPD2    C211560   2.597   1.825   1.533  0.3376 -0.0028  0.5331
  784MPD2    C311561   2.476   1.865   1.576 -0.8190 -0.5719 -0.3853
  784MPD2    C411562   2.403   1.785   1.658  0.2603  0.1581 -0.4190
  784MPD2    C511563   2.453   1.668   1.700 -0.6618  0.6822 -0.1931
  784MPD2     H11564   2.643   1.887   1.458  0.8495 -2.0191 -0.8052
  784MPD2    H111565   2.310   1.807   1.708 -0.0282  0.0616 -0.9193
  784MPD2    H211566   2.610   1.529   1.699  2.9954  1.0689  0.9172
  784MPD2    H311567   2.393   1.618   1.775 -2.9281  1.5005 -1.4837
  784MPD2     N11568   2.426   1.990   1.530 -0.4438 -0.2870  0.6364
  784MPD2    H511569   2.489   2.038   1.465 -1.3346  1.0439  0.7547
  784MPD2    N111570   2.777   1.666   1.502  0.2547  0.0079  0.1579
  784MPD2    H711571   2.818   1.726   1.431 -1.2034 -0.1897 -0.8670
  785MPD2     C11572   4.109   3.189  10.187 -0.3056  0.1846 -0.0812
  785MPD2    C111573   4.119   3.317  10.230  0.3261  0.5851 -0.5184
  785MPD2    C211574   4.005   3.388  10.237 -0.4360  0.2602  0.4767
  785MPD2    C311575   3.883   3.330  10.208  0.3179 -0.2185 -0.0734
  785MPD2    C411576   3.873   3.202  10.153  0.3102  0.0855 -0.0809
  785MPD2    C511577   3.992   3.136  10.132  0.3953 -0.3143  0.3217
  785MPD2     H11578   4.005   3.488  10.279 -1.0943  0.3712  0.1979
  785MPD2    H111579   3.780   3.160  10.118  0.4064 -0.6947  0.6015
  785MPD2    H211580   4.188   3.114  10.189  0.3136  0.7655 -2.9625
  785MPD2    H311581   3.990   3.042  10.079 -0.7140  0.9746 -1.9135
  785MPD2     N11582   3.768   3.420  10.206 -0.8554 -0.1067 -0.3264
  785MPD2    H511583   3.799   3.513  10.234 -0.3780 -0.1002 -0.8663
  785MPD2    N111584   4.238   3.384  10.264 -0.6258 -0.5095 -0.1898
  785MPD2    H711585   4.223   3.468  10.319  1.7992  0.6424 -1.3585
  786MPD2     C11586   1.670   3.133  14.578 -0.0534  0.3469 -0.1398
  786MPD2    C111587   1.798   3.077  14.577 -0.4458 -0.1856 -0.4191
  786MPD2    C211588   1.877   3.064  14.687 -0.1671 -0.0557  0.1205
  786MPD2    C311589   1.826   3.107  14.805  0.1959 -0.0204  0.4115
  786MPD2    C411590   1.701   3.160  14.812  0.3644 -0.0650  0.7104
  786MPD2    C511591   1.620   3.172  14.695 -0.3364 -0.3648  0.3705
  786MPD2     H11592   1.972   3.013  14.682  0.6634  1.8452 -3.3727
  786MPD2    H111593   1.647   3.186  14.902  3.2825 -0.3029  2.4964
  786MPD2    H211594   1.604   3.137  14.492  0.0281  1.6391 -0.1454
  786MPD2    H311595   1.522   3.217  14.701 -0.0551 -0.0404  2.4408
  786MPD2     N11596   1.895   3.088  14.922 -0.0772 -0.0813 -0.1800
  786MPD2    H511597   1.835   3.093  15.004  1.1693  2.3772  0.5896
  786MPD2    N111598   1.858   3.033  14.454  0.6502  0.7291  0.9985
  786MPD2    H711599   1.958   3.018  14.452  0.9257  2.6428  0.9312
  787MPD2     C11600   2.304   2.794  14.644 -0.3508  0.6567 -0.4781
  787MPD2    C111601   2.263   2.699  14.559 -0.2225 -0.4938 -0.1201
  787MPD2    C211602   2.298   2.569  14.583 -0.4335  0.1086  0.2545
  787MPD2    C311603   2.367   2.529  14.700 -0.1443  0.4567 -0.2355
  787MPD2    C411604   2.394   2.629  14.786 -0.4338  0.7290 -0.0528
  787MPD2    C511605   2.366   2.759  14.754  0.3036  0.7596  0.2458
  787MPD2     H11606   2.277   2.503  14.499 -4.8183 -1.1971  2.3811
  787MPD2    H111607   2.446   2.603  14.878 -0.6192  0.2187 -0.0952
  787MPD2    H211608   2.284   2.899  14.627 -0.8139  0.9743  2.1182
  787MPD2    H311609   2.398   2.843  14.815 -0.0028  0.3209  1.0135
  787MPD2     N11610   2.406   2.398  14.731 -0.3359 -0.3645 -0.3471
  787MPD2    H511611   2.406   2.331  14.654 -1.5157  0.2075 -0.8483
  787MPD2    N111612   2.193   2.742  14.442 -0.1026  0.5147  0.7020
  787MPD2    H711613   2.176   2.842  14.433 -1.2978  0.2186 -0.2232
  788MPD2     C11614   3.903   0.965   0.100  0.5511 -0.5051  0.1465
  788MPD2    C111615   4.007   0.878   0.125  0.2538 -0.5174 -0.3739
  788MPD2    C211616   4.104   0.857   0.030  0.3285  0.7703  0.3721
  788MPD2    C311617   4.083   0.910  17.598 -0.3462 -0.2888  0.0031
  788MPD2    C411618   3.967   0.985  17.571  0.1615  0.2966  0.1546
  788MPD2    C511619   3.884   1.018  17.671 -0.4241  0.2942  0.8955
  788MPD2     H11620   4.180   0.783   0.054  2.0395  1.6487 -2.4139
  788MPD2    H111621   3.965   1.043  17.479  1.7660  1.2910  0.7418
  788MPD2    H211622   3.836   1.001   0.177 -1.8888 -1.0173 -1.7493
  788MPD2    H311623   3.806   1.089  17.646  1.2055  1.4346 -0.9946
  788MPD2     N11624   4.179   0.899  17.496 -0.0041  0.2591 -0.4084
  788MPD2    H511625   4.152   0.931  17.403 -2.2430 -1.5892 -0.4094
  788MPD2    N111626   4.008   0.804   0.248  0.7770 -0.0302  0.2756
  788MPD2    H711627   4.088   0.744   0.269  0.4407 -0.1629  1.2188
  789MPD2     C11628   3.866   0.250  16.302 -0.4135  0.1004 -0.5336
  789MPD2    C111629   3.744   0.203  16.341 -0.1041  0.1750  0.7153
  789MPD2    C211630   3.651   0.294  16.397  0.2946 -0.0215 -0.4939
  789MPD2    C311631   3.687   0.420  16.444  0.7753  0.2199  0.5570
  789MPD2    C411632   3.817   0.462  16.402  0.5534  0.3845  0.0693
  789MPD2    C511633   3.899   0.378  16.332  0.6223  0.2204 -0.6582
  789MPD2     H11634   3.548   0.263  16.411  0.2890  0.6138  0.8919
  789MPD2    H111635   3.852   0.563  16.421 -0.3219  0.8662 -0.8453
  789MPD2    H211636   3.940   0.196  16.244 -2.3272 -2.3855 -0.6821
  789MPD2    H311637   3.992   0.429  16.311 -0.6371  1.9835 -1.9467
  789MPD2     N11638   3.596   0.512  16.504  0.2645  0.3984  0.4261
  789MPD2    H511639   3.629   0.606  16.523 -1.0186  0.6710  1.2759
  789MPD2    N111640   3.701   0.073  16.301 -0.4835  0.3073  0.6718
  789MPD2    H711641   3.604   0.046  16.306  0.4040 -3.0993 -0.7792
  790MPD2     C11642   0.359   1.990  13.759  0.6483 -0.2662  0.0667
  790MPD2    C111643   0.436   2.101  13.722 -0.1425 -0.1938 -0.5002
  790MPD2    C211644   0.420   2.163  13.595 -0.4736 -0.0418  0.0613
  790MPD2    C311645   0.324   2.111  13.505 -0.2543  0.2095  0.3032
  790MPD2    C411646   0.264   1.990  13.545  0.1641 -0.4047 -0.2186
  790MPD2    C511647   0.278   1.929  13.670  0.3899 -0.7423  0.7769
  790MPD2     H11648   0.460   2.261  13.574 -2.4112 -0.0127 -3.5982
  790MPD2    H111649   0.197   1.939  13.477  0.8907 -1.9742  0.2379
  790MPD2    H211650   0.358   1.950  13.859  0.7396 -2.2785 -0.7240
  790MPD2    H311651   0.209   1.854  13.707 -0.2106 -0.3468  0.4592
  790MPD2     N11652   0.294   2.177  13.387 -0.6441 -0.2494  0.5025
  790MPD2    H511653   0.352   2.257  13.363  0.0633 -0.9852 -0.2376
  790MPD2    N111654   0.512   2.155  13.827 -0.6848  0.0826  0.0462
  790MPD2    H711655   0.498   2.112  13.918 -1.6949  0.8572  0.2560
  791MPD2     C11656   4.477   2.418  12.666  0.7311  0.3091 -0.4267
  791MPD2    C111657   4.486   2.312  12.756  0.4660  0.4112  0.0848
  791MPD2    C211658   4.387   2.211  12.750  0.9600  0.1599 -0.0650
  791MPD2    C311659   4.281   2.225  12.671  0.7691 -0.7468  0.2804
  791MPD2    C411660   4.272   2.337  12.589 -0.0030  0.7104  0.9248
  791MPD2    C511661   4.371   2.435  12.595 -1.0120  0.1269 -0.6693
  791MPD2     H11662   4.387   2.120  12.810  1.2186 -0.7783 -1.4919
  791MPD2    H111663   4.184   2.355  12.528  1.1445 -1.4392 -1.3754
  791MPD2    H211664   4.546   2.501  12.656  1.9144 -0.7090 -0.6261
  791MPD2    H311665   4.357   2.524  12.536  0.5756 -0.9921 -2.7335
  791MPD2     N11666   4.173   2.135  12.694  0.0688  0.2114  0.3373
  791MPD2    H511667   4.197   2.063  12.762  1.3479  0.5992  0.2923
  791MPD2    N111668   4.603   2.311  12.837 -0.2890 -0.4112  0.4234
  791MPD2    H711669   4.676   2.380  12.817  0.9124 -2.0594 -0.8831
  792MPD2     C11670   1.000   2.496  11.618  1.0120 -0.3684  0.4334
  792MPD2    C111671   0.928   2.544  11.508 -0.4301  0.1734  0.0447
  792MPD2    C211672   0.800   2.494  11.492 -0.1919 -0.1976 -0.8064
  792MPD2    C311673   0.741   2.405  11.570  0.2494 -0.7387  0.0575
  792MPD2    C411674   0.812   2.371  11.679 -0.4074  0.2917 -0.7431
  792MPD2    C511675   0.936   2.418  11.710 -0.2093  0.3068 -0.3325
  792MPD2     H11676   0.738   2.529  11.410 -1.3657 -2.1139 -0.7191
  792MPD2    H111677   0.774   2.305  11.756  0.4525  1.9068  1.0540
  792MPD2    H211678   1.106   2.513  11.626  1.1870 -0.2753 -2.0674
  792MPD2    H311679   0.988   2.385  11.799  1.1122 -1.2199 -1.6774
  792MPD2     N11680   0.613   2.353  11.554 -0.1325 -0.4287  0.3659
  792MPD2    H511681   0.594   2.279  11.621 -1.3628 -1.1288 -0.7590
  792MPD2    N111682   0.992   2.628  11.420  0.3922 -0.5776  0.5376
  792MPD2    H711683   1.088   2.651  11.443  0.8354 -0.6550 -1.1807
  793MPD2     C11684   0.092   2.296  10.666  0.0778  0.2296  0.1410
  793MPD2    C111685   0.211   2.329  10.728  0.5674  0.1313  0.4920
  793MPD2    C211686   0.224   2.340  10.863  0.6076  0.9963  0.7016
  793MPD2    C311687   0.105   2.311  10.941  0.7815  1.1538 -1.0022
  793MPD2    C411688   4.710   2.279  10.882  0.1254  0.1459 -0.5456
  793MPD2    C511689   4.708   2.273  10.746  0.5025  0.5565 -0.6809
  793MPD2     H11690   0.321   2.357  10.908 -0.1168 -0.8677  2.9538
  793MPD2    H111691   4.623   2.247  10.938  0.5602 -0.5751 -0.2843
  793MPD2    H211692   0.087   2.290  10.558 -0.8382 -2.7495  0.3719
  793MPD2    H311693   4.612   2.251  10.701 -0.6192 -0.4967  2.2491
  793MPD2     N11694   0.114   2.308  11.086  0.4267 -0.6954 -0.2686
  793MPD2    H511695   0.039   2.252  11.125  0.6701  0.5083  1.9676
  793MPD2    N111696   0.329   2.342  10.651 -0.5044  0.1397  0.1666
  793MPD2    H711697   0.411   2.386  10.692  0.6823  0.8664 -3.0059
  794MPD2     C11698   0.164   1.857  17.258  0.1939 -0.2592 -0.4300
  794MPD2    C111699   0.116   1.733  17.289 -0.1349 -1.0139  1.0065
  794MPD2    C211700   0.046   1.655  17.200 -0.5096 -0.6481 -0.0570
  794MPD2    C311701   0.001   1.712  17.085 -0.6697  1.0157 -0.2927
  794MPD2    C411702   0.038   1.840  17.050 -0.3038  0.6411  1.1292
  794MPD2    C511703   0.119   1.912  17.139  0.0794  0.0128 -0.5242
  794MPD2     H11704   0.007   1.560  17.234  2.3027 -1.3166  1.2973
  794MPD2    H111705   0.006   1.888  16.959 -1.9571 -0.9086  0.9119
  794MPD2    H211706   0.222   1.918  17.327 -1.7125  2.9389 -1.6690
  794MPD2    H311707   0.149   2.013  17.115 -0.1595  0.1188 -0.3792
  794MPD2     N11708   4.646   1.645  16.983  0.0411 -0.4202 -0.2471
  794MPD2    H511709   4.606   1.696  16.905  0.0757  1.9483  1.2789
  794MPD2    N111710   0.137   1.664  17.413 -0.0872 -0.0119  0.2314
  794MPD2    H711711   0.097   1.571  17.426  2.4407 -1.1842 -0.3933
  795MPD2     C11712   2.500   4.114  13.394 -0.0721 -0.5553 -0.4662
  795MPD2    C111713   2.448   4.013  13.470  0.3134  0.7705 -0.4207
  795MPD2    C211714   2.535   3.921  13.524  0.5980 -0.5565  0.0721
  795MPD2    C311715   2.663   3.912  13.476  0.3367  0.7138 -0.7230
  795MPD2    C411716   2.718   4.012  13.396  0.4048 -0.0043  1.1282
  795MPD2    C511717   2.628   4.106  13.355 -0.4108  0.4118  0.5882
  795MPD2     H11718   2.496   3.836  13.580 -1.7525  0.2021 -0.3889
  795MPD2    H111719   2.817   4.019  13.353 -1.9798  0.0794 -4.3491
  795MPD2    H211720   2.439   4.193  13.352  0.5335 -0.0745 -0.4399
  795MPD2    H311721   2.659   4.176  13.278 -0.1871 -1.2155 -0.7996
  795MPD2     N11722   2.743   3.811  13.529 -0.0635  0.4028  0.3664
  795MPD2    H511723   2.695   3.760  13.603  0.4299  0.0059  0.4205
  795MPD2    N111724   2.319   4.005  13.517  0.7978  0.1985 -0.1626
  795MPD2    H711725   2.290   3.923  13.570  1.0116 -0.0439 -0.4238
  796MPD2     C11726   2.035   1.038  16.122 -0.1060  0.1883  0.3566
  796MPD2    C111727   2.054   1.078  16.252  0.4850 -0.5685 -0.0531
  796MPD2    C211728   2.039   1.210  16.289 -0.3421 -0.1651  0.5163
  796MPD2    C311729   2.002   1.307  16.197 -0.6564  0.1709 -0.9915
  796MPD2    C411730   2.002   1.268  16.067  0.2319  0.3172 -0.0058
  796MPD2    C511731   2.014   1.139  16.031 -0.2962 -0.6287 -0.1578
  796MPD2     H11732   2.055   1.245  16.391 -1.2267  2.3813 -0.2088
  796MPD2    H111733   2.000   1.337  15.984 -1.7220  2.6294  1.9692
  796MPD2    H211734   2.043   0.938  16.082  1.0646  1.0395 -1.5397
  796MPD2    H311735   2.004   1.114  15.926 -1.2853 -1.6882  0.1986
  796MPD2     N11736   1.970   1.439  16.231 -0.3523 -0.2213  0.5087
  796MPD2    H511737   1.979   1.463  16.329  0.3004  0.3172  0.3188
  796MPD2    N111738   2.077   0.978  16.345 -0.2325 -0.8517 -0.1956
  796MPD2    H711739   2.084   0.884  16.307 -0.6527 -0.6502 -0.7637
  797MPD2     C11740   2.061   4.636  17.328  0.4399  0.2720 -0.4203
  797MPD2    C111741   2.085   4.675  17.457  0.1139  0.3893 -0.2495
  797MPD2    C211742   2.045   0.078  17.495  0.1831 -0.0079 -1.0401
  797MPD2    C311743   1.986   0.166  17.404 -0.5580 -0.1327 -0.1736
  797MPD2    C411744   1.985   0.139  17.271 -0.1730 -0.5424 -0.4220
  797MPD2    C511745   2.011   0.006  17.238 -0.6145  0.0024 -0.4210
  797MPD2     H11746   2.066   0.116  17.594  0.1395 -1.7399 -0.3632
  797MPD2    H111747   1.957   0.204  17.190 -1.7207 -1.4368 -0.6028
  797MPD2    H211748   2.095   4.544  17.283  1.2016 -0.0557  0.8050
  797MPD2    H311749   1.999   4.704  17.134  2.1401 -1.4132 -0.4133
  797MPD2     N11750   1.960   0.297  17.441 -0.0874  0.2245 -0.3164
  797MPD2    H511751   1.961   0.372  17.373  0.8759  0.6967  0.2186
  797MPD2    N111752   2.155   4.594  17.551  0.0143 -0.6578  0.2563
  797MPD2    H711753   2.168   4.644  17.639  1.3952  1.8212 -1.3312
  798MPD2     C11754   2.045   0.236   0.499  0.1686  0.1163  0.9140
  798MPD2    C111755   2.112   0.276   0.381  0.4597  0.1077 -0.1535
  798MPD2    C211756   2.189   0.175   0.318 -1.0782 -0.0821  0.0536
  798MPD2    C311757   2.221   0.053   0.379 -0.2694  0.1580 -0.4819
  798MPD2    C411758   2.158   0.025   0.503  0.0430  0.5060  0.3798
  798MPD2    C511759   2.074   0.120   0.554  1.0206  0.0391 -0.3019
  798MPD2     H11760   2.221   0.183   0.215  0.8137  1.1696  0.7336
  798MPD2    H111761   2.148   4.648   0.545  1.2782  0.1016 -0.2742
  798MPD2    H211762   1.968   0.297   0.545  2.1429  1.8020  1.9799
  798MPD2    H311763   2.020   0.088   0.642 -2.3221  0.1589 -2.3197
  798MPD2     N11764   2.268   4.675   0.286 -0.0564 -0.8177 -0.2552
  798MPD2    H511765   2.288   4.704   0.191 -2.4437 -1.1966 -0.8755
  798MPD2    N111766   2.087   0.401   0.323 -0.3408  0.4906  0.6645
  798MPD2    H711767   1.997   0.446   0.339  0.1978  1.9096 -0.2311
  799MPD2     C11768   2.109   2.215  14.817 -0.0704  0.6924 -0.3000
  799MPD2    C111769   2.066   2.101  14.743 -0.1397 -0.4851 -0.6603
  799MPD2    C211770   2.022   2.112  14.615 -0.3926  0.2801 -0.2145
  799MPD2    C311771   1.988   2.239  14.569 -0.1002  0.2963 -0.0011
  799MPD2    C411772   2.023   2.346  14.640  0.0942 -0.1246 -0.0122
  799MPD2    C511773   2.077   2.339  14.765  0.6691 -0.2797 -0.1198
  799MPD2     H11774   1.998   2.022  14.559 -1.2661  0.8028 -0.6884
  799MPD2    H111775   2.002   2.442  14.594 -0.7351 -0.7135 -0.8364
  799MPD2    H211776   2.173   2.212  14.904 -1.7781  0.2883  0.9370
  799MPD2    H311777   2.109   2.425  14.823  0.4407  0.8693 -1.7058
  799MPD2     N11778   1.942   2.260  14.434 -0.2516  0.0362 -0.3385
  799MPD2    H511779   1.954   2.352  14.394  0.5536 -0.5864 -1.5168
  799MPD2    N111780   2.115   1.977  14.782  0.2427  0.7191  0.3924
  799MPD2    H711781   2.106   1.902  14.714  1.9225 -0.8072  1.8614
  800MPD2     C11782   2.352   3.092  14.110 -0.1113 -0.0890  0.0339
  800MPD2    C111783   2.458   3.025  14.058 -0.5207 -0.3435  0.0016
  800MPD2    C211784   2.428   2.931  13.964 -0.2331 -0.1341  0.4681
  800MPD2    C311785   2.295   2.915  13.916 -0.1846 -0.7224 -0.7267
  800MPD2    C411786   2.193   2.985  13.965  0.1404  0.2789  0.4450
  800MPD2    C511787   2.222   3.063  14.074  0.2254  0.1165 -0.8497
  800MPD2     H11788   2.512   2.875  13.924  0.4557  2.7522 -2.1184
  800MPD2    H111789   2.091   2.970  13.933  0.6096 -1.1068 -0.3634
  800MPD2    H211790   2.369   3.166  14.187 -1.0554  0.4567 -0.2857
  800MPD2    H311791   2.148   3.133  14.113 -0.4864 -0.0285 -1.9395
  800MPD2     N11792   2.293   2.828  13.806  0.3049 -0.5598  0.0198
  800MPD2    H511793   2.381   2.783  13.785  1.0901  0.0971  1.9058
  800MPD2    N111794   2.585   3.054  14.110  0.3602  0.1145  0.1194
  800MPD2    H711795   2.601   3.142  14.158  1.4339 -0.5303  0.9584
  801MPD2     C11796   2.991   3.627  14.144 -0.1208 -0.8253 -0.2481
  801MPD2    C111797   2.882   3.547  14.177 -0.7665  0.5568 -0.0063
  801MPD2    C211798   2.795   3.597  14.274  0.0964 -0.4863 -0.0086
  801MPD2    C311799   2.813   3.722  14.320  0.3837  0.0404 -0.1805
  801MPD2    C411800   2.929   3.799  14.293 -0.1243  0.2596  0.0567
  801MPD2    C511801   3.020   3.750  14.205  0.4500 -0.2255  0.8458
  801MPD2     H11802   2.705   3.543  14.300 -1.2113  2.3162  1.3501
  801MPD2    H111803   2.953   3.892  14.343 -0.9147  0.4657  0.0470
  801MPD2    H211804   3.057   3.596  14.064  1.9987  0.9188  0.8184
  801MPD2    H311805   3.107   3.809  14.180 -0.4008  0.6010 -0.2021
  801MPD2     N11806   2.722   3.768  14.408  0.6309 -0.5842  0.3970
  801MPD2    H511807   2.760   3.841  14.467  0.4352  0.7197 -1.1330
  801MPD2    N111808   2.858   3.425  14.121  0.1253  0.2907  0.6220
  801MPD2    H711809   2.785   3.374  14.170  1.2481 -0.3000  1.6808
  802MPD2     C11810   2.214   4.193   1.079 -0.7216  0.8589  0.9028
  802MPD2    C111811   2.095   4.139   1.031  0.3387  0.4697 -0.1157
  802MPD2    C211812   2.071   4.153   0.897 -0.0286 -0.0155  0.5865
  802MPD2    C311813   2.168   4.212   0.813 -0.2963 -0.3272 -0.0266
  802MPD2    C411814   2.286   4.255   0.863 -0.8292  0.1280  0.3106
  802MPD2    C511815   2.312   4.244   0.997  0.3452 -0.8257 -0.2476
  802MPD2     H11816   1.983   4.107   0.853  0.3278  0.1244 -0.2748
  802MPD2    H111817   2.358   4.296   0.793  0.7875 -2.3286  0.5109
  802MPD2    H211818   2.243   4.183   1.183 -1.7904  0.1158  1.1310
  802MPD2    H311819   2.409   4.272   1.036  0.3815  0.0421 -0.9826
  802MPD2     N11820   2.146   4.203   0.673 -0.5745  0.4463  0.5347
  802MPD2    H511821   2.052   4.190   0.637 -0.7223 -0.0728  1.1121
  802MPD2    N111822   1.990   4.080   1.106 -0.4933  0.1666  0.2535
  802MPD2    H711823   1.914   4.050   1.046  0.9000 -0.6513 -1.1049
  803MPD2     C11824   3.130   2.332  11.906 -0.1273 -0.0749 -0.3390
  803MPD2    C111825   3.229   2.360  12.001 -0.7497 -0.6930  0.0547
  803MPD2    C211826   3.197   2.361  12.132  0.8162 -0.3173  0.1628
  803MPD2    C311827   3.071   2.327  12.177  0.1281  0.4304  0.1469
  803MPD2    C411828   2.975   2.298  12.084  0.1594  0.9022  0.2975
  803MPD2    C511829   3.006   2.296  11.949 -0.4832 -0.4783 -0.0263
  803MPD2     H11830   3.279   2.372  12.201  1.3350 -2.0648 -0.1809
  803MPD2    H111831   2.876   2.270  12.119  0.4437 -0.4349  0.0398
  803MPD2    H211832   3.144   2.335  11.799  0.9726  3.5137 -0.1186
  803MPD2    H311833   2.932   2.266  11.875 -0.6429 -0.8843  0.2989
  803MPD2     N11834   3.037   2.314  12.312 -0.6860  0.3033  0.2487
  803MPD2    H511835   2.943   2.280  12.327  0.1398 -0.6530  3.1888
  803MPD2    N111836   3.366   2.371  11.972 -0.3274 -0.7853  0.5667
  803MPD2    H711837   3.429   2.404  12.045 -1.7788 -2.2472  2.4736
  804MPD2     C11838   2.230   3.240  17.012 -0.2188 -0.0539  0.1738
  804MPD2    C111839   2.237   3.247  17.152  0.1428 -0.4297  0.0560
  804MPD2    C211840   2.303   3.346  17.219 -0.5797  0.5151 -0.6679
  804MPD2    C311841   2.379   3.444  17.142 -0.8704 -0.0945  0.1699
  804MPD2    C411842   2.385   3.429  17.001  0.1923 -0.6825  0.0781
  804MPD2    C511843   2.312   3.329  16.945  0.0753  0.3543  0.4084
  804MPD2     H11844   2.295   3.355  17.327 -3.9697 -0.2925 -0.8293
  804MPD2    H111845   2.426   3.499  16.929 -2.7339  1.0795  0.1105
  804MPD2    H211846   2.171   3.166  16.960 -1.9906  0.9181  0.7882
  804MPD2    H311847   2.313   3.317  16.837  1.8859 -0.1022  0.4703
  804MPD2     N11848   2.456   3.545  17.209 -0.2755 -0.7656 -0.2724
  804MPD2    H511849   2.425   3.562  17.305 -0.8728 -2.2779 -0.1801
  804MPD2    N111850   2.173   3.152  17.233  0.2483  0.0583 -0.4308
  804MPD2    H711851   2.184   3.171  17.332  0.7549 -0.6805 -0.3436
  805MPD2     C11852   1.432   1.884  15.616 -0.0492  0.1873 -0.2274
  805MPD2    C111853   1.512   1.962  15.535  0.6944 -0.0066 -0.4182
  805MPD2    C211854   1.643   1.991  15.571  0.7312  0.4211  0.3537
  805MPD2    C311855   1.694   1.934  15.685 -0.1014 -0.1977 -0.4844
  805MPD2    C411856   1.604   1.861  15.761  0.0083 -0.1058  0.3994
  805MPD2    C511857   1.482   1.839  15.731 -0.0118  0.6162 -0.2788
  805MPD2     H11858   1.703   2.057  15.510 -1.4391  0.5527 -1.6779
  805MPD2    H111859   1.642   1.823  15.854  3.4740  0.4200 -0.8191
  805MPD2    H211860   1.332   1.849  15.593  0.9696 -2.4399 -0.6143
  805MPD2    H311861   1.427   1.774  15.798 -1.1986  0.4615 -1.4022
  805MPD2     N11862   1.826   1.962  15.726 -0.0067 -0.1121  0.6611
  805MPD2    H511863   1.879   2.030  15.672  1.5471  0.2706  2.6292
  805MPD2    N111864   1.466   2.013  15.408  0.0619  0.2044  0.5232
  805MPD2    H711865   1.539   2.058  15.353 -2.1526  1.9841 -0.9491
  806MPD2     C11866   2.293   1.218   0.291  0.3193  0.7361  0.3931
  806MPD2    C111867   2.300   1.202   0.428 -0.5746 -0.2642 -0.0161
  806MPD2    C211868   2.419   1.219   0.490 -0.6697  0.0707 -0.7524
  806MPD2    C311869   2.528   1.263   0.424 -1.1121 -0.5346  0.0011
  806MPD2    C411870   2.518   1.285   0.290  0.0905 -0.7357  0.2619
  806MPD2    C511871   2.398   1.262   0.221  1.1499 -0.4914 -0.4599
  806MPD2     H11872   2.438   1.197   0.595 -2.4341  1.5078 -0.1375
  806MPD2    H111873   2.598   1.330   0.233 -1.3013  0.4338 -0.7817
  806MPD2    H211874   2.203   1.199   0.233  0.0102  0.0751  1.1024
  806MPD2    H311875   2.392   1.282   0.114 -1.8012 -0.7738 -0.3520
  806MPD2     N11876   2.646   1.272   0.494  0.0140  0.0130  0.0537
  806MPD2    H511877   2.643   1.248   0.593 -0.1489  1.6220  0.4511
  806MPD2    N111878   2.183   1.163   0.498 -0.0777 -0.3575  0.2894
  806MPD2    H711879   2.108   1.134   0.437  0.0787 -1.7694  0.7858
  807MPD2     C11880   2.014   0.479   0.799  0.1435  0.0013 -0.2970
  807MPD2    C111881   1.947   0.577   0.875  0.1394 -0.6142  0.5944
  807MPD2    C211882   1.893   0.544   0.995  0.7566 -0.2072 -0.8335
  807MPD2    C311883   1.900   0.414   1.048  0.0957 -0.5861 -0.3725
  807MPD2    C411884   1.978   0.319   0.981 -0.3723 -0.1296  0.0808
  807MPD2    C511885   2.039   0.358   0.860 -0.1624  0.9764 -0.2024
  807MPD2     H11886   1.827   0.622   1.032  1.0522 -0.7753  0.9128
  807MPD2    H111887   1.992   0.219   1.019  0.8951 -1.1121 -2.9675
  807MPD2    H211888   2.042   0.508   0.698  3.9310 -0.0908  0.7496
  807MPD2    H311889   2.102   0.295   0.799  0.6132  1.8046 -0.2586
  807MPD2     N11890   1.851   0.393   1.182  0.2223 -0.0212  0.5715
  807MPD2    H511891   1.783   0.461   1.217 -0.1883  0.4848 -1.2095
  807MPD2    N111892   1.915   0.701   0.825 -0.1270  0.5505  0.0775
  807MPD2    H711893   1.839   0.748   0.874  2.4465  1.6600  2.9873
  808MPD2     C11894   4.365   1.924  10.131  0.2758 -0.3587  0.4703
  808MPD2    C111895   4.243   1.993  10.116  0.0144  0.6093  0.3634
  808MPD2    C211896   4.227   2.091  10.021 -0.0304  0.7514 -0.1236
  808MPD2    C311897   4.330   2.133   9.941  0.8014  0.1304  1.0044
  808MPD2    C411898   4.449   2.065   9.962  0.0578  0.4821  0.5828
  808MPD2    C511899   4.470   1.970  10.055  0.1085  0.5374  0.0070
  808MPD2     H11900   4.136   2.150  10.025  0.1227  0.8730  1.3232
  808MPD2    H111901   4.543   2.088   9.914 -0.4932  1.4304 -0.0631
  808MPD2    H211902   4.382   1.841  10.198  0.8291  0.9719  1.9847
  808MPD2    H311903   4.571   1.931  10.064 -0.2160 -0.2602  0.1873
  808MPD2     N11904   4.330   2.245   9.859 -0.3883 -0.2224  0.2873
  808MPD2    H511905   4.413   2.259   9.802 -0.7035 -2.4129 -0.7323
  808MPD2    N111906   4.134   1.978  10.202 -0.6930  0.7906 -0.1374
  808MPD2    H711907   4.050   2.030  10.177 -2.1905 -1.2048  0.7488
  809MPD2     C11908   4.672   2.490   9.052 -0.0200 -0.4745  0.2545
  809MPD2    C111909   4.698   2.594   9.138 -0.0273 -0.1957  0.2246
  809MPD2    C211910   4.628   2.599   9.259 -0.5361  0.7666 -0.2871
  809MPD2    C311911   4.537   2.500   9.293  0.0543  0.1338 -0.5847
  809MPD2    C411912   4.505   2.397   9.205  0.0012 -0.4286 -0.2052
  809MPD2    C511913   4.584   2.391   9.090  1.0169 -0.2072 -0.4742
  809MPD2     H11914   4.645   2.688   9.319  3.4825  0.6543 -1.2799
  809MPD2    H111915   4.445   2.314   9.240 -2.2658  1.3480  0.1097
  809MPD2    H211916   0.000   2.465   8.960 -1.4277  2.1757 -1.2623
  809MPD2    H311917   4.572   2.303   9.028  0.0096 -0.2740 -0.1773
  809MPD2     N11918   4.474   2.498   9.419  0.2164 -0.2827  0.2295
  809MPD2    H511919   4.411   2.419   9.434  1.2028 -1.0937  0.0721
  809MPD2    N111920   0.076   2.692   9.116  0.0619 -0.0154 -0.7270
  809MPD2    H711921   0.075   2.773   9.176 -0.9437 -1.1333  0.7424
  810MPD2     C11922   2.500   2.169  11.381  0.8656 -0.3971 -0.1627
  810MPD2    C111923   2.562   2.183  11.255 -0.2093 -0.5159 -0.5808
  810MPD2    C211924   2.628   2.304  11.229  0.0538  0.5255 -0.1151
  810MPD2    C311925   2.652   2.402  11.327  0.2646 -0.7767 -1.0413
  810MPD2    C411926   2.600   2.379  11.455  0.5136  0.3676 -0.6014
  810MPD2    C511927   2.532   2.260  11.478  0.4960  0.4871 -0.2779
  810MPD2     H11928   2.671   2.335  11.135 -0.9466 -1.4593 -1.2178
  810MPD2    H111929   2.619   2.452  11.534 -2.4520  1.5955 -1.0217
  810MPD2    H211930   2.434   2.089  11.413 -1.9602  2.0738  0.0999
  810MPD2    H311931   2.491   2.248  11.578 -1.1757  1.0556 -0.9007
  810MPD2     N11932   2.710   2.531  11.302  0.1757 -0.1012 -0.2252
  810MPD2    H511933   2.705   2.610  11.367  0.4421  0.7430 -1.2248
  810MPD2    N111934   2.556   2.082  11.158  1.0115 -0.6972 -0.1076
  810MPD2    H711935   2.515   1.995  11.191 -2.3733  1.2758  0.8839
  811MPD2     C11936   2.163   2.086  10.395 -0.4926 -0.1584  0.1817
  811MPD2    C111937   2.287   2.107  10.447 -0.3681  0.3897 -0.4731
  811MPD2    C211938   2.352   2.226  10.406 -0.1198 -0.0168  0.3065
  811MPD2    C311939   2.301   2.316  10.317 -0.0671 -0.5184 -0.2132
  811MPD2    C411940   2.183   2.277  10.253 -0.3826  0.2510 -0.6234
  811MPD2    C511941   2.110   2.175  10.299  0.6502 -0.1711  0.2703
  811MPD2     H11942   2.437   2.261  10.463 -0.7350  0.4124  0.9645
  811MPD2    H111943   2.135   2.337  10.176  0.7729  1.2340 -0.5712
  811MPD2    H211944   2.107   1.995  10.414  1.1454 -1.1097  0.4172
  811MPD2    H311945   2.015   2.148  10.254  1.0809  0.0164 -0.7484
  811MPD2     N11946   2.356   2.445  10.310 -0.8324  0.4453  0.0707
  811MPD2    H511947   2.441   2.457  10.363 -2.7109  1.7254  2.8034
  811MPD2    N111948   2.337   2.031  10.548 -0.2402  1.1002 -0.1733
  811MPD2    H711949   2.274   1.973  10.604 -0.4034 -0.0348 -1.5252
  812MPD2     C11950   1.474   2.184  12.232 -0.5605  0.3776 -0.4348
  812MPD2    C111951   1.371   2.239  12.311 -0.2523 -0.4569 -0.3240
  812MPD2    C211952   1.282   2.163  12.386  0.1705  0.3952  0.0181
  812MPD2    C311953   1.301   2.029  12.385 -0.1017  0.3756 -0.0722
  812MPD2    C411954   1.390   1.965  12.300 -0.3537  0.6292 -0.5089
  812MPD2    C511955   1.479   2.043  12.234 -0.1343 -1.0650 -0.1952
  812MPD2     H11956   1.211   2.206  12.456  0.4468  0.7287  0.0977
  812MPD2    H111957   1.398   1.857  12.305  1.2669  0.6917 -1.7060
  812MPD2    H211958   1.551   2.241  12.181 -0.0252  1.2583  1.3366
  812MPD2    H311959   1.549   1.995  12.167  1.2393  0.3869  0.2111
  812MPD2     N11960   1.203   1.955  12.464 -0.1571  0.1474 -0.2371
  812MPD2    H511961   1.147   2.016  12.523 -0.7230  1.6853 -2.3620
  812MPD2    N111962   1.365   2.384  12.321  0.1855 -0.1996 -0.9565
  812MPD2    H711963   1.436   2.423  12.260 -0.3134 -0.3147 -1.6064
  813MPD2     C11964   0.129   3.787  12.799  0.0667  0.2559  0.2720
  813MPD2    C111965   0.112   3.923  12.802  1.2443 -0.7237  0.4392
  813MPD2    C211966   0.020   3.977  12.888  0.0294  0.3605 -0.2314
  813MPD2    C311967   4.675   3.898  12.980 -0.6696  0.3108  0.4039
  813MPD2    C411968   4.687   3.759  12.976  0.7925 -0.4166  0.7535
  813MPD2    C511969   0.054   3.711  12.884  0.2534 -0.7559  0.2406
  813MPD2     H11970   4.717   4.082  12.891  0.0021  0.2940  2.0026
  813MPD2    H111971   4.633   3.682  13.030 -1.8652  1.9123  1.3677
  813MPD2    H211972   0.190   3.735  12.726  0.8652  0.4892  0.7795
  813MPD2    H311973   0.060   3.603  12.892  1.5437 -0.7055 -0.0183
  813MPD2     N11974   4.584   3.966  13.059 -0.2366  0.6678 -0.3373
  813MPD2    H511975   4.561   4.064  13.045 -0.1678  0.9046  1.2186
  813MPD2    N111976   0.198   4.005  12.719  0.7824  0.3990 -0.5091
  813MPD2    H711977   0.246   3.954  12.646  0.9160  0.6879 -0.6237
  814MPD2     C11978   0.641   0.726  12.266 -0.3167  0.7372  0.4051
  814MPD2    C111979   0.651   0.805  12.156  0.2482 -0.1459 -0.1788
  814MPD2    C211980   0.729   0.913  12.160 -0.0806 -0.2573  0.0154
  814MPD2    C311981   0.786   0.965  12.273 -0.2943  0.8840 -0.0253
  814MPD2    C411982   0.757   0.890  12.386  0.7523  0.0254  0.3583
  814MPD2    C511983   0.690   0.774  12.383 -0.5593 -0.0653 -0.1574
  814MPD2     H11984   0.743   0.968  12.068  2.9100 -2.2123 -0.6708
  814MPD2    H111985   0.805   0.905  12.483 -0.4353  2.6395  0.5560
  814MPD2    H211986   0.596   0.629  12.255 -0.1755  0.6553  0.5364
  814MPD2    H311987   0.679   0.705  12.466  0.6499 -1.8831 -1.5214
  814MPD2     N11988   0.877   1.073  12.283 -0.6481 -0.2699 -0.6290
  814MPD2    H511989   0.919   1.097  12.372 -1.7199 -2.4514  0.4688
  814MPD2    N111990   0.591   0.769  12.028  0.0552 -0.2721  0.0969
  814MPD2    H711991   0.610   0.834  11.953  3.0425  1.7594  2.6085
  815MPD2     C11992   0.934   3.331  12.271  0.2328 -0.3267  0.1656
  815MPD2    C111993   0.955   3.435  12.180 -0.2827 -0.0841  0.0376
  815MPD2    C211994   0.836   3.485  12.113  0.1010  0.3544  0.0628
  815MPD2    C311995   0.711   3.440  12.147  0.0802  0.5069  0.1619
  815MPD2    C411996   0.694   3.335  12.242 -0.1207 -0.3565  0.2326
  815MPD2    C511997   0.806   3.280  12.297 -0.3317  0.7092  0.2818
  815MPD2     H11998   0.854   3.565  12.042  0.2673 -0.2211 -0.5554
  815MPD2    H111999   0.598   3.291  12.267 -0.6772  0.2786 -0.7963
  815MPD2    H212000   1.021   3.288  12.318  1.0555  0.1557 -0.9299
  815MPD2    H312001   0.790   3.206  12.374 -0.7508  0.9100  0.3857
  815MPD2     N12002   0.606   3.490  12.077 -0.5267 -0.0193  0.1034
  815MPD2    H512003   0.621   3.577  12.026 -1.7898  0.8375  1.1832
  815MPD2    N112004   1.082   3.472  12.149  0.0802 -0.4041 -0.0072
  815MPD2    H712005   1.158   3.409  12.171  0.5597  0.9569  2.2515
  816MPD2     C12006   1.161   3.203   0.009  0.2964  0.1657 -0.1373
  816MPD2    C112007   1.060   3.188  17.610  0.1857 -0.6618  0.7606
  816MPD2    C212008   1.087   3.118  17.496  1.5118 -0.3234 -0.3895
  816MPD2    C312009   1.212   3.070  17.470  0.3280  0.4951  0.7890
  816MPD2    C412010   1.311   3.077  17.569  0.0433 -1.1961  0.0862
  816MPD2    C512011   1.281   3.142  17.688 -0.5418 -0.1635  0.2808
  816MPD2     H12012   1.007   3.104  17.425  4.0699 -0.1630 -3.2871
  816MPD2    H112013   1.411   3.041  17.550  2.2644  3.2576  3.2637
  816MPD2    H212014   1.159   3.268   0.096 -0.3138 -2.1956  1.6188
  816MPD2    H312015   1.359   3.163   0.066  0.0506 -2.1972  0.2345
  816MPD2     N12016   1.229   3.003  17.347 -0.5087  0.0755 -0.4697
  816MPD2    H512017   1.148   3.014  17.287  0.3315  0.4349 -1.5480
  816MPD2    N112018   0.936   3.241  17.652 -0.0725 -0.2523 -0.0450
  816MPD2    H712019   0.921   3.285   0.049  2.0636  0.4722 -0.0157
  817MPD2     C12020   1.493   4.697   9.911  0.4842  0.7545  0.3594
  817MPD2    C112021   1.468   4.612   9.805 -0.2283 -0.3918 -0.1916
  817MPD2    C212022   1.405   4.666   9.691  0.3788 -0.0733 -0.4455
  817MPD2    C312023   1.366   0.072   9.686  0.0326  0.0030  0.2376
  817MPD2    C412024   1.393   0.155   9.799  0.4526 -0.6083  0.9478
  817MPD2    C512025   1.452   0.100   9.916  0.0313 -0.0518  0.3111
  817MPD2     H12026   1.392   4.602   9.604 -1.0796 -1.4253  0.7726
  817MPD2    H112027   1.372   0.261   9.806 -0.9046 -0.8952  1.1636
  817MPD2    H212028   1.531   4.658  10.004  2.1594 -0.8206 -0.9644
  817MPD2    H312029   1.461   0.160  10.005  1.9591  1.2669 -0.7771
  817MPD2     N12030   1.288   0.124   9.584 -0.4506 -0.3442 -0.0612
  817MPD2    H512031   1.280   0.058   9.508 -0.4229 -0.3903 -0.0244
  817MPD2    N112032   1.488   4.469   9.801  0.4288 -0.1776 -0.2192
  817MPD2    H712033   1.447   4.422   9.721  0.0799 -0.9316  0.4018
  818MPD2     C12034   0.573   0.594  10.003 -0.1214  0.3529 -0.2700
  818MPD2    C112035   0.484   0.496  10.048 -0.1173  0.5271  0.4205
  818MPD2    C212036   0.516   0.364  10.034 -0.2751  0.4272 -0.3073
  818MPD2    C312037   0.626   0.321   9.964  0.2244 -0.0364  0.1722
  818MPD2    C412038   0.702   0.424   9.913 -0.3788  0.0762  0.0345
  818MPD2    C512039   0.681   0.554   9.936 -0.5542  0.4898  0.0424
  818MPD2     H12040   0.448   0.287  10.070 -0.8041  1.3264  0.6039
  818MPD2    H112041   0.794   0.400   9.861 -1.1154 -0.4966 -0.9845
  818MPD2    H212042   0.552   0.698  10.022 -0.9720  0.2031 -0.3896
  818MPD2    H312043   0.758   0.619   9.893  0.3995  0.3808  1.5838
  818MPD2     N12044   0.652   0.180   9.926 -0.4445 -0.2244 -0.2668
  818MPD2    H512045   0.724   0.165   9.856 -0.4664 -2.9917  0.3207
  818MPD2    N112046   0.360   0.521  10.113 -0.0765  0.3607  0.1907
  818MPD2    H712047   0.311   0.433  10.130  0.1993  0.0844 -0.4446
  819MPD2     C12048   2.351   1.820  15.736 -0.4796 -0.6116 -0.3327
  819MPD2    C112049   2.301   1.691  15.751 -0.7683  0.0731  0.3078
  819MPD2    C212050   2.375   1.601  15.824  0.0480 -0.5255 -0.0541
  819MPD2    C312051   2.481   1.639  15.893 -0.2479  0.1126 -0.1927
  819MPD2    C412052   2.523   1.774  15.895 -0.0936 -0.3055  0.2515
  819MPD2    C512053   2.458   1.861  15.808  0.7037 -0.5557 -0.1978
  819MPD2     H12054   2.349   1.496  15.832 -1.8642 -0.2017 -2.0592
  819MPD2    H112055   2.614   1.799  15.949 -0.6782  1.4889  0.3973
  819MPD2    H212056   2.303   1.898  15.678 -0.3693 -0.4711 -0.2345
  819MPD2    H312057   2.491   1.963  15.791 -2.8855  0.8073  0.9018
  819MPD2     N12058   2.542   1.534  15.962 -0.3431  0.1500 -0.0352
  819MPD2    H512059   2.500   1.442  15.955 -0.8424  0.2476  1.6331
  819MPD2    N112060   2.190   1.654  15.680 -0.3307 -0.0990  0.0444
  819MPD2    H712061   2.161   1.714  15.604 -0.1045 -1.5085 -1.1399
  820MPD2     C12062   1.805   1.838  14.836  0.0277 -0.4085  0.6216
  820MPD2    C112063   1.777   1.897  14.960 -0.2130 -0.2973 -0.0411
  820MPD2    C212064   1.823   1.827  15.068 -0.1235  0.2797  0.4395
  820MPD2    C312065   1.882   1.701  15.063 -0.4527  1.1515  0.2099
  820MPD2    C412066   1.899   1.649  14.938  0.2321  0.4196  0.2816
  820MPD2    C512067   1.860   1.715  14.826  0.4022  0.0856 -0.8727
  820MPD2     H12068   1.798   1.874  15.162  1.3545 -0.6462  1.2741
  820MPD2    H112069   1.928   1.545  14.924  0.2012  0.7129 -1.9092
  820MPD2    H212070   1.778   1.892  14.746  1.6324 -0.8865 -0.1659
  820MPD2    H312071   1.881   1.677  14.727  0.7069 -1.8257 -0.0860
  820MPD2     N12072   1.920   1.619  15.176 -0.7835  0.0277  0.3035
  820MPD2    H512073   1.962   1.528  15.158  0.4644  1.0499 -2.0019
  820MPD2    N112074   1.689   2.007  14.970  0.3892 -0.1794  0.0308
  820MPD2    H712075   1.660   2.046  14.880 -0.6616 -0.6881  0.1460
  821MPD2     C12076   2.379   3.266  13.187  0.6327 -0.2505  0.5897
  821MPD2    C112077   2.457   3.145  13.173 -0.2073 -0.3739 -0.4907
  821MPD2    C212078   2.561   3.146  13.082  0.7594 -0.8407  0.5385
  821MPD2    C312079   2.595   3.259  13.005 -0.2531  0.3091  0.2844
  821MPD2    C412080   2.516   3.371  13.008 -0.3318  0.0697 -0.7844
  821MPD2    C512081   2.418   3.368  13.096  0.0165  0.1274  0.3243
  821MPD2     H12082   2.631   3.064  13.070  2.1549  0.2324  1.3473
  821MPD2    H112083   2.529   3.462  12.952 -0.7204  0.2689 -0.5526
  821MPD2    H212084   2.293   3.285  13.250  0.4133 -1.6572  0.7202
  821MPD2    H312085   2.354   3.455  13.093 -1.0702 -0.7306 -1.4385
  821MPD2     N12086   2.716   3.247  12.925  0.5571 -0.3406  0.1779
  821MPD2    H512087   2.748   3.152  12.913 -0.1383 -0.9598  3.4228
  821MPD2    N112088   2.427   3.031  13.256  0.1713 -0.2168  0.5209
  821MPD2    H712089   2.496   2.957  13.248  0.2724 -0.1277  0.5543
  822MPD2     C12090   2.858   2.422  15.882  0.8994  0.1871  0.1288
  822MPD2    C112091   2.910   2.479  15.997 -0.4222  0.4994 -0.5685
  822MPD2    C212092   2.820   2.550  16.080 -0.1947  0.1935 -0.1522
  822MPD2    C312093   2.687   2.555  16.056 -0.1598 -0.1611 -0.1791
  822MPD2    C412094   2.630   2.481  15.947 -0.4118 -0.1296 -0.4705
  822MPD2    C512095   2.722   2.419  15.864  0.2800 -0.5271 -0.4581
  822MPD2     H12096   2.848   2.608  16.168  1.0381 -0.9221  0.1916
  822MPD2    H112097   2.526   2.466  15.923 -0.6601 -0.3760  0.7386
  822MPD2    H212098   2.931   2.372  15.819 -0.1299 -0.5368 -0.4962
  822MPD2    H312099   2.692   2.368  15.773  1.6581 -0.7305 -0.8085
  822MPD2     N12100   2.620   2.643  16.136  0.6273  0.0988  0.1895
  822MPD2    H512101   2.667   2.715  16.189  0.8163 -0.8241  1.2835
  822MPD2    N112102   3.042   2.477  16.034 -0.1740 -0.1444 -0.3497
  822MPD2    H712103   3.040   2.513  16.129  0.7328 -2.2000  0.4414
  823MPD2     C12104   2.462   2.954  16.937 -0.5166  0.4141 -0.0367
  823MPD2    C112105   2.501   2.848  16.859  0.4924  0.0326  0.6180
  823MPD2    C212106   2.563   2.742  16.929  0.6814 -0.3609 -0.4435
  823MPD2    C312107   2.579   2.736  17.065  0.1570 -0.3609  0.3363
  823MPD2    C412108   2.542   2.848  17.135  1.3889  0.3750 -0.0535
  823MPD2    C512109   2.482   2.950  17.069  0.4822 -0.5282 -0.3958
  823MPD2     H12110   2.599   2.659  16.869  2.3405  1.2020 -1.5944
  823MPD2    H112111   2.545   2.841  17.243 -1.2644  0.6958  0.0302
  823MPD2    H212112   2.409   3.044  16.908  2.2516  1.9245 -0.4223
  823MPD2    H312113   2.427   3.028  17.120 -0.6675 -3.1010  2.2682
  823MPD2     N12114   2.641   2.624  17.129 -0.3035  0.0187  0.0438
  823MPD2    H512115   2.653   2.636  17.229  1.3190  1.0779 -0.2832
  823MPD2    N112116   2.465   2.853  16.723 -0.2551 -0.2879 -1.2473
  823MPD2    H712117   2.450   2.948  16.690  0.5591  0.2201 -0.1410
  824MPD2     C12118   3.410   1.835  15.991  0.1667  0.8214  0.1199
  824MPD2    C112119   3.509   1.932  15.999 -0.3787 -0.2606  0.3972
  824MPD2    C212120   3.642   1.894  15.986  0.2274 -0.1254  0.2284
  824MPD2    C312121   3.682   1.762  15.973  0.8340 -0.4512  0.6234
  824MPD2    C412122   3.577   1.671  15.956 -0.3103  0.2350  0.7308
  824MPD2    C512123   3.447   1.707  15.967  0.2494 -0.0048  0.3281
  824MPD2     H12124   3.728   1.961  15.986  0.4001 -0.3313  2.5939
  824MPD2    H112125   3.598   1.567  15.933 -1.4199 -0.5368  3.1893
  824MPD2    H212126   3.307   1.866  16.005 -0.5006 -1.4930  0.4344
  824MPD2    H312127   3.364   1.640  15.952  0.3381 -0.1495  0.4836
  824MPD2     N12128   3.823   1.731  15.967  0.1716 -0.1046  0.2885
  824MPD2    H512129   3.886   1.809  15.980 -0.1312  0.1912 -0.0086
  824MPD2    N112130   3.465   2.061  16.029  0.0186  0.0818  0.3316
  824MPD2    H712131   3.365   2.082  16.025 -0.0026 -0.5749 -2.3411
  825MPD2     C12132   4.457   1.709  15.401  0.0397  0.0969  0.4179
  825MPD2    C112133   4.391   1.782  15.498 -0.4074 -0.6318 -0.1925
  825MPD2    C212134   4.411   1.920  15.502  0.3896 -0.8179  0.0608
  825MPD2    C312135   4.494   1.984  15.411 -0.2929 -0.4164  0.3057
  825MPD2    C412136   4.547   1.908  15.308 -0.1222  0.0710  0.3652
  825MPD2    C512137   4.527   1.776  15.308 -0.6319  0.6387 -0.3633
  825MPD2     H12138   4.368   1.984  15.579  0.5637  1.4177 -1.7152
  825MPD2    H112139   4.614   1.952  15.235  1.8892 -1.9984  0.9516
  825MPD2    H212140   4.458   1.601  15.407 -0.5273  0.0586 -0.1778
  825MPD2    H312141   4.584   1.725  15.232 -1.4113 -0.1658 -0.4000
  825MPD2     N12142   4.510   2.126  15.398  0.7537  0.2261 -0.0483
  825MPD2    H512143   4.566   2.154  15.318  0.1316 -0.6400 -0.7848
  825MPD2    N112144   4.320   1.705  15.596  0.4092 -0.5315 -0.3536
  825MPD2    H712145   4.317   1.606  15.572 -4.4329 -0.7210  1.1499
  826MPD2     C12146   4.167   2.224  13.880  0.2602 -0.7414  0.3330
  826MPD2    C112147   4.110   2.232  13.756  0.0527 -0.2270 -0.6512
  826MPD2    C212148   3.974   2.268  13.753 -0.3730  0.0262  0.6781
  826MPD2    C312149   3.906   2.310  13.857 -0.4093 -0.2591  0.6134
  826MPD2    C412150   3.964   2.307  13.981  0.6987  0.1583 -0.3889
  826MPD2    C512151   4.101   2.275  13.991 -0.2009 -0.5089 -0.2355
  826MPD2     H12152   3.913   2.254  13.665 -0.1429 -2.0771  0.8400
  826MPD2    H112153   3.915   2.355  14.065  3.2718  0.6345  0.8487
  826MPD2    H212154   4.268   2.188  13.893  0.4734 -1.5432 -3.4123
  826MPD2    H312155   4.150   2.270  14.087 -1.6921  1.8805  0.6765
  826MPD2     N12156   3.773   2.350  13.858  0.7930  0.2938 -0.0967
  826MPD2    H512157   3.730   2.379  13.945  0.5316 -1.6645  0.4163
  826MPD2    N112158   4.191   2.205  13.647  0.1502  0.0878 -0.1324
  826MPD2    H712159   4.290   2.185  13.659  0.5904  0.8241 -2.5695
  827MPD2     C12160   0.640   3.227  10.021 -0.8918  1.1596  0.4355
  827MPD2    C112161   0.562   3.169  10.118  0.0679 -0.7637  0.2678
  827MPD2    C212162   0.440   3.107  10.081  0.2098  0.5377  0.3261
  827MPD2    C312163   0.401   3.113   9.952 -0.7826  0.1062  0.3865
  827MPD2    C412164   0.484   3.178   9.858 -0.2928 -0.3507 -0.7474
  827MPD2    C512165   0.599   3.243   9.894 -0.1390  0.6564  0.6105
  827MPD2     H12166   0.373   3.050  10.144 -0.2490 -0.1526 -0.7842
  827MPD2    H112167   0.451   3.183   9.755 -1.4193 -0.3619 -0.3878
  827MPD2    H212168   0.735   3.270  10.051 -0.5409 -0.0265  1.0055
  827MPD2    H312169   0.659   3.305   9.827 -2.3896  0.8936 -1.1847
  827MPD2     N12170   0.289   3.037   9.917 -0.3334 -0.3328 -0.0256
  827MPD2    H512171   0.235   2.996   9.993  1.3414 -0.7019  0.9688
  827MPD2    N112172   0.603   3.186  10.255 -0.7292 -0.0159 -0.1628
  827MPD2    H712173   0.681   3.249  10.266 -0.2062 -0.5527 -0.7976
  828MPD2     C12174   3.462   3.123  12.589  0.2069  0.1976 -0.2793
  828MPD2    C112175   3.417   3.086  12.461  0.8772 -0.0165  0.8199
  828MPD2    C212176   3.504   3.076  12.355 -1.1019 -0.5658  0.1403
  828MPD2    C312177   3.639   3.066  12.380  0.5745  0.4066 -0.6992
  828MPD2    C412178   3.682   3.097  12.506  0.4839 -0.1660 -0.0656
  828MPD2    C512179   3.593   3.125  12.605 -0.7233  1.4655  0.2501
  828MPD2     H12180   3.461   3.077  12.255 -2.3977  0.3514  0.7143
  828MPD2    H112181   3.787   3.097  12.536  0.1366 -2.3144  1.1890
  828MPD2    H212182   3.391   3.129  12.670 -0.6814 -0.5009 -1.0023
  828MPD2    H312183   3.628   3.139  12.706 -0.0390  0.6572  0.1236
  828MPD2     N12184   3.741   3.038  12.283  0.7292 -0.4653 -0.0471
  828MPD2    H512185   3.837   3.050  12.313  1.1106  0.2089 -1.5187
  828MPD2    N112186   3.277   3.080  12.427 -0.1373  0.6543 -0.4247
  828MPD2    H712187   3.256   3.081  12.328 -0.9906 -2.6393 -0.2939
  829MPD2     C12188   2.886   3.819  12.226  0.2026  0.0418 -0.1034
  829MPD2    C112189   2.788   3.735  12.268  0.4248  0.6207  0.6535
  829MPD2    C212190   2.817   3.597  12.285  0.4419 -0.1848 -0.2852
  829MPD2    C312191   2.941   3.548  12.252  0.0854  0.1979 -0.4387
  829MPD2    C412192   3.038   3.632  12.208 -0.0116  0.1874 -0.5352
  829MPD2    C512193   3.012   3.764  12.199  0.2513  0.2087  0.0350
  829MPD2     H12194   2.739   3.528  12.314  0.7230 -0.6213 -0.5657
  829MPD2    H112195   3.130   3.590  12.169  1.7077  2.9155  0.5877
  829MPD2    H212196   2.871   3.925  12.215  0.8538  0.2336  0.9128
  829MPD2    H312197   3.089   3.831  12.161  1.9576 -2.0274 -0.4769
  829MPD2     N12198   2.972   3.413  12.230 -0.1645  0.1449 -0.8431
  829MPD2    H512199   3.061   3.381  12.194  0.0931  0.2136 -0.2569
  829MPD2    N112200   2.660   3.795  12.287 -0.0440 -0.4739 -0.1688
  829MPD2    H712201   2.648   3.888  12.248 -0.2404 -0.2154  0.5129
  830MPD2     C12202   2.935   1.051  15.559 -0.3140  0.3861  0.3986
  830MPD2    C112203   3.005   1.142  15.641 -0.3399  0.2712 -0.4114
  830MPD2    C212204   3.114   1.202  15.590 -0.6107 -0.6785 -0.3507
  830MPD2    C312205   3.157   1.182  15.461  0.1954 -0.1967 -0.4222
  830MPD2    C412206   3.079   1.103  15.378  0.0314 -0.3961 -0.1819
  830MPD2    C512207   2.974   1.033  15.427  0.1739  0.0275  0.0345
  830MPD2     H12208   3.168   1.264  15.660 -0.0023  0.1765 -1.5967
  830MPD2    H112209   3.100   1.076  15.275  1.4841  1.3625 -0.3339
  830MPD2    H212210   2.851   0.993  15.596 -1.9167  1.2502 -1.8846
  830MPD2    H312211   2.914   0.966  15.366 -0.1862  1.8186 -1.5857
  830MPD2     N12212   3.266   1.246  15.398  0.0431  0.3096 -0.0910
  830MPD2    H512213   3.288   1.229  15.300 -2.0914  0.2236 -0.5542
  830MPD2    N112214   2.968   1.186  15.769  0.1298  0.1300 -0.0445
  830MPD2    H712215   3.032   1.207  15.845 -0.3763 -0.8106  0.6481
  831MPD2     C12216   2.928   2.894  16.659  0.1526 -0.5273  0.1919
  831MPD2    C112217   2.880   2.853  16.536 -0.2445  0.1211 -0.0298
  831MPD2    C212218   2.825   2.726  16.533 -0.1796 -0.4084  0.1501
  831MPD2    C312219   2.805   2.654  16.653  0.4307  0.0248  0.0540
  831MPD2    C412220   2.844   2.713  16.778 -0.6601  1.1828  0.5297
  831MPD2    C512221   2.910   2.829  16.779  0.0773 -0.6615  0.3313
  831MPD2     H12222   2.798   2.674  16.441 -1.2708  1.9866 -0.8827
  831MPD2    H112223   2.840   2.661  16.873 -0.8508  1.3800  0.6280
  831MPD2    H212224   2.971   2.992  16.678  1.5751 -1.0944 -0.0842
  831MPD2    H312225   2.939   2.875  16.873 -0.2082  0.5129 -0.1523
  831MPD2     N12226   2.755   2.527  16.662 -0.0619 -0.0689  0.0937
  831MPD2    H512227   2.743   2.485  16.753 -3.1966 -0.3371 -0.4203
  831MPD2    N112228   2.919   2.921  16.420  0.4180 -0.1133 -0.1882
  831MPD2    H712229   2.983   2.999  16.430  1.1101 -0.7168  0.0817
  832MPD2     C12230   1.337   4.226  17.685 -0.1442  0.1080 -0.2221
  832MPD2    C112231   1.309   4.342  17.617 -0.1093 -0.4803 -0.7099
  832MPD2    C212232   1.229   4.331  17.501 -0.4592  0.2221  0.2590
  832MPD2    C312233   1.191   4.207  17.453 -0.2401 -0.4220 -0.3205
  832MPD2    C412234   1.226   4.089  17.522  0.3506 -0.1332 -0.2933
  832MPD2    C512235   1.288   4.108  17.644 -0.4166 -0.7485 -0.0874
  832MPD2     H12236   1.172   4.418  17.470 -1.1930  0.0794  1.1759
  832MPD2    H112237   1.189   3.991  17.497  2.7290 -0.5587 -2.0619
  832MPD2    H212238   1.397   4.240   0.080 -2.3946 -0.5905  1.4174
  832MPD2    H312239   1.306   4.019   0.010  2.0188 -1.8014 -2.3958
  832MPD2     N12240   1.098   4.191  17.350 -0.8951 -0.0406  0.2874
  832MPD2    H512241   1.054   4.102  17.331  2.1697 -1.1576 -1.4217
  832MPD2    N112242   1.361   4.458  17.675  0.0714 -0.3632  0.6855
  832MPD2    H712243   1.415   4.448   0.067  0.4616  0.4115  0.5239
  833MPD2     C12244   3.825   1.135  12.607 -0.1666  0.4477  0.2333
  833MPD2    C112245   3.832   1.203  12.490 -0.0847  0.2978  0.3607
  833MPD2    C212246   3.910   1.156  12.387 -0.5333 -0.1461 -0.0899
  833MPD2    C312247   3.965   1.026  12.389 -0.4383  0.0926  0.0572
  833MPD2    C412248   3.953   0.958  12.505  0.2864 -0.2602  0.1324
  833MPD2    C512249   3.880   1.009  12.608 -0.7454 -0.1583 -0.1529
  833MPD2     H12250   3.924   1.222  12.302  0.3958 -0.2413 -0.0180
  833MPD2    H112251   3.989   0.856  12.509 -0.2408 -0.3776  1.9157
  833MPD2    H212252   3.763   1.155  12.694  0.2200  3.0189 -0.0969
  833MPD2    H312253   3.859   0.953  12.698  0.1359 -0.2406 -0.0053
  833MPD2     N12254   4.007   0.960  12.269  0.0441  0.3894 -0.7650
  833MPD2    H512255   4.042   0.865  12.283  1.2997  0.8263 -0.9740
  833MPD2    N112256   3.778   1.334  12.497  0.1343 -0.0883 -0.1839
  833MPD2    H712257   3.726   1.354  12.582 -3.0092 -0.8172 -1.9148
  834MPD2     C12258   4.101   0.261  11.549 -0.8012  0.0054  0.3977
  834MPD2    C112259   4.073   0.381  11.479 -0.1677 -0.0440 -0.1753
  834MPD2    C212260   4.051   0.495  11.554  0.3728  0.3338 -0.3187
  834MPD2    C312261   4.054   0.489  11.692 -0.6465  0.0510  0.3632
  834MPD2    C412262   4.077   0.364  11.760 -0.0135  0.0403  0.2150
  834MPD2    C512263   4.094   0.253  11.689 -0.3205 -0.1767 -0.0418
  834MPD2     H12264   4.030   0.588  11.503  0.5246  0.9275  0.7166
  834MPD2    H112265   4.051   0.345  11.864 -2.7594  0.0520 -0.4836
  834MPD2    H212266   4.110   0.171  11.489  1.1799  0.9377 -0.6975
  834MPD2    H312267   4.093   0.158  11.741 -0.7868 -0.8648 -1.3020
  834MPD2     N12268   4.041   0.613  11.760 -0.3806 -0.9863 -0.3699
  834MPD2    H512269   4.044   0.700  11.709  0.5665 -1.3107 -0.8648
  834MPD2    N112270   4.068   0.380  11.332  0.5557 -0.6141  0.2666
  834MPD2    H712271   4.065   0.286  11.295  3.2600  0.3432 -2.3405
  835MPD2     C12272   4.397   3.556  10.741 -0.4977  0.2590 -0.4736
  835MPD2    C112273   4.260   3.538  10.764 -0.5786 -0.0893 -0.8154
  835MPD2    C212274   4.222   3.413  10.810  0.1541  0.5730  0.7283
  835MPD2    C312275   4.314   3.313  10.837 -0.0325  0.3560  0.0545
  835MPD2    C412276   4.449   3.340  10.821  0.2970 -0.3901 -0.4833
  835MPD2    C512277   4.486   3.459  10.768  0.0420 -0.2933 -0.0474
  835MPD2     H12278   4.117   3.390  10.827  0.2350 -2.3341 -2.6400
  835MPD2    H112279   4.529   3.270  10.843  1.0217  1.3237  2.3322
  835MPD2    H212280   4.438   3.644  10.691 -0.8165  2.6063  3.4536
  835MPD2    H312281   4.589   3.489  10.759 -0.3893  1.1989  0.0016
  835MPD2     N12282   4.273   3.199  10.906 -0.3389  0.3697  0.2390
  835MPD2    H512283   4.352   3.136  10.915  0.9791  2.1819  1.2176
  835MPD2    N112284   4.162   3.635  10.739 -0.4687  0.1240 -0.7477
  835MPD2    H712285   4.068   3.600  10.755 -0.4052  1.2486  2.0250
  836MPD2     C12286   4.086   3.152  11.665  0.1767 -0.3156  0.2328
  836MPD2    C112287   3.995   3.116  11.568 -0.3982 -0.3852 -0.1275
  836MPD2    C212288   3.859   3.140  11.592  0.3530 -0.4236 -0.1808
  836MPD2    C312289   3.819   3.191  11.716  0.6633 -0.2438  0.0678
  836MPD2    C412290   3.922   3.223  11.807  0.4971 -0.1454  0.3727
  836MPD2    C512291   4.051   3.215  11.776  0.2605 -0.6553 -0.4691
  836MPD2     H12292   3.785   3.110  11.519 -0.6031  0.6460  0.3488
  836MPD2    H112293   3.893   3.248  11.909 -2.0086 -1.9046  0.0828
  836MPD2    H212294   4.192   3.132  11.659  0.3627  1.1583 -1.6626
  836MPD2    H312295   4.126   3.242  11.850 -0.2369  1.7044 -0.8067
  836MPD2     N12296   3.683   3.186  11.772 -0.5574  0.0106  0.2925
  836MPD2    H512297   3.672   3.243  11.855  0.2539 -0.2028  0.5470
  836MPD2    N112298   4.048   3.064  11.441 -0.6912 -0.0598 -0.4443
  836MPD2    H712299   4.148   3.056  11.428 -0.6038 -1.1231  0.9544
  837MPD2     C12300   2.787   3.015  10.601  0.0587  0.0297  0.2562
  837MPD2    C112301   2.674   3.043  10.537 -0.0931 -0.7296  0.2029
  837MPD2    C212302   2.604   3.155  10.561 -0.0610 -0.4365  0.3613
  837MPD2    C312303   2.666   3.249  10.650  0.2989 -0.1632 -0.9540
  837MPD2    C412304   2.785   3.223  10.707 -0.3217  0.7521  0.2790
  837MPD2    C512305   2.841   3.103  10.685  0.2284  0.1393  0.2863
  837MPD2     H12306   2.505   3.175  10.522  0.2831  2.1531  0.8540
  837MPD2    H112307   2.823   3.280  10.791  2.8714 -0.6259 -0.2305
  837MPD2    H212308   2.836   2.919  10.589  1.2262  0.4408  1.6806
  837MPD2    H312309   2.924   3.075  10.749  1.1056  2.3507  0.1097
  837MPD2     N12310   2.590   3.368  10.668  0.0979 -0.1638  0.2152
  837MPD2    H512311   2.492   3.365  10.642 -0.2866  1.3446  1.4766
  837MPD2    N112312   2.606   2.958  10.447 -0.0794 -0.2801  0.6702
  837MPD2    H712313   2.510   2.986  10.431 -1.1543 -3.3034  1.8975
  838MPD2     C12314   0.196   1.126  11.350  0.4390  0.8873  0.4122
  838MPD2    C112315   0.222   1.202  11.463 -0.1085 -0.0746 -0.3821
  838MPD2    C212316   0.115   1.218  11.553 -0.5683  0.0830  0.1450
  838MPD2    C312317   4.721   1.149  11.547  0.1248  0.1764 -0.6578
  838MPD2    C412318   4.692   1.087  11.427  0.4490 -0.3285 -0.2931
  838MPD2    C512319   0.066   1.076  11.330  0.8371 -0.4342 -0.0007
  838MPD2     H12320   0.137   1.277  11.642 -0.2693 -1.9023  1.3893
  838MPD2    H112321   4.601   1.032  11.403 -0.1776  0.9176 -0.7753
  838MPD2    H212322   0.266   1.103  11.270  1.0567 -0.8480  1.4453
  838MPD2    H312323   0.039   1.023  11.239 -2.7568  0.9801  0.2544
  838MPD2     N12324   4.640   1.146  11.664  0.0752 -0.9009 -0.4871
  838MPD2    H512325   4.676   1.197  11.744  2.9181 -1.7445 -1.2145
  838MPD2    N112326   0.346   1.268  11.499  0.4431  0.3825  0.6471
  838MPD2    H712327   0.337   1.322  11.584  0.7955 -0.5916  1.2885
  839MPD2     C12328   0.181   0.929  11.887  0.0943 -0.5084  0.4873
  839MPD2    C112329   0.254   0.903  11.773 -0.0203 -0.6274  0.2582
  839MPD2    C212330   0.383   0.948  11.773 -0.4135  0.7429  0.0878
  839MPD2    C312331   0.428   1.023  11.880 -0.4660 -0.2129 -0.0770
  839MPD2    C412332   0.358   1.044  11.992  0.3513  0.3049  0.3775
  839MPD2    C512333   0.234   0.998  11.998 -0.0144 -0.3793  0.7404
  839MPD2     H12334   0.447   0.957  11.686  0.0886  2.4717  0.6412
  839MPD2    H112335   0.394   1.107  12.072  2.5618 -0.2455 -0.1825
  839MPD2    H212336   0.087   0.877  11.903 -0.1544 -0.6981 -1.6050
  839MPD2    H312337   0.171   1.006  12.086 -1.1943 -0.1921 -0.1260
  839MPD2     N12338   0.555   1.086  11.872  0.2109 -0.2143  0.2344
  839MPD2    H512339   0.565   1.172  11.925 -1.1272  0.0692  0.0215
  839MPD2    N112340   0.192   0.844  11.660  0.3792 -0.2638  0.8280
  839MPD2    H712341   0.248   0.842  11.575  1.2795 -0.3609  1.4209
  840MPD2     C12342   0.892   3.699  10.387 -0.1461 -0.9530 -0.0036
  840MPD2    C112343   0.881   3.634  10.512 -0.3526  0.0869  0.0397
  840MPD2    C212344   0.959   3.682  10.616  0.1746 -0.3317  0.2144
  840MPD2    C312345   1.050   3.785  10.595 -0.9049 -1.0656 -0.0492
  840MPD2    C412346   1.057   3.840  10.469  0.4228 -0.4246  0.3028
  840MPD2    C512347   0.977   3.804  10.370  0.2412  0.1227  0.4902
  840MPD2     H12348   0.957   3.631  10.712  1.3589  0.6547  0.7664
  840MPD2    H112349   1.116   3.925  10.436  0.3938 -0.1747  0.8975
  840MPD2    H212350   0.831   3.675  10.301  1.5402  0.5222 -1.6192
  840MPD2    H312351   0.983   3.862  10.278 -1.5064  0.3240  0.4914
  840MPD2     N12352   1.148   3.830  10.688  0.3643 -0.4750 -0.3301
  840MPD2    H512353   1.213   3.897  10.650 -1.9276  1.3387 -1.0208
  840MPD2    N112354   0.786   3.534  10.522  0.4394  0.0247  0.1629
  840MPD2    H712355   0.743   3.508  10.434  0.7391 -3.4184  1.0322
  841MPD2     C12356   0.437   3.613  14.126 -0.3095 -0.0097 -0.7941
  841MPD2    C112357   0.439   3.515  14.225 -0.3490 -0.5953 -0.0384
  841MPD2    C212358   0.521   3.539  14.330 -0.2226  0.6296 -0.3389
  841MPD2    C312359   0.587   3.651  14.352 -0.1072 -0.7437  1.2830
  841MPD2    C412360   0.580   3.748  14.260  0.4323 -0.1969  0.0549
  841MPD2    C512361   0.499   3.730  14.150 -0.3941 -0.4723  0.3528
  841MPD2     H12362   0.529   3.458  14.401  0.1809  1.0606  0.1025
  841MPD2    H112363   0.628   3.845  14.261  1.1110 -0.5420  0.7907
  841MPD2    H212364   0.354   3.617  14.055 -0.0648  1.7978 -0.9799
  841MPD2    H312365   0.474   3.807  14.079  1.0804 -0.4122 -0.1168
  841MPD2     N12366   0.663   3.663  14.464  0.5779 -0.0508 -0.1555
  841MPD2    H512367   0.648   3.589  14.532 -1.2189 -2.0603 -2.7436
  841MPD2    N112368   0.371   3.391  14.213 -0.1841  0.5256  0.0247
  841MPD2    H712369   0.380   3.324  14.288 -1.7334 -2.4715 -2.4971
  842MPD2     C12370   4.622   4.649  16.786  0.6468 -0.3915  0.0777
  842MPD2    C112371   4.616   4.513  16.765 -0.6410  0.1923 -0.5254
  842MPD2    C212372   4.648   4.427  16.869  0.1032  0.3140 -0.2048
  842MPD2    C312373   4.697   4.478  16.985  0.0406  0.2645 -0.0789
  842MPD2    C412374   4.689   4.615  17.013  0.4265  0.1848  0.3797
  842MPD2    C512375   4.649   4.698  16.912 -0.2562 -0.9653 -0.7111
  842MPD2     H12376   4.677   4.324  16.853 -0.1823  0.4277 -1.5022
  842MPD2    H112377   0.004   4.660  17.104  3.0589  1.3545 -1.2982
  842MPD2    H212378   4.581   0.002  16.722 -0.3660 -0.2938  0.8458
  842MPD2    H312379   4.647   0.081  16.935  1.2305 -1.0340 -0.2601
  842MPD2     N12380   0.037   4.396  17.080 -0.2786 -0.4820 -0.4074
  842MPD2    H512381   0.060   4.436  17.170 -2.9054  0.7515 -0.2754
  842MPD2    N112382   4.605   4.460  16.635 -0.5021 -0.0145  0.0814
  842MPD2    H712383   4.607   4.525  16.556 -2.8249 -0.5608 -0.4246
  843MPD2     C12384   3.169   0.385   0.363 -0.7120  0.7555 -0.1950
  843MPD2    C112385   3.230   0.268   0.351 -0.1584 -0.3208 -0.5124
  843MPD2    C212386   3.311   0.244   0.240  0.4640 -0.5077 -0.4891
  843MPD2    C312387   3.338   0.346   0.149 -0.5772 -0.1414 -0.2186
  843MPD2    C412388   3.261   0.461   0.165 -0.7579  0.1000  0.1459
  843MPD2    C512389   3.183   0.485   0.275 -0.2805  0.2832 -0.0622
  843MPD2     H12390   3.380   0.161   0.249 -1.2014 -2.0799 -2.4801
  843MPD2    H112391   3.272   0.545   0.096  1.1961  0.9672  1.5106
  843MPD2    H212392   3.100   0.398   0.446  0.7576  1.0164  0.9879
  843MPD2    H312393   3.139   0.583   0.290 -0.2945  0.6492 -2.5388
  843MPD2     N12394   3.430   0.340   0.044  0.7478 -0.2667  0.3593
  843MPD2    H512395   3.448   0.422  17.680 -0.4398  0.1304  0.5681
  843MPD2    N112396   3.242   0.191   0.468  0.6779 -0.0857 -0.1218
  843MPD2    H712397   3.189   0.226   0.548  1.9889  0.7778  0.3790
  844MPD2     C12398   1.049   3.741  17.085 -0.4722  0.0451  0.2020
  844MPD2    C112399   1.068   3.824  16.974  1.3222  0.2264  0.5850
  844MPD2    C212400   1.162   3.917  16.988  0.4301 -0.0070 -0.4264
  844MPD2    C312401   1.237   3.944  17.100  0.6895  0.0445 -0.2404
  844MPD2    C412402   1.203   3.877  17.213  0.7724 -0.0390  0.0214
  844MPD2    C512403   1.105   3.776  17.204 -0.0355 -0.1465 -0.6315
  844MPD2     H12404   1.174   3.983  16.902  1.4268  0.1951 -0.1365
  844MPD2    H112405   1.254   3.902  17.306 -0.2650  1.2639  0.2462
  844MPD2    H212406   0.984   3.654  17.082  0.9334 -0.9817 -0.5567
  844MPD2    H312407   1.076   3.716  17.290  1.0194 -1.1800 -1.0068
  844MPD2     N12408   1.333   4.048  17.095  0.2054 -0.0041  0.1754
  844MPD2    H512409   1.338   4.122  17.025  1.2197  1.1543  1.4492
  844MPD2    N112410   0.996   3.806  16.853  0.0882  0.0177 -1.0805
  844MPD2    H712411   1.028   3.858  16.772  0.5556  2.4188  0.6705
  845MPD2     C12412   1.215   0.309  17.135 -0.2510 -0.7204  0.2212
  845MPD2    C112413   1.193   0.252  17.254  0.6008  0.3985 -0.0252
  845MPD2    C212414   1.247   0.124  17.285  0.0577  0.5565 -0.0039
  845MPD2    C312415   1.307   0.052  17.187 -0.0112 -0.3989  0.1274
  845MPD2    C412416   1.321   0.108  17.065 -0.0854  0.1825 -0.3987
  845MPD2    C512417   1.282   0.237  17.044 -0.5364  0.1487 -0.7214
  845MPD2     H12418   1.234   0.078  17.383 -0.7384 -1.4895 -1.0728
  845MPD2    H112419   1.363   0.052  16.983 -3.3472 -2.1666 -0.4656
  845MPD2    H212420   1.193   0.414  17.119 -1.1431 -0.7110  1.4174
  845MPD2    H312421   1.291   0.279  16.945 -0.7557 -1.4760 -1.4336
  845MPD2     N12422   1.357   4.648  17.223 -0.6700  0.3413  0.4192
  845MPD2    H512423   1.368   4.628  17.322 -1.2949  2.0125  0.8247
  845MPD2    N112424   1.134   0.333  17.350 -0.2768 -0.1951  0.0120
  845MPD2    H712425   1.128   0.428  17.317  0.0944 -0.6743 -1.4222
  846MPD2     C12426   3.228   0.520  14.206 -0.2520  0.0643 -0.4686
  846MPD2    C112427   3.160   0.628  14.151 -0.1498 -0.7223  0.2360
  846MPD2    C212428   3.062   0.694  14.230 -0.0260 -0.1391  0.0819
  846MPD2    C312429   3.041   0.656  14.363 -0.4018 -0.1828  0.5183
  846MPD2    C412430   3.112   0.546  14.408  0.0466 -1.1666 -0.1774
  846MPD2    C512431   3.203   0.474  14.333  0.2091 -0.1910  0.1252
  846MPD2     H12432   3.006   0.777  14.189  1.0204  0.7872  0.5213
  846MPD2    H112433   3.097   0.509  14.509 -1.7232 -1.6005 -0.5938
  846MPD2    H212434   3.307   0.462  14.161  1.5510  0.5798  2.0271
  846MPD2    H312435   3.261   0.391  14.370 -0.3704 -0.8317 -0.3965
  846MPD2     N12436   2.946   0.725  14.443 -0.0819  0.9875  0.5975
  846MPD2    H512437   2.898   0.797  14.390 -1.0001 -0.2656 -0.2631
  846MPD2    N112438   3.179   0.665  14.015  0.2363  0.2480 -0.1105
  846MPD2    H712439   3.140   0.754  13.986 -0.3403  0.0253 -0.0197
  847MPD2     C12440   3.203   1.123  14.370 -0.3004  0.2431 -0.4929
  847MPD2    C112441   3.299   1.223  14.355  0.2035  0.2196 -0.1583
  847MPD2    C212442   3.419   1.232  14.425  0.8391  0.6015 -0.1996
  847MPD2    C312443   3.455   1.127  14.506  0.3015  0.4173 -0.2228
  847MPD2    C412444   3.373   1.017  14.511  0.0812  0.2154 -1.0644
  847MPD2    C512445   3.245   1.027  14.460 -0.4384 -0.1449  0.5810
  847MPD2     H12446   3.485   1.318  14.418  0.3794  1.0019  0.4100
  847MPD2    H112447   3.391   0.937  14.582  1.9714  0.1810 -1.5603
  847MPD2    H212448   3.110   1.113  14.315 -0.2718  2.4139 -0.9315
  847MPD2    H312449   3.184   0.944  14.495 -0.3141 -0.1271  0.8462
  847MPD2     N12450   3.577   1.139  14.571 -0.2700 -0.0143 -0.0396
  847MPD2    H512451   3.634   1.221  14.551 -1.5878  1.1034  0.7899
  847MPD2    N112452   3.272   1.336  14.276  0.7835  0.0242  0.6552
  847MPD2    H712453   3.339   1.412  14.274  2.3748 -1.4052 -0.0371
  848MPD2     C12454   0.807   4.339  16.540 -0.3775  0.0710  0.2399
  848MPD2    C112455   0.781   4.412  16.657 -0.9967 -0.6569 -0.1186
  848MPD2    C212456   0.713   4.529  16.642 -0.4921  0.2870 -0.6759
  848MPD2    C312457   0.699   4.586  16.517 -0.1068 -0.0177  0.5559
  848MPD2    C412458   0.730   4.520  16.399 -0.2183  0.2580 -0.2736
  848MPD2    C512459   0.787   4.394  16.413 -0.7185  0.1457  0.8971
  848MPD2     H12460   0.675   4.581  16.730  0.3350 -0.2824  0.0183
  848MPD2    H112461   0.720   4.561  16.299  1.5927  0.5544 -0.3228
  848MPD2    H212462   0.828   4.232  16.541 -0.6264 -0.0042 -1.6310
  848MPD2    H312463   0.815   4.341  16.323  0.1200 -0.5329  1.5627
  848MPD2     N12464   0.629   4.705  16.502 -0.2324  0.1284  0.0996
  848MPD2    H512465   0.610   0.021  16.410 -1.2252 -0.3948  0.0751
  848MPD2    N112466   0.813   4.372  16.790  0.6715 -0.2004 -0.2836
  848MPD2    H712467   0.795   4.435  16.867 -0.3055  0.0759 -0.7287
  849MPD2     C12468   0.258   4.055  14.373  0.1653 -0.3179 -0.4917
  849MPD2    C112469   0.300   4.182  14.348 -0.8564 -0.0793 -0.2717
  849MPD2    C212470   0.428   4.211  14.394 -0.7118 -0.0716  0.7414
  849MPD2    C312471   0.514   4.119  14.442 -0.3642 -0.2777 -0.3785
  849MPD2    C412472   0.473   3.991  14.461  0.1587 -0.1408 -0.4534
  849MPD2    C512473   0.342   3.959  14.428  1.0392  0.3763 -0.2526
  849MPD2     H12474   0.472   4.305  14.363  1.3386 -1.2791 -0.0015
  849MPD2    H112475   0.532   3.911  14.504  1.0790  0.7138 -0.1188
  849MPD2    H212476   0.157   4.020  14.351 -0.5100  1.4211 -0.1767
  849MPD2    H312477   0.304   3.858  14.435  0.8635  0.4387 -0.2924
  849MPD2     N12478   0.652   4.125  14.463 -0.2956 -0.4135 -0.3523
  849MPD2    H512479   0.698   4.038  14.489  1.2761  1.0430  1.7418
  849MPD2    N112480   0.242   4.247  14.240  0.0101  0.2883  0.0255
  849MPD2    H712481   0.158   4.213  14.195  0.2830  0.6956 -0.7813
  850MPD2     C12482   3.280   2.303  14.777 -0.5664  0.1334  0.4752
  850MPD2    C112483   3.244   2.386  14.875 -0.4970 -0.2314 -0.4571
  850MPD2    C212484   3.344   2.403  14.972  0.0168  0.0616 -0.9787
  850MPD2    C312485   3.458   2.327  14.978  0.3711  0.6707  0.0331
  850MPD2    C412486   3.482   2.236  14.874  0.1155  0.4429  0.0523
  850MPD2    C512487   3.388   2.221  14.780 -0.7079 -0.3436 -0.0618
  850MPD2     H12488   3.333   2.484  15.044  1.1786  0.7803 -1.6094
  850MPD2    H112489   3.572   2.176  14.867  0.0265 -0.0007  2.6496
  850MPD2    H212490   3.217   2.288  14.690  1.4865 -1.1188 -0.7990
  850MPD2    H312491   3.406   2.148  14.702  2.2033 -0.3404  0.5834
  850MPD2     N12492   3.550   2.333  15.084  0.8400  0.6174  0.1705
  850MPD2    H512493   3.621   2.261  15.083 -0.5144 -0.7405  0.9550
  850MPD2    N112494   3.121   2.452  14.867  0.3675  0.0372 -0.2182
  850MPD2    H712495   3.083   2.472  14.775 -2.5494  2.4883  1.4962
  851MPD2     C12496   3.403   2.155  15.612 -0.3063 -0.1555  0.2621
  851MPD2    C112497   3.357   2.126  15.488 -0.3975  0.0675  0.1007
  851MPD2    C212498   3.395   2.004  15.426 -0.2800 -0.3497 -0.1847
  851MPD2    C312499   3.474   1.916  15.492 -0.3528  0.2525 -0.4765
  851MPD2    C412500   3.527   1.953  15.615  0.3306  0.2118 -0.3418
  851MPD2    C512501   3.489   2.068  15.678  0.0422 -0.6056  0.1338
  851MPD2     H12502   3.350   1.969  15.334  0.3570  3.7356 -2.0519
  851MPD2    H112503   3.599   1.893  15.670 -0.3303 -1.4775 -1.3281
  851MPD2    H212504   3.397   2.255  15.653  0.8932 -0.3452  0.8925
  851MPD2    H312505   3.529   2.089  15.777 -0.1418 -0.1036  0.1012
  851MPD2     N12506   3.511   1.796  15.435  0.2003 -0.1323 -0.5107
  851MPD2    H512507   3.475   1.772  15.342  0.3552  1.4266 -0.9720
  851MPD2    N112508   3.264   2.222  15.434 -0.4686  0.2187 -0.5659
  851MPD2    H712509   3.250   2.307  15.487  0.3808  0.1853 -0.2845
  852MPD2     C12510   3.647   3.819   9.589  0.3709 -0.0679  0.1553
  852MPD2    C112511   3.708   3.858   9.706 -0.2929 -0.0853 -0.0806
  852MPD2    C212512   3.821   3.938   9.702  0.2612 -0.5443  0.2140
  852MPD2    C312513   3.869   3.985   9.583  0.7963 -0.2903 -0.5506
  852MPD2    C412514   3.804   3.951   9.467  0.7889  0.1656  0.4379
  852MPD2    C512515   3.695   3.871   9.472  0.3552 -0.2278  0.1835
  852MPD2     H12516   3.870   3.952   9.798  2.8962  1.5114 -1.4031
  852MPD2    H112517   3.848   3.977   9.371  1.2034  1.7470  1.0551
  852MPD2    H212518   3.564   3.750   9.587 -1.2595  1.8633  1.3693
  852MPD2    H312519   3.646   3.851   9.377 -1.9887  0.2118  1.2993
  852MPD2     N12520   3.995   4.057   9.582 -0.5825  0.8320  0.1862
  852MPD2    H512521   4.041   4.071   9.671  0.9828  0.6510 -0.5969
  852MPD2    N112522   3.681   3.804   9.829  0.6616 -0.2923 -0.1791
  852MPD2    H712523   3.743   3.833   9.904  0.7883 -2.5036  0.5620
  853MPD2     C12524   0.314   4.512  12.515 -0.5637 -0.7795  0.1025
  853MPD2    C112525   0.231   4.607  12.459  0.0826 -0.2180 -0.4355
  853MPD2    C212526   0.209   4.612  12.325  0.0624  0.0653  0.0359
  853MPD2    C312527   0.289   4.531  12.239  0.1469  0.9190  0.0404
  853MPD2    C412528   0.362   4.429  12.295 -0.5168  0.0324 -0.0081
  853MPD2    C512529   0.378   4.426  12.432 -0.7491  0.3984  0.5042
  853MPD2     H12530   0.134   4.676  12.281  0.8640 -1.0349 -2.9469
  853MPD2    H112531   0.414   4.359  12.230 -4.2041 -3.2928  0.6049
  853MPD2    H212532   0.325   4.495  12.622  2.7363 -4.3430 -0.8140
  853MPD2    H312533   0.436   4.348  12.480 -0.4301  0.1197 -0.3416
  853MPD2     N12534   0.284   4.541  12.098  0.7137 -0.5321  0.0088
  853MPD2    H512535   0.335   4.471  12.046  2.0614 -0.5657  1.3801
  853MPD2    N112536   0.177   4.698  12.548 -0.7788 -0.5027  0.1436
  853MPD2    H712537   0.201   4.685  12.646 -1.3413  0.8090  0.4615
  854MPD2     C12538   1.382   0.272  13.477  0.4691  0.2723 -0.0042
  854MPD2    C112539   1.462   0.388  13.477  0.1081  0.0623 -0.4775
  854MPD2    C212540   1.589   0.378  13.427 -0.2388 -0.2397 -0.2109
  854MPD2    C312541   1.637   0.261  13.374  0.3641  0.3361  0.8657
  854MPD2    C412542   1.558   0.147  13.382  0.1016 -0.5560 -0.4313
  854MPD2    C512543   1.435   0.148  13.443 -0.2055  0.1509 -0.2433
  854MPD2     H12544   1.650   0.468  13.419  2.5081 -2.1564 -0.7636
  854MPD2    H112545   1.597   0.055  13.341  0.4595 -0.1239 -1.0578
  854MPD2    H212546   1.281   0.273  13.517 -0.8781 -0.4522 -3.3785
  854MPD2    H312547   1.381   0.054  13.450  0.5685 -0.4816 -2.8605
  854MPD2     N12548   1.764   0.260  13.310  0.3492  0.0739 -0.4570
  854MPD2    H512549   1.829   0.337  13.324  0.1948  0.2941 -0.9813
  854MPD2    N112550   1.408   0.502  13.544 -0.1853 -0.0129 -0.0320
  854MPD2    H712551   1.312   0.495  13.577  0.3396 -0.3601  1.4461
  855MPD2     C12552   2.718   4.638  13.436  0.3517 -0.2576 -0.6308
  855MPD2    C112553   2.598   4.624  13.497 -0.6148  0.6277  0.0207
  855MPD2    C212554   2.486   4.682  13.446 -0.4518 -0.4085  0.5159
  855MPD2    C312555   2.496   0.039  13.333  0.3736  0.0793 -0.0137
  855MPD2    C412556   2.626   0.068  13.280  0.7836 -0.0471 -0.5810
  855MPD2    C512557   2.734   4.717  13.322  0.1106  0.7058  0.3483
  855MPD2     H12558   2.392   4.650  13.492 -0.8875  1.2213  0.7539
  855MPD2    H112559   2.653   0.137  13.201  1.1151  1.1738  0.5974
  855MPD2    H212560   2.810   4.603  13.482 -0.5000  0.5746  1.7175
  855MPD2    H312561   2.828   0.011  13.271 -0.4489 -0.3936 -1.0275
  855MPD2     N12562   2.388   0.097  13.267  0.3611 -0.2890 -0.0582
  855MPD2    H512563   2.416   0.148  13.184 -2.5101 -1.3915 -1.7131
  855MPD2    N112564   2.585   4.554  13.619 -0.0549  0.3852 -0.2234
  855MPD2    H712565   2.493   4.557  13.662  0.0468 -0.5471  0.0724
  856MPD2     C12566   4.210   0.801  14.192  0.2579  0.3318  0.7631
  856MPD2    C112567   4.300   0.900  14.188  0.2642  0.1884 -0.4363
  856MPD2    C212568   4.255   1.024  14.139 -0.5094  0.2581 -0.0047
  856MPD2    C312569   4.127   1.054  14.100 -0.1986 -0.2091  0.5185
  856MPD2    C412570   4.035   0.957  14.115 -0.3362  0.3374 -0.3469
  856MPD2    C512571   4.080   0.837  14.160  0.1067  0.3936  0.1362
  856MPD2     H12572   4.327   1.105  14.137 -0.3088  0.1318  1.8322
  856MPD2    H112573   3.930   0.975  14.096 -0.5934 -1.2836 -0.5037
  856MPD2    H212574   4.230   0.703  14.235 -0.5269 -1.5990 -3.2300
  856MPD2    H312575   4.002   0.761  14.168  1.4570 -1.1396 -1.3704
  856MPD2     N12576   4.081   1.177  14.046  0.2055  0.3313  0.3967
  856MPD2    H512577   3.982   1.172  14.025  1.0285 -2.1944 -2.7399
  856MPD2    N112578   4.434   0.887  14.230 -0.3214 -0.1349 -0.1642
  856MPD2    H712579   4.502   0.956  14.200 -2.2664  2.0302  0.4489
  857MPD2     C12580   1.098   2.520  13.398 -0.9547 -0.1582  0.5120
  857MPD2    C112581   1.146   2.602  13.290  0.5354 -0.1944  0.4127
  857MPD2    C212582   1.153   2.745  13.307 -0.7624  0.4724 -0.9648
  857MPD2    C312583   1.121   2.793  13.433  0.1819  0.5306 -0.5042
  857MPD2    C412584   1.084   2.712  13.538 -0.4999 -0.1916 -0.4132
  857MPD2    C512585   1.078   2.580  13.518 -0.2271  0.0212  0.1413
  857MPD2     H12586   1.189   2.809  13.227 -0.8417  3.2151  1.1668
  857MPD2    H112587   1.074   2.750  13.639  1.4637 -3.8391  1.1422
  857MPD2    H212588   1.097   2.412  13.384 -0.9126 -0.4761  2.9923
  857MPD2    H312589   1.050   2.512  13.598 -0.3129 -1.0935 -0.8362
  857MPD2     N12590   1.107   2.934  13.448  0.0731  0.1717 -0.3465
  857MPD2    H512591   1.132   2.998  13.373 -3.0961  1.6624 -0.1231
  857MPD2    N112592   1.178   2.538  13.166 -0.1060  0.1316 -0.5492
  857MPD2    H712593   1.168   2.437  13.168 -2.3037  0.3572 -0.2952
  858MPD2     C12594   1.651   2.074  17.136 -0.6791  0.4010  0.4269
  858MPD2    C112595   1.734   2.008  17.220  0.0920 -0.2150 -0.6539
  858MPD2    C212596   1.760   2.053  17.349  0.7851 -0.0104 -0.6022
  858MPD2    C312597   1.705   2.172  17.389 -0.0129  0.7796 -0.3819
  858MPD2    C412598   1.615   2.237  17.304  0.2696 -0.0054  1.0819
  858MPD2    C512599   1.592   2.186  17.182 -0.1435  0.4127 -0.9511
  858MPD2     H12600   1.828   1.996  17.411 -1.6076 -0.1450  1.9230
  858MPD2    H112601   1.567   2.328  17.335  1.7599  1.0132  0.4126
  858MPD2    H212602   1.631   2.044  17.034 -1.5222  0.8534  0.4613
  858MPD2    H312603   1.525   2.233  17.111  0.3375  2.2469 -0.1803
  858MPD2     N12604   1.734   2.234  17.515  1.0268 -0.1088  0.4473
  858MPD2    H512605   1.679   2.317  17.533  0.6261 -0.1344 -0.6586
  858MPD2    N112606   1.772   1.878  17.178 -0.5974 -0.1048 -0.1756
  858MPD2    H712607   1.744   1.844  17.087  0.3100 -1.2346 -0.0356
  859MPD2     C12608   0.187   4.550  15.802 -0.0595  0.0810 -0.3414
  859MPD2    C112609   0.299   4.509  15.727  0.2653 -0.8402 -0.7142
  859MPD2    C212610   0.332   4.376  15.725 -0.5714 -0.0486  1.0518
  859MPD2    C312611   0.249   4.278  15.790  0.0837  0.1898  0.2158
  859MPD2    C412612   0.141   4.318  15.864  0.4907  0.3285 -0.1404
  859MPD2    C512613   0.115   4.454  15.865  0.0883  0.1248 -0.0814
  859MPD2     H12614   0.420   4.337  15.676 -1.3093 -0.9097  0.4168
  859MPD2    H112615   0.088   4.241  15.918 -1.1333  0.6915 -1.2242
  859MPD2    H212616   0.158   4.652  15.823 -0.8523 -0.0931 -0.5551
  859MPD2    H312617   0.034   4.482  15.932 -3.2908 -0.0408 -4.0544
  859MPD2     N12618   0.279   4.140  15.791  0.0554 -0.2806  0.3856
  859MPD2    H512619   0.223   4.082  15.853  0.5983  0.1714  1.3086
  859MPD2    N112620   0.381   4.604  15.656 -0.3151 -0.0952 -0.0729
  859MPD2    H712621   0.345   4.698  15.661  2.4890  0.9182  1.1595
  860MPD2     C12622   2.733   0.597  11.617 -0.1745  0.5655  0.0955
  860MPD2    C112623   2.770   0.580  11.747  0.3710  0.0669 -0.3266
  860MPD2    C212624   2.666   0.597  11.840  0.4586  0.5091  0.0187
  860MPD2    C312625   2.532   0.619  11.802 -0.1813  0.6026  0.1115
  860MPD2    C412626   2.501   0.628  11.671 -0.1713 -0.5737  0.1340
  860MPD2    C512627   2.605   0.623  11.580 -0.0214  0.4019  0.1809
  860MPD2     H12628   2.696   0.587  11.943  0.4203 -1.5845 -0.1868
  860MPD2    H112629   2.400   0.646  11.636 -0.4042 -0.1549  1.0419
  860MPD2    H212630   2.802   0.612  11.534 -0.4200 -2.2571 -0.6281
  860MPD2    H312631   2.591   0.632  11.473 -0.0763 -2.2906 -0.0321
  860MPD2     N12632   2.430   0.629  11.906 -0.2281 -0.6529  0.3483
  860MPD2    H512633   2.467   0.605  11.998 -0.1767 -2.5970 -0.1683
  860MPD2    N112634   2.898   0.556  11.798  0.1251 -0.0582  1.0895
  860MPD2    H712635   2.913   0.562  11.898 -0.1995  1.7906  1.0387
  861MPD2     C12636   2.231   2.984  11.232 -0.4381 -0.3760  0.2386
  861MPD2    C112637   2.153   3.060  11.315  0.2377  0.2647  0.5421
  861MPD2    C212638   2.038   3.107  11.258  0.2094 -0.0838 -0.4213
  861MPD2    C312639   2.001   3.096  11.125  0.0174  0.2506  0.9234
  861MPD2    C412640   2.090   3.027  11.046 -0.4635  0.7346 -0.2175
  861MPD2    C512641   2.199   2.970  11.103  0.1681  0.4670  0.2001
  861MPD2     H12642   1.965   3.165  11.314  1.5042 -0.4035  1.6199
  861MPD2    H112643   2.070   3.013  10.941 -0.7923  1.0592 -0.1993
  861MPD2    H212644   2.326   2.943  11.267 -0.6906 -1.2024 -0.0432
  861MPD2    H312645   2.270   2.914  11.043 -1.1661 -0.1937 -0.7643
  861MPD2     N12646   1.894   3.163  11.070 -0.6191 -0.0850 -0.2502
  861MPD2    H512647   1.902   3.168  10.969 -0.8064 -0.8091 -0.2979
  861MPD2    N112648   2.194   3.097  11.444  0.3162 -0.1199 -0.3971
  861MPD2    H712649   2.123   3.138  11.504  1.5116  0.0631  0.8946
  862MPD2     C12650   1.535   3.326  10.503 -0.0241 -0.5728 -0.4222
  862MPD2    C112651   1.603   3.259  10.600  0.8913  0.1747  0.3104
  862MPD2    C212652   1.629   3.123  10.588 -0.6356 -0.1161  0.7663
  862MPD2    C312653   1.585   3.061  10.477  0.5209  0.2846  0.5331
  862MPD2    C412654   1.518   3.124  10.376 -0.7539 -0.2216  0.0557
  862MPD2    C512655   1.486   3.254  10.392 -0.0405 -0.0568 -0.5718
  862MPD2     H12656   1.667   3.071  10.675 -2.2101  0.8816  2.0344
  862MPD2    H112657   1.472   3.068  10.296 -1.7998 -2.2239  2.0597
  862MPD2    H212658   1.504   3.430  10.514  1.5053 -0.2930  1.1536
  862MPD2    H312659   1.433   3.305  10.312  3.0096  0.6441 -2.1482
  862MPD2     N12660   1.609   2.925  10.462  0.0320 -0.8962 -0.5411
  862MPD2    H512661   1.550   2.877  10.395 -2.2752 -0.0557  0.8640
  862MPD2    N112662   1.635   3.321  10.722  0.6752  0.4396  0.0908
  862MPD2    H712663   1.687   3.266  10.790  4.1972  1.2063 -1.9673
  863MPD2     C12664   4.495   1.015  16.821 -0.8012 -0.0602 -0.1795
  863MPD2    C112665   4.440   1.099  16.907  0.9078 -0.6932  0.1775
  863MPD2    C212666   4.507   1.138  17.024 -0.3039  0.5624  0.1046
  863MPD2    C312667   4.628   1.073  17.053  0.5182  0.4088 -0.3928
  863MPD2    C412668   4.683   0.984  16.966 -0.4104 -0.0400 -0.0298
  863MPD2    C512669   4.616   0.959  16.849  0.1066  0.1213 -0.5294
  863MPD2     H12670   4.470   1.221  17.083  1.9079  0.2405  1.9630
  863MPD2    H112671   0.048   0.924  16.987  0.4543  1.0369 -0.5998
  863MPD2    H212672   4.456   1.000  16.721 -2.5177 -1.5246  0.7125
  863MPD2    H312673   4.665   0.896  16.777  1.1936  0.7025 -0.2954
  863MPD2     N12674   4.694   1.125  17.163  0.2538 -0.2926 -0.2934
  863MPD2    H512675   4.649   1.190  17.226  1.1458  0.7470 -0.7400
  863MPD2    N112676   4.316   1.147  16.867 -0.8304  0.3303 -0.6631
  863MPD2    H712677   4.273   1.096  16.790 -1.2611 -0.0701 -0.1543
  864MPD2     C12678   0.178   2.640  17.343  0.4496  0.5719 -0.0206
  864MPD2    C112679   0.253   2.590  17.242  0.5271 -0.5318 -0.1415
  864MPD2    C212680   0.340   2.680  17.181  0.0384 -0.1558 -1.0253
  864MPD2    C312681   0.342   2.813  17.212 -0.5295  0.3648  0.4543
  864MPD2    C412682   0.266   2.862  17.318 -0.1717  0.6931  0.1097
  864MPD2    C512683   0.179   2.776  17.385  0.2989 -0.4332  0.5483
  864MPD2     H12684   0.410   2.641  17.108  0.6003  1.7859 -1.5126
  864MPD2    H112685   0.261   2.966  17.349  0.2493  0.6756  0.2305
  864MPD2    H212686   0.103   2.583  17.395  1.3984  0.5916  1.3512
  864MPD2    H312687   0.122   2.799  17.474 -0.2867  3.3920 -0.8463
  864MPD2     N12688   0.423   2.904  17.140  0.3685  0.6827 -0.4252
  864MPD2    H512689   0.443   2.996  17.177 -0.2482  0.6347  0.0235
  864MPD2    N112690   0.258   2.448  17.215 -0.2513 -0.2797  0.2994
  864MPD2    H712691   0.193   2.398  17.274 -0.9150 -0.5837 -0.6922
  865MPD2     C12692   0.684   2.906  16.170 -0.1986 -0.3501 -0.1148
  865MPD2    C112693   0.718   2.807  16.264  0.8872 -0.5883  0.3434
  865MPD2    C212694   0.687   2.830  16.394 -0.2557  0.8662 -0.5586
  865MPD2    C312695   0.659   2.954  16.436 -0.3019  0.1642 -0.6616
  865MPD2    C412696   0.617   3.046  16.349 -0.5580 -0.1132  0.5113
  865MPD2    C512697   0.625   3.023  16.215  0.1141  0.2946  0.2532
  865MPD2     H12698   0.702   2.754  16.470 -0.1793  1.0909 -0.3471
  865MPD2    H112699   0.585   3.145  16.380 -2.7683 -0.9328  0.8693
  865MPD2    H212700   0.704   2.898  16.064  0.8652  0.9444 -0.0017
  865MPD2    H312701   0.605   3.101  16.142  0.1322 -0.6954 -0.8116
  865MPD2     N12702   0.660   2.990  16.575  0.2052  0.0820 -0.2102
  865MPD2    H512703   0.624   3.084  16.588 -3.5100 -1.5855  1.3286
  865MPD2    N112704   0.759   2.677  16.221  0.1945 -1.2651 -0.7084
  865MPD2    H712705   0.787   2.668  16.124  1.7509 -0.2657 -0.3392
  866MPD2     C12706   2.415   3.541  12.063  0.3761  0.4797  0.4932
  866MPD2    C112707   2.437   3.575  11.929 -0.3092  0.6035 -0.9356
  866MPD2    C212708   2.326   3.613  11.861 -0.5336 -0.2063  0.6987
  866MPD2    C312709   2.199   3.607  11.907 -0.1768  0.3593 -0.4540
  866MPD2    C412710   2.182   3.592  12.045 -0.1195 -0.2985  0.0415
  866MPD2    C512711   2.292   3.559  12.121 -0.0962  0.2884  0.4949
  866MPD2     H12712   2.345   3.649  11.760  1.2785  0.9471  1.4497
  866MPD2    H112713   2.090   3.612  12.098  0.0877  2.4487 -0.6622
  866MPD2    H212714   2.493   3.521  12.136 -1.2405 -0.6474  1.9054
  866MPD2    H312715   2.292   3.547  12.229 -1.4716  0.1399  0.4795
  866MPD2     N12716   2.079   3.615  11.827  0.0066 -0.0443  0.3709
  866MPD2    H512717   1.989   3.590  11.868  0.0139  2.4536  1.9228
  866MPD2    N112718   2.567   3.577  11.870  1.0404  0.3204 -0.5774
  866MPD2    H712719   2.581   3.632  11.785  0.3368  0.0131 -0.8928
  867MPD2     C12720   4.103   1.632  16.353  0.4718  0.3857 -0.6273
  867MPD2    C112721   4.141   1.667  16.482 -0.3456 -0.6710 -0.4050
  867MPD2    C212722   4.097   1.788  16.539  0.2343  0.1233 -0.0600
  867MPD2    C312723   4.016   1.871  16.466 -0.3808  0.0403 -0.2140
  867MPD2    C412724   3.984   1.843  16.336  0.3253  0.3542 -0.1381
  867MPD2    C512725   4.021   1.720  16.286 -0.2849  0.0482 -0.0452
  867MPD2     H12726   4.118   1.817  16.641 -0.8622  1.0932 -0.1065
  867MPD2    H112727   3.932   1.911  16.270  0.0556  0.1805 -0.1029
  867MPD2    H212728   4.141   1.544  16.303 -0.9573  0.8140 -2.4569
  867MPD2    H312729   3.992   1.702  16.184 -0.5244 -1.8877  0.3626
  867MPD2     N12730   3.984   2.001  16.518  0.3990  0.3550  0.0660
  867MPD2    H512731   3.957   2.067  16.445  2.1442 -0.0218 -0.9244
  867MPD2    N112732   4.228   1.573  16.548  1.1565 -0.1270  0.0426
  867MPD2    H712733   4.256   1.494  16.491  0.7955  1.4439 -2.3123
  868MPD2     C12734   1.152   0.999  13.338 -0.4806 -0.1823 -0.3949
  868MPD2    C112735   1.245   1.099  13.363 -0.4611  0.5927 -0.3479
  868MPD2    C212736   1.237   1.174  13.482 -0.3812 -0.1630 -0.0029
  868MPD2    C312737   1.136   1.139  13.576 -0.1887  0.3516  0.2285
  868MPD2    C412738   1.039   1.044  13.542  0.0522 -0.5387  0.5248
  868MPD2    C512739   1.051   0.969  13.428 -0.1295  0.1623  0.0071
  868MPD2     H12740   1.312   1.247  13.510  0.3167 -0.3257 -1.4581
  868MPD2    H112741   0.951   1.017  13.600 -0.1830 -0.2845  0.2839
  868MPD2    H212742   1.151   0.934  13.251 -0.3620  0.0172 -0.5464
  868MPD2    H312743   0.978   0.892  13.406 -0.2336 -0.2292  1.6746
  868MPD2     N12744   1.150   1.206  13.705  0.0138 -0.1138 -0.0721
  868MPD2    H512745   1.217   1.282  13.716 -1.4262  0.9234  1.6763
  868MPD2    N112746   1.347   1.115  13.266  0.1196 -0.1902  0.1210
  868MPD2    H712747   1.343   1.047  13.191 -0.4945 -0.4492  0.3872
  869MPD2     C12748   2.924   0.635   2.038  0.5742 -0.5154 -0.4189
  869MPD2    C112749   2.962   0.503   2.063  0.2029  0.3859 -0.9613
  869MPD2    C212750   2.910   0.397   1.991  0.1838  0.6938 -0.4580
  869MPD2    C312751   2.826   0.427   1.889 -0.3969 -0.2598 -0.5178
  869MPD2    C412752   2.792   0.558   1.860 -0.4647  0.6147  0.3852
  869MPD2    C512753   2.848   0.665   1.930 -0.0590 -0.3734 -0.4149
  869MPD2     H12754   2.939   0.294   2.006 -4.3114 -0.1407  2.3857
  869MPD2    H112755   2.732   0.576   1.772 -1.3428 -1.1511  0.6407
  869MPD2    H212756   2.964   0.720   2.092 -0.3360  1.1435 -2.3725
  869MPD2    H312757   2.824   0.769   1.912  0.0250  0.0368  1.8088
  869MPD2     N12758   2.792   0.330   1.791 -0.7728 -0.2920  0.0881
  869MPD2    H512759   2.769   0.364   1.698  1.1298 -0.1944 -0.3287
  869MPD2    N112760   3.053   0.471   2.167 -0.6050 -0.2576 -0.0545
  869MPD2    H712761   3.086   0.376   2.176 -0.7141 -0.4226 -1.4408
  870MPD2     C12762   2.442   3.541   1.888 -0.0724 -0.3183  0.0976
  870MPD2    C112763   2.474   3.486   1.767  0.2134 -0.3156  0.2589
  870MPD2    C212764   2.496   3.571   1.661 -0.0786  0.2948 -0.3812
  870MPD2    C312765   2.489   3.706   1.668 -0.1214 -0.4839 -0.1793
  870MPD2    C412766   2.470   3.758   1.797 -0.5037  0.4088 -1.0795
  870MPD2    C512767   2.440   3.677   1.903  0.4985  0.0686 -0.0973
  870MPD2     H12768   2.505   3.526   1.563  1.4187  0.6469 -0.4194
  870MPD2    H112769   2.471   3.861   1.829  2.0140 -0.2742  1.0689
  870MPD2    H212770   2.423   3.483   1.978  2.0984  2.7504  2.5528
  870MPD2    H312771   2.418   3.729   1.995 -1.4181  0.6508 -0.8797
  870MPD2     N12772   2.490   3.777   1.544 -0.0075  0.2563 -0.0331
  870MPD2    H512773   2.482   3.726   1.457  1.9191 -1.9457  1.0849
  870MPD2    N112774   2.468   3.344   1.749 -0.8555 -0.3158 -0.1677
  870MPD2    H712775   2.429   3.294   1.830 -0.0988  2.6758  2.0322
  871MPD2     C12776   3.084   2.009  16.878 -0.2929 -0.9268  0.6934
  871MPD2    C112777   3.069   2.015  17.012  0.4743 -0.4018  0.4092
  871MPD2    C212778   3.155   1.943  17.095 -0.3038  0.1824  0.4468
  871MPD2    C312779   3.248   1.857  17.044 -0.1170  0.5952  0.1508
  871MPD2    C412780   3.255   1.845  16.903 -0.6078  0.0225  0.6005
  871MPD2    C512781   3.178   1.928  16.824  0.0486 -0.4912 -0.0312
  871MPD2     H12782   3.147   1.962  17.202 -1.5239  1.0983  0.1982
  871MPD2    H112783   3.323   1.783  16.846 -0.0546  0.7794  0.4471
  871MPD2    H212784   3.017   2.064  16.813 -0.2516 -2.1008 -0.3447
  871MPD2    H312785   3.182   1.918  16.716 -1.8041  0.8753 -0.2236
  871MPD2     N12786   3.333   1.787  17.128 -0.6455 -0.5193 -1.0172
  871MPD2    H512787   3.312   1.804  17.226 -0.2218 -1.6487 -0.7265
  871MPD2    N112788   2.983   2.111  17.064  0.5909 -0.6294  0.1129
  871MPD2    H712789   2.950   2.178  16.996 -0.5526  0.0232  1.3051
  872MPD2     C12790   3.895   0.417  13.596 -0.1981 -0.2613 -0.2266
  872MPD2    C112791   3.951   0.429  13.722  0.4096  0.3195  0.1783
  872MPD2    C212792   3.872   0.408  13.836  0.5321 -0.1472  0.3694
  872MPD2    C312793   3.739   0.379  13.825 -0.0099 -0.3261  0.5556
  872MPD2    C412794   3.682   0.376  13.699 -0.0694 -0.3124 -0.9412
  872MPD2    C512795   3.755   0.400  13.587 -0.0109  0.3383 -0.0507
  872MPD2     H12796   3.922   0.429  13.930  1.2117 -0.4533  0.0726
  872MPD2    H112797   3.577   0.350  13.686 -0.5903  1.3895 -0.1640
  872MPD2    H212798   3.944   0.424  13.500 -1.2938 -1.3239 -0.8829
  872MPD2    H312799   3.705   0.427  13.495  0.0265 -2.9481 -1.0159
  872MPD2     N12800   3.651   0.345  13.930  0.5293 -0.7095 -0.3869
  872MPD2    H512801   3.552   0.336  13.909  0.4640  1.5225 -1.0344
  872MPD2    N112802   4.091   0.458  13.748  0.4113 -0.1094  0.4743
  872MPD2    H712803   4.116   0.460  13.846 -3.9616  0.8080  1.5778
  873MPD2     C12804   0.792   0.249   0.821  0.3803 -0.3106 -0.4725
  873MPD2    C112805   0.804   0.208   0.951 -0.1736 -0.1695  0.2643
  873MPD2    C212806   0.814   0.069   0.974  0.6582 -0.0348 -0.5272
  873MPD2    C312807   0.783   4.700   0.875  0.8444  0.4160 -0.5768
  873MPD2    C412808   0.760   0.026   0.749 -0.1119  0.4852  0.2280
  873MPD2    C512809   0.784   0.161   0.715 -0.4597 -0.4407  0.0975
  873MPD2     H12810   0.836   0.036   1.074 -0.1200 -2.5077 -1.1738
  873MPD2    H112811   0.743   4.675   0.672 -1.4207  0.9703  0.0445
  873MPD2    H212812   0.771   0.354   0.803  2.8429 -0.0100 -1.5448
  873MPD2    H312813   0.768   0.191   0.612  0.9788 -0.6800 -0.1927
  873MPD2     N12814   0.777   4.563   0.896  0.3738 -0.2751  0.5600
  873MPD2    H512815   0.760   4.499   0.819 -3.4475  3.9211 -2.1132
  873MPD2    N112816   0.824   0.309   1.044  0.2117 -0.0230 -0.0107
  873MPD2    H712817   0.804   0.404   1.014 -1.3527  0.2754  1.9392
  874MPD2     C12818   4.599   0.125  16.086  0.1399 -0.4081 -0.1132
  874MPD2    C112819   4.668   0.014  16.141  0.5038 -0.0827 -0.3183
  874MPD2    C212820   0.072   0.038  16.198  0.1704 -0.1442  0.3797
  874MPD2    C312821   0.129   0.164  16.203  0.1843 -0.3652 -0.7438
  874MPD2    C412822   0.055   0.264  16.143  0.2997 -0.2594 -0.4910
  874MPD2    C512823   4.659   0.242  16.079 -0.2822  0.0045  0.3423
  874MPD2     H12824   0.115   4.682  16.259 -3.2813 -1.6875  0.8226
  874MPD2    H112825   0.084   0.369  16.142  1.6705 -0.6355  0.2753
  874MPD2    H212826   4.496   0.120  16.051  0.4369 -0.4445 -0.9792
  874MPD2    H312827   4.609   0.329  16.038 -0.8376 -0.9789 -1.0611
  874MPD2     N12828   0.244   0.186  16.274 -0.0752  0.4394  0.3363
  874MPD2    H512829   0.292   0.110  16.320  2.9504  1.6422 -0.8710
  874MPD2    N112830   4.611   4.608  16.150  0.0502 -0.2397  0.4278
  874MPD2    H712831   4.510   4.599  16.144  0.0564 -0.1011  0.1048
  875MPD2     C12832   1.853   3.362  14.318 -0.5098 -0.9051 -0.2540
  875MPD2    C112833   1.741   3.420  14.374 -0.5837  0.5097 -0.0332
  875MPD2    C212834   1.758   3.477  14.505 -0.7277  0.3754  0.2490
  875MPD2    C312835   1.877   3.470  14.574 -0.5056 -0.6719 -0.5581
  875MPD2    C412836   1.989   3.420  14.513 -0.3358  1.1089  0.3657
  875MPD2    C512837   1.976   3.369  14.385 -0.0404  0.1185 -0.3652
  875MPD2     H12838   1.673   3.528  14.549  0.4459  1.1444  1.6342
  875MPD2    H112839   2.081   3.409  14.569 -0.6047  0.5717  0.6980
  875MPD2    H212840   1.847   3.314  14.221  0.8764 -0.5514 -0.5084
  875MPD2    H312841   2.047   3.293  14.355 -2.9963 -1.8179 -2.4991
  875MPD2     N12842   1.900   3.517  14.706  0.4630  0.0203 -0.0248
  875MPD2    H512843   1.997   3.527  14.736  0.4113 -2.3094  0.9318
  875MPD2    N112844   1.615   3.420  14.316 -0.0230  0.3847  0.4016
  875MPD2    H712845   1.542   3.473  14.363  0.0743  0.4805  0.4473
  876MPD2     C12846   0.792   0.390  15.674  0.4493  0.2752  0.3219
  876MPD2    C112847   0.882   0.297  15.720  0.3245 -0.3169 -0.1968
  876MPD2    C212848   0.827   0.186  15.782 -0.3384  0.2063 -0.6179
  876MPD2    C312849   0.693   0.176  15.809 -0.5048  0.1097 -0.1851
  876MPD2    C412850   0.605   0.277  15.773  0.3892 -0.9080  0.4016
  876MPD2    C512851   0.656   0.379  15.695  0.7414  0.4847  0.5770
  876MPD2     H12852   0.897   0.108  15.808 -0.2677  1.5683  3.2679
  876MPD2    H112853   0.497   0.272  15.776  0.4516 -1.9145  1.0330
  876MPD2    H212854   0.832   0.468  15.611 -0.7940  0.2839 -0.4784
  876MPD2    H312855   0.588   0.455  15.657  2.6973  1.5122 -0.8951
  876MPD2     N12856   0.652   0.061  15.881 -0.7643 -0.3016  0.1162
  876MPD2    H512857   0.719   4.710  15.896 -0.1911  0.1428 -0.2616
  876MPD2    N112858   1.018   0.334  15.706  0.0829  0.2235 -0.3261
  876MPD2    H712859   1.046   0.411  15.646  0.1355 -0.9246 -1.7664
  877MPD2     C12860   0.889   0.528  15.282  0.7674 -0.2356  0.1436
  877MPD2    C112861   1.021   0.526  15.240 -0.4789  0.0999 -0.5198
  877MPD2    C212862   1.040   0.505  15.105  0.1827  0.1177  0.5069
  877MPD2    C312863   0.928   0.500  15.016  0.1730  1.0192 -0.5350
  877MPD2    C412864   0.798   0.507  15.061 -1.0496  0.2900 -0.7122
  877MPD2    C512865   0.779   0.514  15.196 -0.1772 -0.0894  0.1969
  877MPD2     H12866   1.142   0.491  15.071 -0.1054 -0.7494  0.0141
  877MPD2    H112867   0.709   0.498  15.000 -1.4728 -0.9251  0.0799
  877MPD2    H212868   0.866   0.521  15.388  2.0250 -1.5012  0.3324
  877MPD2    H312869   0.682   0.515  15.244 -0.5641 -2.0517 -0.5113
  877MPD2     N12870   0.948   0.468  14.877  0.5064 -0.3485  0.0281
  877MPD2    H512871   0.869   0.439  14.820 -0.2858 -0.4651  1.1823
  877MPD2    N112872   1.135   0.506  15.323 -0.5247 -0.7202  0.4403
  877MPD2    H712873   1.221   0.484  15.274 -1.4600 -0.5349 -1.2569
  878MPD2     C12874   0.093   3.935  13.378  0.7949  0.2189  0.5781
  878MPD2    C112875   0.186   4.038  13.357  0.5212  0.5797 -0.1337
  878MPD2    C212876   0.215   4.107  13.467 -0.0850 -0.5074 -0.3191
  878MPD2    C312877   0.152   4.091  13.589 -0.3197  0.1790 -0.0256
  878MPD2    C412878   0.046   4.005  13.601 -0.3500  0.3238  0.8384
  878MPD2    C512879   0.028   3.914  13.499 -0.8728  0.6279  0.3601
  878MPD2     H12880   0.290   4.186  13.468 -0.2258 -0.3811  0.6977
  878MPD2    H112881   0.000   3.988  13.698  1.5903  0.4712  1.7803
  878MPD2    H212882   0.066   3.869  13.296  1.7517  0.1193  0.3471
  878MPD2    H312883   4.678   3.834  13.502 -1.9197  1.6093  0.8370
  878MPD2     N12884   0.201   4.172  13.697 -0.0941  0.4688 -0.1117
  878MPD2    H512885   0.282   4.227  13.668 -0.1019  0.1848 -0.6765
  878MPD2    N112886   0.230   4.068  13.230 -0.3256  0.6509 -0.1187
  878MPD2    H712887   0.202   4.010  13.151  1.5697  2.0335 -1.8105
  879MPD2     C12888   0.666   1.279  17.142  0.2916 -1.3759  0.7516
  879MPD2    C112889   0.714   1.188  17.233  0.0532  0.2383 -0.3231
  879MPD2    C212890   0.628   1.094  17.281  0.4083  0.0365  0.5952
  879MPD2    C312891   0.506   1.064  17.221 -0.6489 -0.0632 -0.7001
  879MPD2    C412892   0.463   1.148  17.118 -0.1592  0.0454  0.0038
  879MPD2    C512893   0.547   1.253  17.079  0.1875 -0.2919  0.1339
  879MPD2     H12894   0.655   1.030  17.365  1.0720 -3.0412 -1.9495
  879MPD2    H112895   0.373   1.143  17.059  0.0289 -0.4102 -0.2550
  879MPD2    H212896   0.720   1.362  17.098 -2.8430 -0.0294 -0.5876
  879MPD2    H312897   0.518   1.324  17.002  0.6118  0.0649  0.3046
  879MPD2     N12898   0.420   0.955  17.266 -0.1334  0.1406 -0.8503
  879MPD2    H512899   0.346   0.931  17.200  0.6754 -2.0531 -0.9693
  879MPD2    N112900   0.850   1.196  17.262 -0.2872  1.0163 -0.3753
  879MPD2    H712901   0.899   1.279  17.230  0.3947  1.7762  2.6458
  880MPD2     C12902   1.850   2.676   1.024  0.3847 -0.1051 -0.1972
  880MPD2    C112903   1.978   2.715   1.038  0.1161 -0.4964  0.0733
  880MPD2    C212904   2.059   2.651   1.136 -0.0547  0.1784 -0.3001
  880MPD2    C312905   1.995   2.554   1.215 -0.5555  0.2819  0.0212
  880MPD2    C412906   1.863   2.525   1.204 -0.0289 -0.0860 -1.0291
  880MPD2    C512907   1.791   2.588   1.107  0.3250  0.3352 -0.0345
  880MPD2     H12908   2.157   2.692   1.157 -0.5876  1.4409 -0.2518
  880MPD2    H112909   1.813   2.471   1.284 -1.0246 -0.1894 -1.7078
  880MPD2    H212910   1.788   2.710   0.942  2.3439 -1.4107 -2.2082
  880MPD2    H312911   1.686   2.563   1.102  0.5462 -0.7255  0.5881
  880MPD2     N12912   2.069   2.490   1.321 -0.2313 -0.4772  0.1724
  880MPD2    H512913   2.168   2.514   1.326 -0.9020  2.5527 -0.9289
  880MPD2    N112914   2.033   2.817   0.954 -0.1537 -0.1062 -0.2930
  880MPD2    H712915   1.968   2.840   0.879 -2.3323 -1.3159  1.2244
  881MPD2     C12916   1.807   3.174   0.093  0.4330 -0.2984  0.0424
  881MPD2    C112917   1.894   3.069   0.108 -1.0032  0.1211  0.0895
  881MPD2    C212918   1.947   3.050   0.230  0.2482 -0.5607 -0.2132
  881MPD2    C312919   1.908   3.134   0.335 -0.3982  0.7044 -0.9377
  881MPD2    C412920   1.827   3.242   0.314 -0.2030  0.0716  0.3739
  881MPD2    C512921   1.781   3.264   0.190  0.3019  0.2016  0.2723
  881MPD2     H12922   2.022   2.976   0.257  1.4292  1.2900  1.6280
  881MPD2    H112923   1.789   3.296   0.399  1.2643  0.0103  1.0727
  881MPD2    H212924   1.769   3.190  17.686  0.0999  1.3780  0.4466
  881MPD2    H312925   1.692   3.325   0.181 -0.1869 -0.6772 -0.9723
  881MPD2     N12926   1.958   3.125   0.462  0.5419 -0.4969 -0.0038
  881MPD2    H512927   1.930   3.202   0.521 -1.2008 -0.7560 -0.4957
  881MPD2    N112928   1.961   3.026  17.681 -0.1953  0.0067 -0.6661
  881MPD2    H712929   1.937   3.065  17.590 -3.1628 -0.6941 -0.2089
  882MPD2     C12930   0.821   0.053  14.244  0.2975 -0.0838  0.4797
  882MPD2    C112931   0.767   0.138  14.338  0.2594  0.0744  0.7599
  882MPD2    C212932   0.640   0.113  14.390 -0.8362  0.3365  0.1639
  882MPD2    C312933   0.568   4.718  14.357 -0.0523 -0.2844 -0.3956
  882MPD2    C412934   0.627   4.630  14.269 -0.1684  0.4257 -0.4327
  882MPD2    C512935   0.749   4.663  14.217  0.3671  0.3658  0.3720
  882MPD2     H12936   0.587   0.179  14.458 -1.2396 -1.3456  1.4776
  882MPD2    H112937   0.577   4.538  14.242  0.9712 -0.8600  1.8854
  882MPD2    H212938   0.916   0.067  14.193 -0.3907 -1.7716 -1.2826
  882MPD2    H312939   0.795   4.596  14.145 -1.7033 -1.2865  0.5807
  882MPD2     N12940   0.434   4.688  14.400 -0.0152  0.4721 -0.2171
  882MPD2    H512941   0.393   4.605  14.360  1.3369 -0.2011 -0.1889
  882MPD2    N112942   0.846   0.248  14.376  0.5329  0.4040  0.4725
  882MPD2    H712943   0.940   0.254  14.337 -0.3789 -0.9708 -1.9695
  883MPD2     C12944   2.224   0.642  15.966 -0.0528  0.4296 -0.6607
  883MPD2    C112945   2.307   0.546  15.912 -1.0592  0.0853  0.1956
  883MPD2    C212946   2.436   0.531  15.955 -0.5019  0.5227 -0.4444
  883MPD2    C312947   2.475   0.596  16.070  0.1285 -0.3432 -0.2654
  883MPD2    C412948   2.386   0.695  16.123 -0.0488  0.2827 -0.1898
  883MPD2    C512949   2.272   0.730  16.066 -0.6073  0.5022  0.7369
  883MPD2     H12950   2.508   0.468  15.903  0.5053  0.4738  0.9907
  883MPD2    H112951   2.406   0.747  16.216  0.7329  0.4271 -0.4363
  883MPD2    H212952   2.123   0.649  15.929 -0.3724 -3.9549 -0.6118
  883MPD2    H312953   2.209   0.807  16.107 -0.8222  1.7647 -1.9616
  883MPD2     N12954   2.606   0.560  16.118 -0.2256  0.2712  0.3882
  883MPD2    H512955   2.668   0.508  16.056 -0.5720  0.3241 -0.0080
  883MPD2    N112956   2.264   0.461  15.806  0.1719  0.2746  0.5661
  883MPD2    H712957   2.331   0.394  15.770 -0.4077 -0.3622  0.6643
  884MPD2     C12958   4.640   0.620  15.389 -0.3764  0.3559  0.4146
  884MPD2    C112959   4.614   0.759  15.405  0.8486  0.6007 -0.3817
  884MPD2    C212960   4.492   0.811  15.430 -0.7990  0.2256 -0.8266
  884MPD2    C312961   4.378   0.727  15.431  0.1711 -0.3104 -0.1310
  884MPD2    C412962   4.397   0.595  15.424 -0.4798  0.0574  0.6936
  884MPD2    C512963   4.527   0.544  15.394 -0.1159 -0.2263  0.0899
  884MPD2     H12964   4.475   0.918  15.425  1.0176  0.5641  0.5402
  884MPD2    H112965   4.311   0.530  15.432 -0.5931 -0.0779 -1.4974
  884MPD2    H212966   0.016   0.575  15.383 -1.4230 -1.9023  0.3365
  884MPD2    H312967   4.538   0.439  15.370 -0.0190 -0.2537  0.2600
  884MPD2     N12968   4.250   0.787  15.434 -0.0591  0.2901  0.0979
  884MPD2    H512969   4.253   0.887  15.422 -0.8567  0.2034 -0.8555
  884MPD2    N112970   0.005   0.839  15.436  0.4990  0.1103  0.1103
  884MPD2    H712971   4.711   0.927  15.483  0.1156  0.7023 -1.1283
  885MPD2     C12972   2.477   0.844   0.463  0.0956  0.1213 -0.0531
  885MPD2    C112973   2.601   0.884   0.452  0.2561 -0.2008 -0.2960
  885MPD2    C212974   2.643   0.937   0.337  0.1318  0.1848  0.0763
  885MPD2    C312975   2.558   0.944   0.230 -0.0115 -0.2151 -0.6098
  885MPD2    C412976   2.433   0.894   0.239  0.7132  0.2556 -0.4487
  885MPD2    C512977   2.388   0.851   0.362  0.0491 -0.1446  0.1448
  885MPD2     H12978   2.747   0.966   0.328 -0.0548  1.0881  0.8658
  885MPD2    H112979   2.361   0.894   0.157 -0.2883 -1.3632  0.4168
  885MPD2    H212980   2.445   0.798   0.555  2.3697 -0.1837  0.5751
  885MPD2    H312981   2.285   0.821   0.376  0.6245 -1.1425  2.2094
  885MPD2     N12982   2.614   0.991   0.111  0.5445 -0.2156 -0.3807
  885MPD2    H512983   2.710   1.024   0.114  0.3070  0.3955  0.7615
  885MPD2    N112984   2.686   0.867   0.570 -0.4573  0.1797 -0.7566
  885MPD2    H712985   2.629   0.831   0.646 -0.6048  1.0968 -0.4248
  886MPD2     C12986   3.850   4.178  15.342  0.5817 -0.2824 -0.1072
  886MPD2    C112987   3.987   4.167  15.331 -0.0524  0.1546 -0.1577
  886MPD2    C212988   4.059   4.256  15.247 -0.0836 -0.0690  0.1927
  886MPD2    C312989   3.999   4.365  15.188 -0.3482 -0.3885 -0.0863
  886MPD2    C412990   3.862   4.381  15.205  0.1235 -0.4626  0.2957
  886MPD2    C512991   3.786   4.285  15.279 -0.5459 -0.0191 -0.1261
  886MPD2     H12992   4.162   4.230  15.226 -0.3043 -0.0772 -0.8679
  886MPD2    H112993   3.809   4.461  15.154  0.6032 -0.6868 -0.5456
  886MPD2    H212994   3.791   4.118  15.411  1.1237  0.3411  0.8952
  886MPD2    H312995   3.678   4.291  15.285 -0.3914  1.5510  1.1670
  886MPD2     N12996   4.079   4.464  15.124  0.2770 -0.3016 -0.1850
  886MPD2    H512997   4.026   4.542  15.087 -1.1323 -0.6857  1.0461
  886MPD2    N112998   4.064   4.071  15.400 -0.1314  0.3473  0.1758
  886MPD2    H712999   4.165   4.072  15.402 -0.1004 -0.6517 -1.2167
  887MPD2     C13000   0.021   4.150  15.523 -0.7541 -0.2112  0.3084
  887MPD2    C113001   4.610   4.196  15.528 -0.4201  0.5694 -0.0320
  887MPD2    C213002   4.598   4.333  15.509 -0.2351 -0.3611 -0.0715
  887MPD2    C313003   4.698   4.414  15.467 -0.3606 -0.2044 -0.8495
  887MPD2    C413004   0.103   4.362  15.448  0.3108  0.3058 -0.4575
  887MPD2    C513005   0.127   4.230  15.475  0.2100 -0.0058 -0.9130
  887MPD2     H13006   4.502   4.378  15.535 -0.6337 -2.2946  1.8157
  887MPD2    H113007   0.178   4.436  15.423 -1.0785  1.7095 -0.5061
  887MPD2    H213008   0.058   4.051  15.548 -2.4442 -0.1419  3.0042
  887MPD2    H313009   0.230   4.199  15.461  0.5841  0.7191  0.2357
  887MPD2     N13010   4.656   4.548  15.453 -0.3624  0.0913  0.6183
  887MPD2    H513011   4.558   4.562  15.475 -0.7282 -2.6616  0.7249
  887MPD2    N113012   4.495   4.130  15.559  0.4093  0.0341  0.7049
  887MPD2    H713013   4.411   4.185  15.572  1.3521  1.7048 -0.2532
  888MPD2     C13014   1.759   4.328  15.451 -0.0303 -0.3139  0.0405
  888MPD2    C113015   1.662   4.423  15.497 -0.0651 -0.5734 -0.2678
  888MPD2    C213016   1.676   4.559  15.458 -0.2065 -0.4632 -0.6975
  888MPD2    C313017   1.781   4.594  15.377  0.6888  0.6076  0.0516
  888MPD2    C413018   1.869   4.498  15.325  0.6908 -0.2818 -0.8340
  888MPD2    C513019   1.858   4.370  15.378 -0.1399  0.2477 -0.0416
  888MPD2     H13020   1.617   4.641  15.498 -0.6528 -1.5653  0.8886
  888MPD2    H113021   1.956   4.513  15.261  1.5910 -0.7453  0.2917
  888MPD2    H213022   1.758   4.228  15.493 -0.1259 -0.8912 -1.3636
  888MPD2    H313023   1.935   4.294  15.367  0.2651  0.9701 -2.3136
  888MPD2     N13024   1.791   0.007  15.334 -0.2999  0.9065 -0.9447
  888MPD2    H513025   1.730   0.064  15.392  0.6411  1.5610 -0.6080
  888MPD2    N113026   1.554   4.390  15.586  0.2044  0.5237  0.0626
  888MPD2    H713027   1.506   4.466  15.631  1.0955  1.2598 -0.2273
  889MPD2     C13028   0.869   3.617  13.186 -0.0751  0.7589 -0.2415
  889MPD2    C113029   0.932   3.640  13.308 -0.4375  0.1848 -0.5481
  889MPD2    C213030   0.894   3.751  13.382 -0.8762 -0.5576 -0.4792
  889MPD2    C313031   0.809   3.852  13.330  0.6102 -0.3582 -0.0627
  889MPD2    C413032   0.746   3.829  13.211  0.0738 -0.9600  0.2640
  889MPD2    C513033   0.776   3.712  13.148  0.8150 -0.5210  0.4217
  889MPD2     H13034   0.942   3.763  13.478 -0.0032 -1.3204 -0.8240
  889MPD2    H113035   0.683   3.902  13.162 -0.3751 -1.3256  0.2980
  889MPD2    H213036   0.865   3.520  13.137 -2.1433  1.7858 -2.1312
  889MPD2    H313037   0.732   3.698  13.050 -1.6006  1.5236  1.2245
  889MPD2     N13038   0.798   3.974  13.403 -0.7533  0.4740  0.1319
  889MPD2    H513039   0.840   3.987  13.494 -0.3290  1.5693 -0.2310
  889MPD2    N113040   0.994   3.542  13.380  0.7899 -0.6177  0.4376
  889MPD2    H713041   1.018   3.567  13.476 -0.3100  1.0356  0.2899
  890MPD2     C13042   0.226   1.125  14.632  0.9807 -0.0846  0.1027
  890MPD2    C113043   0.331   1.204  14.687  0.3805  0.0532  0.1305
  890MPD2    C213044   0.408   1.142  14.788 -0.3638  0.0807 -0.8920
  890MPD2    C313045   0.380   1.026  14.848 -0.0825  0.1945 -0.0153
  890MPD2    C413046   0.272   0.958  14.799  0.1351  0.3051 -0.0095
  890MPD2    C513047   0.197   1.007  14.695  0.2200 -0.2289 -0.5865
  890MPD2     H13048   0.495   1.190  14.832 -0.4274 -0.5266 -0.1135
  890MPD2    H113049   0.234   0.862  14.832  1.6935 -0.2442  0.1423
  890MPD2    H213050   0.167   1.148  14.544  0.8719  1.5372  0.5885
  890MPD2    H313051   0.112   0.947  14.665 -1.8710  3.0338 -1.2366
  890MPD2     N13052   0.458   0.989  14.960 -0.2408  0.0780  0.9156
  890MPD2    H513053   0.537   1.047  14.986  0.5315 -1.2969  1.6911
  890MPD2    N113054   0.362   1.328  14.631  1.0990  0.0366 -0.1062
  890MPD2    H713055   0.318   1.348  14.542 -3.4701 -2.8685  1.5367
  891MPD2     C13056   3.478   3.700  16.583 -0.1948  0.1427  0.4320
  891MPD2    C113057   3.376   3.743  16.658  0.2926 -0.3748  0.6377
  891MPD2    C213058   3.411   3.800  16.778  0.1210 -0.0029 -1.0994
  891MPD2    C313059   3.542   3.821  16.817 -0.2755  0.4582  0.1872
  891MPD2    C413060   3.644   3.765  16.741 -0.5261  0.0468 -0.6013
  891MPD2    C513061   3.607   3.708  16.621 -0.0485  0.6207 -0.4946
  891MPD2     H13062   3.341   3.837  16.851  0.2056 -0.2431 -0.8945
  891MPD2    H113063   3.749   3.755  16.768 -0.3783 -0.8220 -1.4969
  891MPD2    H213064   3.464   3.656  16.485 -1.1968 -0.3458  0.7837
  891MPD2    H313065   3.672   3.656  16.552  1.4054  0.3978  1.0640
  891MPD2     N13066   3.564   3.895  16.930  0.0020  0.4012 -0.5158
  891MPD2    H513067   3.487   3.911  16.994  0.3970  0.0228  0.0602
  891MPD2    N113068   3.240   3.731  16.607 -0.3090 -0.1043  0.0040
  891MPD2    H713069   3.237   3.704  16.510 -1.5134 -0.5625  0.1710
  892MPD2     C13070   4.633   0.670  14.728  0.6288 -0.1784 -0.3304
  892MPD2    C113071   4.549   0.570  14.774  0.3704 -0.4059 -0.3436
  892MPD2    C213072   4.589   0.440  14.747  0.0311 -0.5553 -0.1512
  892MPD2    C313073   4.709   0.411  14.686  0.2909 -0.3617 -0.0563
  892MPD2    C413074   0.077   0.511  14.673  0.5009  0.5226 -0.1126
  892MPD2    C513075   0.034   0.638  14.685  0.1379  0.5699  0.0792
  892MPD2     H13076   4.520   0.359  14.769 -0.0415 -0.1783  1.0378
  892MPD2    H113077   0.180   0.494  14.641  0.5425 -1.3929  1.0129
  892MPD2    H213078   4.614   0.777  14.734  1.8756 -0.0039  0.5232
  892MPD2    H313079   0.098   0.722  14.661 -1.3085  2.0422  1.4425
  892MPD2     N13080   0.027   0.284  14.647  0.4035  0.3165 -0.3029
  892MPD2    H513081   0.117   0.269  14.602  0.1564  0.2545 -0.7769
  892MPD2    N113082   4.419   0.600  14.829 -0.0501  0.2062 -0.3142
  892MPD2    H713083   4.384   0.692  14.806  0.2695  0.1113 -1.1796
  893MPD2     C13084   2.693   4.475   1.183 -0.0114 -0.7394  0.4138
  893MPD2    C113085   2.688   4.452   1.318  0.5889 -0.2062 -0.2464
  893MPD2    C213086   2.556   4.443   1.368  0.1786  0.1018  1.0817
  893MPD2    C313087   2.444   4.446   1.291  0.2213 -0.4074 -0.0096
  893MPD2    C413088   2.456   4.492   1.164  0.0402 -0.1911 -0.2782
  893MPD2    C513089   2.581   4.505   1.110  0.0695  0.1099 -0.1421
  893MPD2     H13090   2.551   4.422   1.475  2.0824  0.3157  1.2188
  893MPD2    H113091   2.371   4.505   1.098 -0.5761  0.1755  0.5985
  893MPD2    H213092   2.789   4.479   1.133 -0.9868 -0.0804 -1.4007
  893MPD2    H313093   2.592   4.533   1.006 -0.6088  0.7655 -0.0381
  893MPD2     N13094   2.322   4.418   1.343 -0.2174  0.2313  0.8292
  893MPD2    H513095   2.246   4.437   1.280  0.6660  2.9415  0.6003
  893MPD2    N113096   2.808   4.410   1.382  0.2730 -0.2302 -0.1842
  893MPD2    H713097   2.886   4.395   1.319 -0.1072 -0.3615 -0.6302
  894MPD2     C13098   4.093   1.684   0.968  0.4194 -0.0760 -0.1262
  894MPD2    C113099   4.195   1.686   1.062  0.1142 -0.9190 -0.8587
  894MPD2    C213100   4.305   1.770   1.038 -0.1142  0.3857  0.0924
  894MPD2    C313101   4.307   1.860   0.936 -0.2495 -0.1201  0.0347
  894MPD2    C413102   4.202   1.861   0.840 -0.6116  0.0678  0.2032
  894MPD2    C513103   4.093   1.780   0.867  0.5630  0.3890 -0.7897
  894MPD2     H13104   4.392   1.765   1.102  0.0468  0.4632 -0.1234
  894MPD2    H113105   4.197   1.934   0.760 -0.3319  3.0288  2.9174
  894MPD2    H213106   3.999   1.629   0.976  1.0806 -1.4267 -1.4451
  894MPD2    H313107   4.011   1.782   0.795  0.5862 -0.2450 -0.8348
  894MPD2     N13108   4.423   1.942   0.925 -0.0527  0.0886 -0.1169
  894MPD2    H513109   4.492   1.932   0.998 -0.5537 -1.4174  0.1417
  894MPD2    N113110   4.201   1.605   1.176  0.4512 -0.0592 -0.7675
  894MPD2    H713111   4.293   1.596   1.219  0.5641 -0.0052 -0.9970
  895MPD2     C13112   3.706   4.696  13.889  0.8583 -0.0457  0.4464
  895MPD2    C113113   3.663   4.625  13.782 -0.1580 -0.4913 -0.1060
  895MPD2    C213114   3.726   4.509  13.749 -0.0479  0.3489  0.0674
  895MPD2    C313115   3.833   4.467  13.829 -0.6747  0.2716  0.7363
  895MPD2    C413116   3.871   4.533  13.942  0.7295 -0.5250  0.0939
  895MPD2    C513117   3.797   4.644  13.973 -0.6094 -0.4129 -0.5913
  895MPD2     H13118   3.704   4.450  13.660 -1.2558 -0.6503  1.0291
  895MPD2    H113119   3.945   4.492  14.010  1.4103  2.0719  0.9148
  895MPD2    H213120   3.663   0.070  13.911 -1.8042 -0.9328 -0.8429
  895MPD2    H313121   3.814   4.704  14.061 -2.7369 -0.2314 -0.2872
  895MPD2     N13122   3.900   4.343  13.791  0.6463 -0.1038 -1.2241
  895MPD2    H513123   3.878   4.306  13.700 -0.7219  0.6643 -1.2156
  895MPD2    N113124   3.551   4.669  13.699  0.5999  0.2452  0.2354
  895MPD2    H713125   3.535   4.597  13.629 -0.0196  0.9041 -0.2979
  896MPD2     C13126   1.159   2.468   1.803 -0.2712  0.7992  0.1582
  896MPD2    C113127   1.196   2.374   1.719  0.1558 -0.7457 -0.1982
  896MPD2    C213128   1.092   2.310   1.649 -0.4393  0.5135  0.0998
  896MPD2    C313129   0.955   2.354   1.656  0.7145 -0.1809 -0.4565
  896MPD2    C413130   0.931   2.450   1.751  1.1097 -0.3290 -0.2121
  896MPD2    C513131   1.031   2.510   1.818 -0.9195  0.3971 -0.0124
  896MPD2     H13132   1.117   2.236   1.573  1.3394  0.2805  0.9176
  896MPD2    H113133   0.830   2.487   1.764  1.3192 -1.6050  4.9751
  896MPD2    H213134   1.220   2.528   1.869 -0.2525  1.5211 -0.5151
  896MPD2    H313135   1.007   2.587   1.890  1.7411  0.5439  0.7091
  896MPD2     N13136   0.858   2.298   1.573  0.8019 -0.7476  0.4285
  896MPD2    H513137   0.891   2.225   1.510  1.1545 -1.0179  0.9337
  896MPD2    N113138   1.341   2.342   1.718 -0.1638  0.5731  0.1491
  896MPD2    H713139   1.401   2.409   1.765  2.3889 -1.3343 -0.3614
  897MPD2     C13140   2.811   3.645  11.098  0.2895  0.4372  0.4698
  897MPD2    C113141   2.768   3.745  11.014 -0.4471 -0.1297 -1.1075
  897MPD2    C213142   2.661   3.814  11.049 -0.1599  0.1523 -0.4372
  897MPD2    C313143   2.575   3.763  11.148  0.0804  1.3058  0.0404
  897MPD2    C413144   2.622   3.652  11.226  0.5311  0.0329  0.4618
  897MPD2    C513145   2.739   3.596  11.206 -0.4117 -0.4084 -0.4557
  897MPD2     H13146   2.630   3.897  10.985 -1.9665  0.4382  0.7970
  897MPD2    H113147   2.569   3.611  11.312  0.4980 -0.3468  0.2612
  897MPD2    H213148   2.898   3.586  11.071 -1.1485 -1.7592  0.6711
  897MPD2    H313149   2.774   3.519  11.274 -0.9391  1.1203  1.5798
  897MPD2     N13150   2.440   3.813  11.161 -0.0251 -0.6950  0.3301
  897MPD2    H513151   2.403   3.862  11.080  3.4401  0.5881 -0.5111
  897MPD2    N113152   2.835   3.775  10.898  0.4075  0.3926 -0.4984
  897MPD2    H713153   2.916   3.720  10.872  0.6452  1.2792 -1.6175
  898MPD2     C13154   3.397   4.261  17.667 -0.5319  0.3425  0.2497
  898MPD2    C113155   3.490   4.327  17.594 -0.4594 -0.1962  0.1618
  898MPD2    C213156   3.460   4.452  17.547  0.4459  0.9331 -0.2580
  898MPD2    C313157   3.330   4.504  17.558  0.3588 -0.2322 -0.5083
  898MPD2    C413158   3.240   4.441  17.636 -0.1873  0.7749  0.6903
  898MPD2    C513159   3.275   4.320  17.683 -0.3443  0.5314 -0.6160
  898MPD2     H13160   3.536   4.507  17.493  0.5542 -0.2744 -1.3220
  898MPD2    H113161   3.144   4.484  17.662 -0.4639  0.9144 -0.5540
  898MPD2    H213162   3.415   4.168   0.026 -1.1341  1.0685  1.7234
  898MPD2    H313163   3.200   4.264   0.045  0.5663 -0.7082 -0.6216
  898MPD2     N13164   3.308   4.627  17.489 -0.0157 -0.4630 -0.1916
  898MPD2    H513165   3.386   4.652  17.429 -0.9696 -1.1245 -1.7073
  898MPD2    N113166   3.622   4.262  17.571  0.1796  0.1126  0.1656
  898MPD2    H713167   3.698   4.324  17.545 -0.2968  1.1717  1.3233
  899MPD2     C13168   0.022   0.566  17.582  0.1926 -0.6166 -0.3190
  899MPD2    C113169   0.066   0.677  17.647 -0.6814 -0.1863  0.4160
  899MPD2    C213170   0.088   0.660   0.091  0.6058  0.4860  0.2296
  899MPD2    C313171   0.072   0.542   0.163  1.1055 -0.3711 -0.6059
  899MPD2    C413172   0.014   0.441   0.091 -0.0806  0.4665 -0.8211
  899MPD2    C513173   4.720   0.452  17.652 -0.3139  0.5953  0.0687
  899MPD2     H13174   0.117   0.746   0.149 -1.2718  0.9717  0.4703
  899MPD2    H113175   4.700   0.346   0.129 -0.9529  1.2668  0.3054
  899MPD2    H213176   4.713   0.567  17.478  0.9133 -3.9550 -0.5709
  899MPD2    H313177   4.662   0.375  17.603  1.5893 -0.6552 -0.2082
  899MPD2     N13178   0.088   0.529   0.303  0.1893 -0.1926 -0.2612
  899MPD2    H513179   0.044   0.447   0.345 -3.6576  2.4357  0.8214
  899MPD2    N113180   0.082   0.801  17.580  0.2980  0.3481  0.2698
  899MPD2    H713181   0.041   0.811  17.487 -0.0059  0.4987  0.4198
  900MPD2     C13182   0.159   2.373  12.559 -0.5868  0.0029  0.2817
  900MPD2    C113183   0.091   2.250  12.523  0.3917  0.3719  0.3399
  900MPD2    C213184   4.707   2.256  12.430  0.2108  0.3917  0.0227
  900MPD2    C313185   4.671   2.374  12.368  0.3907  0.0463 -0.3057
  900MPD2    C413186   0.015   2.489  12.398 -0.0240 -0.1796  0.3167
  900MPD2    C513187   0.119   2.484  12.489  0.3406 -0.0228  0.1345
  900MPD2     H13188   4.643   2.170  12.415  3.2409 -1.8700  0.0801
  900MPD2    H113189   4.707   2.580  12.348  2.4246  0.1693 -0.5743
  900MPD2    H213190   0.242   2.364  12.629 -1.3498  0.2404  1.2070
  900MPD2    H313191   0.169   2.578  12.512 -1.9434  1.1800  0.2174
  900MPD2     N13192   4.559   2.373  12.279 -0.0244  0.1628 -0.0336
  900MPD2    H513193   4.504   2.288  12.272 -0.1477  0.2415 -0.0246
  900MPD2    N113194   0.132   2.125  12.580 -0.7004 -0.2931  0.8202
  900MPD2    H713195   0.220   2.134  12.631 -0.6612  1.2646  0.4916
  901MPD2     C13196   0.171   1.099  12.949 -0.6208 -0.6406  0.6226
  901MPD2    C113197   0.249   1.098  12.840  0.0475 -0.3238  0.1513
  901MPD2    C213198   0.261   1.207  12.766 -0.5351 -0.4338 -0.2750
  901MPD2    C313199   0.191   1.329  12.805  0.0093  0.7531 -0.2120
  901MPD2    C413200   0.105   1.320  12.912  0.1327 -0.2971  0.2391
  901MPD2    C513201   0.097   1.206  12.989 -0.7426 -0.7139  0.6038
  901MPD2     H13202   0.314   1.210  12.671  0.9290 -0.5864  0.5412
  901MPD2    H113203   0.045   1.404  12.944  0.4788 -0.2239  0.7069
  901MPD2    H213204   0.179   1.006  13.005 -2.1756 -1.9802 -1.4295
  901MPD2    H313205   0.032   1.212  13.075 -1.0010 -2.3354  0.5287
  901MPD2     N13206   0.215   1.447  12.734 -0.0559  0.2133  0.1033
  901MPD2    H513207   0.287   1.437  12.663 -1.6541 -0.5155 -1.4151
  901MPD2    N113208   0.310   0.968  12.797 -0.0294 -0.5269 -0.5091
  901MPD2    H713209   0.303   0.900  12.872  0.0707  0.6364  0.5791
  902MPD2     C13210   4.228   0.107  13.047 -0.2332 -0.0869 -0.2653
  902MPD2    C113211   4.146   0.189  12.975  0.3100  0.2108  0.3407
  902MPD2    C213212   4.106   0.146  12.848  0.5868 -0.7646 -0.3584
  902MPD2    C313213   4.152   0.026  12.793 -0.1933  0.1711 -0.0309
  902MPD2    C413214   4.237   4.672  12.867 -1.4705 -0.5023  0.2195
  902MPD2    C513215   4.267   4.714  12.991 -0.3982  0.7177  0.2321
  902MPD2     H13216   4.032   0.204  12.794  0.4421 -0.7087 -0.0985
  902MPD2    H113217   4.270   4.574  12.835 -0.3651 -0.5799  1.5743
  902MPD2    H213218   4.270   0.146  13.139 -0.7106  1.2278 -0.6092
  902MPD2    H313219   4.342   4.652  13.039  0.2395  0.8386 -0.6245
  902MPD2     N13220   4.126   4.701  12.661 -0.3636  0.2108 -0.2139
  902MPD2    H513221   4.147   4.603  12.646  0.7745  0.4065  0.1120
  902MPD2    N113222   4.075   0.303  13.039  0.0592  0.0332 -0.3777
  902MPD2    H713223   4.099   0.317  13.137 -0.8827 -2.1198  0.1675
  903MPD2     C13224   3.842   0.024  11.758 -0.0345 -0.4067  0.0693
  903MPD2    C113225   3.818   0.061  11.883  0.6085  0.5884 -0.4779
  903MPD2    C213226   3.724   0.161  11.908 -0.5611  0.3343  0.3523
  903MPD2    C313227   3.654   0.226  11.805  0.4744  0.0367  0.0126
  903MPD2    C413228   3.679   0.181  11.677 -0.2779 -0.1485 -0.1959
  903MPD2    C513229   3.773   0.084  11.656 -0.8969 -0.2448  0.0481
  903MPD2     H13230   3.705   0.204  12.006 -1.0258  0.5667  0.1610
  903MPD2    H113231   3.640   0.216  11.582  1.0827  0.3707 -0.5674
  903MPD2    H213232   3.919   4.680  11.722  1.8700  1.1015  1.3209
  903MPD2    H313233   3.795   0.061  11.552 -1.6164  0.3419 -0.2418
  903MPD2     N13234   3.545   0.308  11.842 -0.4527 -0.1125  0.9060
  903MPD2    H513235   3.529   0.323  11.941 -2.8799  0.9712  0.3426
  903MPD2    N113236   3.895   0.006  11.989  0.2437 -0.4245 -0.0400
  903MPD2    H713237   3.960   4.661  11.949  1.7491 -0.3886  2.3924
  904MPD2     C13238   3.333   3.666  14.030  0.0329 -0.8765 -0.2393
  904MPD2    C113239   3.411   3.768  13.974  0.7520  0.4214  0.0320
  904MPD2    C213240   3.545   3.766  14.003  0.1855 -0.6790 -0.0786
  904MPD2    C313241   3.598   3.685  14.101  0.0018  0.3851  0.4581
  904MPD2    C413242   3.513   3.603  14.172  0.8123  0.5166  0.8888
  904MPD2    C513243   3.381   3.586  14.133 -0.2349  0.5510  0.8675
  904MPD2     H13244   3.615   3.821  13.941 -0.6090 -0.3377 -0.6748
  904MPD2    H113245   3.546   3.541  14.254  1.9893  1.9020  1.4512
  904MPD2    H213246   3.231   3.649  13.997  0.3186 -1.3821 -0.8443
  904MPD2    H313247   3.324   3.506  14.178  1.0649 -2.1040 -2.2431
  904MPD2     N13248   3.738   3.689  14.120  0.6299  0.3725 -0.1567
  904MPD2    H513249   3.789   3.743  14.051 -0.3941 -1.9290 -2.6896
  904MPD2    N113250   3.363   3.864  13.883 -0.0157 -0.3360 -0.1824
  904MPD2    H713251   3.434   3.923  13.841 -0.2444  1.0129  1.2935
  905MPD2     C13252   3.491   4.093  13.184  0.2377 -0.7266  0.0144
  905MPD2    C113253   3.503   4.128  13.320 -0.3082 -0.3014 -0.5966
  905MPD2    C213254   3.628   4.123  13.381  0.8002  0.6601  0.2258
  905MPD2    C313255   3.737   4.073  13.314 -0.1916  0.1155  0.5049
  905MPD2    C413256   3.722   4.032  13.183 -0.0712 -0.3840  0.6793
  905MPD2    C513257   3.603   4.042  13.114 -1.3930  0.5255 -0.1218
  905MPD2     H13258   3.634   4.131  13.489 -1.1851  0.8657  0.3104
  905MPD2    H113259   3.803   3.981  13.131  0.3420  1.7820 -0.7854
  905MPD2    H213260   3.399   4.117  13.133  0.0637 -3.2114 -0.8548
  905MPD2    H313261   3.600   4.032  13.006 -0.8438  0.7583 -0.1594
  905MPD2     N13262   3.862   4.063  13.382  0.7040 -0.4201 -0.5010
  905MPD2    H513263   3.929   3.993  13.350  0.4849 -0.5691 -0.6383
  905MPD2    N113264   3.385   4.160  13.387  0.0799  0.3812  0.3250
  905MPD2    H713265   3.297   4.119  13.358  0.0950  0.3879  0.2698
  906MPD2     C13266   1.174   3.926  11.532 -0.4881 -0.3744 -0.2218
  906MPD2    C113267   1.154   3.831  11.431  0.4989  0.4367  0.2474
  906MPD2    C213268   1.085   3.716  11.458  0.2478  0.1391  0.4663
  906MPD2    C313269   1.032   3.690  11.581  0.3857 -0.5731  0.4541
  906MPD2    C413270   1.052   3.782  11.683 -0.1022 -0.0531  0.1716
  906MPD2    C513271   1.133   3.891  11.662 -0.4301  0.4847 -1.2824
  906MPD2     H13272   1.073   3.645  11.377  2.8713  0.3903 -0.1518
  906MPD2    H113273   1.024   3.767  11.787 -0.6854 -0.4201 -0.0366
  906MPD2    H213274   1.235   4.014  11.514  0.2377 -0.9573 -0.6083
  906MPD2    H313275   1.160   3.965  11.737 -0.2911 -0.7745 -0.1058
  906MPD2     N13276   0.946   3.581  11.582  0.1139 -0.0414 -0.2054
  906MPD2    H513277   0.926   3.529  11.497 -0.7184 -1.2451  0.7385
  906MPD2    N113278   1.196   3.857  11.298 -0.4526  0.2519 -0.0259
  906MPD2    H713279   1.164   3.784  11.234  0.6065  0.9050 -1.3084
  907MPD2     C13280   4.332   2.848  15.835 -0.2360  0.3584 -0.3508
  907MPD2    C113281   4.404   2.732  15.816  0.3549  0.0164  0.7110
  907MPD2    C213282   4.485   2.692  15.919 -0.7005  0.1078 -0.3217
  907MPD2    C313283   4.500   2.765  16.034 -0.0989  0.0158  0.2814
  907MPD2    C413284   4.426   2.883  16.051 -0.2395  0.0042 -0.1691
  907MPD2    C513285   4.349   2.926  15.953  0.4209 -0.2290  0.1574
  907MPD2     H13286   4.555   2.610  15.911 -0.1173  0.6927 -1.2582
  907MPD2    H113287   4.424   2.945  16.140  1.1890  0.9093 -0.7701
  907MPD2    H213288   4.257   2.869  15.760 -0.2174 -1.0814 -0.7624
  907MPD2    H313289   4.298   3.022  15.965  1.4519  0.4417 -0.8820
  907MPD2     N13290   4.596   2.714  16.123 -1.1930  0.8338  0.7169
  907MPD2    H513291   4.664   2.645  16.091 -1.4139  0.3753  1.2446
  907MPD2    N113292   4.397   2.648  15.705  0.5772  0.2937 -0.5766
  907MPD2    H713293   4.440   2.557  15.713 -0.3745  0.0145  1.5173
  908MPD2     C13294   2.755   3.268  10.182  0.2654  0.1586 -0.8741
  908MPD2    C113295   2.848   3.261  10.274 -0.0402  0.3074 -0.6401
  908MPD2    C213296   2.871   3.375  10.355 -0.2704  0.2750 -0.4224
  908MPD2    C313297   2.804   3.496  10.321  0.5278  0.3376  0.3676
  908MPD2    C413298   2.712   3.498  10.213  0.9436  0.3602  0.4243
  908MPD2    C513299   2.684   3.383  10.145  0.5383 -0.9038 -0.5618
  908MPD2     H13300   2.935   3.375  10.442  1.2859  0.7811 -1.5642
  908MPD2    H113301   2.650   3.584  10.189  2.1136  0.9147 -0.6472
  908MPD2    H213302   2.736   3.175  10.130 -3.2427  0.3795 -0.0093
  908MPD2    H313303   2.601   3.374  10.076  0.9628  0.5354 -1.2577
  908MPD2     N13304   2.835   3.606  10.407 -0.1825 -0.5459 -0.3977
  908MPD2    H513305   2.915   3.586  10.466 -1.2857  0.6852  1.5093
  908MPD2    N113306   2.912   3.135  10.287  0.1032  0.1174  0.1740
  908MPD2    H713307   2.893   3.055  10.227  0.6374 -1.0347  1.5333
  909MPD2     C13308   2.792   1.852  11.745 -0.1313  0.5749  0.1857
  909MPD2    C113309   2.766   1.984  11.741 -0.5415  0.0773 -0.3436
  909MPD2    C213310   2.683   2.046  11.834 -0.0068  0.2197 -0.8719
  909MPD2    C313311   2.614   1.967  11.929 -0.2048 -0.2874 -0.4038
  909MPD2    C413312   2.638   1.832  11.931  0.7218  0.2010  0.3535
  909MPD2    C513313   2.731   1.772  11.841 -0.6739 -0.2630  0.3273
  909MPD2     H13314   2.667   2.153  11.841  0.0571  0.2373 -0.9904
  909MPD2    H113315   2.610   1.773  12.017  1.0855 -0.3623  0.0850
  909MPD2    H213316   2.857   1.805  11.673  0.1499  0.5999  0.4204
  909MPD2    H313317   2.752   1.666  11.843  1.1224  0.1153  1.4408
  909MPD2     N13318   2.516   2.030  12.012 -0.5862  0.2955 -0.2476
  909MPD2    H513319   2.517   2.131  12.010  0.6572  0.2610 -1.2991
  909MPD2    N113320   2.836   2.062  11.646 -0.6117  0.0347  0.0587
  909MPD2    H713321   2.904   2.012  11.589 -0.6351  0.7463 -0.5895
  910MPD2     C13322   3.363   3.037  15.694  0.3608 -0.6653 -0.6093
  910MPD2    C113323   3.487   3.035  15.633 -0.5012 -0.2130  0.0818
  910MPD2    C213324   3.501   3.082  15.498 -0.1625  0.9927 -0.6641
  910MPD2    C313325   3.396   3.130  15.425 -0.3071  0.3795 -0.5980
  910MPD2    C413326   3.274   3.120  15.487 -0.3028  0.3633 -0.2993
  910MPD2    C513327   3.262   3.087  15.619  1.0681  0.3574  0.0386
  910MPD2     H13328   3.596   3.070  15.448  0.3385 -2.9730  1.2515
  910MPD2    H113329   3.177   3.156  15.454  0.0495  0.1741 -1.5148
  910MPD2    H213330   3.346   2.994  15.792  0.6854 -2.3028 -1.2675
  910MPD2    H313331   3.163   3.084  15.663  1.5450  0.8936  1.1688
  910MPD2     N13332   3.393   3.189  15.293 -0.3666  0.0195 -0.3480
  910MPD2    H513333   3.303   3.203  15.251  1.3259  1.8489 -3.3152
  910MPD2    N113334   3.604   3.002  15.706 -0.7189  0.1598  0.1477
  910MPD2    H713335   3.693   2.999  15.657 -0.2603  2.7231  0.8031
  911MPD2     C13336   1.857   4.269  17.124  0.0957  0.3410 -0.1823
  911MPD2    C113337   1.791   4.210  17.019  0.3627 -0.2773 -0.3076
  911MPD2    C213338   1.705   4.283  16.936 -0.6944 -0.2346 -0.2827
  911MPD2    C313339   1.690   4.417  16.957 -0.8289  0.1176 -0.7125
  911MPD2    C413340   1.762   4.475  17.065  0.1127 -0.1481  0.8996
  911MPD2    C513341   1.833   4.399  17.154  0.2660 -0.4671 -0.3150
  911MPD2     H13342   1.655   4.241  16.850 -1.6674 -1.3321  0.8172
  911MPD2    H113343   1.740   4.579  17.086  3.2870  1.1216 -2.0027
  911MPD2    H213344   1.922   4.209  17.187  0.5794  0.7308 -0.3035
  911MPD2    H313345   1.867   4.444  17.246  2.3293 -1.2018 -0.7218
  911MPD2     N13346   1.611   4.483  16.869  0.7690 -0.3680 -0.3379
  911MPD2    H513347   1.562   4.423  16.803  1.3018 -2.7648  1.4272
  911MPD2    N113348   1.819   4.077  16.993 -0.7596 -0.1562  0.2787
  911MPD2    H713349   1.873   4.026  17.062  1.5312  1.9555  0.0716
  912MPD2     C13350   1.096   4.366  16.250 -0.1680 -0.0854 -0.4231
  912MPD2    C113351   1.145   4.335  16.371  0.2640  0.2436 -0.1705
  912MPD2    C213352   1.103   4.214  16.426  0.4522  0.5567 -0.7874
  912MPD2    C313353   1.018   4.127  16.365  0.1084 -0.3560  0.4514
  912MPD2    C413354   0.968   4.161  16.238 -0.1300 -0.4943 -0.3244
  912MPD2    C513355   1.016   4.275  16.180 -0.5460 -0.0380 -0.2319
  912MPD2     H13356   1.138   4.190  16.526 -0.5177 -1.8677 -1.0217
  912MPD2    H113357   0.908   4.089  16.183 -1.3307  0.1629  0.1228
  912MPD2    H213358   1.121   4.462  16.205  1.7003 -1.3019 -1.9510
  912MPD2    H313359   0.966   4.312  16.091  2.0736 -0.6531 -1.9759
  912MPD2     N13360   0.988   4.007  16.433  0.9794  0.4347 -0.0879
  912MPD2    H513361   1.029   3.988  16.524  0.7104  1.6935  0.2836
  912MPD2    N113362   1.234   4.426  16.439  0.0669 -0.2343 -0.1207
  912MPD2    H713363   1.262   4.508  16.387  0.6434  0.3981  1.1840
  913MPD2     C13364   1.904   2.177   9.899  0.1646  0.2404 -0.4452
  913MPD2    C113365   1.969   2.059   9.926 -0.8867 -0.3491  0.1864
  913MPD2    C213366   2.103   2.049   9.924  0.1325 -1.5787 -0.5116
  913MPD2    C313367   2.179   2.151   9.873  0.0254  0.1113  0.2251
  913MPD2    C413368   2.118   2.271   9.848  0.2347  0.2590 -0.0838
  913MPD2    C513369   1.978   2.284   9.864 -1.2158  0.5469  0.3099
  913MPD2     H13370   2.146   1.954   9.954  1.1430 -0.6749  0.9079
  913MPD2    H113371   2.171   2.354   9.802  0.3846 -0.1806 -0.7102
  913MPD2    H213372   1.796   2.189   9.910 -0.1366 -1.3500 -1.5354
  913MPD2    H313373   1.923   2.374   9.835 -1.9373 -0.4930 -1.5297
  913MPD2     N13374   2.321   2.154   9.868  0.2132 -0.3096  0.2028
  913MPD2    H513375   2.358   2.239   9.827 -0.0078  0.2561  1.2020
  913MPD2    N113376   1.902   1.934   9.949 -0.2103  0.1798 -0.3383
  913MPD2    H713377   1.961   1.853   9.963  1.2918  1.2444 -0.4877
  914MPD2     C13378   4.675   0.572  12.064  0.5260  0.1414 -0.1340
  914MPD2    C113379   4.701   0.696  12.101  0.1472  0.0723 -0.3547
  914MPD2    C213380   0.070   0.719  12.208 -0.4749 -0.5338 -0.3151
  914MPD2    C313381   0.150   0.620  12.269  0.0603  0.0817 -0.3171
  914MPD2    C413382   0.128   0.493  12.209 -0.2994 -0.3695 -0.7280
  914MPD2    C513383   0.025   0.469  12.112 -0.3793 -0.5771  0.6164
  914MPD2     H13384   0.086   0.815  12.256 -1.0983 -0.4860 -0.2033
  914MPD2    H113385   0.169   0.403  12.253 -0.1349 -0.2562 -0.6509
  914MPD2    H213386   4.595   0.539  11.998 -1.4759 -1.7211  3.2332
  914MPD2    H313387   4.720   0.368  12.083  1.4036 -0.2298 -2.3260
  914MPD2     N13388   0.232   0.642  12.386 -0.1408 -0.0492  0.2018
  914MPD2    H513389   0.233   0.734  12.429 -0.4248  0.4366 -0.8194
  914MPD2    N113390   4.618   0.802  12.039  0.1065  0.4995 -0.7090
  914MPD2    H713391   4.547   0.787  11.969 -0.2681 -0.8717 -0.0323
  915MPD2     C13392   2.906   0.761  15.836  0.1101 -0.8218  0.3732
  915MPD2    C113393   2.770   0.765  15.803 -0.6672  0.3608  0.0588
  915MPD2    C213394   2.680   0.822  15.890 -0.3018 -0.2140 -0.1458
  915MPD2    C313395   2.728   0.876  16.012  0.2984 -0.5469  0.7780
  915MPD2    C413396   2.866   0.890  16.035  0.0870 -0.0694 -0.6241
  915MPD2    C513397   2.952   0.824  15.950 -0.6374 -0.0368 -0.2657
  915MPD2     H13398   2.575   0.828  15.863 -0.1558 -0.0008 -0.6532
  915MPD2    H113399   2.903   0.943  16.121 -2.9138  1.4464 -0.2787
  915MPD2    H213400   2.984   0.723  15.772 -0.0585  1.0140 -0.9267
  915MPD2    H313401   3.060   0.830  15.956 -0.5711  0.1230 -1.6334
  915MPD2     N13402   2.634   0.946  16.092  0.2925  0.1071 -1.2335
  915MPD2    H513403   2.539   0.964  16.062 -0.3389 -2.1040 -0.5799
  915MPD2    N113404   2.738   0.711  15.675  0.0335 -0.4229 -0.1101
  915MPD2    H713405   2.814   0.685  15.613 -0.8072  0.4188 -1.4867
  916MPD2     C13406   0.920   4.292  15.738 -0.0394  0.4850  0.2156
  916MPD2    C113407   0.809   4.242  15.808  0.0787 -0.6587 -0.0480
  916MPD2    C213408   0.760   4.115  15.770 -0.3474 -0.5371  0.4344
  916MPD2    C313409   0.816   4.043  15.662 -0.4048  0.5056  0.3639
  916MPD2    C413410   0.924   4.109  15.595  0.2029  0.3766  0.2281
  916MPD2    C513411   0.974   4.229  15.633  0.4023 -0.2266  0.4028
  916MPD2     H13412   0.677   4.071  15.823  0.0565 -1.1581  0.5546
  916MPD2    H113413   0.960   4.068  15.502  0.5538  2.2063 -0.4430
  916MPD2    H213414   0.974   4.381  15.765  1.4440 -0.1230 -0.7630
  916MPD2    H313415   1.058   4.267  15.575  0.7632 -1.0970  0.3543
  916MPD2     N13416   0.779   3.911  15.625  0.4215 -0.1135 -0.0566
  916MPD2    H513417   0.735   3.856  15.697  0.5818  0.0908  0.1975
  916MPD2    N113418   0.745   4.326  15.902  0.3129  0.5897  0.2802
  916MPD2    H713419   0.795   4.414  15.911 -0.7017  1.0079  1.8114
  917MPD2     C13420   1.456   1.404  11.154 -0.1318 -0.5510 -0.4038
  917MPD2    C113421   1.521   1.412  11.277  0.3312  0.1341  0.0147
  917MPD2    C213422   1.633   1.485  11.282 -0.6591 -0.6743 -0.1126
  917MPD2    C313423   1.700   1.532  11.173 -0.0663 -0.1069  0.9526
  917MPD2    C413424   1.638   1.513  11.050 -0.3355  0.3375 -0.3129
  917MPD2    C513425   1.516   1.450  11.043  0.0859 -0.1163  0.5451
  917MPD2     H13426   1.679   1.493  11.380 -1.5477 -1.1725  0.3482
  917MPD2    H113427   1.687   1.547  10.960 -0.5250  0.2764 -0.4391
  917MPD2    H213428   1.359   1.357  11.141 -0.5255  0.3893 -0.9580
  917MPD2    H313429   1.481   1.425  10.943  0.9718  0.4683  0.0941
  917MPD2     N13430   1.813   1.618  11.171  0.0420 -0.4344 -0.2292
  917MPD2    H513431   1.849   1.657  11.085  2.5055  0.1117  1.0648
  917MPD2    N113432   1.458   1.343  11.385 -0.0912 -0.5569  0.2881
  917MPD2    H713433   1.381   1.281  11.361  1.5030 -2.3078 -0.3034
  918MPD2     C13434   1.626   1.676  12.212 -0.2081  0.1584  0.5263
  918MPD2    C113435   1.731   1.589  12.187  0.7249  0.1302  0.2374
  918MPD2    C213436   1.699   1.489  12.100  0.0772  0.1766 -0.2945
  918MPD2    C313437   1.574   1.456  12.051  0.2545 -0.4645  0.6284
  918MPD2    C413438   1.473   1.537  12.085  0.1970 -0.9875 -0.2053
  918MPD2    C513439   1.500   1.653  12.154  0.3815  0.9092  0.3866
  918MPD2     H13440   1.772   1.416  12.067 -0.0892 -0.0049 -0.2601
  918MPD2    H113441   1.372   1.528  12.047  0.6515  0.7292 -1.8677
  918MPD2    H213442   1.639   1.772  12.261  2.9693 -1.0272  1.9784
  918MPD2    H313443   1.415   1.715  12.178  1.7508  2.3229  1.5578
  918MPD2     N13444   1.543   1.338  11.981  0.2167  0.2346  0.1169
  918MPD2    H513445   1.625   1.288  11.946  0.6881  1.3370 -0.3543
  918MPD2    N113446   1.860   1.623  12.238  0.0094  0.1350  0.1518
  918MPD2    H713447   1.854   1.693  12.312  1.4205  0.5852 -0.1504
  919MPD2     C13448   1.928   0.559  11.772 -0.4932 -0.0384 -0.0714
  919MPD2    C113449   2.046   0.482  11.751  0.1745 -0.2426 -0.1156
  919MPD2    C213450   2.116   0.481  11.635  0.7033  0.4254 -0.1835
  919MPD2    C313451   2.072   0.557  11.532  0.0749 -0.8119 -0.4409
  919MPD2    C413452   1.959   0.630  11.547 -0.2731 -0.6141  0.4726
  919MPD2    C513453   1.891   0.639  11.666 -0.0710  0.4871  0.2776
  919MPD2     H13454   2.205   0.418  11.634 -0.4097 -1.1427 -0.3616
  919MPD2    H113455   1.930   0.697  11.467 -0.6014 -2.0502 -0.5939
  919MPD2    H213456   1.877   0.556  11.867 -0.0124 -0.5230  0.1739
  919MPD2    H313457   1.796   0.692  11.671  0.0387  0.8424 -1.5173
  919MPD2     N13458   2.120   0.549  11.396 -0.1875  0.3365 -0.6491
  919MPD2    H513459   2.076   0.612  11.330  0.1297 -0.8397 -1.9758
  919MPD2    N113460   2.093   0.393  11.845 -0.2739  0.2911 -0.2496
  919MPD2    H713461   2.169   0.335  11.810  1.2302  2.4803 -0.5957
  920MPD2     C13462   2.100   1.127  10.782  0.0507 -0.0624  0.3753
  920MPD2    C113463   2.006   1.028  10.754 -0.6069 -0.5986 -0.1663
  920MPD2    C213464   2.021   0.912  10.825 -0.2716 -0.2333  0.6108
  920MPD2    C313465   2.134   0.887  10.903  0.2998  0.2189  0.5762
  920MPD2    C413466   2.220   0.989  10.933  0.1920 -0.0089 -0.2060
  920MPD2    C513467   2.204   1.106  10.864 -0.2326 -0.3779 -0.0073
  920MPD2     H13468   1.954   0.830  10.808 -0.3583  0.1070 -0.6737
  920MPD2    H113469   2.306   0.974  10.998  0.2149  1.1856  0.0494
  920MPD2    H213470   2.088   1.227  10.742  0.5142 -0.1389  0.0559
  920MPD2    H313471   2.267   1.191  10.892 -1.0702  0.8957 -1.9626
  920MPD2     N13472   2.156   0.762  10.963  0.4956 -0.4024 -0.1330
  920MPD2    H513473   2.219   0.763  11.043 -0.1464 -0.2852  0.3792
  920MPD2    N113474   1.900   1.034  10.657  0.0642 -0.0316 -0.1418
  920MPD2    H713475   1.832   0.960  10.641  0.9524 -0.3967 -2.1186
  921MPD2     C13476   2.595   3.993  16.980  0.4650  0.7947 -0.0762
  921MPD2    C113477   2.565   3.891  16.900  0.1688 -0.6674 -0.0858
  921MPD2    C213478   2.443   3.829  16.908  0.3386  0.0966 -0.0116
  921MPD2    C313479   2.347   3.869  16.998 -0.0507 -0.4376  0.2052
  921MPD2    C413480   2.374   3.974  17.079 -0.7232  0.3094 -0.1282
  921MPD2    C513481   2.497   4.031  17.075 -0.4256  0.2365  0.7055
  921MPD2     H13482   2.426   3.737  16.853  0.0409 -0.2907  0.7346
  921MPD2    H113483   2.304   3.992  17.160 -0.5666  1.9330 -0.3581
  921MPD2    H213484   2.692   4.041  16.988  1.4313 -0.6658 -3.1449
  921MPD2    H313485   2.520   4.111  17.145  0.7406  2.1611 -1.8757
  921MPD2     N13486   2.223   3.809  17.014 -0.2459  0.0657  0.2825
  921MPD2    H513487   2.160   3.851  17.081 -2.3230  0.5187 -1.9527
  921MPD2    N113488   2.669   3.833  16.819  0.0520  0.0866  0.3449
  921MPD2    H713489   2.762   3.873  16.830  0.9658 -1.9921  0.1322
  922MPD2     C13490   3.481   2.425  17.600  0.6841  0.6602 -0.2403
  922MPD2    C113491   3.491   2.290  17.602  0.6211  0.3500  0.4552
  922MPD2    C213492   3.461   2.220   0.024 -0.4248  0.2500 -0.0948
  922MPD2    C313493   3.421   2.287   0.139  1.0454  0.7198 -0.5576
  922MPD2    C413494   3.420   2.425   0.149 -0.5307  0.1715  0.2824
  922MPD2    C513495   3.455   2.486   0.030  0.6276  0.1425 -0.3859
  922MPD2     H13496   3.472   2.112   0.024 -0.2457  0.2681 -0.0050
  922MPD2    H113497   3.410   2.481   0.241  0.8061  1.4757 -0.3612
  922MPD2    H213498   3.505   2.488  17.515  0.3251 -0.8727 -1.4744
  922MPD2    H313499   3.464   2.594   0.035  1.0125  0.0597  0.7510
  922MPD2     N13500   3.396   2.207   0.252 -0.2680 -0.1669 -0.5477
  922MPD2    H513501   3.399   2.107   0.233 -0.7093 -0.4615  0.9232
  922MPD2    N113502   3.525   2.212  17.490  0.2584  0.0732 -0.1455
  922MPD2    H713503   3.554   2.115  17.503 -2.1456 -0.6393 -0.0271
  923MPD2     C13504   1.571   3.650   9.546  0.0581 -0.0442 -0.2830
  923MPD2    C113505   1.437   3.643   9.579 -0.0727 -0.1979 -0.4757
  923MPD2    C213506   1.404   3.625   9.713 -0.3464  0.1868 -0.4635
  923MPD2    C313507   1.499   3.635   9.806  0.1218  0.4392  0.1772
  923MPD2    C413508   1.636   3.637   9.768  0.1390  0.1294  0.8788
  923MPD2    C513509   1.668   3.649   9.635 -0.5430  0.1778 -0.1834
  923MPD2     H13510   1.301   3.620   9.747  0.2965 -1.6596  1.2144
  923MPD2    H113511   1.715   3.637   9.842  1.6089  0.9929 -0.7091
  923MPD2    H213512   1.594   3.666   9.441 -2.3036  1.5890 -0.5652
  923MPD2    H313513   1.770   3.654   9.600 -1.4967 -0.9861 -3.1223
  923MPD2     N13514   1.474   3.625   9.946  0.7091 -0.3982  0.0603
  923MPD2    H513515   1.551   3.643  10.009  1.0064  1.3295 -0.8100
  923MPD2    N113516   1.347   3.624   9.470  0.3919 -0.4085  0.3864
  923MPD2    H713517   1.389   3.639   9.379  1.4864 -1.6797  0.6741
  924MPD2     C13518   0.093   1.889  16.424 -0.3184  0.0761  0.2575
  924MPD2    C113519   4.722   1.975  16.366  0.0300  0.1760 -0.5647
  924MPD2    C213520   0.034   2.104  16.337 -0.2455  0.2617 -0.2704
  924MPD2    C313521   0.150   2.155  16.387 -0.0160  0.0750  0.2132
  924MPD2    C413522   0.229   2.078  16.474 -0.1967  0.0897  0.2944
  924MPD2    C513523   0.202   1.944  16.483  0.2028  0.1249 -0.2215
  924MPD2     H13524   4.693   2.165  16.274  0.8227 -0.7042 -2.2832
  924MPD2    H113525   0.317   2.105  16.531 -0.2042 -0.2494  0.4691
  924MPD2    H213526   0.091   1.781  16.435 -2.0801  0.3229  2.2972
  924MPD2    H313527   0.270   1.882  16.540  0.4310  2.1655  1.7134
  924MPD2     N13528   0.191   2.290  16.373 -0.0528  0.2496  0.2905
  924MPD2    H513529   0.282   2.318  16.410 -0.1010  1.6814 -0.6889
  924MPD2    N113530   4.603   1.937  16.316 -0.2823  0.3188  0.8852
  924MPD2    H713531   4.564   2.004  16.249 -0.4316  0.1730  0.8271
  925MPD2     C13532   3.649   4.716  14.728  0.0742 -0.4163  0.3709
  925MPD2    C113533   3.520   0.030  14.697 -0.1740  0.6818  0.2723
  925MPD2    C213534   3.422   0.019  14.790  1.1169  0.7484  0.2512
  925MPD2    C313535   3.445   4.669  14.906  0.3297  0.1115 -0.2648
  925MPD2    C413536   3.571   4.625  14.927  0.3116 -0.0789  0.2965
  925MPD2    C513537   3.678   4.651  14.844 -0.2981 -0.8319 -0.0870
  925MPD2     H13538   3.322   0.057  14.780  1.0825  1.0026  1.4841
  925MPD2    H113539   3.597   4.572  15.018 -1.4451  2.3775  2.2421
  925MPD2    H213540   3.731   0.007  14.659  0.1219 -0.9478  0.3203
  925MPD2    H313541   3.778   4.621  14.875  1.2463  0.0917 -4.1469
  925MPD2     N13542   3.347   4.639  14.999 -0.2297 -0.0624 -0.2375
  925MPD2    H513543   3.372   4.580  15.077 -0.0550 -2.2298 -1.9578
  925MPD2    N113544   3.491   0.109  14.579  0.7183  0.8292  0.2410
  925MPD2    H713545   3.391   0.124  14.570  0.3420  0.2032  3.5823
  926MPD2     C13546   2.273   3.361  13.864 -0.2375  0.0581 -0.0029
  926MPD2    C113547   2.223   3.458  13.784 -0.4026 -0.7584 -0.0706
  926MPD2    C213548   2.293   3.503  13.670 -0.2794 -0.3829 -0.0683
  926MPD2    C313549   2.405   3.433  13.633 -1.0790 -0.1524  0.1126
  926MPD2    C413550   2.455   3.328  13.708 -0.1703 -0.1127 -0.7500
  926MPD2    C513551   2.386   3.292  13.825 -0.5204  0.5496 -0.6870
  926MPD2     H13552   2.247   3.582  13.612 -0.1572 -0.1958  0.0880
  926MPD2    H113553   2.542   3.271  13.676  0.0222  0.4759 -1.2624
  926MPD2    H213554   2.212   3.322  13.944  0.1425 -0.6342 -0.0456
  926MPD2    H313555   2.423   3.204  13.877 -0.4697  0.9816  0.0126
  926MPD2     N13556   2.487   3.461  13.521  0.2131  0.1478  1.0062
  926MPD2    H513557   2.570   3.406  13.503  1.1863  2.6840 -2.4296
  926MPD2    N113558   2.098   3.525  13.810  0.0342  0.4553  0.1953
  926MPD2    H713559   2.071   3.592  13.739  0.8097  1.7095  1.0833
  927MPD2     C13560   1.680   1.119   0.553 -0.2444 -0.4386  0.1391
  927MPD2    C113561   1.672   0.993   0.505  0.0221  0.6035  1.2239
  927MPD2    C213562   1.731   0.951   0.392  0.0936 -0.2685  0.2931
  927MPD2    C313563   1.798   1.042   0.316  0.3595 -0.3422 -0.0033
  927MPD2    C413564   1.822   1.173   0.364  0.2567 -0.3006  0.0766
  927MPD2    C513565   1.763   1.204   0.484  0.2663  0.3996 -0.0351
  927MPD2     H13566   1.728   0.849   0.356 -0.5301  0.0092 -0.4567
  927MPD2    H113567   1.864   1.251   0.301 -1.2739  0.7147  0.2905
  927MPD2    H213568   1.638   1.165   0.642 -0.5749 -2.2027  0.8859
  927MPD2    H313569   1.786   1.306   0.511 -0.1541  0.6530 -0.6397
  927MPD2     N13570   1.864   0.991   0.203  0.3445  0.0032  0.2837
  927MPD2    H513571   1.827   0.903   0.170  2.2614 -0.9023  0.5603
  927MPD2    N113572   1.601   0.904   0.588 -0.1888  0.7959 -0.8976
  927MPD2    H713573   1.545   0.943   0.664 -1.4388  0.7817 -1.8146
  928MPD2     C13574   4.117   4.432   0.846 -0.5466  0.0981  0.0197
  928MPD2    C113575   4.212   4.455   0.943 -0.6640  0.1142  0.5809
  928MPD2    C213576   4.330   4.385   0.945 -0.0318  0.3816 -0.1079
  928MPD2    C313577   4.352   4.296   0.838 -0.2111 -0.5194 -0.5561
  928MPD2    C413578   4.252   4.279   0.745 -0.5343 -0.2848 -0.3994
  928MPD2    C513579   4.137   4.351   0.747 -0.3043 -0.5578 -0.0140
  928MPD2     H13580   4.404   4.413   1.018 -0.7960 -1.5466  1.3915
  928MPD2    H113581   4.269   4.210   0.662 -0.1126 -0.6739  0.0102
  928MPD2    H213582   4.018   4.477   0.848 -0.5490 -0.0404  2.9096
  928MPD2    H313583   4.069   4.334   0.664  1.0008  1.7305 -1.5246
  928MPD2     N13584   4.469   4.226   0.813 -0.2288 -0.8198  0.2122
  928MPD2    H513585   4.478   4.179   0.723  1.1890 -2.7498  1.3511
  928MPD2    N113586   4.175   4.548   1.049 -0.1771 -0.4094 -0.0870
  928MPD2    H713587   4.089   4.600   1.036  0.4479  0.8277  0.8345
  929MPD2     C13588   0.927   4.169  10.481 -0.2700 -0.6314 -0.3289
  929MPD2    C113589   0.823   4.126  10.399  0.5180 -0.3890  0.4535
  929MPD2    C213590   0.792   4.200  10.288  0.1792 -1.0446  0.0206
  929MPD2    C313591   0.866   4.314  10.263 -1.0881 -0.4939 -0.0410
  929MPD2    C413592   0.961   4.359  10.355 -0.2138 -0.3601 -0.2715
  929MPD2    C513593   0.994   4.284  10.462  0.6322  0.2397 -0.4570
  929MPD2     H13594   0.703   4.174  10.233 -0.3478  0.2390  0.2729
  929MPD2    H113595   1.014   4.453  10.347 -1.7173  0.6354  1.4126
  929MPD2    H213596   0.964   4.109  10.564 -0.8776 -1.0323 -0.3458
  929MPD2    H313597   1.068   4.326  10.529  1.9953 -1.4425 -0.9297
  929MPD2     N13598   0.852   4.387  10.141  0.4290  0.2981  0.2056
  929MPD2    H513599   0.904   4.472  10.121  1.3019 -0.1310  0.6794
  929MPD2    N113600   0.747   4.020  10.449 -0.2463  0.2107 -0.4792
  929MPD2    H713601   0.773   3.994  10.544 -2.9708  1.6135  0.6439
  930MPD2     C13602   2.026   1.496  14.580  0.3871 -0.5741 -0.7287
  930MPD2    C113603   2.024   1.538  14.444  0.2407 -0.2519  0.2266
  930MPD2    C213604   1.968   1.464  14.345  0.3181 -0.7276 -0.9513
  930MPD2    C313605   1.897   1.351  14.382 -0.2421  0.2192 -0.3855
  930MPD2    C413606   1.899   1.308  14.517  0.7430  0.0075 -0.3169
  930MPD2    C513607   1.970   1.378  14.609 -0.2146  0.2485  0.5825
  930MPD2     H13608   1.962   1.499  14.243 -0.3269  1.6701 -0.0978
  930MPD2    H113609   1.862   1.213  14.552 -1.2713  1.3864  1.3235
  930MPD2    H213610   2.060   1.557  14.663  0.4029  2.1107 -2.6953
  930MPD2    H313611   1.962   1.346  14.712  1.5417  0.3331  0.7485
  930MPD2     N13612   1.823   1.277  14.285 -0.0918  0.3273 -0.0665
  930MPD2    H513613   1.792   1.183  14.307  0.1747  0.1948 -0.2565
  930MPD2    N113614   2.081   1.649  14.388 -0.3103 -0.5611  0.5294
  930MPD2    H713615   2.068   1.659  14.288 -1.0555  0.7038  0.7499
  931MPD2     C13616   1.740   0.119   0.780 -0.1450 -0.2706 -0.4347
  931MPD2    C113617   1.663   0.191   0.873  0.3019  0.3406 -0.0822
  931MPD2    C213618   1.654   0.137   1.002 -0.0003  1.1347  0.2777
  931MPD2    C313619   1.727   0.031   1.044 -0.4096 -0.3274 -0.2038
  931MPD2    C413620   1.820   4.699   0.951  0.5070 -0.5882 -0.0450
  931MPD2    C513621   1.818   0.015   0.821  0.2575 -0.1246 -0.2443
  931MPD2     H13622   1.615   0.204   1.078 -1.2904  1.0548 -0.3069
  931MPD2    H113623   1.886   4.616   0.973  1.3518 -0.0125 -0.4527
  931MPD2    H213624   1.734   0.153   0.678  1.5881 -2.0977 -1.1460
  931MPD2    H313625   1.885   4.695   0.747  2.1223 -0.6955  1.7639
  931MPD2     N13626   1.709   4.701   1.174  0.5584 -0.0630 -0.6839
  931MPD2    H513627   1.750   4.610   1.191  0.0023 -0.4027 -1.1261
  931MPD2    N113628   1.604   0.308   0.819 -0.0252  0.1727 -0.1270
  931MPD2    H713629   1.615   0.335   0.722  1.5010 -0.6304 -0.1672
  932MPD2     C13630   4.171   4.639  10.790 -0.5687 -0.3135 -0.2846
  932MPD2    C113631   4.203   4.692  10.916 -0.4571 -0.2930  0.4239
  932MPD2    C213632   4.262   4.622  11.016  0.7929  0.1827 -1.1447
  932MPD2    C313633   4.286   4.487  11.002 -0.2961 -0.7413  1.0014
  932MPD2    C413634   4.274   4.429  10.880  0.2031  0.0267  0.9677
  932MPD2    C513635   4.217   4.504  10.774 -0.1085 -0.3321 -0.1582
  932MPD2     H13636   4.282   4.673  11.109 -1.0861 -1.8656  0.3867
  932MPD2    H113637   4.298   4.326  10.858  1.6157 -0.2164  3.6709
  932MPD2    H213638   4.113   4.681  10.709  0.5143 -1.0335 -1.4255
  932MPD2    H313639   4.192   4.453  10.682  1.6075 -0.2479 -0.6610
  932MPD2     N13640   4.335   4.411  11.108  0.0320 -0.2633  0.3675
  932MPD2    H513641   4.381   4.326  11.076  0.7851 -0.2579  1.4275
  932MPD2    N113642   4.165   0.100  10.949 -0.3069 -0.5842 -0.0044
  932MPD2    H713643   4.171   0.128  11.046  1.8797 -0.5577 -0.1678
  933MPD2     C13644   3.732   0.401   1.542 -0.1304  0.2577  0.2575
  933MPD2    C113645   3.747   0.284   1.467 -0.7284 -0.0254 -0.4011
  933MPD2    C213646   3.631   0.244   1.401  0.3043 -0.2642  0.1360
  933MPD2    C313647   3.514   0.314   1.412 -0.2720 -0.1400 -0.4232
  933MPD2    C413648   3.504   0.429   1.492 -0.5129  0.4645  0.2997
  933MPD2    C513649   3.618   0.472   1.552 -0.5029  0.6150  0.6652
  933MPD2     H13650   3.629   0.145   1.358 -0.8806  0.0421 -0.5140
  933MPD2    H113651   3.418   0.492   1.513 -1.1867  0.1651 -1.5233
  933MPD2    H213652   3.818   0.447   1.589  0.3333 -0.3522  0.0081
  933MPD2    H313653   3.624   0.569   1.600 -1.6373  0.2152  1.6295
  933MPD2     N13654   3.418   0.279   1.316 -0.0650  0.4582  0.9591
  933MPD2    H513655   3.441   0.205   1.251  0.1645  0.1728  1.3697
  933MPD2    N113656   3.876   0.232   1.442 -0.0832  0.6653  0.5626
  933MPD2    H713657   3.955   0.285   1.478  0.3358  0.6236 -0.3058
  934MPD2     C13658   0.881   2.315   2.098 -0.3229  0.2747 -0.2846
  934MPD2    C113659   0.968   2.234   2.029  0.4664  0.0329 -0.2437
  934MPD2    C213660   0.923   2.137   1.943 -0.1962 -0.1602 -0.1433
  934MPD2    C313661   0.786   2.129   1.921 -0.5879 -0.1523  0.0791
  934MPD2    C413662   0.702   2.209   2.001  0.3197 -0.7126  0.1676
  934MPD2    C513663   0.746   2.308   2.078 -0.2866 -0.0099 -0.0481
  934MPD2     H13664   0.988   2.069   1.890  1.3194  0.6001  0.7571
  934MPD2    H113665   0.595   2.192   1.994  0.4544 -1.5608  0.1685
  934MPD2    H213666   0.916   2.384   2.174 -0.1373 -0.6341  0.4714
  934MPD2    H313667   0.682   2.373   2.137  1.0329  0.5231  0.8146
  934MPD2     N13668   0.721   2.042   1.832 -0.6442  0.9680  0.3126
  934MPD2    H513669   0.621   2.037   1.845 -0.5678 -1.5439 -0.2351
  934MPD2    N113670   1.104   2.242   2.036  0.6579 -0.1522 -0.6427
  934MPD2    H713671   1.158   2.191   1.967  0.6945  3.1959 -3.0576
  935MPD2     C13672   1.120   1.161   1.593 -0.1798  0.8265  1.1178
  935MPD2    C113673   1.019   1.174   1.500  0.2721 -0.2294  0.7002
  935MPD2    C213674   0.939   1.288   1.503  0.7555 -0.6127 -0.4678
  935MPD2    C313675   0.945   1.384   1.606  0.8201 -0.2096 -0.7118
  935MPD2    C413676   1.042   1.360   1.704 -0.2711 -0.2506 -0.2028
  935MPD2    C513677   1.129   1.253   1.696  0.7690  0.3135  0.2332
  935MPD2     H13678   0.860   1.301   1.430  0.8885 -3.3079 -1.0869
  935MPD2    H113679   1.056   1.425   1.790 -2.0850  1.6616 -1.3268
  935MPD2    H213680   1.195   1.082   1.593 -1.3270 -0.2544 -1.7193
  935MPD2    H313681   1.207   1.258   1.772  1.2974  0.7129 -0.3364
  935MPD2     N13682   0.861   1.495   1.606  0.0479  0.6332  0.3656
  935MPD2    H513683   0.868   1.548   1.692  0.8770  2.6320 -0.9192
  935MPD2    N113684   0.985   1.082   1.402  0.3493  0.1559  0.6858
  935MPD2    H713685   0.906   1.107   1.343  2.2535  0.1385 -1.8997
  936MPD2     C13686   3.813   3.345  12.975  0.0599 -0.4669  0.4996
  936MPD2    C113687   3.916   3.261  13.006  1.0360  1.1341 -0.8633
  936MPD2    C213688   3.984   3.206  12.902 -0.8096  0.1998  0.4775
  936MPD2    C313689   3.975   3.253  12.769  0.4516 -0.5494  0.7561
  936MPD2    C413690   3.886   3.352  12.745 -0.5432 -0.3501  0.5423
  936MPD2    C513691   3.807   3.401  12.848  0.2301  0.2138 -0.2731
  936MPD2     H13692   4.061   3.133  12.925  2.0652  3.1167  0.0803
  936MPD2    H113693   3.881   3.387  12.643  5.0652 -2.9357 -0.6129
  936MPD2    H213694   3.751   3.394  13.048 -0.3037 -1.9416  1.1719
  936MPD2    H313695   3.742   3.484  12.824  1.0236  1.3337  1.4652
  936MPD2     N13696   4.043   3.194  12.658 -0.4859 -0.5248 -0.0065
  936MPD2    H513697   4.037   3.233  12.564  0.3270  0.8750  0.5210
  936MPD2    N113698   3.947   3.217  13.139  0.0679 -0.1152 -0.2921
  936MPD2    H713699   4.023   3.150  13.133  1.6954  1.8544 -1.4106
  937MPD2     C13700   2.499   4.538  11.729 -0.3876 -0.3867  0.3288
  937MPD2    C113701   2.469   4.675  11.730  0.1472  0.5132  0.5247
  937MPD2    C213702   2.505   0.019  11.615 -0.0939 -0.5356  0.4358
  937MPD2    C313703   2.588   4.684  11.516 -0.1431  0.1837  0.8300
  937MPD2    C413704   2.628   4.553  11.531  0.9207 -0.4240 -0.4782
  937MPD2    C513705   2.582   4.478  11.639 -0.2743 -0.3288  0.3253
  937MPD2     H13706   2.478   0.124  11.614 -1.0334 -0.7736  0.4517
  937MPD2    H113707   2.704   4.517  11.462  0.4556  1.1412 -1.8244
  937MPD2    H213708   2.461   4.465  11.800  0.4057  1.8618  3.0653
  937MPD2    H313709   2.595   4.371  11.650  0.2529 -0.2771  0.2066
  937MPD2     N13710   2.614   0.039  11.398  0.2031 -0.3393  0.5126
  937MPD2    H513711   2.583   0.135  11.403  2.2100  0.3985 -1.1663
  937MPD2    N113712   2.365   0.012  11.808  0.3328 -0.0602 -0.5149
  937MPD2    H713713   2.336   0.107  11.788 -0.9279 -0.5354 -0.9295
  938MPD2     C13714   4.289   1.301   1.000 -0.4570  0.3297 -0.1579
  938MPD2    C113715   4.425   1.317   1.016  0.1921 -0.5170  0.0731
  938MPD2    C213716   4.487   1.250   1.119  0.1789 -0.4535  0.3250
  938MPD2    C313717   4.416   1.172   1.211 -0.2552  0.5799  0.0293
  938MPD2    C413718   4.280   1.174   1.198  0.5149  0.5909 -0.1489
  938MPD2    C513719   4.215   1.232   1.091  0.1397 -0.1628 -0.7910
  938MPD2     H13720   4.595   1.263   1.124 -0.0330  1.0453  1.1645
  938MPD2    H113721   4.213   1.137   1.275  0.7828  2.1220  0.8221
  938MPD2    H213722   4.237   1.348   0.917 -1.0153 -0.2168 -0.1188
  938MPD2    H313723   4.107   1.228   1.079  0.2023  1.4540 -1.9387
  938MPD2     N13724   4.480   1.095   1.311 -0.4624 -0.0856  0.4349
  938MPD2    H513725   4.426   1.062   1.391  0.5715 -0.4845  0.9688
  938MPD2    N113726   4.503   1.403   0.929 -0.6301  0.7327 -0.4915
  938MPD2    H713727   4.603   1.396   0.942 -0.7293  1.4564  0.6688
  939MPD2     C13728   1.386   2.104   1.282 -0.2946 -0.2536  0.2297
  939MPD2    C113729   1.457   2.226   1.289 -0.1479 -0.3327  0.2339
  939MPD2    C213730   1.596   2.220   1.273  0.4272 -0.0698 -0.2493
  939MPD2    C313731   1.665   2.097   1.243  0.4655  0.5688  0.1605
  939MPD2    C413732   1.588   1.989   1.213 -0.2795  0.3077 -0.1369
  939MPD2    C513733   1.453   1.993   1.237 -0.1676 -0.6997  0.4630
  939MPD2     H13734   1.659   2.307   1.286  1.1582 -0.6694  0.2182
  939MPD2    H113735   1.623   1.892   1.181 -0.4877  0.3990 -0.6379
  939MPD2    H213736   1.283   2.085   1.308 -0.5568 -1.3230 -1.5758
  939MPD2    H313737   1.388   1.906   1.231  0.9533 -1.4327 -1.3001
  939MPD2     N13738   1.804   2.097   1.233 -0.5421  0.3643  0.4438
  939MPD2    H513739   1.854   2.181   1.259  0.7709 -0.1741 -0.3328
  939MPD2    N113740   1.390   2.346   1.328  0.2878  0.2177  0.2796
  939MPD2    H713741   1.289   2.339   1.328  0.4048 -1.9130 -2.6950
  940MPD2     C13742   0.330   3.215  12.923  0.5859 -0.2865 -0.9215
  940MPD2    C113743   0.392   3.100  12.876 -0.5341 -0.2081 -0.5227
  940MPD2    C213744   0.393   3.069  12.745  0.1621 -0.4941 -1.2850
  940MPD2    C313745   0.332   3.143  12.643 -0.3378  0.7741  0.4019
  940MPD2    C413746   0.278   3.262  12.692 -0.4983  0.9577 -0.1147
  940MPD2    C513747   0.282   3.297  12.823  0.3167 -0.2503 -0.4048
  940MPD2     H13748   0.438   2.977  12.709 -2.9700 -2.4311 -0.2628
  940MPD2    H113749   0.225   3.324  12.621 -1.1765 -0.3223 -0.7183
  940MPD2    H213750   0.335   3.247  13.026 -0.5496 -3.5333  0.1476
  940MPD2    H313751   0.237   3.390  12.854 -2.3104 -1.4469 -0.6441
  940MPD2     N13752   0.317   3.106  12.513  0.1610 -0.1478  0.2752
  940MPD2    H513753   0.258   3.161  12.451  2.3301  0.5223 -1.1896
  940MPD2    N113754   0.450   3.004  12.958 -0.0290 -0.2544 -0.8616
  940MPD2    H713755   0.516   2.936  12.921  0.0894 -0.2913 -0.5837
  941MPD2     C13756   0.293   1.339   9.179  0.4427  0.3093 -0.3739
  941MPD2    C113757   0.179   1.387   9.249 -0.0241 -0.6558 -0.0010
  941MPD2    C213758   0.078   1.299   9.277 -0.0044 -0.4393 -0.1698
  941MPD2    C313759   0.078   1.164   9.230  0.3697  0.1800 -0.0424
  941MPD2    C413760   0.180   1.128   9.145  0.2679  0.6723 -0.1227
  941MPD2    C513761   0.290   1.209   9.134  0.4665  0.4234 -0.6217
  941MPD2     H13762   4.720   1.350   9.327  1.3068  2.2100 -0.7254
  941MPD2    H113763   0.194   1.030   9.099 -3.4699  0.0973 -0.0341
  941MPD2    H213764   0.382   1.399   9.159  2.0307 -1.6876  0.7417
  941MPD2    H313765   0.377   1.177   9.079  1.7538 -1.1618  2.3634
  941MPD2     N13766   4.690   1.073   9.258 -0.2666 -0.5797  0.0900
  941MPD2    H513767   4.683   0.992   9.198  0.7196  0.9754 -2.1313
  941MPD2    N113768   0.164   1.521   9.287  0.2550 -0.1806 -0.2964
  941MPD2    H713769   0.081   1.541   9.342  0.9170  0.1650  0.5793
  942MPD2     C13770   1.464   3.132   8.947 -0.0004  0.0432  0.5803
  942MPD2    C113771   1.352   3.133   9.026  0.6365 -0.4562  0.5941
  942MPD2    C213772   1.370   3.150   9.165  0.3124 -0.2707 -0.0837
  942MPD2    C313773   1.496   3.152   9.227 -0.4157  0.7755 -0.2389
  942MPD2    C413774   1.603   3.139   9.147  0.5227  0.3967 -0.2865
  942MPD2    C513775   1.588   3.140   9.012 -0.4690 -0.0785  0.0141
  942MPD2     H13776   1.282   3.165   9.227  0.4747  0.1224  0.0501
  942MPD2    H113777   1.704   3.133   9.187 -0.1271  1.2857  1.4674
  942MPD2    H213778   1.467   3.148   8.840  1.1594  0.6142  0.6999
  942MPD2    H313779   1.679   3.137   8.952 -0.6889  3.1667 -0.4911
  942MPD2     N13780   1.527   3.171   9.360  0.0378  0.6715 -0.3013
  942MPD2    H513781   1.622   3.147   9.387 -0.0953 -1.1752 -1.4718
  942MPD2    N113782   1.219   3.121   8.976  0.9407  0.5294 -0.0856
  942MPD2    H713783   1.143   3.137   9.042 -0.0988  0.3773 -1.2337
  943MPD2     C13784   4.066   1.531  10.193 -0.4027 -0.5858 -0.3071
  943MPD2    C113785   3.966   1.604  10.133  0.0616  0.3326 -0.6646
  943MPD2    C213786   3.996   1.675  10.011  0.3160 -0.0531 -0.0137
  943MPD2    C313787   4.125   1.673   9.962 -0.0564  0.4684  0.0275
  943MPD2    C413788   4.220   1.599  10.025 -0.8886 -0.1660 -0.0942
  943MPD2    C513789   4.188   1.527  10.134 -0.3190 -0.2004 -0.5631
  943MPD2     H13790   3.914   1.726   9.961 -0.7614 -0.6883  1.1240
  943MPD2    H113791   4.313   1.590   9.971 -0.7030  0.6889  0.0756
  943MPD2    H213792   4.048   1.479  10.286  1.3159  0.8465  0.8287
  943MPD2    H313793   4.265   1.466  10.182 -1.1101  0.6403  1.7664
  943MPD2     N13794   4.160   1.744   9.847  0.1457  0.0054  0.0356
  943MPD2    H513795   4.253   1.723   9.813 -0.1588  0.7654 -1.2595
  943MPD2    N113796   3.835   1.585  10.185  0.0819  0.1920 -0.2200
  943MPD2    H713797   3.827   1.546  10.278  0.2445  0.9087  0.0961
  944MPD2     C13798   2.898   1.069  10.871  0.1794  0.4253  0.2327
  944MPD2    C113799   2.862   1.193  10.827 -0.4164 -0.4136  0.6990
  944MPD2    C213800   2.841   1.294  10.926 -0.3576  0.0972 -0.0824
  944MPD2    C313801   2.848   1.263  11.059  0.1048  0.1425 -0.4605
  944MPD2    C413802   2.880   1.138  11.094  0.2117 -1.0274  0.1092
  944MPD2    C513803   2.907   1.041  11.007  0.3027  0.0669 -0.1588
  944MPD2     H13804   2.823   1.396  10.895 -1.2316 -0.2247 -0.6160
  944MPD2    H113805   2.869   1.110  11.198 -2.3793 -2.1119 -0.4461
  944MPD2    H213806   2.915   0.985  10.805 -1.0254 -1.1629  1.9405
  944MPD2    H313807   2.914   0.938  11.042 -1.8468 -0.0215  0.0213
  944MPD2     N13808   2.807   1.364  11.153 -0.8590 -0.0275  0.2147
  944MPD2    H513809   2.774   1.454  11.120  0.6962 -0.1685 -1.7134
  944MPD2    N113810   2.868   1.217  10.684 -0.7416 -1.0535  0.0732
  944MPD2    H713811   2.909   1.151  10.620  0.5578  0.0203 -0.2158
    1TCq1    O113812   1.337   1.871  14.083  0.0224  0.6063 -0.3953
    1TCq1    C113813   1.204   1.854  14.104  0.9910  0.6219  0.4710
    1TCq1    O213814   1.129   1.800  14.022 -0.0899 -0.3999 -0.4895
    1TCq1    C213815   1.160   1.920  14.224  0.6557  0.1805 -0.2007
    1TCq1    C313816   1.025   1.893  14.250 -0.4223  0.5584  0.6390
    1TCq1    C413817   0.958   1.970  14.337  0.5344  0.7913  0.0963
    1TCq1    C513818   1.016   2.078  14.396 -0.3182  0.0481 -0.9107
    1TCq1    C613819   1.153   2.082  14.383  1.2766 -0.0877 -0.4773
    1TCq1    C713820   1.227   2.008  14.294  0.1293  0.5276 -0.6857
    1TCq1    C813821   1.229   2.180  14.452 -0.1450  0.3041 -0.5970
    1TCq1    O413822   1.343   2.150  14.487  0.1181 -0.3548  0.2772
    1TCq1    C913823   0.820   1.952  14.361  0.1141  0.8033  0.6329
    1TCq1    O513824   0.767   1.998  14.463  0.2352 -0.3391 -0.6776
    1TCq1    O613825   0.758   1.887  14.272 -0.0895  0.1406  0.3764
    1TCq1    H113826   1.395   1.899  14.156 -1.2863  0.0891  0.8528
    1TCq1    H213827   0.968   1.813  14.203  2.7111 -2.4006  1.9114
    1TCq1    H313828   0.954   2.145  14.455 -1.0947  0.3718 -2.1135
    1TCq1    H413829   1.331   2.033  14.273 -0.5560  1.0421 -3.5120
    2MPD2     C13830   1.321   2.635  14.683  0.2872 -0.1611 -0.1636
    2MPD2    C113831   1.197   2.637  14.621 -0.2146  0.3716  0.1845
    2MPD2    C213832   1.147   2.524  14.558 -0.8154  0.1924  0.3544
    2MPD2    C313833   1.213   2.403  14.563 -0.7465  0.0612  0.1110
    2MPD2    C413834   1.337   2.401  14.631 -0.4345  0.2360 -0.0374
    2MPD2    C513835   1.391   2.516  14.689 -0.4219 -0.0379 -0.1738
    2MPD2     H13836   1.055   2.521  14.501 -0.0268 -0.2251 -0.9036
    2MPD2    H113837   1.395   2.309  14.629 -0.3186  0.2665  1.6430
    2MPD2    H213838   1.361   2.721  14.735 -0.4070  0.8775 -1.3292
    2MPD2    H313839   1.483   2.507  14.746 -0.9311 -0.5808  0.5636
    2MPD2     N13840   1.161   2.294  14.475  0.6564  0.0875 -0.1498
    2MPD2    H513841   1.080   2.311  14.416  0.7345  1.1348  0.0352
    2MPD2    N113842   1.137   2.762  14.617  0.3743  1.0169 -0.2987
    2MPD2    H713843   1.192   2.846  14.636  1.1368 -0.2912  3.2201
    3TMC2    C113844   0.959   2.910  14.550  1.1214  0.4054  0.0505
    3TMC2    C213845   1.054   3.010  14.558  0.2902  0.3974  0.3771
    3TMC2    C313846   1.052   3.097  14.457 -0.6401 -0.3763 -0.0988
    3TMC2    C413847   0.854   2.911  14.470  0.2155  0.0828  0.0992
    3TMC2    C513848   0.849   3.001  14.368 -0.0101  0.4585  0.2744
    3TMC2    C613849   0.956   3.091  14.359 -0.0939  0.4608 -0.0581
    3TMC2     C13850   1.002   2.779  14.588  0.7122  0.1876 -0.4542
    3TMC2     O13851   0.921   2.692  14.575  0.2958 -0.9907  0.1501
    3TMC2     H13852   1.114   3.028  14.646 -0.1327 -0.0234  0.7490
    3TMC2    H113853   0.778   2.834  14.480  1.5354 -1.3058 -0.4655
    3TMC2    H213854   0.956   3.175  14.290 -0.1541  0.7424  0.2844
    3TMC2    C713855   0.772   2.962  14.253 -0.0653 -0.0014  0.0368
    3TMC2    C813856   1.120   3.227  14.470 -0.0680  0.3026 -0.0956
    3TMC2    O113857   0.709   2.855  14.250  0.8253  0.0776  0.2638
    3TMC2    O213858   1.072   3.326  14.411  0.0266  0.3513 -0.2435
    3TMC2    O513859   1.248   3.199  14.496  0.3313  0.1981  0.3490
    3TMC2    H513860   1.271   3.109  14.528  2.9657  0.6236 -0.2951
    4MPD2     C13861   4.399   3.672  13.773 -0.3745  0.3975 -0.3585
    4MPD2    C113862   4.441   3.641  13.649 -0.8615 -0.3159  0.8421
    4MPD2    C213863   4.576   3.607  13.629 -0.3109  0.8833  0.1093
    4MPD2    C313864   4.658   3.629  13.737  0.1490 -0.8032 -0.1673
    4MPD2    C413865   4.612   3.673  13.862  0.5462  0.2437 -0.1083
    4MPD2    C513866   4.480   3.688  13.878  0.1769  0.4189  0.2006
    4MPD2     H13867   4.605   3.572  13.530 -1.0765  0.7352 -0.0620
    4MPD2    H113868   4.676   3.689  13.948  1.5912 -1.9003 -0.4780
    4MPD2    H213869   4.294   3.694  13.786 -0.9747 -3.9646  2.2866
    4MPD2    H313870   4.448   3.714  13.978  0.3544 -2.5629  1.0292
    4MPD2     N13871   0.071   3.639  13.712 -0.2976 -0.7305  0.5150
    4MPD2    H513872   0.115   3.607  13.626  0.1456  0.4195  0.3163
    4MPD2    N113873   4.339   3.631  13.551 -0.2218  0.6391 -0.5675
    4MPD2    H713874   4.245   3.655  13.580 -0.0052  2.7085 -1.5675
    5TCq2    C113875   0.162   3.713  13.783 -0.3243  0.0109 -0.7148
    5TCq2    O213876   0.137   3.801  13.867 -0.0542 -0.3739  0.8956
    5TCq2    C213877   0.301   3.693  13.745  0.0298  0.0790 -0.5164
    5TCq2    C313878   0.366   3.811  13.740  0.6779  0.3365 -0.1275
    5TCq2    C413879   0.505   3.800  13.755  0.2907 -0.0605  0.2449
    5TCq2    C513880   0.576   3.686  13.774  0.7235 -0.4565 -0.0920
    5TCq2    C613881   0.498   3.568  13.794  0.0993 -0.0235 -0.2247
    5TCq2    C713882   0.360   3.574  13.781 -0.8084 -0.3702  0.5203
    5TCq2    C813883   0.563   3.458  13.865 -0.4260  0.2619 -0.0299
    5TCq2    O413884   0.664   3.475  13.933 -0.5955 -0.7074  0.0278
    5TCq2    C913885   0.578   3.928  13.766 -0.1804 -0.1734 -0.6133
    5TCq2    O513886   0.695   3.915  13.806 -0.5700  0.3144 -0.4220
    5TCq2    O613887   0.507   4.035  13.790  0.0503  0.0929 -0.2268
    5TCq2    H213888   0.326   3.908  13.715  1.9247  0.9903  0.4498
    5TCq2    H313889   0.678   3.688  13.812  0.3092  2.2957  0.8212
    5TCq2    H413890   0.299   3.486  13.798 -0.3300 -0.6865  0.5967
    6MPD1     C13891   0.305   3.942  11.770  0.1020 -0.8306  0.3287
    6MPD1    C113892   0.189   4.009  11.807 -0.1059  0.0712  0.1187
    6MPD1    C213893   0.135   3.991  11.932 -0.7155 -0.2021 -0.5198
    6MPD1    C313894   0.198   3.905  12.023  0.4615  0.1755  0.2984
    6MPD1    C413895   0.314   3.847  11.982  0.3991 -0.4319 -0.2016
    6MPD1    C513896   0.371   3.865  11.860  0.4688  0.1557  0.4197
    6MPD1     H13897   0.035   4.027  11.954 -0.7491 -0.7636  0.2492
    6MPD1    H113898   0.361   3.787  12.059 -1.6454  0.8987  2.0752
    6MPD1    H213899   0.348   3.954  11.671 -0.0227 -0.8276  0.2755
    6MPD1    H313900   0.464   3.814  11.835  0.4922 -0.4370  1.7226
    6MPD1     N13901   0.148   3.861  12.147 -0.0020  0.4489  0.0219
    6MPD1    H513902   0.186   3.777  12.191 -1.6960 -2.0309 -3.2348
    6MPD1    N113903   0.125   4.085  11.721 -0.1754  0.4856 -0.1513
    6MPD1    H613904   0.193   4.120  11.654 -0.4156  1.8632  0.3317
    6MPD1    H713905   0.080   4.162  11.769  0.7342  0.4823  0.7117
    7MPD2     C13906   4.334   4.119  12.831  0.1741  0.6464  0.2810
    7MPD2    C113907   4.344   3.992  12.784  0.1450  0.4988 -0.9120
    7MPD2    C213908   4.268   3.891  12.847 -0.7683 -0.4348  0.0315
    7MPD2    C313909   4.195   3.916  12.958 -0.4027 -0.2668  0.1513
    7MPD2    C413910   4.172   4.049  12.985  0.4095 -0.2282 -0.1443
    7MPD2    C513911   4.241   4.153  12.920  0.0080 -0.3016  0.6958
    7MPD2     H13912   4.276   3.788  12.815  2.0823 -0.0990 -0.3618
    7MPD2    H113913   4.100   4.081  13.060 -0.7035 -0.0459 -1.2892
    7MPD2    H213914   4.390   4.197  12.779  1.0142  1.0792  1.8365
    7MPD2    H313915   4.216   4.258  12.935 -0.5461 -0.5361  1.4070
    7MPD2     N13916   4.132   3.809  13.031  0.4663 -0.0740 -0.1751
    7MPD2    H513917   4.152   3.713  13.007  1.5535  0.0921  0.0738
    7MPD2    N113918   4.429   3.947  12.681 -0.0644 -0.0041 -0.3300
    7MPD2    H713919   4.426   3.848  12.658 -2.5035  0.3819 -1.6306
    8TMC3    C113920   4.081   3.684  13.218  0.0955 -0.2399  0.2380
    8TMC3    C213921   4.171   3.674  13.323 -0.2635  0.6017 -0.3315
    8TMC3    C313922   4.248   3.567  13.339  0.9202  0.0955  0.4144
    8TMC3    C413923   4.073   3.581  13.129 -0.4195 -0.2557  0.3305
    8TMC3    C513924   4.168   3.480  13.135 -0.4641  0.1638 -0.2829
    8TMC3    C613925   4.245   3.465  13.249  0.2643 -0.2090  0.0687
    8TMC3     C13926   4.086   3.823  13.160  0.2348 -0.3584  0.2029
    8TMC3     O13927   4.052   3.914  13.230  0.0092 -0.2235  0.0888
    8TMC3     H13928   4.182   3.759  13.390 -1.7962  1.6854 -1.4601
    8TMC3    H113929   4.014   3.585  13.038 -0.0457  2.5568  0.2135
    8TMC3    H213930   4.321   3.387  13.250  1.9281  1.4263  0.8212
    8TMC3    C713931   4.245   3.487  13.014 -0.7052  0.4658 -0.0808
    8TMC3    C813932   4.357   3.568  13.428 -0.2923 -0.6169  0.3704
    8TMC3    O113933   4.219   3.573  12.930  0.2327  0.5885 -0.0961
    8TMC3    O213934   4.449   3.499  13.390 -0.7630  0.2407  0.2022
    9TMC3    C113935   4.721   3.883  12.339 -0.8765  0.0490 -0.2085
    9TMC3    C213936   0.006   3.747  12.376 -0.1048  0.5303  0.8774
    9TMC3    C313937   4.670   3.705  12.489  0.3127 -0.0283 -0.2507
    9TMC3    C413938   4.663   3.980  12.418  0.4655 -0.1662  0.4000
    9TMC3    C513939   4.608   3.933  12.534 -0.0098 -0.2950  0.3268
    9TMC3    C613940   4.609   3.799  12.568 -0.5339  0.1805  0.4136
    9TMC3     C13941   0.046   3.929  12.208  0.0146  0.1345  0.4487
    9TMC3     O13942   0.004   4.037  12.172  0.3155 -0.2716 -0.4027
    9TMC3     H13943   0.033   3.674  12.301  1.3377 -1.7143  3.5933
    9TMC3    H113944   4.635   4.079  12.382  1.1207  0.2583  1.0521
    9TMC3    H213945   4.589   3.771  12.671 -1.0811 -0.8139  0.0400
    9TMC3    C713946   4.517   4.024  12.608  0.3919  0.6395 -0.3409
    9TMC3    C813947   4.680   3.569  12.530 -0.9670 -0.3877 -0.9018
    9TMC3    O113948   4.538   4.145  12.601 -0.6843 -0.4031  0.0425
    9TMC3    O213949   0.046   3.498  12.489 -0.4564  0.2124  0.2488
   10MPD2     C13950   4.526   3.270  12.908 -0.1984 -0.4418 -0.0562
   10MPD2    C113951   4.437   3.368  12.905 -0.5188 -0.9223  0.5355
   10MPD2    C213952   4.448   3.453  12.796  0.0989 -0.6216  0.4092
   10MPD2    C313953   4.551   3.441  12.710 -0.3302 -0.5103 -0.7501
   10MPD2    C413954   4.640   3.339  12.715  0.0583  0.3234  0.5283
   10MPD2    C513955   4.629   3.251  12.813 -0.3151 -0.3961 -0.2994
   10MPD2     H13956   4.378   3.536  12.788 -0.6433 -1.1562  1.4646
   10MPD2    H113957   4.701   3.312  12.630  2.9037 -0.1558  2.7130
   10MPD2    H213958   4.521   3.200  12.991 -0.2852 -0.9761 -0.5119
   10MPD2    H313959   4.701   3.171  12.823  1.8067  1.8037  1.9910
   10MPD2     N13960   4.566   3.541  12.612  0.2653  0.3175  0.2482
   10MPD2    H513961   4.498   3.617  12.616  0.5177  0.5950 -0.5984
   10MPD2    N113962   4.342   3.389  13.007 -0.4767 -0.2889  0.6821
   10MPD2    H713963   4.362   3.321  13.079  0.8876 -0.0844  0.5125
   11MPD2     C13964   0.627   2.963  13.995  1.2648 -0.2480 -0.3693
   11MPD2    C113965   0.660   3.078  14.070  0.0676  0.4564  0.3698
   11MPD2    C213966   0.616   3.197  14.023  0.2222  0.3725  0.2653
   11MPD2    C313967   0.544   3.210  13.905 -0.7021  0.8674 -0.0025
   11MPD2    C413968   0.506   3.094  13.841 -0.7533  0.4631  0.4962
   11MPD2    C513969   0.552   2.970  13.883  0.3727  0.5022 -0.1538
   11MPD2     H13970   0.623   3.289  14.079 -0.1052 -0.1496  1.1544
   11MPD2    H113971   0.440   3.099  13.754 -0.6948  0.9100  0.4785
   11MPD2    H213972   0.644   2.861  14.025  0.9613 -0.5131 -1.0900
   11MPD2    H313973   0.526   2.876  13.836 -1.3966 -0.6383  3.0822
   11MPD2     N13974   0.506   3.332  13.837 -0.0485  0.6906  0.9196
   11MPD2    H513975   0.454   3.337  13.750  0.8771 -2.4275  0.1921
   11MPD2    N113976   0.741   3.074  14.184  0.4725  0.8851  0.5922
   11MPD2    H713977   0.767   3.163  14.226  1.6182  0.5968  0.4977
    1MPD1     C13978   2.728   0.074  17.343 -0.3946  0.2403  0.2984
    1MPD1    C113979   2.629   4.702  17.325 -0.3859  0.0099  0.6742
    1MPD1    C213980   2.650   4.618  17.217  1.1877  0.7127 -0.4569
    1MPD1    C313981   2.754   4.621  17.123  0.2673 -0.5598 -0.1612
    1MPD1    C413982   2.848   4.718  17.144  0.7571 -0.8140 -0.8098
    1MPD1    C513983   2.833   0.078  17.254 -0.1158  0.3232  0.1161
    1MPD1     H13984   2.579   4.536  17.211  3.3135 -1.4125  3.1649
    1MPD1    H113985   2.930   0.012  17.074  0.8278  2.5907  0.0750
    1MPD1    H213986   2.723   0.143  17.427  2.3509  1.3078 -0.4272
    1MPD1    H313987   2.910   0.149  17.281  1.3600 -0.7717 -1.2786
    1MPD1     N13988   2.786   4.518  17.035 -0.4578  0.8941 -0.0165
    1MPD1    H513989   2.880   4.527  16.998  0.0490 -0.1714  1.0304
    1MPD1    N113990   2.523   4.686  17.414  0.3410  0.2942 -0.3272
    1MPD1    H613991   2.442   4.648  17.365  0.0216  0.1594  0.3068
    1MPD1    H713992   2.504   0.049  17.466  2.5011 -0.1547  1.2217
    2MPD1     C13993   3.593   4.259  16.749 -0.5182 -0.1496  0.8207
    2MPD1    C113994   3.537   4.377  16.797 -0.0344 -0.3609  0.7263
    2MPD1    C213995   3.398   4.382  16.804  0.1362  0.6986  0.1310
    2MPD1    C313996   3.318   4.268  16.791 -0.6197  0.0632 -0.2574
    2MPD1    C413997   3.378   4.146  16.756  0.2070  0.3000 -0.1230
    2MPD1    C513998   3.513   4.147  16.724  0.0760 -0.8131  0.1998
    2MPD1     H13999   3.340   4.466  16.842 -0.2949 -0.0949  1.2189
    2MPD1    H114000   3.325   4.052  16.762 -1.2889  1.4103  4.2374
    2MPD1    H214001   3.697   4.234  16.729 -0.9383 -0.0132 -1.5596
    2MPD1    H314002   3.554   4.061  16.674  0.8904 -0.0996 -0.3731
    2MPD1     N14003   3.182   4.285  16.820 -0.1465 -0.5855 -0.4882
    2MPD1    H514004   3.146   4.370  16.861  1.4177 -0.1865  0.0631
    2MPD1    N114005   3.609   4.502  16.793 -0.3511  0.5221  0.2820
    2MPD1    H614006   3.567   4.566  16.860  0.3174  1.6520 -0.3858
    2MPD1    H714007   3.706   4.480  16.817 -0.0028  2.0937  0.3071
    3TMC3    C114008   2.951   4.234  16.783 -0.3830 -0.0490 -0.1300
    3TMC3    C214009   2.869   4.180  16.683 -0.0559  0.7106  0.8094
    3TMC3    C314010   2.732   4.212  16.688  0.8539  0.5588 -0.1009
    3TMC3    C414011   2.907   4.315  16.888  0.3284 -0.6619 -0.0014
    3TMC3    C514012   2.771   4.325  16.891  0.3805  0.6686  0.7858
    3TMC3    C614013   2.682   4.281  16.797  0.4992 -0.4872  0.2783
    3TMC3     C14014   3.090   4.187  16.776  0.5995 -0.7915 -0.1646
    3TMC3     O14015   3.103   4.089  16.698 -0.0031  0.9904 -0.0437
    3TMC3     H14016   2.901   4.120  16.599 -3.7242  0.1996 -0.2341
    3TMC3    H114017   2.964   4.329  16.979  2.3969 -1.0732 -1.2315
    3TMC3    H214018   2.579   4.313  16.806  0.4161 -0.2669 -1.3500
    3TMC3    C714019   2.706   4.412  16.991 -0.0614  0.1493 -0.0377
    3TMC3    C814020   2.651   4.152  16.593  0.1395 -0.2783 -0.9641
    3TMC3    O114021   2.587   4.388  17.014  0.3470 -0.3240  1.2770
    3TMC3    O214022   2.676   4.046  16.532  0.3051  0.1356  0.4700
    4MPD1     C14023   2.222   4.164  16.302  0.6153  0.5668 -0.0979
    4MPD1    C114024   2.249   4.291  16.350 -0.1891  0.0274  0.2567
    4MPD1    C214025   2.340   4.301  16.454  0.2970 -0.5241  0.5050
    4MPD1    C314026   2.432   4.199  16.486  0.6671 -0.1211 -0.3691
    4MPD1    C414027   2.416   4.078  16.424 -0.4967  0.1661 -0.4782
    4MPD1    C514028   2.313   4.061  16.333  0.1629  0.1154 -0.1062
    4MPD1     H14029   2.365   4.396  16.500 -0.8903  1.0694 -2.1803
    4MPD1    H114030   2.478   3.994  16.453 -1.9140  0.1062  2.3459
    4MPD1    H214031   2.142   4.139  16.233  0.4615  0.5728  0.0795
    4MPD1    H314032   2.301   3.959  16.300 -0.9099 -0.1772  1.2411
    4MPD1     N14033   2.537   4.222  16.577 -0.4757  0.3764 -0.0812
    4MPD1    H514034   2.538   4.320  16.604  1.8032  0.6431 -1.0951
    4MPD1    N114035   2.162   4.393  16.325  0.1131 -0.0069 -0.3591
    4MPD1    H614036   2.138   4.401  16.226 -1.4430 -3.0291 -0.2505
    4MPD1    H714037   2.187   4.482  16.366  0.1760  0.4870 -1.4799
    1TCq1    O114038   0.153   3.752  10.842  0.2407  0.2081 -0.1251
    1TCq1    C114039   0.030   3.692  10.864  0.3202 -0.3019  0.6077
    1TCq1    O214040   0.003   3.602  10.944  0.5369  0.4169 -0.1875
    1TCq1    C214041   4.681   3.820  10.859 -0.2402 -0.4366 -0.6922
    1TCq1    C314042   4.626   3.851  10.734 -0.3144 -0.6329  1.2381
    1TCq1    C414043   4.565   3.977  10.726 -0.0707 -0.0384 -0.2290
    1TCq1    C514044   4.592   4.074  10.825  0.2679 -0.0869 -0.0276
    1TCq1    C614045   4.651   4.039  10.944  0.8109 -0.0317  0.0139
    1TCq1    C714046   4.706   3.909  10.960 -0.4367 -0.5436  0.3876
    1TCq1    C814047   4.669   4.139  11.044  0.0436 -0.1645 -0.0982
    1TCq1    O414048   4.593   4.237  11.036 -0.1667 -0.4215 -0.0854
    1TCq1    C914049   4.522   4.020  10.594 -0.4133  0.3984  0.7490
    1TCq1    O514050   4.494   4.141  10.581 -0.2223  0.1284 -0.2231
    1TCq1    O614051   4.530   3.938  10.498  0.2636  0.2359 -0.2616
    1TCq1    H114052   0.140   3.828  10.782  2.6389 -0.4472 -1.4634
    1TCq1    H214053   4.611   3.775  10.658 -2.1640  0.9633  0.0003
    1TCq1    H314054   4.562   4.178  10.813  0.8248 -0.1133 -1.5658
    1TCq1    H414055   0.035   3.883  11.051 -0.3296 -5.2212 -1.0387
    2MPD1     C14056   0.145   4.337  11.470  0.0519 -0.1086  0.3890
    2MPD1    C114057   0.233   4.236  11.431  0.0215  0.1256  0.6698
    2MPD1    C214058   0.187   4.157  11.329  0.6665  0.0549  0.2828
    2MPD1    C314059   0.082   4.194  11.245  0.3253 -0.1189 -1.1935
    2MPD1    C414060   0.008   4.306  11.284  0.8964 -0.0117  0.7385
    2MPD1    C514061   0.033   4.376  11.398 -0.4194 -0.0348  0.4960
    2MPD1     H14062   0.249   4.073  11.300  1.5196  1.1830 -1.1688
    2MPD1    H114063   4.646   4.338  11.224  1.4063  0.2284  0.1422
    2MPD1    H214064   0.172   4.401  11.554  0.6881 -0.4480  0.4418
    2MPD1    H314065   4.700   4.467  11.414 -2.9443 -1.6959  1.2677
    2MPD1     N14066   0.052   4.113  11.134 -0.0877 -0.4943  0.1432
    2MPD1    H514067   0.123   4.044  11.113  3.1145  3.0403 -0.6475
    2MPD1    N114068   0.330   4.190  11.520  0.3141  0.7236 -0.4331
    2MPD1    H614069   0.377   4.273  11.556 -0.4115  1.9108 -2.2474
    2MPD1    H714070   0.406   4.137  11.476  1.4292  0.0171  2.3183
    1TCq1    O114071   1.806   3.858   0.695 -0.2620  0.3828 -0.3996
    1TCq1    C114072   1.828   3.849   0.827 -0.6409  0.2472 -0.1104
    1TCq1    O214073   1.822   3.941   0.905  0.1055 -0.0549  0.1108
    1TCq1    C214074   1.764   3.725   0.879 -0.2241  0.7620 -0.0997
    1TCq1    C314075   1.793   3.700   1.009  0.0796 -0.0627  0.3985
    1TCq1    C414076   1.703   3.633   1.088 -1.1375 -0.4142 -0.2966
    1TCq1    C514077   1.595   3.576   1.038 -0.1767 -0.1773  0.0721
    1TCq1    C614078   1.566   3.607   0.911  0.2338 -0.6963 -0.1742
    1TCq1    C714079   1.638   3.699   0.833  0.6584 -0.4676 -0.6099
    1TCq1    C814080   1.446   3.549   0.852 -1.0156 -0.0531 -0.3957
    1TCq1    O414081   1.445   3.526   0.730  0.0249 -0.2878  0.3938
    1TCq1    C914082   1.746   3.576   1.210 -0.3907  0.1476 -0.0367
    1TCq1    O514083   1.870   3.558   1.233  0.1567  0.3234 -0.2419
    1TCq1    O614084   1.652   3.526   1.281 -0.1146  0.0029  0.4869
    1TCq1    H114085   1.803   3.770   0.652  2.6177  0.2124 -0.2763
    1TCq1    H214086   1.889   3.734   1.047  0.3345 -0.9145  0.5209
    1TCq1    H314087   1.543   3.494   1.086 -0.1020  0.0720  0.5834
    1TCq1    H414088   1.603   3.711   0.731 -0.8942  1.9017  0.1949
    2MPD1     C14089   0.947   3.420   0.878 -0.2719  0.3214  0.1451
    2MPD1    C114090   0.995   3.422   1.005  0.1264  0.5801  0.2790
    2MPD1    C214091   1.131   3.460   1.023  0.2583  0.3843  0.4312
    2MPD1    C314092   1.220   3.470   0.921 -0.5760  0.1351  0.2815
    2MPD1    C414093   1.174   3.448   0.792  0.8886 -0.0034  0.0776
    2MPD1    C514094   1.039   3.425   0.771  0.6119  0.2577 -0.6321
    2MPD1     H14095   1.180   3.480   1.117  1.2445  1.4398 -0.3023
    2MPD1    H114096   1.244   3.455   0.709  1.0531 -2.1174  0.0386
    2MPD1    H214097   0.843   3.404   0.852 -0.4500  1.5911  0.0951
    2MPD1    H314098   1.001   3.425   0.670 -0.9846 -0.0996 -0.0411
    2MPD1     N14099   1.352   3.517   0.952 -0.0393  0.0759  0.0258
    2MPD1    H514100   1.393   3.545   1.040 -0.4169 -1.0512  0.5539
    2MPD1    N114101   0.911   3.406   1.120  0.4100  0.5500  0.0159
    2MPD1    H614102   0.824   3.353   1.115 -0.4524  1.8712  0.7871
    2MPD1    H714103   0.973   3.377   1.195 -1.7086 -0.0613  1.5308
    1MPD1     C14104   2.504   4.041  12.605  0.3111  0.7125 -0.5941
    1MPD1    C114105   2.366   4.046  12.622 -0.0527 -0.3474  0.0051
    1MPD1    C214106   2.296   4.107  12.525  0.3916 -0.6158  0.1678
    1MPD1    C314107   2.355   4.179  12.420  0.6036  0.5611 -0.4158
    1MPD1    C414108   2.490   4.182  12.415  0.3304 -0.1172 -0.7852
    1MPD1    C514109   2.559   4.109  12.505  0.8562  0.5299 -0.7826
    1MPD1     H14110   2.188   4.117  12.534  0.4014  0.0804 -0.4453
    1MPD1    H114111   2.544   4.237  12.339  2.1392  1.1390  1.4198
    1MPD1    H214112   2.571   3.970  12.653  0.8167  1.3945 -0.2852
    1MPD1    H314113   2.666   4.096  12.488  1.0665 -1.2619  2.0036
    1MPD1     N14114   2.263   4.238  12.333  0.2307  0.0369  0.4027
    1MPD1    H514115   2.164   4.230  12.356  0.1765 -1.7675 -0.5030
    1MPD1    N114116   2.297   3.968  12.716  0.7856 -0.1223 -0.2423
    1MPD1    H614117   2.355   3.939  12.794 -1.1868 -2.2354  0.4616
    1MPD1    H714118   2.221   4.027  12.749 -0.5865 -1.0443 -1.7561
    2MPD1     C14119   0.567   0.229  11.738  0.6941  0.5774 -0.8001
    2MPD1    C114120   0.549   0.186  11.605 -0.6529 -0.4979 -0.1352
    2MPD1    C214121   0.639   0.088  11.564  0.1296 -0.2157  0.5801
    2MPD1    C314122   0.718   0.025  11.657  0.2976  0.1066  0.6471
    2MPD1    C414123   0.714   0.058  11.791 -0.7682 -1.2770  0.1856
    2MPD1    C514124   0.644   0.163  11.829 -0.1176  0.0430 -0.0835
    2MPD1     H14125   0.650   0.058  11.461  3.2671  2.4883  0.1406
    2MPD1    H114126   0.790   0.026  11.861 -2.4118 -0.6024  2.2954
    2MPD1    H214127   0.525   0.324  11.768  0.5481  0.7756 -1.6302
    2MPD1    H314128   0.663   0.208  11.926  0.7493 -0.4156 -0.0448
    2MPD1     N14129   0.814   4.647  11.635  0.1911 -0.4062  0.3562
    2MPD1    H514130   0.841   4.598  11.720 -0.6999 -1.1280  0.2193
    2MPD1    N114131   0.482   0.265  11.506 -0.1392 -0.2867  0.4554
    2MPD1    H614132   0.389   0.296  11.532  0.1575 -0.2645  1.4822
    2MPD1    H714133   0.465   0.207  11.424 -0.0962  1.4176 -0.7558
    3MPD1     C14134   1.337   4.059  12.163  0.7495  0.7612  0.1403
    3MPD1    C114135   1.415   4.041  12.051  0.0082  0.5744  0.1729
    3MPD1    C214136   1.383   4.114  11.938 -0.1554 -0.1410 -0.4130
    3MPD1    C314137   1.258   4.168  11.913 -0.0126  0.8869  0.6829
    3MPD1    C414138   1.179   4.174  12.029 -0.5721 -0.8593 -0.1313
    3MPD1    C514139   1.216   4.118  12.145  0.1264 -0.6123  0.5505
    3MPD1     H14140   1.446   4.112  11.850  1.2397  0.3110  0.5824
    3MPD1    H114141   1.079   4.217  12.020  0.6371  1.6640 -1.6548
    3MPD1    H214142   1.363   4.016  12.259 -1.2098  1.5696  1.0307
    3MPD1    H314143   1.156   4.140  12.233 -0.6191 -1.0910  0.1661
    3MPD1     N14144   1.237   4.233  11.785 -0.3346  0.3020 -0.6617
    3MPD1    H514145   1.308   4.226  11.713  0.6415 -1.2548  0.4572
    3MPD1    N114146   1.542   3.988  12.069 -0.5065 -0.5830 -0.0171
    3MPD1    H614147   1.576   3.950  11.981 -0.8293 -3.0741  0.9296
    3MPD1    H714148   1.546   3.909  12.133 -1.6712 -0.1815  0.5476
    4MPD2     C14149   1.692   4.701  12.073 -0.1397  0.4970 -0.1682
    4MPD2    C114150   1.800   4.668  11.992  0.1660 -0.9118  0.7342
    4MPD2    C214151   1.814   0.021  11.874  0.3116  0.0198  0.4365
    4MPD2    C314152   1.723   0.122  11.847 -0.1606  0.1806 -0.1793
    4MPD2    C414153   1.615   0.150  11.924 -0.0807 -0.3109  0.3766
    4MPD2    C514154   1.600   0.072  12.040 -0.2974 -0.2735 -0.2459
    4MPD2     H14155   1.891   0.001  11.800 -2.3849 -2.7438 -1.6904
    4MPD2    H114156   1.548   0.233  11.903 -0.8665 -0.9935  0.1903
    4MPD2    H214157   1.670   4.650  12.166 -0.7973 -0.8294 -1.0617
    4MPD2    H314158   1.525   0.082  12.118  1.7531 -0.9809  1.8326
    4MPD2     N14159   1.743   0.183  11.722  0.0379 -0.7095  0.1432
    4MPD2    H514160   1.834   0.157  11.685  0.5221 -1.0655  1.5843
    4MPD2    N114161   1.891   4.564  12.021  0.3073 -0.4967  0.0101
    4MPD2    H714162   1.943   4.533  11.940  1.0001 -1.2151  0.7373
    5TMC3    C114163   1.959   4.364  12.101  0.2830  0.5600 -0.4706
    5TMC3    C214164   2.057   4.348  12.186 -0.0633  0.1394 -0.6323
    5TMC3    C314165   2.179   4.312  12.132  0.4111 -0.2302 -0.3044
    5TMC3    C414166   1.957   4.339  11.970 -0.1709 -0.2761  0.4317
    5TMC3    C514167   2.078   4.309  11.914 -0.2433 -0.7352 -0.1604
    5TMC3    C614168   2.188   4.287  11.997  0.3076  0.4537 -0.0498
    5TMC3     C14169   1.879   4.483  12.132 -0.5249 -0.2148  0.5351
    5TMC3     O14170   1.824   4.489  12.241  0.0347  0.2118  0.4504
    5TMC3     H14171   2.042   4.382  12.288  0.8979  2.4478 -1.2552
    5TMC3    H114172   1.866   4.342  11.911  0.6514  1.4964 -0.7480
    5TMC3    H214173   2.291   4.281  11.965  0.5282 -1.8599  1.1012
    5TMC3    C714174   2.102   4.397  11.801 -0.2286  0.2287  0.1476
    5TMC3    C814175   2.298   4.295  12.217 -0.1748 -0.0186  0.3295
    5TMC3    O114176   2.007   4.473  11.787  0.1958  0.2147 -0.0866
    5TMC3    O214177   2.409   4.275  12.168  0.5151 -0.4647 -0.7025
    6TMC3    C114178   0.960   4.510  11.514  0.4758  0.1942  0.8447
    6TMC3    C214179   0.991   4.452  11.631  0.4268 -0.6399 -0.5187
    6TMC3    C314180   1.102   4.370  11.635  0.0743 -0.2304  1.0616
    6TMC3    C414181   1.035   4.488  11.404  0.6996 -0.3072  0.1859
    6TMC3    C514182   1.146   4.410  11.411  0.0836 -0.0552 -0.6291
    6TMC3    C614183   1.181   4.350  11.531  0.0437 -0.4085 -0.9240
    6TMC3     C14184   0.871   4.621  11.512 -0.2313 -0.0953  0.2694
    6TMC3     O14185   0.870   4.703  11.421  0.1450 -0.6568  0.0378
    6TMC3     H14186   0.920   4.461  11.713  1.2792  1.5696 -0.0316
    6TMC3    H114187   1.025   4.539  11.309  2.0550 -1.5038 -0.6017
    6TMC3    H214188   1.275   4.297  11.546 -0.2217 -0.3970  0.7910
    6TMC3    C714189   1.255   4.444  11.325  0.3741 -0.4929 -0.7246
    6TMC3    C814190   1.115   4.292  11.758 -0.3067  0.3359 -0.2765
    6TMC3    O114191   1.249   4.558  11.284 -0.3744  0.4086  0.5239
    6TMC3    O214192   1.017   4.296  11.830  0.0465 -0.3770 -0.2276
    7MPD2     C14193   2.247   4.563  11.350 -0.1150 -0.6395 -0.0685
    7MPD2    C114194   2.171   4.623  11.446 -0.2742 -0.0212  0.3675
    7MPD2    C214195   2.154   4.560  11.575 -0.3752  0.2114 -0.2148
    7MPD2    C314196   2.217   4.432  11.598 -0.2273  0.0150  0.2132
    7MPD2    C414197   2.292   4.380  11.497 -0.3786  0.8790 -1.1192
    7MPD2    C514198   2.305   4.440  11.377 -0.4750  0.5992 -0.3303
    7MPD2     H14199   2.087   4.607  11.647  2.0473 -0.7186  2.6271
    7MPD2    H114200   2.326   4.280  11.520 -3.8398  0.6435  3.0625
    7MPD2    H214201   2.253   4.611  11.253 -2.3781 -0.0333  0.0952
    7MPD2    H314202   2.352   4.388  11.294  0.4193 -1.0978  1.2143
    7MPD2     N14203   2.203   4.363  11.721 -0.3563 -0.2652 -0.1106
    7MPD2    H514204   2.270   4.290  11.740 -0.5970 -0.3777  0.2842
    7MPD2    N114205   2.101   0.022  11.412 -0.1098 -0.1199  0.9163
    7MPD2    H714206   2.098   0.046  11.314  0.1720 -0.9101  0.7186
    8TMC3    C114207   1.946   0.199  11.431 -0.1940  0.5342  0.2923
    8TMC3    C214208   1.881   0.146  11.318  0.0417  0.1753 -1.4470
    8TMC3    C314209   1.743   0.159  11.318 -0.9917  0.8697 -0.3499
    8TMC3    C414210   1.871   0.263  11.526  0.2568 -0.9865  0.1504
    8TMC3    C514211   1.735   0.280  11.513  0.4284 -0.3208  0.7862
    8TMC3    C614212   1.671   0.223  11.407  0.2866  0.4910  0.0650
    8TMC3     C14213   2.034   0.105  11.492 -0.1148  0.1535 -0.0941
    8TMC3     O14214   2.005   0.115  11.614 -0.6531  0.5296  0.1772
    8TMC3     H14215   1.924   0.089  11.236 -0.7118  1.1149 -2.4927
    8TMC3    H114216   1.923   0.318  11.604  1.3314  1.7501 -2.4935
    8TMC3    H214217   1.565   0.240  11.394  0.0054  0.5243  2.3544
    8TMC3    C714218   1.671   0.262  11.641 -0.6883  0.1032  0.5817
    8TMC3    C814219   1.672   0.051  11.257  0.3479 -0.7903  0.3695
    8TMC3    O114220   1.562   0.311  11.660  0.3254 -0.3122  1.1216
    8TMC3    O214221   1.559   0.077  11.214  0.1327 -0.1701  0.0498
    9MPD2     C14222   1.762   4.414  11.291  0.4451 -0.4472  1.3957
    9MPD2    C114223   1.685   4.528  11.288  0.3430 -0.9143  0.7367
    9MPD2    C214224   1.548   4.504  11.294  0.5718 -0.2042  0.3735
    9MPD2    C314225   1.496   4.375  11.308 -0.1809 -0.4781  0.5988
    9MPD2    C414226   1.573   4.273  11.309  0.1473  0.7326 -0.2853
    9MPD2    C514227   1.708   4.291  11.306 -0.4192 -0.0840  0.0670
    9MPD2     H14228   1.483   4.591  11.294  0.1534 -0.5177  0.4995
    9MPD2    H114229   1.537   4.175  11.338  0.7815  0.9577  1.2742
    9MPD2    H214230   1.869   4.422  11.300  0.6148 -1.8925  0.5728
    9MPD2    H314231   1.766   4.209  11.346 -0.2091 -0.4445 -0.9886
    9MPD2     N14232   1.356   4.347  11.328 -0.1809  1.1540 -0.3215
    9MPD2    H514233   1.339   4.251  11.354 -0.0191  0.9685 -0.8833
    9MPD2    N114234   1.743   4.656  11.284  0.1093  0.1693 -0.0249
    9MPD2    H714235   1.842   4.664  11.301  0.2465 -1.4341 -0.0171
    1MPD1     C14236   4.195   3.595  17.194  0.1800 -0.1045  0.2976
    1MPD1    C114237   4.247   3.717  17.175  0.1343  0.5179  0.7088
    1MPD1    C214238   4.387   3.731  17.148  0.3240 -0.2547 -0.8110
    1MPD1    C314239   4.478   3.626  17.139 -0.2643 -0.1053  0.5505
    1MPD1    C414240   4.419   3.502  17.149  0.6228  0.9159 -0.1965
    1MPD1    C514241   4.285   3.489  17.176 -0.6920  0.6810 -0.4240
    1MPD1     H14242   4.425   3.828  17.119  1.5090 -0.5599 -0.2888
    1MPD1    H114243   4.478   3.411  17.143  0.2285  0.6077  0.6687
    1MPD1    H214244   4.092   3.570  17.216 -0.2817 -0.4285 -2.1515
    1MPD1    H314245   4.251   3.385  17.179  0.2605  0.4358  1.7651
    1MPD1     N14246   4.611   3.627  17.110  0.1059  0.8923  0.1328
    1MPD1    H514247   4.664   3.542  17.094 -0.9682  0.4648 -1.1864
    1MPD1    N114248   4.158   3.827  17.182 -0.7470  0.6336 -0.3261
    1MPD1    H614249   4.204   3.916  17.204  1.3016 -1.0053  2.0445
    1MPD1    H714250   4.085   3.799  17.247  0.6293  1.0925  1.4257
    2MPD1     C14251   0.584   4.385  17.134 -0.5726 -0.4453 -0.2884
    2MPD1    C114252   0.563   4.297  17.235 -0.0249 -0.3194 -0.6903
    2MPD1    C214253   0.494   4.185  17.207  0.7397  0.3740 -0.0790
    2MPD1    C314254   0.456   4.154  17.074  0.5493 -0.1348 -0.6009
    2MPD1    C414255   0.475   4.243  16.973 -0.8549  0.2879  0.0580
    2MPD1    C514256   0.539   4.362  17.007 -0.4417  0.0296  0.3403
    2MPD1     H14257   0.467   4.119  17.289  0.7543  0.9719  0.4032
    2MPD1    H114258   0.433   4.230  16.874  0.7243  1.0229 -0.7157
    2MPD1    H214259   0.634   4.480  17.145  1.3441 -1.5386  0.3077
    2MPD1    H314260   0.553   4.441  16.934 -0.5159  0.0550  0.3536
    2MPD1     N14261   0.371   4.040  17.062 -0.3626 -0.2563  0.3639
    2MPD1    H514262   0.344   3.992  17.147  0.6950  0.6649  1.2281
    2MPD1    N114263   0.634   4.308  17.357 -0.9777  0.2855  0.1057
    2MPD1    H614264   0.592   4.255  17.433 -1.8774 -0.1104 -0.6703
    2MPD1    H714265   0.646   4.406  17.382 -2.0118  1.0647 -2.4048
    3TCq2    C114266   0.344   3.987  16.939 -0.3958  0.2265 -0.2616
    3TCq2    O214267   0.400   4.010  16.831  0.3552  0.7204  0.0950
    3TCq2    C214268   0.258   3.866  16.934  0.4566 -0.0393 -0.3400
    3TCq2    C314269   0.247   3.798  16.812 -0.2215 -0.3342  0.2712
    3TCq2    C414270   0.154   3.696  16.798  0.0063  0.2712 -0.2223
    3TCq2    C514271   0.072   3.653  16.901  0.5748 -0.2861  0.8572
    3TCq2    C614272   0.075   3.732  17.013 -0.3240  0.1384 -0.1820
    3TCq2    C714273   0.166   3.838  17.032  0.1714  0.7675  0.2145
    3TCq2    C814274   4.682   3.745  17.095 -0.0859  0.2074 -0.1475
    3TCq2    O414275   4.653   3.858  17.133 -0.0073  0.0862  0.7913
    3TCq2    C914276   0.153   3.616  16.674 -0.0316  0.1140 -0.6080
    3TCq2    O514277   0.245   3.646  16.591 -0.4905  0.3458  0.2206
    3TCq2    O614278   0.080   3.516  16.671  0.0802  0.7994  0.3981
    3TCq2    H214279   0.307   3.827  16.727 -2.1859  1.4509 -0.5165
    3TCq2    H314280   0.001   3.574  16.879  1.6575 -0.9994 -0.0923
    3TCq2    H414281   0.163   3.898  17.122 -0.9015  0.5913  0.2989
    1TCq1    O114282   3.790   2.351  12.480  0.4019  0.4057 -0.1694
    1TCq1    C114283   3.698   2.421  12.550  0.0138 -0.5627  0.5484
    1TCq1    O214284   3.577   2.409  12.529  0.6491  0.4040 -0.6011
    1TCq1    C214285   3.755   2.414  12.683 -0.5077  0.1099  0.2022
    1TCq1    C314286   3.672   2.357  12.781  0.3696 -0.9197  0.0613
    1TCq1    C414287   3.728   2.333  12.908 -0.1485  0.2108  0.0940
    1TCq1    C514288   3.855   2.366  12.932  0.2982  0.6137 -0.3790
    1TCq1    C614289   3.927   2.437  12.837  0.3962 -0.0551 -0.4721
    1TCq1    C714290   3.876   2.470  12.715 -0.9711 -0.1782  0.0706
    1TCq1    C814291   4.051   2.506  12.875  0.6223 -0.3882  0.5484
    1TCq1    O414292   4.109   2.562  12.784 -0.2116 -0.2910 -0.3288
    1TCq1    C914293   3.644   2.270  13.002 -0.1005  0.3353 -0.2876
    1TCq1    O514294   3.521   2.269  12.971 -0.0803 -0.1262  0.3943
    1TCq1    O614295   3.696   2.219  13.108  0.3633 -0.1143 -0.8658
    1TCq1    H114296   3.878   2.336  12.519  0.8582  0.5741 -1.1292
    1TCq1    H214297   3.582   2.304  12.751  0.6773 -1.2244 -0.3301
    1TCq1    H314298   3.902   2.332  13.024  1.5870  0.5253 -1.0746
    1TCq1    H414299   3.941   2.503  12.635 -1.2194 -0.9674 -0.4591
    2MPD2     C14300   4.318   2.523  13.003  0.3748  0.0102  0.0041
    2MPD2    C114301   4.195   2.524  13.076  0.8073  0.1530  0.7214
    2MPD2    C214302   4.202   2.527  13.213 -0.3662 -0.7542 -0.0439
    2MPD2    C314303   4.320   2.520  13.286  0.2358  0.3276 -0.3760
    2MPD2    C414304   4.439   2.520  13.212 -0.5926  0.4963  0.1137
    2MPD2    C514305   4.438   2.524  13.074 -0.7156  0.3080 -0.8824
    2MPD2     H14306   4.108   2.530  13.266 -1.1907 -1.7869 -1.4451
    2MPD2    H114307   4.540   2.519  13.251  0.1869  0.3007 -1.8991
    2MPD2    H214308   4.326   2.541  12.896 -1.5053 -2.5480 -0.5502
    2MPD2    H314309   4.530   2.537  13.019 -0.6870  0.8695 -0.7068
    2MPD2     N14310   4.311   2.514  13.426  0.0647  0.5954  0.0669
    2MPD2    H514311   4.220   2.519  13.471 -1.2322 -0.6499 -2.3632
    2MPD2    N114312   4.070   2.521  13.010 -0.3638  0.1122 -0.6065
    2MPD2    H714313   3.994   2.498  13.072  2.1486 -3.5833  1.0977
    3TCq1    O114314   4.025   2.653  13.762 -0.8195  0.4345  0.1026
    3TCq1    C114315   4.106   2.626  13.865  0.1983 -0.0700 -0.0105
    3TCq1    O214316   4.093   2.671  13.977  0.1019 -0.1201 -0.0807
    3TCq1    C214317   4.238   2.574  13.823 -0.3086  0.0604  0.0802
    3TCq1    C314318   4.312   2.506  13.922  0.6512 -0.0393 -0.5445
    3TCq1    C414319   4.428   2.452  13.876 -0.2686 -0.0740  0.0015
    3TCq1    C514320   4.465   2.454  13.742 -0.2320 -1.0465 -0.7072
    3TCq1    C614321   4.386   2.523  13.654  0.2415  0.3784 -0.3660
    3TCq1    C714322   4.274   2.591  13.694  0.1255  0.0702 -0.9503
    3TCq1    C814323   4.429   2.521  13.513 -0.4152  0.0932  0.0858
    3TCq1    O414324   4.546   2.515  13.477  0.4270  0.6008  0.0585
    3TCq1    C914325   4.505   2.371  13.965  0.3994  0.9878 -0.2441
    3TCq1    O514326   4.592   2.298  13.915  0.4415 -0.2219  0.4467
    3TCq1    O614327   4.467   2.357  14.086  0.5440  0.2093  0.2121
    3TCq1    H114328   4.037   2.595  13.683 -0.3902  0.1297  0.3894
    3TCq1    H214329   4.287   2.507  14.027 -0.7651  0.2093 -0.8755
    3TCq1    H314330   4.554   2.400  13.712  1.1294  0.1792  1.1985
    3TCq1    H414331   4.228   2.668  13.632 -2.5859  0.1561  1.1456
    1MPD2     C14332   3.787   3.285  14.792  0.6790  0.0166  0.2796
    1MPD2    C114333   3.671   3.243  14.737 -0.6620 -0.0272  0.0028
    1MPD2    C214334   3.606   3.142  14.794  0.8445 -0.3790  0.1269
    1MPD2    C314335   3.650   3.078  14.911  0.3641  0.2285 -0.0593
    1MPD2    C414336   3.779   3.113  14.962  0.0689  0.0357  0.4200
    1MPD2    C514337   3.846   3.215  14.898  0.5455  0.3299 -0.5412
    1MPD2     H14338   3.508   3.113  14.757  0.9268  2.0279 -2.0013
    1MPD2    H114339   3.836   3.056  15.034  0.9979  0.1545 -0.2130
    1MPD2    H214340   3.839   3.374  14.757 -0.5507  0.1341 -1.2571
    1MPD2    H314341   3.936   3.252  14.945  0.7849 -1.4792  0.4102
    1MPD2     N14342   3.568   2.980  14.968 -0.3464  0.8425  0.1516
    1MPD2    H514343   3.484   2.961  14.914  1.4544  0.7732 -2.6214
    1MPD2    N114344   3.614   3.310  14.622  0.3244 -0.7964  0.1503
    1MPD2    H714345   3.669   3.390  14.593 -1.1403 -0.1067 -0.7275
    2TMC3    C114346   3.446   3.387  14.470 -0.5959 -0.7457 -0.5499
    2TMC3    C214347   3.344   3.334  14.396  0.2102 -0.0408  0.2574
    2TMC3    C314348   3.223   3.387  14.393 -0.8434 -0.4471 -0.7244
    2TMC3    C414349   3.428   3.506  14.534  0.4095 -0.0156 -0.7688
    2TMC3    C514350   3.300   3.561  14.524 -0.3903  0.8400  0.2511
    2TMC3    C614351   3.199   3.507  14.458 -0.1475 -0.1115  0.4428
    2TMC3     C14352   3.495   3.282  14.562  0.2551  0.3985 -0.2201
    2TMC3     O14353   3.447   3.174  14.552 -0.4022  0.4412  0.3753
    2TMC3     H14354   3.362   3.246  14.335  3.9175  0.2445  0.9388
    2TMC3    H114355   3.510   3.539  14.596 -0.0235  0.6031 -0.5288
    2TMC3    H214356   3.099   3.549  14.455 -0.0147  0.2362  0.8751
    2TMC3    C714357   3.281   3.704  14.553  0.2358 -0.0443  0.4943
    2TMC3    C814358   3.111   3.295  14.404 -0.4202 -0.0878  0.4423
    2TMC3    O114359   3.182   3.751  14.501  0.2581  0.0676 -0.1326
    2TMC3    O214360   2.996   3.336  14.398 -0.2007  0.4278  0.4260
    3TCq1    O114361   4.224   4.471  14.706  0.3458 -0.4971  0.2500
    3TCq1    C114362   4.262   4.343  14.734  0.2228 -0.7601  0.3240
    3TCq1    O214363   4.374   4.297  14.747 -0.1243 -0.1894 -0.6234
    3TCq1    C214364   4.137   4.293  14.795  0.1603 -0.6344 -0.4209
    3TCq1    C314365   4.154   4.197  14.889  0.0924  0.6676 -0.0204
    3TCq1    C414366   4.056   4.112  14.928  0.2271  0.2591  0.3350
    3TCq1    C514367   3.939   4.106  14.860  0.0819 -0.2157  0.0395
    3TCq1    C614368   3.919   4.205  14.764  0.3122  0.7049  0.0262
    3TCq1    C714369   4.016   4.300  14.731 -0.0323  0.3206  0.5704
    3TCq1    C814370   3.799   4.203  14.678  0.0366 -0.6980  0.1369
    3TCq1    O414371   3.789   4.290  14.591 -0.7072 -0.9637  0.1200
    3TCq1    C914372   4.080   4.012  15.032  0.0416 -0.5095 -0.3068
    3TCq1    O514373   3.982   3.948  15.076 -0.0163 -1.4173 -0.8214
    3TCq1    O614374   4.196   4.000  15.086 -0.1800 -0.2489 -0.6093
    3TCq1    H114375   4.130   4.493  14.724  0.7932 -0.2900  2.2986
    3TCq1    H214376   4.252   4.194  14.935 -0.2443  2.0995  0.8019
    3TCq1    H314377   3.866   4.031  14.887  0.0791  0.4715  1.9482
    3TCq1    H414378   3.997   4.370  14.651  1.1853  0.0880  0.0712
    4MPD2     C14379   3.530   4.147  14.558  0.2160  0.7273  0.3874
    4MPD2    C114380   3.602   4.051  14.629  1.1261 -0.5482 -0.1204
    4MPD2    C214381   3.554   3.927  14.660  0.5109  0.4165  0.0272
    4MPD2    C314382   3.435   3.896  14.602  0.1211 -0.4111  0.5578
    4MPD2    C414383   3.361   3.990  14.528 -0.5693  0.9715 -0.0006
    4MPD2    C514384   3.412   4.113  14.501 -0.7583  0.3811  0.3836
    4MPD2     H14385   3.611   3.859  14.722  0.2279  1.0510  0.9889
    4MPD2    H114386   3.269   3.957  14.483 -0.7427  0.7224  0.5330
    4MPD2    H214387   3.567   4.247  14.543  0.1673  0.8394  0.9960
    4MPD2    H314388   3.354   4.174  14.433 -1.7690  1.6244  2.3390
    4MPD2     N14389   3.386   3.763  14.619 -0.3375 -0.3268 -0.0381
    4MPD2    H514390   3.448   3.720  14.686  1.8078  0.0668 -1.7453
    4MPD2    N114391   3.726   4.086  14.695  0.3435  0.1897  0.1245
    4MPD2    H714392   3.754   4.016  14.762 -1.7946  2.1492  3.0632
    5TMC2    C114393   3.281   2.779  14.959  0.3413 -0.0043  0.2071
    5TMC2    C214394   3.210   2.813  15.072 -0.3002  0.2282  0.2071
    5TMC2    C314395   3.276   2.819  15.191  0.8066 -0.7769 -0.7397
    5TMC2    C414396   3.417   2.780  14.974 -0.2462 -0.7130 -0.2959
    5TMC2    C514397   3.484   2.809  15.092 -0.2311  0.0002 -0.4337
    5TMC2    C614398   3.412   2.823  15.204  0.6286  0.1538 -0.0633
    5TMC2     C14399   3.249   2.864  14.848 -0.7316 -0.3929 -0.4553
    5TMC2     O14400   3.342   2.933  14.809 -0.5649  0.3701  0.3353
    5TMC2     H14401   3.103   2.831  15.071 -0.3611 -0.2617 -1.8117
    5TMC2    H114402   3.471   2.782  14.880  0.5962 -2.4477  0.1423
    5TMC2    H214403   3.466   2.867  15.287  0.8764  0.4703 -0.3911
    5TMC2    C714404   3.591   2.908  15.083  0.6178  0.2620  0.0630
    5TMC2    C814405   3.187   2.835  15.310 -1.0819  0.5809  0.6400
    5TMC2    O114406   3.680   2.923  15.164  0.1600 -0.6171 -0.2709
    5TMC2    O214407   3.067   2.861  15.314  0.4933 -0.4481 -0.0349
    5TMC2    O514408   3.263   2.762  15.399  0.5954 -0.3177  0.3476
    5TMC2    H514409   3.357   2.744  15.376  0.8997  1.9938 -0.2734
    6MPD2     C14410   2.936   3.062  14.504  0.0337  0.1995  0.2152
    6MPD2    C114411   3.073   3.087  14.525  0.0449 -0.0181 -0.8301
    6MPD2    C214412   3.136   3.005  14.618  0.5694 -0.0388 -0.7414
    6MPD2    C314413   3.072   2.905  14.690  0.0762 -0.7480 -0.1824
    6MPD2    C414414   2.940   2.879  14.654  0.3677  0.5481  0.5536
    6MPD2    C514415   2.881   2.949  14.562  0.2376 -0.1522  0.4076
    6MPD2     H14416   3.242   3.013  14.637  0.8617 -2.0356 -1.5517
    6MPD2    H114417   2.885   2.800  14.703  1.1942 -0.3929 -0.0446
    6MPD2    H214418   2.873   3.109  14.429 -0.5416  0.5304  0.9054
    6MPD2    H314419   2.779   2.921  14.541  0.4376  0.1513 -1.0031
    6MPD2     N14420   3.129   2.834  14.796  0.1582  0.7557 -0.3676
    6MPD2    H514421   3.068   2.768  14.845  0.8952  0.7833  0.5931
    6MPD2    N114422   3.154   3.177  14.461 -0.0629 -0.6963  0.5423
    6MPD2    H714423   3.252   3.168  14.484  0.5398 -0.3385 -1.9302
  945NH4     N114424   2.190   3.440   3.058  0.2891  0.1489 -0.6127
  945NH4     H214425   2.165   3.513   3.127 -0.9966 -2.3600  1.5859
  945NH4     H314426   2.131   3.355   3.071  0.3185 -0.0630 -1.8069
  945NH4     H414427   2.288   3.407   3.073 -0.8082 -2.1926  1.4448
  945NH4     H514428   2.176   3.470   2.959 -0.7388  0.0472 -0.5000
  946SOD     NA14429   3.431   1.292  10.712 -0.0132 -0.2383  0.0737
  947SOD     NA14430   0.147   3.414  15.927  0.1691  0.1072 -0.0533
  948SOD     NA14431   4.504   3.800  11.572  0.0194  0.9122 -0.3690
  949SOD     NA14432   2.223   3.765  15.632  0.1129  0.8878 -0.3397
  950SOD     NA14433   0.977   1.497  13.205  0.0875  0.9420 -0.1103
  951SOD     NA14434   4.082   2.310  11.610 -0.0360 -0.1735 -0.2520
  952SOD     NA14435   3.602   0.640   2.863 -0.1918  0.1743 -0.0469
  953SOD     NA14436   0.464   2.601  11.210 -0.4851 -0.0073 -0.0965
  954SOD     NA14437   3.641   1.525  10.710 -0.5496  0.0632  0.7251
  955SOD     NA14438   4.329   2.531   1.525 -0.5892  0.0457 -0.3673
  956SOD     NA14439   2.055   1.780  13.148 -0.0128  0.0992 -0.5623
  957SOD     NA14440   4.066   2.637  11.578  0.4293  0.1089 -0.0554
  958SOD     NA14441   3.872   3.564  15.356 -0.3210  0.2944  0.5087
  959SOD     NA14442   4.021   1.775  11.874 -0.0894 -0.0231 -0.2159
  960SOD     NA14443   3.867   2.280   9.899  0.2376  0.0499 -0.3414
  961SOD     NA14444   0.454   0.183  10.753 -0.0997 -0.3368  0.3681
  962SOD     NA14445   0.714   3.143   1.594  0.1146 -0.1044  0.2377
  963SOD     NA14446   2.247   1.584   0.804  0.7871 -0.8818 -0.0555
  964SOD     NA14447   4.025   1.088  12.993 -0.1245  0.1821 -0.3778
  965SOD     NA14448   3.319   1.128  10.438  0.2798  0.3485 -0.0274
  966SOD     NA14449   0.196   3.854   4.159 -0.0651  0.3100  0.4450
  967SOD     NA14450   3.097   4.164  11.717  0.3086  0.6419 -0.0218
  968SOD     NA14451   3.398   4.235   9.107  0.0755  0.6112  0.4338
  969SOD     NA14452   2.260   1.657  11.670 -0.5113 -0.1615 -0.8379
  970SOD     NA14453   3.781   0.325   0.946  0.1560  0.5478  0.3143
  971SOD     NA14454   4.514   1.052   7.080 -0.2143  0.2916  0.0651
  972SOD     NA14455   0.215   3.607  16.231 -0.0980 -0.1639 -0.1767
  973SOD     NA14456   3.894   1.682   5.649 -0.5342 -0.0977  0.0768
  974SOD     NA14457   4.473   1.988   0.325 -0.1760 -0.0216  0.5246
  975SOD     NA14458   0.935   4.216  12.974  0.0388 -0.0422  0.0089
  976SOD     NA14459   0.890   1.500  15.010  0.4047  0.0604  0.4811
  977SOD     NA14460   3.232   2.809   9.272  0.1226  0.1458 -0.3218
  978SOD     NA14461   4.547   1.171   7.881 -0.8480 -0.2692 -0.2914
  979SOD     NA14462   4.441   3.705  11.249 -0.4002  0.3888 -0.1415
  980SOD     NA14463   1.872   2.901  13.607  0.2693  0.1502 -0.1123
  981SOD     NA14464   1.584   2.890   1.894 -0.2870  0.0309  0.0204
  982SOD     NA14465   0.515   2.817   8.135  0.1444 -0.4749 -0.4158
  983SOD     NA14466   2.000   3.390   1.245  0.4837 -0.0195 -0.0192
  984SOD     NA14467   0.591   2.103  14.553 -0.1124  0.0465 -0.0167
  985SOD     NA14468   3.771   4.414   1.553  0.3128 -0.2569  0.2136
  986SOD     NA14469   2.628   1.923  15.369  0.0622  0.4563 -0.2216
  987SOD     NA14470   0.070   2.273  13.998 -0.2942  0.0203 -0.5662
  988SOD     NA14471   4.218   1.829   4.636 -0.1157 -0.1463 -0.8222
  989SOD     NA14472   0.623   1.007   2.720 -0.2042 -0.2177  0.2552
  990SOD     NA14473   0.520   4.088  15.109  0.0012  0.2099  0.2760
  991SOD     NA14474   1.981   0.346  16.390 -0.1632  0.0858  0.0189
  992SOD     NA14475   3.621   2.199  13.322  0.3029  0.3209 -0.0191
  993SOD     NA14476   0.442   3.833  16.259  0.5184 -0.1649  0.1099
  994SOD     NA14477   2.916   3.489  14.808  0.4966  0.1787 -0.1987
  995SOD     NA14478   3.113   4.092  11.105 -0.3691  0.0129  0.0606
  996SOD     NA14479   0.104   2.417  14.679 -0.0217  0.4203  0.0712
  997SOD     NA14480   4.613   1.496   9.680 -0.1077  0.2540 -0.6726
  998SOD     NA14481   4.335   1.600  11.605  0.1710  0.2050  0.2206
  999SOD     NA14482   2.121   4.213   4.336 -0.2345  0.3896 -0.3300
 1000SOD     NA14483   1.468   3.130  13.252 -0.0933  0.2232  0.2813
 1001SOD     NA14484   0.111   4.286  14.744 -0.1653 -0.0794 -0.3689
 1002SOD     NA14485   4.379   0.520   2.119  0.0280 -0.2927 -0.0224
 1003SOD     NA14486   2.639   4.175   3.069  0.2188 -0.1480  0.1594
 1004SOD     NA14487   0.473   2.391  14.601  0.7181  0.1197  0.2822
 1005SOD     NA14488   1.164   2.605  10.109 -0.5712  0.1498  0.1532
 1006SOD     NA14489   0.660   4.127  13.918  0.5565  0.4137  0.1055
 1007SOD     NA14490   0.749   2.212   0.613  0.2015  0.4270  0.4092
 1008SOD     NA14491   4.210   3.889  11.196  0.1872 -0.0853 -0.1645
 1009SOD     NA14492   0.753   3.150  11.187  0.2394  0.0605  0.2079
 1010SOD     NA14493   1.238   0.354   1.087  0.3868  0.3457  0.1027
 1011SOL     OW14494   1.629   0.539  11.355  0.5344 -0.6730  0.6918
 1011SOL    HW114495   1.591   0.575  11.435  1.0250 -0.7861  0.9765
 1011SOL    HW214496   1.549   0.498  11.322  1.5356 -2.9735  1.1330
 1012SOL     OW14497   2.051   3.272   3.296 -0.5829  0.1297 -0.3646
 1012SOL    HW114498   2.126   3.263   3.354 -0.6124 -1.1978 -0.5367
 1012SOL    HW214499   1.983   3.210   3.323  2.9023 -2.3182  2.7044
 1013SOL     OW14500   3.202   1.500   5.902 -0.0140  0.3515 -0.3799
 1013SOL    HW114501   3.134   1.488   5.968  0.6122  0.5395  0.2890
 1013SOL    HW214502   3.221   1.407   5.888 -2.9127 -0.2818 -0.1455
 1014SOL     OW14503   1.449   1.756   1.020 -0.1199 -0.3724 -0.5017
 1014SOL    HW114504   1.353   1.755   1.025 -0.1698 -0.3011 -1.5004
 1014SOL    HW214505   1.456   1.723   1.110  0.9450  1.0278 -0.0779
 1015SOL     OW14506   2.554   0.010  12.137 -0.4750 -0.3174  0.4511
 1015SOL    HW114507   2.626   0.003  12.074  0.9279 -1.8429  2.2163
 1015SOL    HW214508   2.504   4.651  12.135 -3.3970  1.5000 -0.7567
 1016SOL     OW14509   2.647   4.168   9.919 -0.3868  0.5108 -0.5224
 1016SOL    HW114510   2.722   4.129   9.966 -0.7863  0.6167  0.1936
 1016SOL    HW214511   2.683   4.252   9.893 -0.4480  0.3074 -1.2699
 1017SOL     OW14512   4.719   0.629   6.650 -0.8058 -0.3712  0.3543
 1017SOL    HW114513   0.011   0.581   6.569 -1.5591  0.3017 -0.1835
 1017SOL    HW214514   0.076   0.604   6.696  0.5879 -2.5154 -3.2303
 1018SOL     OW14515   2.720   1.419   4.195 -0.8153 -0.4581  0.0968
 1018SOL    HW114516   2.802   1.372   4.212  0.4684  0.8669 -2.4714
 1018SOL    HW214517   2.659   1.363   4.243 -2.2553 -1.5847 -3.0375
 1019SOL     OW14518   2.823   4.621   3.647  0.3680 -0.3119  0.4593
 1019SOL    HW114519   2.826   4.717   3.653  0.4148 -0.3451  0.9871
 1019SOL    HW214520   2.809   4.602   3.740 -1.1257 -0.9081  0.1009
 1020SOL     OW14521   3.241   1.222  12.544 -0.2047  0.8076 -0.5988
 1020SOL    HW114522   3.266   1.315  12.547 -0.6565  0.8581  1.6960
 1020SOL    HW214523   3.309   1.182  12.492 -0.8676  0.4042 -1.1531
 1021SOL     OW14524   0.167   2.773   6.974 -0.1282 -0.5630  0.3013
 1021SOL    HW114525   0.080   2.804   6.949 -0.0636 -0.8043 -0.2268
 1021SOL    HW214526   0.150   2.753   7.066  0.0808 -1.3331  0.1783
 1022SOL     OW14527   2.407   1.888   7.473  0.2018 -0.1681  0.0944
 1022SOL    HW114528   2.462   1.884   7.395  0.9278 -0.4985  0.6235
 1022SOL    HW214529   2.373   1.798   7.466  1.2500 -0.6599  1.4955
 1023SOL     OW14530   4.540   1.817   5.757  0.0822  0.2314  0.0163
 1023SOL    HW114531   4.581   1.790   5.839 -1.6123 -1.0740  0.4470
 1023SOL    HW214532   4.614   1.872   5.731  0.3281  0.4875  1.2675
 1024SOL     OW14533   1.378   2.021   7.632 -0.2846  0.0022  0.2300
 1024SOL    HW114534   1.392   1.930   7.658  2.4584  0.4621  0.3805
 1024SOL    HW214535   1.446   2.060   7.688  0.5467  0.2833 -0.9798
 1025SOL     OW14536   3.372   0.202   6.376 -0.1395  0.4068 -0.2658
 1025SOL    HW114537   3.437   0.271   6.387 -1.5919  2.0034 -1.6043
 1025SOL    HW214538   3.347   0.219   6.285 -2.2888 -1.1689  0.0320
 1026SOL     OW14539   3.270   1.951   7.937  0.2399 -0.1008  0.3226
 1026SOL    HW114540   3.233   1.873   7.978 -0.7996 -0.0735 -0.5388
 1026SOL    HW214541   3.200   2.008   7.905 -0.1755 -2.0199 -2.2559
 1027SOL     OW14542   3.398   2.341   1.308 -0.2663 -0.4885 -0.1023
 1027SOL    HW114543   3.310   2.327   1.343 -0.1439 -1.1929 -0.0722
 1027SOL    HW214544   3.421   2.426   1.346  0.9511 -0.4266 -0.9941
 1028SOL     OW14545   3.355   1.373  11.704 -0.3623 -0.3899  0.4451
 1028SOL    HW114546   3.407   1.364  11.784  0.9856 -0.1075 -0.4202
 1028SOL    HW214547   3.402   1.337  11.629 -0.4770  1.7479 -0.6305
 1029SOL     OW14548   3.961   0.191   7.354 -0.2208 -0.0060 -0.5643
 1029SOL    HW114549   4.032   0.192   7.289  1.7193  2.9060  1.5915
 1029SOL    HW214550   3.902   0.132   7.307  0.7039 -1.6604  0.3033
 1030SOL     OW14551   3.150   0.945   4.735 -0.1322  0.4539 -0.2104
 1030SOL    HW114552   3.055   0.936   4.725 -0.1931 -0.1883  0.9520
 1030SOL    HW214553   3.163   1.008   4.664 -2.0951 -1.3142 -2.1370
 1031SOL     OW14554   3.623   2.487  16.838  0.9878 -0.3236  0.1367
 1031SOL    HW114555   3.602   2.396  16.814  5.0561 -0.7531 -1.6818
 1031SOL    HW214556   3.622   2.469  16.932 -1.0145  0.5532  0.2698
 1032SOL     OW14557   2.054   3.785   9.527  1.2508 -0.3128  0.1183
 1032SOL    HW114558   2.004   3.763   9.449  2.0111 -0.0399 -0.4488
 1032SOL    HW214559   2.138   3.809   9.488  0.7953  0.2125 -0.5471
 1033SOL     OW14560   2.720   1.739   1.933 -0.3857  0.6141  0.1075
 1033SOL    HW114561   2.656   1.693   1.988  1.1382 -1.2291  0.3246
 1033SOL    HW214562   2.806   1.729   1.973 -0.0781 -2.7216 -1.4270
 1034SOL     OW14563   0.173   0.277   7.955 -0.8250 -0.1449  0.0083
 1034SOL    HW114564   0.081   0.251   7.942 -1.4334  1.4908  0.9604
 1034SOL    HW214565   0.159   0.354   8.010 -0.8074  1.8862 -2.8259
 1035SOL     OW14566   0.643   2.583  15.506 -0.7119  0.2123  0.0712
 1035SOL    HW114567   0.634   2.678  15.518 -1.0173  0.1979 -0.0639
 1035SOL    HW214568   0.587   2.532  15.565  1.0971 -2.6797 -0.7334
 1036SOL     OW14569   4.110   2.644   3.362 -0.2305  0.7539 -0.1593
 1036SOL    HW114570   4.200   2.611   3.361 -0.5912 -0.2026 -1.3353
 1036SOL    HW214571   4.064   2.573   3.408 -0.4334 -0.7479 -2.6862
 1037SOL     OW14572   0.622   2.950  17.431 -0.0328 -0.1616 -0.2992
 1037SOL    HW114573   0.660   3.038  17.436 -0.2828  0.0331 -1.8646
 1037SOL    HW214574   0.535   2.957  17.470  0.4863  3.1516  0.1974
 1038SOL     OW14575   3.673   3.183   4.097 -0.4230 -0.3522  1.3193
 1038SOL    HW114576   3.687   3.223   4.183  2.7886  1.3946 -0.0291
 1038SOL    HW214577   3.584   3.217   4.082  0.5584  0.9169 -1.5023
 1039SOL     OW14578   3.177   3.440   7.628  0.6918  0.0945  0.0788
 1039SOL    HW114579   3.097   3.426   7.679  0.5853 -0.3619 -0.2147
 1039SOL    HW214580   3.228   3.473   7.702 -0.0260  3.1231 -0.7895
 1040SOL     OW14581   2.502   4.063   2.906 -0.4183  0.0612 -0.7248
 1040SOL    HW114582   2.420   4.104   2.876 -0.8879 -0.3362  0.0250
 1040SOL    HW214583   2.491   3.971   2.881 -1.4406 -0.5108  1.9214
 1041SOL     OW14584   2.922   3.643   8.536  0.7768  0.8263  0.0824
 1041SOL    HW114585   2.917   3.572   8.600 -1.1816 -1.0809 -2.1761
 1041SOL    HW214586   2.972   3.603   8.464  1.6843  0.2416  1.0319
 1042SOL     OW14587   4.471   4.448  15.794 -0.0136 -0.0717 -0.7147
 1042SOL    HW114588   4.395   4.411  15.749 -0.2355 -0.4894  0.0031
 1042SOL    HW214589   4.428   4.485  15.871  0.0847 -0.9928 -0.2240
 1043SOL     OW14590   2.542   3.832  16.018  0.2931 -0.2489  0.0985
 1043SOL    HW114591   2.594   3.912  16.028 -2.8377  1.7838  0.3559
 1043SOL    HW214592   2.582   3.783  15.947 -0.1184  2.0458 -1.7299
 1044SOL     OW14593   2.043   3.714   8.280 -0.0396  0.6855 -0.0455
 1044SOL    HW114594   2.052   3.661   8.359  2.9292  1.9650  0.4682
 1044SOL    HW214595   1.956   3.687   8.251  0.0252  0.4276  0.0003
 1045SOL     OW14596   3.591   3.331   6.511 -0.8324  0.1024  0.5269
 1045SOL    HW114597   3.610   3.313   6.603  2.9907 -1.6495 -0.6058
 1045SOL    HW214598   3.567   3.241   6.490 -2.7335  0.7829 -0.2722
 1046SOL     OW14599   0.378   0.201   8.361  0.1667  0.1957  0.9722
 1046SOL    HW114600   0.293   0.241   8.379  0.6733  1.6287  0.2120
 1046SOL    HW214601   0.358   0.161   8.276  0.0380 -0.3149  1.2471
 1047SOL     OW14602   3.914   3.182   4.668  0.7243  0.1432  0.0651
 1047SOL    HW114603   3.975   3.142   4.606  0.6992  2.1558 -1.2459
 1047SOL    HW214604   3.831   3.141   4.644  1.4595 -0.7850 -0.9135
 1048SOL     OW14605   2.357   3.795   6.035  0.4924 -0.5591  0.7568
 1048SOL    HW114606   2.399   3.810   6.120 -0.0456  1.1641  0.7172
 1048SOL    HW214607   2.396   3.710   6.014  2.3077  0.4844 -0.1036
 1049SOL     OW14608   3.175   1.047   8.275 -0.5950  0.0197 -0.1548
 1049SOL    HW114609   3.142   1.067   8.363 -0.7503 -1.6758  0.1800
 1049SOL    HW214610   3.091   1.047   8.229 -0.1386  0.9887 -0.9854
 1050SOL     OW14611   0.875   4.311  17.550  0.3680 -0.0550 -0.1864
 1050SOL    HW114612   0.784   4.297  17.524  0.4417  2.4396 -1.7748
 1050SOL    HW214613   0.902   4.227  17.587 -1.4664 -0.6382 -0.1868
 1051SOL     OW14614   1.494   1.045   0.820 -0.1327  0.3779  0.0163
 1051SOL    HW114615   1.541   1.046   0.904 -3.5877  0.1316  1.9753
 1051SOL    HW214616   1.453   1.132   0.827 -2.4634 -0.6657 -0.6896
 1052SOL     OW14617   2.148   1.556  13.735  0.4340 -0.1581 -0.0798
 1052SOL    HW114618   2.126   1.646  13.711 -1.4497 -0.7344 -0.5101
 1052SOL    HW214619   2.241   1.561  13.757  0.9026  1.9255 -2.5167
 1053SOL     OW14620   1.282   3.318   4.166 -0.3855  0.0583  0.6052
 1053SOL    HW114621   1.222   3.304   4.239  1.1686  0.9559  2.0387
 1053SOL    HW214622   1.367   3.315   4.209  0.2584 -0.5351 -0.6881
 1054SOL     OW14623   1.140   4.027   2.022 -0.0752 -0.4487  0.2579
 1054SOL    HW114624   1.125   4.041   1.928  0.4310  0.0621  0.2537
 1054SOL    HW214625   1.123   4.116   2.053  0.5646  0.0282 -0.7547
 1055SOL     OW14626   1.497   3.421   5.764  0.5458  0.1328  0.1348
 1055SOL    HW114627   1.472   3.466   5.844 -1.0629  0.5837 -0.6049
 1055SOL    HW214628   1.426   3.368   5.728 -0.6985  0.5346  2.0151
 1056SOL     OW14629   4.368   2.005   1.276  0.5981 -0.5103 -0.5134
 1056SOL    HW114630   4.449   1.959   1.254 -0.1115 -0.7348 -2.6386
 1056SOL    HW214631   4.395   2.091   1.310  0.9857 -0.0970 -1.8534
 1057SOL     OW14632   2.314   1.500   5.323 -0.4419  0.3205  0.6884
 1057SOL    HW114633   2.377   1.572   5.328  0.7867 -0.8697  2.5110
 1057SOL    HW214634   2.231   1.546   5.324 -0.5104  0.2557 -2.0586
 1058SOL     OW14635   0.166   3.267   3.121 -0.5407 -0.6613  0.2787
 1058SOL    HW114636   0.238   3.204   3.116 -0.0474  0.1288 -2.1809
 1058SOL    HW214637   0.166   3.315   3.039  0.4035 -0.2564  0.5212
 1059SOL     OW14638   0.131   0.381  11.291  0.2987  0.3202  0.0789
 1059SOL    HW114639   0.139   0.362  11.384  2.3912 -0.7346 -0.3115
 1059SOL    HW214640   0.150   0.294  11.256 -2.0092 -0.0272 -0.2786
 1060SOL     OW14641   4.552   3.995   4.923 -0.3801 -0.2491  0.0570
 1060SOL    HW114642   4.606   3.957   4.992  2.8049  1.5276 -1.4720
 1060SOL    HW214643   4.618   4.038   4.869 -0.6478 -2.3997 -1.9864
 1061SOL     OW14644   2.341   3.912  11.659  0.7821  0.4588  0.3695
 1061SOL    HW114645   2.401   3.875  11.724 -0.8821 -2.1373  0.4015
 1061SOL    HW214646   2.296   3.831  11.638 -0.4334  1.1221  0.3898
 1062SOL     OW14647   3.534   0.565   8.163  0.8483 -0.3978 -1.1710
 1062SOL    HW114648   3.439   0.570   8.153  0.5273 -1.2674  1.3628
 1062SOL    HW214649   3.548   0.482   8.119 -0.1985  0.5805 -3.3596
 1063SOL     OW14650   2.523   1.234   0.800  0.2361 -0.3161 -0.1580
 1063SOL    HW114651   2.593   1.287   0.840  1.4409 -1.5561 -0.6202
 1063SOL    HW214652   2.452   1.291   0.828 -1.4051 -2.0954 -0.7251
 1064SOL     OW14653   0.450   0.453   7.591  0.2281  0.1420 -0.4053
 1064SOL    HW114654   0.494   0.535   7.612 -2.4879  0.9770  2.0635
 1064SOL    HW214655   0.489   0.393   7.654  0.0622 -1.1023 -1.4868
 1065SOL     OW14656   0.604   0.771   4.965 -0.6276 -0.0783  0.0271
 1065SOL    HW114657   0.622   0.695   5.020  0.2184 -0.5451 -0.9072
 1065SOL    HW214658   0.560   0.837   5.019 -1.1410  0.4129 -1.0046
 1066SOL     OW14659   1.276   4.675   7.913 -0.0303  0.3119 -0.0443
 1066SOL    HW114660   1.261   4.643   7.824 -0.8648  0.3653  0.0749
 1066SOL    HW214661   1.239   0.040   7.899 -0.3888 -0.3399 -3.1214
 1067SOL     OW14662   3.451   2.663   2.870 -0.6260  0.6411  0.7645
 1067SOL    HW114663   3.464   2.686   2.778 -1.8695 -3.1681 -0.3696
 1067SOL    HW214664   3.501   2.727   2.921  0.0696  0.0157  0.8758
 1068SOL     OW14665   0.516   3.137   6.065 -0.1859 -0.1043 -0.5031
 1068SOL    HW114666   0.454   3.210   6.067  1.3525  1.1821  0.2556
 1068SOL    HW214667   0.525   3.126   6.160 -2.3655 -1.5048 -0.4697
 1069SOL     OW14668   4.254   2.880   3.554  0.0021 -0.0226 -0.0601
 1069SOL    HW114669   4.261   2.910   3.464 -1.9007  0.1079 -0.1568
 1069SOL    HW214670   4.285   2.790   3.553  1.1667  0.3961 -1.0506
 1070SOL     OW14671   0.469   3.693   6.361 -0.2026 -0.1579  0.1735
 1070SOL    HW114672   0.409   3.678   6.288 -3.6741  2.5540  2.4710
 1070SOL    HW214673   0.447   3.783   6.383 -0.5514 -0.0174 -0.7750
 1071SOL     OW14674   3.167   1.340   8.493  0.3093  0.0571  0.1753
 1071SOL    HW114675   3.094   1.311   8.438  2.0856 -0.5574 -1.8480
 1071SOL    HW214676   3.132   1.426   8.517 -3.0750 -1.3924  0.4439
 1072SOL     OW14677   4.225   0.574   1.941  0.4737 -0.1788  0.2621
 1072SOL    HW114678   4.167   0.650   1.941  1.9948  1.0138  1.0964
 1072SOL    HW214679   4.161   0.505   1.927  0.0394  0.3231 -0.2087
 1073SOL     OW14680   1.039   0.707   3.145  0.3752  0.3793 -0.0827
 1073SOL    HW114681   1.063   0.695   3.237  1.3113 -2.3717 -0.6951
 1073SOL    HW214682   0.973   0.639   3.133  0.3081  0.4989 -0.3807
 1074SOL     OW14683   2.516   2.730   2.419  0.4910 -0.9716 -0.3705
 1074SOL    HW114684   2.471   2.659   2.372 -1.6529  0.1393  0.0077
 1074SOL    HW214685   2.602   2.696   2.395  1.2822 -0.4218  1.7303
 1075SOL     OW14686   3.003   0.649  10.265  0.4131  0.1086 -0.0695
 1075SOL    HW114687   3.019   0.734  10.305  0.5529  0.4565 -0.8659
 1075SOL    HW214688   2.934   0.664  10.200 -0.1037  0.4309  0.5526
 1076SOL     OW14689   4.465   0.095  12.426  0.3597  0.6702 -0.2122
 1076SOL    HW114690   4.490   0.094  12.333 -0.8418  0.6403 -0.5269
 1076SOL    HW214691   4.515   0.026  12.469 -0.5650  0.8669  1.1620
 1077SOL     OW14692   3.027   3.945  11.247  0.4107 -0.1575  0.2837
 1077SOL    HW114693   2.936   3.942  11.275  0.1507 -1.8100 -0.7542
 1077SOL    HW214694   3.051   3.854  11.262  1.2503  0.3779  2.1463
 1078SOL     OW14695   3.682   2.486  11.252  0.3116 -0.5054  0.0530
 1078SOL    HW114696   3.681   2.455  11.342  0.4902 -0.3970  0.0930
 1078SOL    HW214697   3.721   2.572  11.271  0.1139 -0.6399  1.0444
 1079SOL     OW14698   3.567   1.009  16.559 -0.2228  0.2435  0.7088
 1079SOL    HW114699   3.552   1.103  16.566 -1.7565  0.0492 -0.0565
 1079SOL    HW214700   3.606   1.005  16.472  1.5287  3.0527  1.3697
 1080SOL     OW14701   4.305   3.053   8.129  0.1462 -0.0254  0.0012
 1080SOL    HW114702   4.262   3.135   8.154  1.9689  1.3701 -1.3835
 1080SOL    HW214703   4.299   2.991   8.202  0.4206  0.0240  0.0686
 1081SOL     OW14704   3.819   2.452   7.839  0.3001  0.0325  0.5917
 1081SOL    HW114705   3.886   2.406   7.788 -1.4020  0.0223 -1.6510
 1081SOL    HW214706   3.806   2.535   7.792  0.9090  0.1904  0.6920
 1082SOL     OW14707   0.318   2.828   7.906 -0.2964  0.0307  0.1150
 1082SOL    HW114708   0.244   2.775   7.937 -1.1693  1.6076  0.6743
 1082SOL    HW214709   0.334   2.793   7.818  2.6365 -1.3289  1.1707
 1083SOL     OW14710   3.912   3.426   5.391  0.7027  0.3934  0.2010
 1083SOL    HW114711   3.820   3.435   5.414  0.7006  0.2770  0.2398
 1083SOL    HW214712   3.905   3.362   5.320  2.7634  0.9338 -0.4919
 1084SOL     OW14713   2.954   2.138   1.372  0.3626  0.0379 -0.1525
 1084SOL    HW114714   2.991   2.188   1.445  0.3897 -0.5354  0.2265
 1084SOL    HW214715   2.949   2.204   1.303 -1.8860 -0.7138 -0.7297
 1085SOL     OW14716   4.072   3.159  10.610 -0.0152  0.6029  0.4759
 1085SOL    HW114717   4.015   3.177  10.685 -0.0043  1.7366  0.1997
 1085SOL    HW214718   4.000   3.154  10.548  0.4928  0.3295 -0.0971
 1086SOL     OW14719   1.699   1.845  16.524 -0.3039  0.3731 -0.8361
 1086SOL    HW114720   1.632   1.803  16.470 -1.5934 -0.9504  1.8085
 1086SOL    HW214721   1.663   1.931  16.544  0.1391  0.4116 -0.1948
 1087SOL     OW14722   3.895   2.395  11.006  0.1434 -0.1007 -0.5203
 1087SOL    HW114723   3.800   2.407  11.004  0.3197  1.4083 -0.0856
 1087SOL    HW214724   3.921   2.474  11.055  0.4491 -1.5761  1.7021
 1088SOL     OW14725   3.628   1.172   2.741  0.4493 -0.0785  0.4908
 1088SOL    HW114726   3.588   1.257   2.721 -1.8158 -1.7865 -2.2004
 1088SOL    HW214727   3.639   1.155   2.648  0.6044 -0.1538  0.5241
 1089SOL     OW14728   4.032   3.258  16.995 -0.3253  0.4185  0.0168
 1089SOL    HW114729   3.945   3.276  17.031  0.0502  0.3517  0.9639
 1089SOL    HW214730   4.043   3.338  16.945  3.0671  0.1105  0.2885
 1090SOL     OW14731   4.075   3.247   5.039 -0.5402 -0.7461  0.0649
 1090SOL    HW114732   4.109   3.335   5.055 -2.1981 -0.0157 -0.4270
 1090SOL    HW214733   4.005   3.246   5.104  0.9856 -1.0903  1.6893
 1091SOL     OW14734   1.908   3.180   1.688  0.1379 -0.0189 -0.3002
 1091SOL    HW114735   1.977   3.152   1.626 -1.7253 -2.3847 -1.2818
 1091SOL    HW214736   1.914   3.275   1.673 -0.2867  0.1258  0.4837
 1092SOL     OW14737   1.546   1.889  14.287 -0.3679  0.3059 -0.0380
 1092SOL    HW114738   1.603   1.820  14.252 -1.3733 -0.3986 -0.2729
 1092SOL    HW214739   1.562   1.894  14.382 -0.4516 -1.5102  0.0774
 1093SOL     OW14740   4.299   0.043   2.582  0.2593  0.0463  0.4213
 1093SOL    HW114741   4.383   0.029   2.623  1.5841 -0.6867 -2.5196
 1093SOL    HW214742   4.246   4.692   2.613  1.4479 -1.2811 -0.6793
 1094SOL     OW14743   3.871   2.198   1.927 -0.1276  0.2533  0.0847
 1094SOL    HW114744   3.827   2.190   2.012  0.1654  0.8355  0.2954
 1094SOL    HW214745   3.920   2.116   1.924  0.5964  0.6548  0.9581
 1095SOL     OW14746   1.831   0.514   0.384 -0.2353  0.2301 -0.1426
 1095SOL    HW114747   1.820   0.573   0.458 -2.1720 -0.1496 -0.1310
 1095SOL    HW214748   1.753   0.458   0.394 -0.0581  0.3126  1.6727
 1096SOL     OW14749   1.345   2.436   9.751 -0.3078  0.8590 -0.1661
 1096SOL    HW114750   1.321   2.384   9.674  0.9096  0.6178 -0.3766
 1096SOL    HW214751   1.419   2.476   9.706 -0.0998 -0.3925 -0.9336
 1097SOL     OW14752   1.690   2.228   9.088 -0.4317 -0.9882 -0.2163
 1097SOL    HW114753   1.637   2.184   9.154 -0.1230 -2.5787 -1.0335
 1097SOL    HW214754   1.629   2.236   9.014  1.7162  0.3265 -1.8399
 1098SOL     OW14755   0.187   3.265   5.806  0.1885 -0.1180 -0.0180
 1098SOL    HW114756   0.193   3.202   5.734  2.8903  0.4687 -0.2772
 1098SOL    HW214757   0.180   3.345   5.753 -2.1383  0.1118  0.6369
 1099SOL     OW14758   3.668   4.203   7.856  0.5026  0.3412 -0.0448
 1099SOL    HW114759   3.717   4.161   7.927  1.6644 -0.3861 -1.2996
 1099SOL    HW214760   3.636   4.282   7.899 -0.7592  0.6072 -1.4845
 1100SOL     OW14761   3.534   3.893   1.750 -0.2797  0.6345  0.3171
 1100SOL    HW114762   3.509   3.860   1.836 -0.0876  2.3937  1.0627
 1100SOL    HW214763   3.518   3.988   1.753  2.0355  1.0391  0.4434
 1101SOL     OW14764   0.517   4.560   6.129  0.1089  0.6894 -0.4997
 1101SOL    HW114765   0.533   4.477   6.174 -0.2863 -0.0357 -1.7035
 1101SOL    HW214766   0.505   4.528   6.040  0.3462 -0.7010 -0.0359
 1102SOL     OW14767   0.974   2.322  12.119  0.5351 -0.0082 -0.2071
 1102SOL    HW114768   0.902   2.297  12.060  1.2214  0.6871 -1.3516
 1102SOL    HW214769   1.049   2.293  12.066  0.9911 -0.4813  0.7064
 1103SOL     OW14770   2.461   2.093   8.556 -0.6710 -0.0009  0.2473
 1103SOL    HW114771   2.404   2.031   8.602  1.1509 -1.5515  0.3744
 1103SOL    HW214772   2.430   2.170   8.605 -0.5088 -0.1518  0.5854
 1104SOL     OW14773   3.690   2.278   3.784 -0.0727  0.9331 -0.0851
 1104SOL    HW114774   3.601   2.282   3.818 -0.4267 -2.1899 -0.6950
 1104SOL    HW214775   3.670   2.272   3.690  1.4786 -1.9906 -0.2230
 1105SOL     OW14776   3.229   2.850   6.170  0.5512 -0.2120  0.4099
 1105SOL    HW114777   3.156   2.834   6.230  1.5338 -1.4130  1.2833
 1105SOL    HW214778   3.231   2.945   6.179  1.4095  0.1877 -3.8082
 1106SOL     OW14779   2.352   0.967  14.901  0.3253 -0.2991 -0.2344
 1106SOL    HW114780   2.286   1.028  14.933  1.4456  0.3900  0.7825
 1106SOL    HW214781   2.411   0.960  14.976  0.5154 -2.8051 -0.6113
 1107SOL     OW14782   1.551   1.860   6.083 -0.2363 -0.1045 -0.3614
 1107SOL    HW114783   1.497   1.806   6.025  0.3343 -2.0656  0.9047
 1107SOL    HW214784   1.526   1.821   6.167 -0.5082  0.9817  0.0540
 1108SOL     OW14785   1.504   1.718   3.925 -0.0944  0.6374 -0.1048
 1108SOL    HW114786   1.421   1.747   3.965 -0.7912 -1.6952  0.1345
 1108SOL    HW214787   1.480   1.678   3.842 -1.4916 -0.2613  0.7384
 1109SOL     OW14788   4.568   2.272   3.841 -0.4324  0.2987 -0.4342
 1109SOL    HW114789   4.508   2.270   3.766 -0.5931 -4.7004 -0.1467
 1109SOL    HW214790   4.505   2.276   3.913 -0.3542  2.4745 -0.4668
 1110SOL     OW14791   3.953   1.559  11.422 -0.2078  0.0583 -0.2106
 1110SOL    HW114792   3.906   1.478  11.400 -0.0181  0.3179 -1.5810
 1110SOL    HW214793   3.897   1.616  11.370 -0.0504  1.2826  0.9759
 1111SOL     OW14794   2.668   2.272   8.024 -0.1597 -0.1074  0.2321
 1111SOL    HW114795   2.687   2.179   8.028 -1.2373 -0.3014  0.8701
 1111SOL    HW214796   2.595   2.270   7.963 -0.2243 -0.5818  0.3310
 1112SOL     OW14797   3.631   0.022  13.391  0.3134  0.2869 -0.0637
 1112SOL    HW114798   3.555   0.081  13.393 -0.1593 -0.3246 -0.0756
 1112SOL    HW214799   3.587   4.672  13.435 -1.3260  1.1782 -0.2131
 1113SOL     OW14800   1.352   0.556   5.600 -0.3069 -0.5567  0.6548
 1113SOL    HW114801   1.412   0.544   5.674  0.3248  1.4802  0.4652
 1113SOL    HW214802   1.416   0.589   5.537 -3.8668 -0.4166 -2.8606
 1114SOL     OW14803   1.459   2.454  17.528 -0.8519  0.3139  0.4290
 1114SOL    HW114804   1.473   2.480  17.619  0.8762 -0.1487  0.2879
 1114SOL    HW214805   1.368   2.424  17.524 -0.7439  0.0080  0.2435
 1115SOL     OW14806   0.873   2.142   8.039 -0.5008 -0.1049  0.1084
 1115SOL    HW114807   0.819   2.119   8.115  1.7198 -0.3653  1.5963
 1115SOL    HW214808   0.951   2.174   8.084 -0.7666  0.9425 -0.1580
 1116SOL     OW14809   2.392   2.934   2.706 -0.1825  1.0075  0.0258
 1116SOL    HW114810   2.470   2.938   2.651 -0.6317  0.0748 -0.6753
 1116SOL    HW214811   2.360   2.845   2.689  1.4573  0.7741 -1.7313
 1117SOL     OW14812   2.458   1.721   2.515 -0.0259 -0.4592 -0.2883
 1117SOL    HW114813   2.455   1.650   2.579  1.2797  0.0880  0.3801
 1117SOL    HW214814   2.544   1.696   2.481 -0.5702 -0.0384 -1.9602
 1118SOL     OW14815   3.800   4.050  11.956  0.5391 -0.2164 -0.1161
 1118SOL    HW114816   3.840   4.064  12.042 -0.0580 -0.4071  0.1889
 1118SOL    HW214817   3.851   3.974  11.927  0.0140 -0.8067  0.4969
 1119SOL     OW14818   1.212   1.024   0.364  0.1464 -0.2467 -0.6395
 1119SOL    HW114819   1.130   1.056   0.325  0.8174  1.2745 -0.8048
 1119SOL    HW214820   1.286   1.059   0.315  0.4080  1.4478  0.9464
 1120SOL     OW14821   1.318   1.409   7.381 -0.0558  0.4664 -0.3399
 1120SOL    HW114822   1.275   1.494   7.389 -0.8108 -0.0375  0.8387
 1120SOL    HW214823   1.258   1.353   7.431 -0.9453 -0.2624 -2.1996
 1121SOL     OW14824   3.443   4.669   2.871 -0.2963 -0.0230  0.0663
 1121SOL    HW114825   3.521   4.718   2.894 -0.6697  0.7677 -0.3420
 1121SOL    HW214826   3.391   4.700   2.945 -1.5029 -2.1000  0.0968
 1122SOL     OW14827   4.351   2.696   5.609 -0.7797 -0.4894  0.0308
 1122SOL    HW114828   4.410   2.698   5.534  0.5749 -0.7337  1.0953
 1122SOL    HW214829   4.355   2.607   5.644 -0.5580  0.0518  1.3741
 1123SOL     OW14830   4.678   2.913  10.928 -0.2507  0.0176 -0.5070
 1123SOL    HW114831   4.625   2.889  10.853 -1.1269 -0.0083  0.1217
 1123SOL    HW214832   4.615   2.899  10.998 -0.2278 -0.3512 -0.5620
 1124SOL     OW14833   3.424   3.978   6.236  0.1985  0.2655  0.0605
 1124SOL    HW114834   3.490   3.937   6.292  0.6965 -0.4929 -1.0774
 1124SOL    HW214835   3.348   3.922   6.255 -0.0372  0.5596 -0.0047
 1125SOL     OW14836   0.994   1.499  10.679 -0.5635 -0.4904  0.0008
 1125SOL    HW114837   1.015   1.406  10.684  0.0732 -0.4343 -1.4614
 1125SOL    HW214838   1.015   1.523  10.769  0.3672  3.3872 -1.2153
 1126SOL     OW14839   2.289   2.989   6.855  0.1480 -0.2878 -0.1116
 1126SOL    HW114840   2.258   2.974   6.766 -1.5355 -1.7030  0.7157
 1126SOL    HW214841   2.342   3.069   6.847 -0.0653 -0.0194  1.1244
 1127SOL     OW14842   0.610   0.576  13.177  0.3152 -0.6813 -0.6760
 1127SOL    HW114843   0.531   0.581  13.124  0.5000  0.5837 -0.8391
 1127SOL    HW214844   0.667   0.577  13.100  0.1203 -2.8496 -0.8268
 1128SOL     OW14845   1.049   3.348  15.047 -0.6918  1.0513  0.2358
 1128SOL    HW114846   1.098   3.386  15.121 -1.8159 -1.1430  2.1036
 1128SOL    HW214847   0.989   3.422  15.037 -0.4253  1.3113  0.5172
 1129SOL     OW14848   3.590   4.714   6.480  0.1642  0.6173  0.2855
 1129SOL    HW114849   3.510   4.696   6.430 -0.3626  1.1589  0.9336
 1129SOL    HW214850   3.576   0.059   6.546 -0.1478  0.9322 -0.0977
 1130SOL     OW14851   2.989   3.315   9.521  0.3409 -0.3218 -0.5519
 1130SOL    HW114852   3.029   3.242   9.568  1.5856  1.1465  0.6677
 1130SOL    HW214853   3.024   3.391   9.568  0.4578 -0.6079 -0.1799
 1131SOL     OW14854   1.610   3.927   5.549 -0.3497  0.0535  0.5364
 1131SOL    HW114855   1.630   3.835   5.567 -2.6947 -0.7544 -0.9385
 1131SOL    HW214856   1.674   3.964   5.488 -0.3094  0.0072  0.5508
 1132SOL     OW14857   0.878   4.151   4.087 -0.4496  0.5333 -0.0151
 1132SOL    HW114858   0.809   4.129   4.024  0.5723 -0.7926 -0.6575
 1132SOL    HW214859   0.825   4.145   4.167 -0.3975 -0.7462 -0.0770
 1133SOL     OW14860   1.116   4.007   4.284  0.5935  0.2637 -0.6249
 1133SOL    HW114861   1.023   4.021   4.268  0.2850 -0.4723  0.5453
 1133SOL    HW214862   1.151   3.997   4.195 -1.7333 -1.0107 -1.3822
 1134SOL     OW14863   1.461   2.799  16.047  0.2275  0.1776  0.2756
 1134SOL    HW114864   1.418   2.883  16.064  0.1600  0.3198 -0.6120
 1134SOL    HW214865   1.445   2.772  15.957  1.2286 -1.8779  0.7212
 1135SOL     OW14866   3.015   4.059   6.371 -0.0556  0.0868  0.2834
 1135SOL    HW114867   3.043   4.146   6.401 -1.0865  0.4711  0.1279
 1135SOL    HW214868   3.034   4.007   6.449 -0.8109  0.4215  0.6920
 1136SOL     OW14869   0.988   2.603   6.292  0.6400 -0.1158 -0.1322
 1136SOL    HW114870   0.904   2.648   6.289  0.2174 -1.1335 -3.0995
 1136SOL    HW214871   1.031   2.646   6.366 -1.7604  1.9830  0.0470
 1137SOL     OW14872   0.685   3.962   5.134  0.0135  0.3397  0.2215
 1137SOL    HW114873   0.596   3.991   5.116  0.2696  1.2825  0.4738
 1137SOL    HW214874   0.707   3.921   5.050 -1.2388  0.0521  0.0390
 1138SOL     OW14875   4.584   3.334   4.066  0.4931  0.5413 -0.4303
 1138SOL    HW114876   4.643   3.408   4.047  1.7398 -0.8328 -1.9212
 1138SOL    HW214877   4.644   3.291   4.127 -1.8169 -0.5629  1.0280
 1139SOL     OW14878   0.195   4.468   1.823  0.6422 -0.2950  0.1834
 1139SOL    HW114879   0.199   4.379   1.859  1.0775 -1.0205 -1.6432
 1139SOL    HW214880   0.279   4.478   1.777 -0.1284 -1.4425 -1.4626
 1140SOL     OW14881   3.848   2.486  13.214 -0.3592  0.4928  0.4039
 1140SOL    HW114882   3.812   2.403  13.247  1.1405 -0.3233 -0.0112
 1140SOL    HW214883   3.767   2.517  13.174 -0.1403  1.7610  0.9462
 1141SOL     OW14884   2.057   3.716   8.665 -0.0428 -0.3667  0.4790
 1141SOL    HW114885   2.008   3.791   8.633 -1.1138 -1.7901 -1.2420
 1141SOL    HW214886   2.013   3.698   8.748 -0.4243 -0.6048  0.2237
 1142SOL     OW14887   3.298   3.198  10.839 -0.1255 -0.2521 -0.0036
 1142SOL    HW114888   3.330   3.116  10.877 -0.3878  0.1410  1.0703
 1142SOL    HW214889   3.214   3.200  10.885  1.8280  2.0287  3.4905
 1143SOL     OW14890   3.155   4.102  10.242  0.3507 -0.2345  0.6438
 1143SOL    HW114891   3.088   4.140  10.298  0.9520 -1.3945  2.1566
 1143SOL    HW214892   3.213   4.178  10.236 -0.8309  0.5759 -0.4495
 1144SOL     OW14893   3.723   3.798   7.784  0.2060 -0.1216  0.3033
 1144SOL    HW114894   3.688   3.709   7.783 -1.1392  0.4533 -2.6631
 1144SOL    HW214895   3.674   3.829   7.860 -0.1690  0.0098  0.0102
 1145SOL     OW14896   2.433   0.812  13.409 -0.0160 -0.3906 -0.1796
 1145SOL    HW114897   2.401   0.836  13.321  0.4036  1.3121  0.1394
 1145SOL    HW214898   2.424   0.895  13.456  1.8245  0.2272 -0.9078
 1146SOL     OW14899   1.685   0.917  15.655 -0.4371  0.1258 -0.0075
 1146SOL    HW114900   1.620   0.884  15.593  0.9254 -0.4658 -1.1150
 1146SOL    HW214901   1.732   0.974  15.594 -0.9884 -0.2695 -0.8064
 1147SOL     OW14902   3.564   0.173   5.744  0.3089 -0.1876 -0.0250
 1147SOL    HW114903   3.589   0.246   5.802 -1.4703 -1.5807  2.5021
 1147SOL    HW214904   3.477   0.210   5.731  0.3947  0.5815  1.5176
 1148SOL     OW14905   2.265   3.104  16.643 -0.2433  0.0284  0.4320
 1148SOL    HW114906   2.230   3.192  16.627  1.9348  0.5468 -1.4373
 1148SOL    HW214907   2.212   3.066  16.573 -1.5701  3.0314 -0.1960
 1149SOL     OW14908   2.835   4.714   8.858  0.2572  0.4599  0.0098
 1149SOL    HW114909   2.891   0.051   8.808 -0.5568  0.5754 -0.7568
 1149SOL    HW214910   2.895   4.640   8.849 -1.5610 -1.0026  0.1069
 1150SOL     OW14911   4.532   1.078  14.551 -0.4268  0.6160 -0.6172
 1150SOL    HW114912   4.451   1.123  14.529 -0.0829  1.3744 -0.3208
 1150SOL    HW214913   4.575   1.082  14.466  0.3538  1.3788 -0.1789
 1151SOL     OW14914   4.013   3.913  16.287 -0.5243  0.6385 -0.0948
 1151SOL    HW114915   4.075   3.931  16.216 -0.2304  3.0263  0.7799
 1151SOL    HW214916   4.012   3.817  16.293 -1.9959  0.6607 -0.1488
 1152SOL     OW14917   3.935   1.203   2.497  0.1766 -0.2803 -0.2527
 1152SOL    HW114918   3.954   1.236   2.409  1.9354  0.9339  0.5775
 1152SOL    HW214919   3.912   1.277   2.553  1.0873 -0.7941  0.8045
 1153SOL     OW14920   4.046   0.293  14.161  0.0504 -0.1657  0.0218
 1153SOL    HW114921   3.962   0.274  14.119 -0.6069 -1.9860  2.1304
 1153SOL    HW214922   4.017   0.355  14.227 -3.2064 -1.6529  0.0072
 1154SOL     OW14923   2.756   0.052   7.180  0.0102  0.1513 -0.3697
 1154SOL    HW114924   2.673   0.078   7.221  0.4150  0.6182  0.1578
 1154SOL    HW214925   2.821   0.052   7.250 -0.9928  0.4164  0.5678
 1155SOL     OW14926   3.123   3.892   6.575  0.6215 -0.6841 -0.4708
 1155SOL    HW114927   3.051   3.861   6.630  1.0860 -0.8137  0.0556
 1155SOL    HW214928   3.201   3.876   6.627 -0.0757 -0.9278  0.4953
 1156SOL     OW14929   0.150   0.498   5.833  0.0340 -0.1590 -0.0091
 1156SOL    HW114930   0.118   0.410   5.814 -0.1596 -0.2623  0.7725
 1156SOL    HW214931   0.155   0.535   5.745  1.3324 -0.9850 -0.2746
 1157SOL     OW14932   1.491   4.720   5.254 -0.1554 -0.0678 -0.4184
 1157SOL    HW114933   1.417   4.661   5.270 -1.6683  1.7651 -0.6804
 1157SOL    HW214934   1.492   4.715   5.158 -0.9285  0.6326 -0.4634
 1158SOL     OW14935   4.119   3.599  13.879 -0.1069 -0.1377  0.1642
 1158SOL    HW114936   4.092   3.509  13.895  0.4701 -0.8111 -2.6792
 1158SOL    HW214937   4.081   3.611  13.792  0.1052  1.1711  0.2498
 1159SOL     OW14938   2.438   3.543   5.897  0.6614  0.0098  0.3034
 1159SOL    HW114939   2.348   3.523   5.871  0.8825  0.5806 -0.9001
 1159SOL    HW214940   2.484   3.557   5.815 -0.3265  0.0420 -0.2536
 1160SOL     OW14941   0.740   4.063   2.122  0.4027  0.0340  0.1356
 1160SOL    HW114942   0.657   4.110   2.127 -0.4462 -1.3782 -0.7900
 1160SOL    HW214943   0.787   4.107   2.051 -0.3898  1.0011  0.2108
 1161SOL     OW14944   2.599   1.719   3.836 -0.7979  0.2674  0.3351
 1161SOL    HW114945   2.679   1.676   3.806  0.3183  0.9444  2.3192
 1161SOL    HW214946   2.553   1.641   3.865 -0.2710 -0.0009  0.4496
 1162SOL     OW14947   3.349   3.953   0.115  0.3303 -0.0721  0.2251
 1162SOL    HW114948   3.416   3.987   0.174 -0.9125  2.4158  0.2269
 1162SOL    HW214949   3.269   3.941   0.168  0.0191  1.4059  0.0997
 1163SOL     OW14950   0.296   4.294   7.551 -0.1238  0.4097  0.6383
 1163SOL    HW114951   0.347   4.255   7.622 -2.1405  0.8987  2.3734
 1163SOL    HW214952   0.337   4.251   7.476  2.2091 -2.3432  3.5086
 1164SOL     OW14953   3.599   3.418   0.972 -0.0800 -0.2302 -0.4431
 1164SOL    HW114954   3.538   3.492   0.975 -0.6332 -0.7090  0.3195
 1164SOL    HW214955   3.678   3.471   0.971 -0.6918  0.6801 -0.6644
 1165SOL     OW14956   2.353   1.953   7.027  0.0625 -0.5248  0.4251
 1165SOL    HW114957   2.300   1.876   7.007  0.5952 -0.8559  0.3007
 1165SOL    HW214958   2.327   2.009   6.954  2.3091  2.2294  1.7512
 1166SOL     OW14959   3.812   0.968   3.617  0.0648 -0.3122  0.5045
 1166SOL    HW114960   3.870   0.950   3.692  0.9438  0.0213 -0.0927
 1166SOL    HW214961   3.729   0.941   3.656  0.4843 -0.5864  1.2178
 1167SOL     OW14962   1.841   1.053   8.919  0.2285 -0.4827 -0.3129
 1167SOL    HW114963   1.868   1.138   8.954  1.1933  0.5105 -3.4518
 1167SOL    HW214964   1.748   1.050   8.940  0.0184 -1.8073 -1.4162
 1168SOL     OW14965   1.758   3.620   6.175  0.2565 -0.2409 -0.1079
 1168SOL    HW114966   1.673   3.624   6.218  0.7239  0.8708  0.7397
 1168SOL    HW214967   1.821   3.652   6.241 -0.8769 -0.0084  0.8631
 1169SOL     OW14968   4.171   0.410   4.240 -0.2440  0.0505  0.3618
 1169SOL    HW114969   4.129   0.481   4.191  1.1791  1.5404  1.2764
 1169SOL    HW214970   4.254   0.450   4.266 -0.5138  0.2418  0.9242
 1170SOL     OW14971   3.785   2.143   1.075 -0.4974 -0.5055  0.6738
 1170SOL    HW114972   3.814   2.231   1.099  1.0251 -1.5367  2.5943
 1170SOL    HW214973   3.695   2.158   1.103 -0.2290  3.5432 -0.6645
 1171SOL     OW14974   4.712   2.892  15.742 -0.4002  0.3269  0.1927
 1171SOL    HW114975   0.035   2.973  15.721  0.2266  0.2401  1.2476
 1171SOL    HW214976   4.645   2.912  15.807 -0.2693 -2.0572  1.0669
 1172SOL     OW14977   3.216   2.748   8.729 -0.0517 -0.1155 -0.3318
 1172SOL    HW114978   3.236   2.830   8.775 -0.3831  0.1553 -0.6802
 1172SOL    HW214979   3.286   2.684   8.741 -0.8886 -0.9881 -0.1160
 1173SOL     OW14980   3.250   4.186   8.384  0.3624 -0.2366  0.0748
 1173SOL    HW114981   3.214   4.106   8.422  1.1703 -0.1138  1.0997
 1173SOL    HW214982   3.314   4.211   8.451 -0.1773  1.1669  0.0735
 1174SOL     OW14983   2.435   4.684  15.721  0.4716  0.1829 -0.4272
 1174SOL    HW114984   2.463   4.649  15.636  1.9680 -0.9011  0.5219
 1174SOL    HW214985   2.344   4.655  15.718  0.1642  1.2082 -1.3010
 1175SOL     OW14986   2.468   3.069   3.550 -0.2579  0.0513  0.0583
 1175SOL    HW114987   2.432   2.998   3.602 -0.3865  1.6829  2.1948
 1175SOL    HW214988   2.560   3.069   3.578 -0.4948  0.3220  0.8230
 1176SOL     OW14989   3.213   3.077   0.186 -0.4651 -0.3997  0.1667
 1176SOL    HW114990   3.248   3.019   0.254  1.0800 -0.8153 -0.9959
 1176SOL    HW214991   3.154   3.017   0.140 -2.2377  1.5922 -0.1145
 1177SOL     OW14992   3.752   3.156   0.605 -0.2847 -0.6197 -0.7124
 1177SOL    HW114993   3.684   3.156   0.672  1.4311 -0.3424  1.0241
 1177SOL    HW214994   3.791   3.243   0.611  0.5352 -1.0656  0.2492
 1178SOL     OW14995   3.267   1.035   2.253 -0.3807 -0.5463  0.5892
 1178SOL    HW114996   3.292   0.958   2.201  3.1857  1.2091 -0.2698
 1178SOL    HW214997   3.330   1.102   2.228 -0.5634 -0.3507  0.6560
 1179SOL     OW14998   3.596   0.819   9.133 -0.1871  0.1870  0.2274
 1179SOL    HW114999   3.577   0.908   9.162  3.0871  0.7743  0.5661
 1179SOL    HW215000   3.516   0.778   9.165 -0.5845  0.9273  0.1819
 1180SOL     OW15001   4.267   0.165   1.828 -0.0988 -0.0623 -0.0620
 1180SOL    HW115002   4.330   0.233   1.804  0.2327  0.6974  2.9584
 1180SOL    HW215003   4.333   0.099   1.846 -1.5357 -1.6074 -0.4957
 1181SOL     OW15004   2.629   1.177   6.517  0.7205  0.4784 -0.0142
 1181SOL    HW115005   2.596   1.122   6.446  1.2024  0.4903 -0.2467
 1181SOL    HW215006   2.550   1.208   6.562 -0.6260 -2.3313 -0.4179
 1182SOL     OW15007   0.629   1.567   9.250 -0.4205 -0.1607 -0.2943
 1182SOL    HW115008   0.539   1.594   9.234 -0.9929 -1.2729  1.0555
 1182SOL    HW215009   0.661   1.642   9.301  2.5234 -1.0810 -0.7915
 1183SOL     OW15010   1.977   4.237  12.480 -0.0256  0.7206 -0.1381
 1183SOL    HW115011   1.894   4.283  12.470  1.3912  3.0301 -1.2580
 1183SOL    HW215012   2.018   4.285  12.552 -2.1646  1.3757  0.6268
 1184SOL     OW15013   1.631   1.471  10.711 -0.6748 -0.6793  0.1191
 1184SOL    HW115014   1.584   1.391  10.736  3.1836 -3.0698 -0.2716
 1184SOL    HW215015   1.720   1.442  10.729 -0.3287  1.2042  1.4436
 1185SOL     OW15016   2.055   1.063   6.794  0.3684 -0.1818 -0.0053
 1185SOL    HW115017   2.042   1.125   6.722 -0.8514  0.3534  0.6645
 1185SOL    HW215018   2.012   0.985   6.758  0.8187 -0.5137  0.1764
 1186SOL     OW15019   2.887   2.200  16.206  0.2906  0.2423 -0.1947
 1186SOL    HW115020   2.853   2.110  16.204 -0.6165  0.5507  1.2990
 1186SOL    HW215021   2.825   2.234  16.142 -1.2931 -0.3551  1.0158
 1187SOL     OW15022   3.508   0.745   2.330 -0.4177 -0.4616 -0.2379
 1187SOL    HW115023   3.562   0.670   2.306 -0.6044 -1.0991  1.3647
 1187SOL    HW215024   3.438   0.745   2.266  0.1385 -3.0682 -0.8477
 1188SOL     OW15025   4.549   2.154   9.648 -0.3625 -0.5039 -0.5520
 1188SOL    HW115026   4.570   2.061   9.663 -1.9959 -0.6905  0.5734
 1188SOL    HW215027   4.610   2.176   9.578  1.8762 -1.6347  1.0468
 1189SOL     OW15028   1.047   4.359   6.360  0.3977 -0.7117 -0.2502
 1189SOL    HW115029   1.035   4.397   6.273 -0.2570 -2.1300 -0.7791
 1189SOL    HW215030   1.065   4.267   6.339  0.5214 -1.0229  1.2419
 1190SOL     OW15031   3.235   1.727   5.252 -0.1872 -0.4305 -0.4314
 1190SOL    HW115032   3.204   1.765   5.171 -0.5162  0.3954  0.0865
 1190SOL    HW215033   3.309   1.781   5.281  0.4497 -0.6058 -1.7205
 1191SOL     OW15034   0.866   3.335  14.652  0.0849 -0.2794 -0.6566
 1191SOL    HW115035   0.931   3.284  14.702  0.6480  0.6476 -0.4532
 1191SOL    HW215036   0.841   3.394  14.723 -1.2815 -1.9393  0.2714
 1192SOL     OW15037   1.068   1.731  15.492  0.3320 -0.7366 -0.4142
 1192SOL    HW115038   1.143   1.789  15.481 -0.6205  0.1824 -2.2199
 1192SOL    HW215039   1.012   1.774  15.556  0.4525  1.6081 -1.8821
 1193SOL     OW15040   1.637   2.986  13.243 -0.8923 -0.7410 -0.1954
 1193SOL    HW115041   1.653   2.926  13.170 -0.1364 -0.9494  0.1409
 1193SOL    HW215042   1.719   3.035  13.240 -1.4467  0.3681  2.2539
 1194SOL     OW15043   0.933   3.807   3.543 -0.2373 -0.4679  0.0891
 1194SOL    HW115044   0.957   3.813   3.635  0.1605  2.7303 -0.2179
 1194SOL    HW215045   0.844   3.773   3.551 -0.0217 -0.9335  0.4835
 1195SOL     OW15046   1.575   1.831   5.760 -0.2018 -0.1429  0.1254
 1195SOL    HW115047   1.664   1.819   5.791  0.1649  0.6342 -0.6095
 1195SOL    HW215048   1.540   1.744   5.777  3.4337 -1.3819  1.1624
 1196SOL     OW15049   3.470   0.126  12.902  0.4128 -0.4758 -0.3247
 1196SOL    HW115050   3.561   0.146  12.878 -0.4569  0.4910 -2.7771
 1196SOL    HW215051   3.412   0.173  12.843 -2.1133 -2.9432  0.2208
 1197SOL     OW15052   1.354   1.514   4.809 -0.0826  0.6125  0.1757
 1197SOL    HW115053   1.381   1.582   4.748  1.3489 -1.3966 -1.4415
 1197SOL    HW215054   1.262   1.539   4.817  0.1502  2.1286 -1.8811
 1198SOL     OW15055   1.136   0.584   4.076 -0.1354 -0.0195  0.0266
 1198SOL    HW115056   1.185   0.587   3.994  0.4187  2.0013  0.4475
 1198SOL    HW215057   1.049   0.578   4.037  0.1122 -0.3595 -0.4836
 1199SOL     OW15058   0.420   2.706   4.345 -0.5016 -0.0173 -0.0074
 1199SOL    HW115059   0.418   2.761   4.267  0.3335 -0.4469 -0.3311
 1199SOL    HW215060   0.456   2.623   4.312 -0.1606  1.0335 -2.2651
 1200SOL     OW15061   2.177   3.018  16.359 -0.0107 -0.0796 -0.5323
 1200SOL    HW115062   2.111   3.029  16.290 -0.6230 -1.8084 -0.2298
 1200SOL    HW215063   2.223   3.101  16.346 -1.1161  0.9420  2.0339
 1201SOL     OW15064   4.621   1.896   1.738 -0.4920  0.5523  0.3348
 1201SOL    HW115065   4.634   1.847   1.819  0.4217  1.6023  0.8196
 1201SOL    HW215066   4.696   1.955   1.730 -0.6452  0.6227 -0.5897
 1202SOL     OW15067   0.261   4.472  10.773 -0.1983  0.3632  0.2232
 1202SOL    HW115068   0.288   4.537  10.709  0.3106  1.9322  2.0562
 1202SOL    HW215069   0.184   4.517  10.807 -0.4100  0.1689  0.0099
 1203SOL     OW15070   2.213   2.313   2.292 -0.2735  0.4167 -0.5364
 1203SOL    HW115071   2.283   2.277   2.237 -2.2251 -2.3009 -1.2667
 1203SOL    HW215072   2.134   2.313   2.238 -1.0270 -0.9075  0.5503
 1204SOL     OW15073   4.555   1.459   5.078  0.6928  0.3135  0.6260
 1204SOL    HW115074   4.536   1.386   5.136  2.3053 -0.8962 -0.3844
 1204SOL    HW215075   4.624   1.505   5.126  0.1523  2.5915 -0.7428
 1205SOL     OW15076   1.786   1.359   4.887 -0.4090 -0.1705  0.1566
 1205SOL    HW115077   1.864   1.398   4.925 -1.4540  2.3615 -0.2630
 1205SOL    HW215078   1.794   1.372   4.792 -0.7949  0.1439  0.1666
 1206SOL     OW15079   4.391   4.330   5.461 -0.5219 -0.0082  0.2103
 1206SOL    HW115080   4.343   4.326   5.378  0.9988 -1.4922 -0.6139
 1206SOL    HW215081   4.480   4.352   5.434 -0.1749 -3.2335 -1.4120
 1207SOL     OW15082   3.465   0.546   9.316 -0.1853  0.1787 -0.1842
 1207SOL    HW115083   3.536   0.549   9.381  0.8097 -1.1273 -1.2081
 1207SOL    HW215084   3.403   0.609   9.352  1.0275  1.2387  0.0632
 1208SOL     OW15085   1.184   0.420  11.048  0.1531  0.2414  0.1867
 1208SOL    HW115086   1.132   0.352  11.090 -0.7506  0.5984 -0.3463
 1208SOL    HW215087   1.121   0.465  10.992  1.3790 -0.2722 -1.6092
 1209SOL     OW15088   0.014   3.728   3.513  0.4710  0.5395  0.0495
 1209SOL    HW115089   0.017   3.633   3.497 -0.4229  0.9374 -2.4328
 1209SOL    HW215090   0.095   3.733   3.564  0.0358  0.4686  0.7397
 1210SOL     OW15091   3.823   1.263  10.181  0.2078  0.4305 -0.3073
 1210SOL    HW115092   3.908   1.246  10.140 -0.4873 -1.7700 -0.8072
 1210SOL    HW215093   3.851   1.316  10.256 -2.9360 -0.9336  1.8401
 1211SOL     OW15094   1.094   1.819   1.724  0.1341  0.1676  0.1870
 1211SOL    HW115095   1.105   1.806   1.629  0.2368  1.3251  0.0445
 1211SOL    HW215096   1.001   1.842   1.720 -0.1499 -1.0818 -0.2756
 1212SOL     OW15097   3.240   4.475   4.800 -0.1938  0.4213  0.7901
 1212SOL    HW115098   3.331   4.467   4.772 -0.5923  1.7572 -0.8838
 1212SOL    HW215099   3.258   4.528   4.878 -0.9996  2.4056 -0.3750
 1213SOL     OW15100   1.099   0.618  12.702 -0.6927 -0.1210 -0.2383
 1213SOL    HW115101   1.007   0.600  12.684 -0.9159  0.8572 -0.0836
 1213SOL    HW215102   1.149   0.560  12.644  2.1764  2.2588 -0.1943
 1214SOL     OW15103   3.553   3.199   0.829  0.4073  0.1442 -0.2226
 1214SOL    HW115104   3.574   3.272   0.888 -0.3441 -0.1126  0.3770
 1214SOL    HW215105   3.458   3.184   0.828  0.2911  0.9816 -1.2163
 1215SOL     OW15106   3.425   0.271  10.092  0.3131  0.4224 -0.4940
 1215SOL    HW115107   3.375   0.337  10.141  0.3395  0.8860 -1.0847
 1215SOL    HW215108   3.395   0.191  10.133 -2.1921  1.8442  0.4450
 1216SOL     OW15109   0.967   1.120   5.109  0.6402  0.4829  0.2496
 1216SOL    HW115110   0.912   1.146   5.183  1.4868  1.5822  0.4782
 1216SOL    HW215111   1.051   1.165   5.114  1.4764 -1.0675  0.3417
 1217SOL     OW15112   2.215   0.147   6.762  1.0642 -0.6478  0.1565
 1217SOL    HW115113   2.173   0.198   6.832 -1.0273 -0.8683 -0.9370
 1217SOL    HW215114   2.309   0.161   6.776  1.3087 -0.7966 -1.3819
 1218SOL     OW15115   0.005   2.681   5.458  0.2779 -0.3504  0.6651
 1218SOL    HW115116   0.090   2.638   5.448  1.1430  1.2563  1.0431
 1218SOL    HW215117   0.022   2.738   5.533  2.4513 -0.6319  0.3780
 1219SOL     OW15118   2.042   2.156   4.892  0.1293  0.1143  0.1896
 1219SOL    HW115119   2.037   2.155   4.987  1.4966 -0.5978  0.2552
 1219SOL    HW215120   2.128   2.118   4.875  0.5323  0.6276  1.1334
 1220SOL     OW15121   0.492   1.431   5.638 -0.1165  0.0409  0.6616
 1220SOL    HW115122   0.587   1.446   5.633 -0.4162  2.1100  1.4550
 1220SOL    HW215123   0.494   1.338   5.662 -0.3236 -0.9931 -3.2542
 1221SOL     OW15124   2.451   0.517   6.105  0.3599  0.4457  0.4987
 1221SOL    HW115125   2.395   0.594   6.112  0.7575  0.4799  3.7382
 1221SOL    HW215126   2.508   0.542   6.178 -1.6967 -1.3245  2.7064
 1222SOL     OW15127   2.476   3.261   1.200  0.8583  0.0988  0.3706
 1222SOL    HW115128   2.446   3.172   1.183  1.0643  0.1687 -0.3528
 1222SOL    HW215129   2.510   3.285   1.114  0.4973 -2.2850 -0.4158
 1223SOL     OW15130   4.174   3.881   2.903 -0.0460 -0.0818  0.6302
 1223SOL    HW115131   4.082   3.902   2.888 -0.1258 -0.3460  0.7459
 1223SOL    HW215132   4.212   3.968   2.905 -0.4596  0.1044  0.4447
 1224SOL     OW15133   1.254   0.386  16.475  0.5307 -0.1001 -0.2664
 1224SOL    HW115134   1.236   0.480  16.472  0.2869 -0.1711 -0.9998
 1224SOL    HW215135   1.163   0.355  16.472  0.6772 -0.4055 -1.2646
 1225SOL     OW15136   1.348   0.181  16.676 -0.4518 -0.1840 -0.0332
 1225SOL    HW115137   1.443   0.178  16.684 -0.4032 -1.5904 -1.1335
 1225SOL    HW215138   1.323   0.247  16.612  1.9612  1.9628  1.2585
 1226SOL     OW15139   0.634   2.574  15.223  0.1990  0.2330  0.5513
 1226SOL    HW115140   0.611   2.663  15.249 -0.6300  0.4538 -0.9820
 1226SOL    HW215141   0.667   2.550  15.310 -1.3948  0.7544  1.2947
 1227SOL     OW15142   2.699   0.536   6.505 -0.5816  0.0883 -0.0397
 1227SOL    HW115143   2.704   0.471   6.575 -0.2813 -1.0467 -1.1089
 1227SOL    HW215144   2.773   0.588   6.537 -0.8876  0.1453  0.5681
 1228SOL     OW15145   0.056   2.839   5.679  0.3046 -0.1936 -0.6001
 1228SOL    HW115146   0.110   2.789   5.740  0.2856 -0.5363 -0.8659
 1228SOL    HW215147   4.707   2.862   5.738 -1.8237 -1.6681 -2.5855
 1229SOL     OW15148   1.226   1.211   8.800 -0.2603 -1.0434  0.0480
 1229SOL    HW115149   1.266   1.292   8.830 -0.4413  0.0700 -2.6685
 1229SOL    HW215150   1.261   1.150   8.864 -1.8388 -0.9626  0.9889
 1230SOL     OW15151   2.805   4.575   9.386  0.0973  0.1151  0.1778
 1230SOL    HW115152   2.820   4.655   9.335  0.7470 -0.3667 -0.3824
 1230SOL    HW215153   2.777   4.609   9.471 -4.1741  0.5806 -1.3957
 1231SOL     OW15154   0.101   1.096   2.745 -0.4871 -0.3502 -0.2087
 1231SOL    HW115155   0.082   1.106   2.838  2.3970 -1.0946  0.4828
 1231SOL    HW215156   0.035   1.032   2.721  0.4003 -0.6074 -1.9717
 1232SOL     OW15157   1.310   3.322   1.701  0.1264  0.8820  0.2101
 1232SOL    HW115158   1.400   3.316   1.669 -0.3439 -0.3949 -0.8746
 1232SOL    HW215159   1.272   3.328   1.613 -1.7503  0.3871  0.9849
 1233SOL     OW15160   1.776   1.435   1.506 -0.1579  0.3335 -0.6223
 1233SOL    HW115161   1.762   1.511   1.449 -2.8785 -0.6475 -1.2986
 1233SOL    HW215162   1.692   1.428   1.551  0.3158  0.9064  0.3335
 1234SOL     OW15163   1.500   3.685   8.242 -0.1256  0.5531 -0.0089
 1234SOL    HW115164   1.410   3.706   8.266  0.3069 -0.2639  2.4077
 1234SOL    HW215165   1.523   3.745   8.171 -0.8124  0.8811  0.0477
 1235SOL     OW15166   0.877   4.555   8.196  0.3970  0.4445  0.0640
 1235SOL    HW115167   0.805   4.608   8.229  1.3700  0.9729  1.3616
 1235SOL    HW215168   0.942   4.621   8.172  2.6830 -2.0504 -0.7428
 1236SOL     OW15169   3.097   4.430   8.421  0.3264  0.3406 -0.0846
 1236SOL    HW115170   3.147   4.352   8.395  0.5689 -0.1904  1.9720
 1236SOL    HW215171   3.145   4.473   8.493 -0.5132 -0.4096  0.9158
 1237SOL     OW15172   2.389   4.337  13.094  0.4592  0.8123 -0.9860
 1237SOL    HW115173   2.332   4.413  13.101 -0.1456  0.1329  1.2161
 1237SOL    HW215174   2.463   4.359  13.149  1.7104  1.6209 -2.9757
 1238SOL     OW15175   2.879   4.109  11.045 -0.5384  0.7389 -0.0285
 1238SOL    HW115176   2.832   4.098  11.127 -0.0284  0.5409  0.2408
 1238SOL    HW215177   2.844   4.045  10.984  1.3839  0.9779 -1.4037
 1239SOL     OW15178   2.687   4.584   0.237  0.1956 -0.3522 -1.1405
 1239SOL    HW115179   2.674   4.520   0.306  2.1829  0.3422 -0.1034
 1239SOL    HW215180   2.772   4.549   0.209  0.5528 -0.0609 -0.4217
 1240SOL     OW15181   2.385   2.825   5.753  0.0178  0.5185 -0.0340
 1240SOL    HW115182   2.449   2.870   5.809  1.8828 -1.9686 -0.2015
 1240SOL    HW215183   2.309   2.883   5.758  1.3904  2.3200  0.1677
 1241SOL     OW15184   2.405   0.415   6.606 -0.5191 -0.4923  0.1119
 1241SOL    HW115185   2.380   0.507   6.595  0.8840 -0.1795 -0.4624
 1241SOL    HW215186   2.430   0.383   6.519 -1.3660 -1.2271  0.1436
 1242SOL     OW15187   0.549   3.267  16.647  0.2308  0.3377  0.3385
 1242SOL    HW115188   0.460   3.232  16.651  0.5152 -0.3094  1.0640
 1242SOL    HW215189   0.529   3.359  16.658  1.3986  0.2463  3.3560
 1243SOL     OW15190   0.086   3.411   4.569  0.2842 -0.4212 -0.2199
 1243SOL    HW115191   0.038   3.428   4.651  2.7108  1.5267  0.8072
 1243SOL    HW215192   0.148   3.347   4.604  1.4029  0.6638 -0.2078
 1244SOL     OW15193   2.364   1.168   5.943 -0.2101  0.3997  0.1487
 1244SOL    HW115194   2.274   1.145   5.922 -0.1891  0.0901  0.4066
 1244SOL    HW215195   2.363   1.263   5.933 -0.4264  0.1182 -2.5218
 1245SOL     OW15196   1.509   3.519  16.207 -0.4288 -0.1627 -0.2256
 1245SOL    HW115197   1.512   3.433  16.248  1.5413 -0.1006 -0.2163
 1245SOL    HW215198   1.540   3.570  16.282  0.4760 -0.9718 -0.0498
 1246SOL     OW15199   3.926   2.580  15.434 -0.2599 -0.2623  0.1263
 1246SOL    HW115200   3.960   2.584  15.524 -0.5895  0.1716  0.2309
 1246SOL    HW215201   3.868   2.656  15.430  1.6513  1.1098 -1.7293
 1247SOL     OW15202   1.628   2.861   4.574 -0.0752 -0.0738 -0.1243
 1247SOL    HW115203   1.602   2.770   4.588 -2.3082  0.5726 -0.0120
 1247SOL    HW215204   1.687   2.850   4.500 -0.7450  0.5269 -0.7500
 1248SOL     OW15205   3.849   0.860   8.484 -0.1396  0.1547  0.1353
 1248SOL    HW115206   3.835   0.778   8.436 -2.3242 -0.7081  2.2613
 1248SOL    HW215207   3.778   0.911   8.446 -1.0519 -0.4236  1.0801
 1249SOL     OW15208   3.527   2.741  15.500  0.2978 -0.3725  0.2362
 1249SOL    HW115209   3.510   2.812  15.562 -2.8090  0.1680 -1.2189
 1249SOL    HW215210   3.617   2.766  15.481  1.1426 -0.3727  4.2340
 1250SOL     OW15211   0.258   0.240   4.146  0.2327  0.2004 -0.1274
 1250SOL    HW115212   0.261   0.150   4.180  0.9210  0.3920  0.3113
 1250SOL    HW215213   0.339   0.250   4.097  1.4140 -0.4458  1.6862
 1251SOL     OW15214   1.673   0.446  12.088  0.7245  1.1306 -0.1465
 1251SOL    HW115215   1.651   0.463  11.997 -2.9408  2.2186  0.9281
 1251SOL    HW215216   1.762   0.412  12.080 -0.1330  0.0412 -4.7288
 1252SOL     OW15217   0.719   2.021   8.236 -0.2702 -0.1784  0.8343
 1252SOL    HW115218   0.715   1.926   8.252 -1.3990 -0.0204  1.5042
 1252SOL    HW215219   0.744   2.042   8.326 -1.3525 -4.5911  2.1561
 1253SOL     OW15220   3.816   3.700  15.530 -0.0460  0.0058 -0.0869
 1253SOL    HW115221   3.746   3.700  15.596 -0.2149 -0.0338 -0.2658
 1253SOL    HW215222   3.832   3.795  15.533 -1.2438  0.2146 -0.1913
 1254SOL     OW15223   3.573   1.959  13.054  0.1418  0.2792  0.3438
 1254SOL    HW115224   3.534   2.014  12.986 -3.4317 -1.4370  1.0047
 1254SOL    HW215225   3.659   2.000  13.065 -0.8776  2.8352 -1.2954
 1255SOL     OW15226   0.969   2.181  17.641  0.3075  0.6370  0.9585
 1255SOL    HW115227   0.907   2.248  17.670 -0.6222  1.3954 -2.7497
 1255SOL    HW215228   0.933   2.106  17.688  0.6146  1.1189  1.9737
 1256SOL     OW15229   0.731   4.406   3.601  0.7356 -0.6434 -0.1132
 1256SOL    HW115230   0.758   4.314   3.601  0.4654 -0.7162 -1.2893
 1256SOL    HW215231   0.813   4.456   3.607 -1.5791  2.8048  2.2610
 1257SOL     OW15232   0.800   0.153   6.712 -0.3441 -0.0805  0.1467
 1257SOL    HW115233   0.877   0.157   6.769 -0.7981  1.6821  0.6337
 1257SOL    HW215234   0.772   0.244   6.705  2.9945  1.0714  1.7016
 1258SOL     OW15235   4.243   4.091   8.493  0.2256 -0.1628  0.1803
 1258SOL    HW115236   4.246   4.134   8.578 -0.4593 -0.5556  0.3947
 1258SOL    HW215237   4.335   4.098   8.467  0.3078 -0.4836  0.3839
 1259SOL     OW15238   3.112   3.302   3.404  0.2232  0.1644  0.3298
 1259SOL    HW115239   3.176   3.251   3.454  0.2991  0.7085  0.7903
 1259SOL    HW215240   3.073   3.224   3.364  0.9900  0.0344 -0.1583
 1260SOL     OW15241   0.200   4.471   8.980  0.6033  0.2732  0.3074
 1260SOL    HW115242   0.183   4.541   9.043  0.8399  0.7754 -0.1872
 1260SOL    HW215243   0.168   4.395   9.028  0.9190 -0.2309 -0.2655
 1261SOL     OW15244   0.919   0.358   5.641 -0.0018 -0.5337 -0.4608
 1261SOL    HW115245   0.841   0.315   5.677 -0.4250  0.3883 -0.2826
 1261SOL    HW215246   0.894   0.370   5.550  1.5339  2.1921 -0.4942
 1262SOL     OW15247   0.443   0.842   8.094  0.3815 -0.3293  0.3431
 1262SOL    HW115248   0.432   0.748   8.109  2.6526 -0.5700  0.5609
 1262SOL    HW215249   0.365   0.889   8.122  1.0366  0.8862  0.1485
 1263SOL     OW15250   0.387   4.013   4.118 -0.6379 -0.1888 -0.0430
 1263SOL    HW115251   0.407   4.020   4.025 -1.3133 -2.3389 -0.3489
 1263SOL    HW215252   0.363   4.102   4.145  0.9685 -0.4013  2.0509
 1264SOL     OW15253   1.922   0.532  16.515 -0.1861 -0.1337 -0.3948
 1264SOL    HW115254   1.971   0.520  16.596 -3.1027  0.5181  1.4656
 1264SOL    HW215255   1.831   0.544  16.542 -0.0249 -0.5856  0.3415
 1265SOL     OW15256   3.635   3.687   3.648  0.7207  0.6983 -0.0343
 1265SOL    HW115257   3.647   3.708   3.740 -2.9813 -0.0233  0.6141
 1265SOL    HW215258   3.686   3.762   3.617  1.0938 -0.5802 -2.5206
 1266SOL     OW15259   1.904   4.298   9.069 -0.7891 -0.0162 -0.2418
 1266SOL    HW115260   1.890   4.304   8.975 -1.5650 -0.4568 -0.1564
 1266SOL    HW215261   1.850   4.224   9.096  0.1699 -0.6193  0.0172
 1267SOL     OW15262   3.351   4.490  15.473  0.2141 -0.1508 -0.0172
 1267SOL    HW115263   3.300   4.569  15.491 -0.9111 -0.7760 -0.5043
 1267SOL    HW215264   3.303   4.428  15.526 -1.3213  0.3446 -0.8269
 1268SOL     OW15265   0.409   0.890   3.441 -0.0102 -0.0842  0.1903
 1268SOL    HW115266   0.373   0.952   3.505  0.5569 -1.3611  1.7541
 1268SOL    HW215267   0.503   0.908   3.445 -0.1627 -0.2082  4.2746
 1269SOL     OW15268   1.391   2.031   3.739  0.4165  0.5903  0.0986
 1269SOL    HW115269   1.474   2.014   3.695 -0.4055 -0.0387 -1.1956
 1269SOL    HW215270   1.325   2.023   3.670  0.4700 -4.0093  0.5474
 1270SOL     OW15271   2.437   3.873   5.425 -0.1384  0.6416 -0.0990
 1270SOL    HW115272   2.516   3.877   5.372  1.5442  0.4385  2.4123
 1270SOL    HW215273   2.397   3.960   5.422 -0.3628  0.5379 -0.1308
 1271SOL     OW15274   0.801   1.484   5.061 -0.1258  0.4812 -0.4267
 1271SOL    HW115275   0.776   1.421   4.993 -2.4414  2.6064 -1.5453
 1271SOL    HW215276   0.755   1.556   5.018 -0.6605  0.2514 -0.2332
 1272SOL     OW15277   2.602   4.077   0.657 -0.6757 -0.4113 -0.1755
 1272SOL    HW115278   2.593   4.035   0.572  1.8987  1.0838 -1.1766
 1272SOL    HW215279   2.513   4.114   0.662 -1.1488 -1.7646  1.5474
 1273SOL     OW15280   0.374   3.891  14.783  0.3829 -0.2232 -0.5374
 1273SOL    HW115281   0.284   3.885  14.750 -0.6672 -0.6935  2.4851
 1273SOL    HW215282   0.361   3.847  14.866 -2.8798  1.3994 -0.2020
 1274SOL     OW15283   2.408   2.909   3.768 -0.0668  0.2064 -0.0937
 1274SOL    HW115284   2.472   2.962   3.816 -1.4024  1.0782  0.7249
 1274SOL    HW215285   2.338   2.906   3.833 -0.8770  0.8421 -0.9457
 1275SOL     OW15286   3.451   0.510   7.754  0.0011  0.2247 -0.1232
 1275SOL    HW115287   3.416   0.422   7.764 -0.3779  0.4107  0.1971
 1275SOL    HW215288   3.380   0.565   7.721 -1.7299 -2.4939 -0.8598
 1276SOL     OW15289   3.150   4.101   4.513  0.2361 -0.1006 -0.3010
 1276SOL    HW115290   3.185   4.110   4.601 -0.2637  1.6145 -0.2822
 1276SOL    HW215291   3.056   4.105   4.532  0.1601  1.6808 -1.0700
 1277SOL     OW15292   3.277   4.688   3.997  0.2243 -0.4450 -0.2587
 1277SOL    HW115293   3.371   4.672   3.997  0.2390 -0.3550 -0.1678
 1277SOL    HW215294   3.254   4.710   4.087 -2.8705 -3.9720 -0.1703
 1278SOL     OW15295   3.374   0.442   4.866  0.2654  0.8311  0.9914
 1278SOL    HW115296   3.467   0.450   4.885  0.8440  0.6052 -1.7975
 1278SOL    HW215297   3.373   0.471   4.775  0.2075 -0.0559  0.7100
 1279SOL     OW15298   0.845   4.633  14.534 -0.0526  0.0970  0.7981
 1279SOL    HW115299   0.929   4.600  14.502 -0.0693  1.1318 -0.3150
 1279SOL    HW215300   0.796   4.663  14.458 -0.8437 -0.5680  1.0386
 1280SOL     OW15301   1.389   3.027   2.247 -0.1285 -0.1756 -0.0111
 1280SOL    HW115302   1.392   3.094   2.179 -1.5823 -0.5832 -0.4822
 1280SOL    HW215303   1.433   2.959   2.196 -1.3664 -2.5264  2.0994
 1281SOL     OW15304   3.761   1.061   9.002 -0.3617 -0.0442  0.1816
 1281SOL    HW115305   3.775   1.089   9.092 -0.7811  1.7662 -0.3027
 1281SOL    HW215306   3.729   1.148   8.976 -1.4481  0.5721  3.6727
 1282SOL     OW15307   3.065   2.388   1.923 -0.5354  0.4832 -0.6593
 1282SOL    HW115308   3.045   2.397   2.016 -0.1467 -0.4468 -0.4851
 1282SOL    HW215309   2.977   2.384   1.884 -1.3144 -0.1637  1.1634
 1283SOL     OW15310   3.219   3.378  17.257 -0.8217  0.5387  0.4479
 1283SOL    HW115311   3.245   3.300  17.208 -1.9526  0.2700  0.2778
 1283SOL    HW215312   3.125   3.371  17.237 -0.7705 -0.9767  0.7012
 1284SOL     OW15313   4.047   3.376  11.212 -0.3853 -0.5884  0.0024
 1284SOL    HW115314   3.987   3.371  11.286 -0.7362 -2.5093 -0.4338
 1284SOL    HW215315   4.122   3.343  11.261  1.3434  1.8327 -0.9854
 1285SOL     OW15316   4.560   4.458   3.721 -0.7478  0.3702 -0.2051
 1285SOL    HW115317   4.586   4.540   3.679  0.6522 -0.6802 -1.4050
 1285SOL    HW215318   4.468   4.479   3.713 -1.3531 -1.8764  0.6781
 1286SOL     OW15319   4.382   3.052  11.482 -0.6302  0.4752 -0.2939
 1286SOL    HW115320   4.429   2.969  11.477  0.3488  0.8907  1.6717
 1286SOL    HW215321   4.443   3.110  11.529 -0.5029 -0.5624  0.8325
 1287SOL     OW15322   1.898   0.016   6.132 -0.4411  0.2366  0.0487
 1287SOL    HW115323   1.803   0.026   6.125 -0.5297  1.8389  3.7126
 1287SOL    HW215324   1.901   4.709   6.223  1.7617  0.1304 -0.0537
 1288SOL     OW15325   1.917   3.014   4.925  0.2387  0.3966 -0.8635
 1288SOL    HW115326   1.870   3.074   4.982  2.0378  1.8051 -0.8945
 1288SOL    HW215327   1.855   2.940   4.928  1.4808 -0.5347  1.9554
 1289SOL     OW15328   4.269   1.520   8.929  0.0129  0.5837 -0.3386
 1289SOL    HW115329   4.236   1.598   8.974 -0.5245 -1.2546  2.4320
 1289SOL    HW215330   4.361   1.543   8.922  0.3182 -1.0936 -1.6884
 1290SOL     OW15331   2.486   1.772   8.528 -0.7959 -0.3061 -0.2231
 1290SOL    HW115332   2.546   1.831   8.574 -1.4114 -0.3157  0.5909
 1290SOL    HW215333   2.519   1.687   8.557  4.0885  1.4894 -0.5344
 1291SOL     OW15334   2.308   2.429   6.048 -0.1705  0.4728 -0.6194
 1291SOL    HW115335   2.385   2.482   6.071  0.8121 -0.7879 -1.0541
 1291SOL    HW215336   2.349   2.372   5.984  3.6445  0.9620  1.4185
 1292SOL     OW15337   2.979   1.650   4.052  0.2528  0.3782  0.7786
 1292SOL    HW115338   3.072   1.630   4.057 -0.2215 -1.1760  3.2486
 1292SOL    HW215339   2.939   1.576   4.006  1.2959  0.8800 -0.9278
 1293SOL     OW15340   2.624   3.790   4.321  0.0731 -0.4527 -0.8971
 1293SOL    HW115341   2.613   3.704   4.281 -1.5015  0.0896 -1.6119
 1293SOL    HW215342   2.554   3.842   4.282 -0.5539 -0.4994  0.1690
 1294SOL     OW15343   3.841   3.168   9.195 -0.8499  0.4981  0.3835
 1294SOL    HW115344   3.835   3.104   9.266 -0.0790 -0.5277 -0.4958
 1294SOL    HW215345   3.923   3.212   9.219 -1.5687  2.7669 -1.2812
 1295SOL     OW15346   1.181   1.876   9.813 -0.0869 -0.0193  0.7542
 1295SOL    HW115347   1.101   1.831   9.790  0.1215 -0.3070  0.5939
 1295SOL    HW215348   1.238   1.803   9.840 -2.0232 -1.8733 -0.2222
 1296SOL     OW15349   4.328   0.967   7.577  0.1954  0.2090  0.0140
 1296SOL    HW115350   4.239   0.964   7.544  0.5183 -0.4289 -0.7860
 1296SOL    HW215351   4.331   0.878   7.612  2.0939  0.2629  0.0252
 1297SOL     OW15352   2.093   0.504   8.175  0.1877 -0.3841  0.1391
 1297SOL    HW115353   2.060   0.526   8.088 -0.1830 -0.2651  0.3091
 1297SOL    HW215354   2.136   0.421   8.154 -0.2321 -0.5565 -0.0378
 1298SOL     OW15355   4.458   0.389  10.261 -0.4259  0.4716  0.0408
 1298SOL    HW115356   4.420   0.303  10.242 -2.4577  1.7573 -1.6892
 1298SOL    HW215357   4.498   0.418  10.180  1.0205 -0.2897  0.4818
 1299SOL     OW15358   1.774   3.315   0.893 -0.0795 -0.5641 -0.1787
 1299SOL    HW115359   1.725   3.285   0.817  1.1249  1.3806 -1.7119
 1299SOL    HW215360   1.714   3.277   0.958 -3.2417 -0.9604 -3.3323
 1300SOL     OW15361   2.519   1.162   2.277 -0.0284  0.0985  0.2236
 1300SOL    HW115362   2.432   1.196   2.296 -0.5064 -0.3341 -1.2031
 1300SOL    HW215363   2.514   1.169   2.182 -1.8435  0.6322  0.3701
 1301SOL     OW15364   0.096   3.675   4.887  0.1190  0.1622 -0.2471
 1301SOL    HW115365   0.096   3.609   4.956  0.4681 -0.1832 -0.5833
 1301SOL    HW215366   0.188   3.674   4.861  0.8413 -0.8498  2.3162
 1302SOL     OW15367   3.011   0.176   9.571  0.1114  0.1641 -0.2380
 1302SOL    HW115368   2.958   0.243   9.614 -0.0451 -0.5846  0.7316
 1302SOL    HW215369   2.968   0.183   9.485 -1.5297 -1.4851  0.4360
 1303SOL     OW15370   1.560   3.551  13.068 -0.7824  0.1480  0.1738
 1303SOL    HW115371   1.473   3.512  13.068 -1.7360  2.2944 -0.2397
 1303SOL    HW215372   1.572   3.597  12.985 -0.4265  1.0186  0.7070
 1304SOL     OW15373   0.984   1.792  13.382  0.1169 -0.0405 -0.1238
 1304SOL    HW115374   0.905   1.844  13.394  0.4147  0.2705  0.4495
 1304SOL    HW215375   0.967   1.723  13.447  2.1906 -1.1648 -0.7707
 1305SOL     OW15376   3.654   0.223  10.272 -0.4690 -0.1799  0.1427
 1305SOL    HW115377   3.565   0.246  10.244 -0.6323  1.0570  1.6963
 1305SOL    HW215378   3.701   0.299  10.237 -0.3114 -0.4600 -0.2470
 1306SOL     OW15379   3.602   2.634   8.553  0.2250 -0.2540 -0.0458
 1306SOL    HW115380   3.540   2.566   8.579  2.0372 -1.5405  0.9269
 1306SOL    HW215381   3.644   2.595   8.477  1.6013  1.3630 -0.1233
 1307SOL     OW15382   1.140   4.627   4.325  0.3295 -0.8580  0.2658
 1307SOL    HW115383   1.215   4.639   4.268 -1.1392 -0.2685 -1.5445
 1307SOL    HW215384   1.080   4.602   4.254  0.5678  3.1734 -1.3426
 1308SOL     OW15385   2.629   0.243   7.887  0.2407 -0.1245  0.5020
 1308SOL    HW115386   2.553   0.272   7.936  0.1284  0.3129  0.0693
 1308SOL    HW215387   2.676   0.196   7.956  1.3821 -0.0213 -0.2009
 1309SOL     OW15388   0.234   4.117  12.363 -0.4584 -0.2522 -0.4028
 1309SOL    HW115389   0.273   4.066  12.435  1.5144  0.9109 -0.6408
 1309SOL    HW215390   0.192   4.187  12.413  1.5917 -1.1950  2.6378
 1310SOL     OW15391   2.688   4.679  15.807 -0.1163  0.0016 -0.0344
 1310SOL    HW115392   2.594   4.671  15.790  0.2138 -2.6067 -0.6173
 1310SOL    HW215393   2.707   0.021  15.739 -1.0251 -0.3292 -0.6120
 1311SOL     OW15394   3.791   1.222   8.243  0.0871  0.1793  0.0037
 1311SOL    HW115395   3.802   1.198   8.335  1.7074 -2.2782 -0.8310
 1311SOL    HW215396   3.821   1.148   8.190 -1.7764 -1.1643  0.8104
 1312SOL     OW15397   3.553   0.995  13.324  0.2909  1.0337 -0.4088
 1312SOL    HW115398   3.620   0.998  13.392  0.3317 -0.6380 -0.3878
 1312SOL    HW215399   3.581   0.922  13.269  0.1356  0.2379  0.5579
 1313SOL     OW15400   2.136   3.942  13.097  0.2063  0.5399 -0.4795
 1313SOL    HW115401   2.152   3.868  13.156 -0.4760  1.1570  0.4830
 1313SOL    HW215402   2.140   3.896  13.013 -1.7982 -0.8908  0.2165
 1314SOL     OW15403   4.025   1.929   4.000 -0.2723  0.0103  0.0736
 1314SOL    HW115404   4.080   1.906   3.925 -0.1530 -2.4306  0.8959
 1314SOL    HW215405   4.072   1.999   4.046  1.0526 -0.0419 -1.1749
 1315SOL     OW15406   4.326   3.505   9.043  0.2829  0.1245  0.0071
 1315SOL    HW115407   4.312   3.505   9.137  3.6924 -1.0663  0.5219
 1315SOL    HW215408   4.360   3.593   9.028  0.9326 -0.4895 -2.1636
 1316SOL     OW15409   3.462   0.144   4.861  0.5318 -0.0733 -0.3128
 1316SOL    HW115410   3.468   0.227   4.909  1.5684  0.0073 -0.5700
 1316SOL    HW215411   3.548   0.111   4.886  1.1645 -0.1348 -2.6031
 1317SOL     OW15412   4.028   3.559  13.613 -0.4530 -0.2638 -0.3462
 1317SOL    HW115413   4.060   3.470  13.602  1.2672  0.1600  1.2753
 1317SOL    HW215414   3.958   3.563  13.547 -1.4064  0.5791  0.7134
 1318SOL     OW15415   1.777   4.664   6.971  0.0306  0.0663  0.5808
 1318SOL    HW115416   1.819   4.601   7.029 -1.0670 -0.9957  0.2210
 1318SOL    HW215417   1.795   0.025   7.014  1.3435 -0.1703  0.4852
 1319SOL     OW15418   4.075   0.077   6.647 -0.0348  0.4905 -0.6276
 1319SOL    HW115419   4.113   0.001   6.689 -0.8856  1.3637  1.7455
 1319SOL    HW215420   4.082   0.053   6.555  1.3897 -0.2239 -0.3294
 1320SOL     OW15421   1.856   1.837   5.277 -0.9695 -0.0712  0.1357
 1320SOL    HW115422   1.841   1.890   5.355 -0.6594  0.5976 -0.2624
 1320SOL    HW215423   1.805   1.886   5.213 -3.3145  0.3390  2.3211
 1321SOL     OW15424   0.674   2.139  15.568  0.3704  0.1766 -0.1751
 1321SOL    HW115425   0.604   2.073  15.572  0.6129 -0.0083  1.1715
 1321SOL    HW215426   0.649   2.187  15.647  0.7637 -1.5517  0.9982
 1322SOL     OW15427   3.047   3.034   7.369 -0.2053  0.4740  0.2745
 1322SOL    HW115428   3.070   3.059   7.280 -0.3380  1.4017  0.5052
 1322SOL    HW215429   3.009   2.947   7.358 -0.0674  0.3602  0.6819
 1323SOL     OW15430   2.601   0.139   0.394 -0.3976 -1.1961 -0.1208
 1323SOL    HW115431   2.527   0.156   0.453 -0.7481 -0.1137 -0.8740
 1323SOL    HW215432   2.570   0.186   0.317 -0.3088  3.8764  2.8802
 1324SOL     OW15433   4.152   3.311  15.088  0.3130  0.2868 -0.8814
 1324SOL    HW115434   4.194   3.227  15.104  0.1298  0.0770 -1.4795
 1324SOL    HW215435   4.183   3.331  14.999  1.0996 -0.2979 -0.7338
 1325SOL     OW15436   1.853   0.789   3.906  0.4849 -0.0304 -0.9532
 1325SOL    HW115437   1.800   0.839   3.845 -4.1460 -0.3415  2.7745
 1325SOL    HW215438   1.937   0.792   3.861  1.0920  1.9206  0.3509
 1326SOL     OW15439   4.342   0.055  17.387 -0.0812  0.3441  0.1777
 1326SOL    HW115440   4.432   0.081  17.409  0.5944 -1.2826 -0.7174
 1326SOL    HW215441   4.354   4.687  17.362  0.3543  1.0752 -2.2669
 1327SOL     OW15442   3.336   3.604  11.951 -0.4773 -0.1259 -0.1494
 1327SOL    HW115443   3.299   3.691  11.935  0.6137  0.5814  1.1999
 1327SOL    HW215444   3.389   3.628  12.027  0.4277  0.5680 -0.9982
 1328SOL     OW15445   0.340   2.285  15.976  0.1089  0.0936  0.4260
 1328SOL    HW115446   0.326   2.252  15.887  0.4865  2.1837 -0.4050
 1328SOL    HW215447   0.377   2.371  15.959 -2.7895  1.0652 -0.7765
 1329SOL     OW15448   0.574   4.176   8.186  0.1074 -0.0087  0.0123
 1329SOL    HW115449   0.516   4.245   8.219  3.3221  1.6475  2.2051
 1329SOL    HW215450   0.659   4.218   8.197 -0.5743  1.0772  1.2155
 1330SOL     OW15451   4.056   4.690   4.819  0.4159 -0.0263  0.5134
 1330SOL    HW115452   4.017   0.015   4.892 -0.4342 -0.3768  0.2830
 1330SOL    HW215453   4.006   4.715   4.742 -0.1039 -4.8525 -0.7289
 1331SOL     OW15454   1.972   2.776   7.137 -0.2443 -0.4024  0.3953
 1331SOL    HW115455   1.891   2.771   7.086 -0.7926  2.0998  1.0405
 1331SOL    HW215456   1.934   2.764   7.224 -0.8386  2.6758  0.5860
 1332SOL     OW15457   3.383   3.762   5.924  0.5268  0.6491 -0.1230
 1332SOL    HW115458   3.432   3.723   5.996  1.7913 -0.8693 -1.7815
 1332SOL    HW215459   3.290   3.748   5.940  0.6190  0.2573  0.0689
 1333SOL     OW15460   4.648   3.073  16.743  0.0590 -0.0865 -0.5648
 1333SOL    HW115461   4.632   3.088  16.650 -2.5953 -0.4600 -0.1531
 1333SOL    HW215462   4.660   3.161  16.779  0.5075 -0.2429 -0.3204
 1334SOL     OW15463   0.246   2.919   6.268 -0.2905 -0.0189  0.2871
 1334SOL    HW115464   0.199   2.998   6.241  0.7749  1.0123  1.4347
 1334SOL    HW215465   0.293   2.877   6.196  1.9442  1.2110  1.0388
 1335SOL     OW15466   0.319   2.418  14.957 -0.4014  0.6107  0.2987
 1335SOL    HW115467   0.382   2.464  14.902  1.5656 -1.0432  1.2015
 1335SOL    HW215468   0.282   2.356  14.894  3.2152 -0.8970 -0.2907
 1336SOL     OW15469   2.139   2.717   2.223 -0.3262 -0.3239 -0.4761
 1336SOL    HW115470   2.158   2.808   2.246  0.3290 -1.0924  2.0895
 1336SOL    HW215471   2.106   2.729   2.134 -3.1650  1.7012  0.8532
 1337SOL     OW15472   1.166   1.800   5.466  0.2458 -0.1957  0.2524
 1337SOL    HW115473   1.181   1.832   5.555 -1.6975 -1.7511  1.1323
 1337SOL    HW215474   1.252   1.766   5.439  0.5332 -0.3807  1.3965
 1338SOL     OW15475   1.009   0.093   2.744 -0.2983  0.1526 -0.2198
 1338SOL    HW115476   1.009   0.016   2.688  3.0136 -0.2345  0.3335
 1338SOL    HW215477   1.052   0.152   2.684 -1.6985  0.3927 -0.9898
 1339SOL     OW15478   0.173   3.438   4.311 -0.0588  0.1893  0.0254
 1339SOL    HW115479   0.168   3.344   4.296 -0.6527  0.1037  0.7786
 1339SOL    HW215480   0.165   3.447   4.406 -1.1174 -1.5296  0.0844
 1340SOL     OW15481   3.675   0.284   5.010  0.0825 -0.0494  0.7921
 1340SOL    HW115482   3.644   0.205   5.053  0.1567  0.9464  2.6751
 1340SOL    HW215483   3.730   0.320   5.080  1.7968 -2.8897  0.9171
 1341SOL     OW15484   3.528   0.700   3.908 -0.0092  0.4137 -0.3935
 1341SOL    HW115485   3.548   0.771   3.848 -2.4458 -0.5721 -2.3639
 1341SOL    HW215486   3.616   0.669   3.930  0.5025  1.8444 -0.4201
 1342SOL     OW15487   0.506   0.922   5.178 -0.0991  0.1258 -0.3398
 1342SOL    HW115488   0.560   0.897   5.254  1.0894 -0.5909 -1.4189
 1342SOL    HW215489   0.441   0.978   5.219 -1.1405 -1.7889  0.6104
 1343SOL     OW15490   1.768   4.696   3.215  0.4484  0.4685 -0.3029
 1343SOL    HW115491   1.719   4.720   3.136  1.0808  0.0197 -0.8383
 1343SOL    HW215492   1.819   4.627   3.171 -2.5253 -1.5157 -0.6221
 1344SOL     OW15493   2.621   3.466  11.517  0.0103 -0.0591  0.3763
 1344SOL    HW115494   2.699   3.427  11.555  1.1638  2.6334  0.7606
 1344SOL    HW215495   2.616   3.397  11.451 -0.2192  0.5704 -0.2629
 1345SOL     OW15496   0.819   2.045   8.903 -0.2817  0.2866  0.0279
 1345SOL    HW115497   0.874   2.023   8.828 -0.6618  0.0147 -0.1730
 1345SOL    HW215498   0.882   2.082   8.965 -0.8064 -0.6741  1.1339
 1346SOL     OW15499   0.955   1.131   8.108  0.3101 -0.3228  0.5113
 1346SOL    HW115500   1.046   1.131   8.078  0.4906  1.4124  1.0703
 1346SOL    HW215501   0.962   1.057   8.168  0.5582  1.5089  2.7431
 1347SOL     OW15502   2.251   1.342   8.967  0.0203  0.2607 -0.5050
 1347SOL    HW115503   2.231   1.289   9.044  1.6575  3.3969  2.1003
 1347SOL    HW215504   2.175   1.400   8.962 -1.3670 -1.6845 -1.6790
 1348SOL     OW15505   3.235   4.268  12.377 -0.0852  0.0145  0.2071
 1348SOL    HW115506   3.311   4.265  12.319 -0.3806  0.1474 -0.1815
 1348SOL    HW215507   3.175   4.219  12.322 -0.4264  0.1372  0.4717
 1349SOL     OW15508   2.610   1.110   6.227  0.4826 -0.6897 -0.2159
 1349SOL    HW115509   2.653   1.026   6.243  1.4805 -0.4379 -1.6258
 1349SOL    HW215510   2.675   1.151   6.171  3.3187 -1.6074  2.4336
 1350SOL     OW15511   3.838   1.065   4.313 -0.7560  0.2844 -0.5107
 1350SOL    HW115512   3.916   1.115   4.286 -0.2962 -1.0775 -1.7182
 1350SOL    HW215513   3.808   1.114   4.389 -1.6707 -0.7464 -0.2137
 1351SOL     OW15514   1.107   4.238   0.847  0.0170 -0.1868 -0.5464
 1351SOL    HW115515   1.113   4.318   0.898  0.5362  0.1116 -1.0668
 1351SOL    HW215516   1.192   4.201   0.871  0.2494  1.5974  1.3433
 1352SOL     OW15517   3.521   3.832  11.221  0.4994 -0.1963  0.6146
 1352SOL    HW115518   3.510   3.796  11.310 -1.1913 -0.4602  0.3005
 1352SOL    HW215519   3.435   3.811  11.184  0.8301  0.4813 -0.5302
 1353SOL     OW15520   1.891   3.646   7.698 -0.5243  0.0277  0.8180
 1353SOL    HW115521   1.958   3.616   7.637  0.2972  0.6235  1.4277
 1353SOL    HW215522   1.932   3.606   7.775  1.3338  0.4431  0.0372
 1354SOL     OW15523   0.451   1.484   4.910 -0.1170 -0.2050  0.0164
 1354SOL    HW115524   0.487   1.571   4.925 -1.8006  0.6165 -0.6453
 1354SOL    HW215525   0.436   1.443   4.995  4.1657  0.3042  1.0175
 1355SOL     OW15526   2.964   4.500  10.137  0.1075  0.6345  0.1770
 1355SOL    HW115527   3.028   4.570  10.121  1.1598 -0.3956 -0.0885
 1355SOL    HW215528   3.027   4.432  10.114 -0.5572  0.0150  0.1931
 1356SOL     OW15529   4.002   4.627  13.150 -0.4590  0.3999  0.3364
 1356SOL    HW115530   3.935   4.694  13.164 -0.2207  0.9401 -1.0458
 1356SOL    HW215531   4.063   4.666  13.087 -2.8570  0.5736 -1.9023
 1357SOL     OW15532   3.180   3.517  11.139  0.5006  0.2169  0.5557
 1357SOL    HW115533   3.126   3.444  11.168  1.0232 -1.0711 -1.7375
 1357SOL    HW215534   3.257   3.488  11.090 -0.9210 -1.1072 -0.8674
 1358SOL     OW15535   3.716   3.540   2.991  0.4340  0.4133 -0.1103
 1358SOL    HW115536   3.651   3.474   2.967  1.8287 -1.0540  0.1035
 1358SOL    HW215537   3.670   3.612   2.948  0.8970 -0.0230 -1.3331
 1359SOL     OW15538   3.457   1.613   9.725  0.2252 -0.4681 -0.0754
 1359SOL    HW115539   3.370   1.647   9.703  1.0111 -0.2500 -2.8394
 1359SOL    HW215540   3.428   1.537   9.775 -0.3840  0.0321  0.3323
 1360SOL     OW15541   2.427   1.424   3.015  0.0537 -0.0090  0.2375
 1360SOL    HW115542   2.336   1.426   3.046  0.1517 -0.3598  0.5436
 1360SOL    HW215543   2.415   1.466   2.930  0.6675 -1.3736 -0.5240
 1361SOL     OW15544   3.427   3.764  12.219  0.1112 -0.0164 -0.0538
 1361SOL    HW115545   3.516   3.776  12.187  0.0835 -0.4541 -0.3035
 1361SOL    HW215546   3.389   3.845  12.185 -0.9764  0.0648  1.3445
 1362SOL     OW15547   1.665   2.919  17.318 -0.4684 -0.7710  0.0931
 1362SOL    HW115548   1.585   2.920  17.369  0.3191 -0.9770  1.3263
 1362SOL    HW215549   1.668   2.833  17.277 -0.0932 -0.7105 -0.0092
 1363SOL     OW15550   3.170   3.421   8.587  0.5059  0.1524 -0.0409
 1363SOL    HW115551   3.230   3.349   8.566  0.4073 -0.8353  3.0576
 1363SOL    HW215552   3.124   3.390   8.665 -1.0357 -0.7916 -1.3166
 1364SOL     OW15553   2.288   0.759   3.218  0.2180 -0.0967 -0.3323
 1364SOL    HW115554   2.251   0.696   3.279 -0.2228 -1.1750 -1.6994
 1364SOL    HW215555   2.212   0.793   3.171  1.8738  3.2258 -0.6328
 1365SOL     OW15556   4.715   0.170   8.598  0.1049  0.0050  0.6178
 1365SOL    HW115557   0.030   0.100   8.652  2.5802 -0.3378 -1.6139
 1365SOL    HW215558   4.623   0.142   8.597 -0.7222  2.8480 -1.7931
 1366SOL     OW15559   1.334   2.754  17.625  0.0421  0.1169 -0.1814
 1366SOL    HW115560   1.420   2.721  17.649 -0.1624  1.7481  2.7077
 1366SOL    HW215561   1.358   2.824  17.564 -0.9551  0.1587 -0.5336
 1367SOL     OW15562   3.800   0.052  13.194  0.3128 -0.6292 -0.0353
 1367SOL    HW115563   3.753   0.049  13.110  0.4219 -0.8161 -0.0900
 1367SOL    HW215564   3.727   0.028  13.251 -0.5061 -0.8468 -1.1569
 1368SOL     OW15565   3.874   1.525   3.593 -0.1425  0.0732 -0.3699
 1368SOL    HW115566   3.902   1.513   3.502 -0.1619 -0.9692 -0.2371
 1368SOL    HW215567   3.890   1.448   3.647  1.8660  1.0043  0.3595
 1369SOL     OW15568   1.125   3.314   2.571  0.2170  0.0688 -1.2950
 1369SOL    HW115569   1.033   3.336   2.582 -0.0965 -2.1992  0.6964
 1369SOL    HW215570   1.159   3.274   2.651 -0.3340  0.2037 -0.9939
 1370SOL     OW15571   0.609   3.213   6.407  0.5177 -0.2831  0.1339
 1370SOL    HW115572   0.517   3.215   6.382  0.2298 -0.2028  1.2034
 1370SOL    HW215573   0.632   3.303   6.429  1.3536 -1.5778  4.5446
 1371SOL     OW15574   4.637   4.016  15.210 -0.1332 -0.5422 -0.4500
 1371SOL    HW115575   4.592   3.939  15.243  0.3705 -1.4132 -1.7575
 1371SOL    HW215576   4.565   4.077  15.224  0.2104 -0.0216 -0.9172
 1372SOL     OW15577   2.132   2.124   1.867  0.6011  0.1318  0.1949
 1372SOL    HW115578   2.124   2.063   1.794  1.7850  0.4846 -0.2377
 1372SOL    HW215579   2.049   2.118   1.913  1.3789 -0.1351  1.5892
 1373SOL     OW15580   3.391   2.942   4.797 -0.4450 -0.8658  0.1295
 1373SOL    HW115581   3.330   3.012   4.818  1.2775  0.7548 -0.2264
 1373SOL    HW215582   3.338   2.870   4.833  1.1635 -1.9969  0.2513
 1374SOL     OW15583   1.546   3.128   8.053 -0.2662 -0.2402 -1.0161
 1374SOL    HW115584   1.548   3.219   8.024  2.9144 -0.1395 -0.4608
 1374SOL    HW215585   1.544   3.127   8.149 -2.1677  0.8878 -1.0390
 1375SOL     OW15586   1.424   2.723  11.761 -0.1171  0.1007  0.1304
 1375SOL    HW115587   1.386   2.759  11.841  0.8434 -0.5989  0.8900
 1375SOL    HW215588   1.508   2.697  11.798 -0.6990  2.9934  3.4630
 1376SOL     OW15589   3.783   0.995   5.523 -0.1172 -0.3678  0.2293
 1376SOL    HW115590   3.731   0.963   5.596  0.8585 -0.9493  0.6760
 1376SOL    HW215591   3.733   0.962   5.448  0.3835 -0.4885 -0.0532
 1377SOL     OW15592   2.956   1.178   3.751 -0.3946  0.5944 -0.6369
 1377SOL    HW115593   2.962   1.264   3.709  1.3115  0.9471  0.3273
 1377SOL    HW215594   2.935   1.116   3.681  1.2524  1.6997 -2.0948
 1378SOL     OW15595   4.154   2.415   5.276  0.0840  0.0167  0.2676
 1378SOL    HW115596   4.238   2.379   5.248 -1.2888 -3.5259  0.6853
 1378SOL    HW215597   4.179   2.505   5.296 -0.4324 -0.1412  1.5675
 1379SOL     OW15598   4.540   2.827   7.934  0.4639  0.2663 -0.0688
 1379SOL    HW115599   4.590   2.903   7.906 -0.2762  0.8016  0.0599
 1379SOL    HW215600   4.450   2.850   7.910 -0.1528 -0.3897  1.5796
 1380SOL     OW15601   0.860   2.989  12.665 -0.0673  0.0797  0.2463
 1380SOL    HW115602   0.915   2.916  12.638 -1.2096 -0.3314 -0.9789
 1380SOL    HW215603   0.906   3.055  12.612  0.8385 -0.8378 -0.1083
 1381SOL     OW15604   3.748   2.802   8.804  0.2901 -1.3475  0.7759
 1381SOL    HW115605   3.714   2.717   8.777  0.9437 -0.8053 -1.8368
 1381SOL    HW215606   3.755   2.783   8.897 -0.4580  2.4476  1.6185
 1382SOL     OW15607   3.958   2.502   8.826 -0.8282 -0.4411  0.3193
 1382SOL    HW115608   3.969   2.537   8.914  4.1963  0.0384 -0.4801
 1382SOL    HW215609   4.008   2.574   8.786  1.8256 -1.6081  1.5659
 1383SOL     OW15610   1.770   2.028   3.426 -0.3267 -0.3720  0.6034
 1383SOL    HW115611   1.769   2.104   3.484 -2.4020  0.1633 -0.1442
 1383SOL    HW215612   1.745   2.054   3.338  1.3461 -0.4834  0.0927
 1384SOL     OW15613   3.292   3.600   4.112 -0.1827  0.0421  0.6416
 1384SOL    HW115614   3.313   3.662   4.182  1.4487 -1.6763  1.6676
 1384SOL    HW215615   3.294   3.652   4.032 -0.5848  1.0703  1.3047
 1385SOL     OW15616   0.140   4.655   8.693  0.1234 -0.5281 -0.3595
 1385SOL    HW115617   0.234   4.663   8.678 -0.0138 -1.4863 -1.7032
 1385SOL    HW215618   0.123   4.565   8.665 -0.5602 -1.1043  1.8936
 1386SOL     OW15619   2.259   2.153   4.161  0.4117 -0.1087 -0.2540
 1386SOL    HW115620   2.190   2.206   4.200 -1.6632 -0.8070 -3.0189
 1386SOL    HW215621   2.307   2.222   4.114 -1.6695  1.9456  0.6580
 1387SOL     OW15622   0.184   2.804   4.619  0.4385  0.4906 -0.1213
 1387SOL    HW115623   0.158   2.714   4.639  1.0026  0.3548 -0.0254
 1387SOL    HW215624   0.271   2.801   4.659 -0.4509 -1.2167  1.6960
 1388SOL     OW15625   4.055   1.198  11.352  0.6934 -0.5050 -0.5881
 1388SOL    HW115626   4.014   1.234  11.273 -0.0992  0.3973  0.2305
 1388SOL    HW215627   3.994   1.129  11.379 -0.3040  0.8518  0.6158
 1389SOL     OW15628   1.943   1.727  10.372  0.5671 -0.3068 -0.8889
 1389SOL    HW115629   1.938   1.659  10.305 -0.2364 -0.7701 -0.3587
 1389SOL    HW215630   1.878   1.793  10.349 -0.5872 -1.2083 -0.2146
 1390SOL     OW15631   3.946   1.387   8.919 -0.1974 -0.6627  0.0211
 1390SOL    HW115632   3.939   1.374   9.014 -0.4226  0.6364  0.1847
 1390SOL    HW215633   3.876   1.330   8.888 -0.5778  0.1521 -0.6117
 1391SOL     OW15634   1.182   3.710   7.376 -0.2346 -0.0975 -0.7493
 1391SOL    HW115635   1.184   3.643   7.444 -0.7481  0.4395 -0.2031
 1391SOL    HW215636   1.250   3.771   7.402 -2.0494  1.1305  1.1470
 1392SOL     OW15637   2.865   3.619   1.473 -0.0290 -0.3939 -0.1084
 1392SOL    HW115638   2.826   3.568   1.544 -1.6710 -0.8124 -1.2919
 1392SOL    HW215639   2.794   3.625   1.409 -0.2996 -0.1375  0.2169
 1393SOL     OW15640   2.064   4.355  10.291 -0.4886  0.3136 -0.5170
 1393SOL    HW115641   2.082   4.443  10.324 -0.8392  0.1026  0.2418
 1393SOL    HW215642   2.138   4.348  10.231  0.5013 -0.6431  0.7935
 1394SOL     OW15643   4.008   1.085   7.943  0.1321  0.1843 -0.6639
 1394SOL    HW115644   3.963   1.038   8.012  1.1357 -1.1524 -0.9152
 1394SOL    HW215645   4.086   1.029   7.939  0.9247  1.2130  0.1288
 1395SOL     OW15646   4.137   4.304   6.268  0.6323  0.0499 -0.1181
 1395SOL    HW115647   4.080   4.236   6.231  0.1028 -0.8392  2.2783
 1395SOL    HW215648   4.088   4.319   6.349 -0.0726 -1.3645 -0.2682
 1396SOL     OW15649   4.632   2.311   0.027  0.0498  0.1572 -0.0872
 1396SOL    HW115650   4.668   2.382   0.080 -1.3623  0.6315  0.2402
 1396SOL    HW215651   4.613   2.363  17.642 -0.7359  1.0280  0.6815
 1397SOL     OW15652   4.485   2.690   1.943  0.0899  0.1364  0.1254
 1397SOL    HW115653   4.450   2.711   1.857  1.3632  2.7273  0.2136
 1397SOL    HW215654   4.446   2.607   1.968  0.6620  0.0405  0.7103
 1398SOL     OW15655   0.650   3.230   4.592 -0.9507 -0.0186 -0.7697
 1398SOL    HW115656   0.712   3.233   4.519 -0.6954  2.2975 -0.4356
 1398SOL    HW215657   0.592   3.167   4.548  0.0424 -0.3736 -1.5972
 1399SOL     OW15658   2.786   3.430  15.530  0.2051 -0.4410  0.0996
 1399SOL    HW115659   2.853   3.493  15.504 -1.6212  1.9377  1.0533
 1399SOL    HW215660   2.785   3.382  15.447  1.9548 -1.1816  0.5198
 1400SOL     OW15661   1.357   2.968  13.075 -0.3563  0.7126  0.1279
 1400SOL    HW115662   1.346   2.875  13.096 -1.1398  1.0728  1.3421
 1400SOL    HW215663   1.271   3.002  13.102 -1.1584 -1.9433  1.0027
 1401SOL     OW15664   2.955   3.741   5.022 -0.4103 -0.1464 -0.1662
 1401SOL    HW115665   2.894   3.679   5.061  1.7649 -2.6620 -0.8121
 1401SOL    HW215666   2.916   3.741   4.934 -2.2066 -1.4241  0.6292
 1402SOL     OW15667   2.352   3.445   6.852  0.1473 -0.7844 -0.6081
 1402SOL    HW115668   2.285   3.428   6.918 -2.4221  0.0338 -3.0326
 1402SOL    HW215669   2.363   3.539   6.867 -1.6988 -0.7522  0.5446
 1403SOL     OW15670   4.149   4.160   4.208 -0.0146  0.0552 -0.5461
 1403SOL    HW115671   4.201   4.086   4.177  0.1039 -0.0052 -0.2071
 1403SOL    HW215672   4.064   4.118   4.221 -0.3594  0.7455 -0.5603
 1404SOL     OW15673   0.801   3.259   3.797 -0.4897  0.0199  0.1968
 1404SOL    HW115674   0.855   3.292   3.725 -2.1278  1.8611 -0.1969
 1404SOL    HW215675   0.837   3.171   3.799  0.1481  0.2408 -1.1700
 1405SOL     OW15676   2.326   2.565  11.720 -0.1899  0.4232 -0.5096
 1405SOL    HW115677   2.339   2.638  11.780 -1.6351 -0.8825  1.3731
 1405SOL    HW215678   2.420   2.553  11.702 -0.2105 -0.3123 -0.1017
 1406SOL     OW15679   0.573   3.897   4.338  0.5812  0.1240 -0.5689
 1406SOL    HW115680   0.489   3.852   4.336  0.3025  0.7407 -2.8057
 1406SOL    HW215681   0.557   3.968   4.276 -0.0563  0.9057  0.4914
 1407SOL     OW15682   0.242   2.551   5.369  0.2706  0.4392  0.1989
 1407SOL    HW115683   0.301   2.589   5.304  1.3309  0.1330  0.9729
 1407SOL    HW215684   0.305   2.487   5.403  1.5796  0.8735 -1.4112
 1408SOL     OW15685   2.637   4.039   4.879  0.4355 -0.0256 -0.8735
 1408SOL    HW115686   2.619   4.014   4.969 -0.9600  2.8355 -0.3685
 1408SOL    HW215687   2.598   3.967   4.828  0.4348  0.9044 -2.2017
 1409SOL     OW15688   2.869   0.295  17.577 -0.4262  0.0869  0.1962
 1409SOL    HW115689   2.779   0.300  17.546 -0.6986 -0.6701  0.8471
 1409SOL    HW215690   2.847   0.229  17.643  1.9109 -0.9317 -0.0407
 1410SOL     OW15691   0.845   2.097   6.153 -0.3397  0.0702  0.7678
 1410SOL    HW115692   0.923   2.041   6.161 -0.3293  0.1092  0.9239
 1410SOL    HW215693   0.775   2.034   6.135  0.1274 -0.3641  0.4659
 1411SOL     OW15694   2.127   4.345   5.144  0.1079  0.0016 -0.4621
 1411SOL    HW115695   2.100   4.254   5.130 -1.0111 -0.0426  1.9919
 1411SOL    HW215696   2.067   4.370   5.214 -0.0743 -2.3868  0.2337
 1412SOL     OW15697   4.379   0.042   3.762 -0.0761 -0.0964  0.2095
 1412SOL    HW115698   4.313   0.111   3.764  0.7843  0.6613  2.7021
 1412SOL    HW215699   4.328   4.699   3.715 -0.4063 -0.4048  1.0047
 1413SOL     OW15700   1.879   4.090   0.590  0.5922  0.7387  0.5227
 1413SOL    HW115701   1.845   4.002   0.608  0.2677  0.4967 -1.2447
 1413SOL    HW215702   1.800   4.135   0.561  0.7681 -0.1066 -1.2848
 1414SOL     OW15703   3.100   3.920   3.799  0.0309 -0.3503 -0.4716
 1414SOL    HW115704   3.040   3.977   3.752 -0.1078  0.1830  0.3594
 1414SOL    HW215705   3.148   3.987   3.846 -0.4846 -0.2267 -0.1198
 1415SOL     OW15706   4.011   4.627   1.810 -0.2975  0.4842 -0.2376
 1415SOL    HW115707   4.078   4.562   1.829 -0.0173  1.4971  2.1843
 1415SOL    HW215708   3.982   4.655   1.896  1.4538 -1.6813  1.0373
 1416SOL     OW15709   2.657   1.567   2.429  0.1492 -1.1581 -0.5598
 1416SOL    HW115710   2.627   1.482   2.461 -1.4332 -0.2268  0.4440
 1416SOL    HW215711   2.723   1.540   2.366 -0.8126 -2.5690 -0.9539
 1417SOL     OW15712   0.735   1.486   3.216 -0.3053 -0.2952 -0.4574
 1417SOL    HW115713   0.774   1.458   3.298 -0.1578 -0.1042 -0.4624
 1417SOL    HW215714   0.640   1.482   3.228 -0.1598  0.0706  0.7620
 1418SOL     OW15715   3.005   2.428   7.881 -0.5335  0.4584 -0.1483
 1418SOL    HW115716   3.016   2.484   7.959  1.2560  0.4585 -0.3919
 1418SOL    HW215717   2.983   2.491   7.812  0.6258  0.4352 -0.5438
 1419SOL     OW15718   4.665   0.988   5.691 -0.2816 -0.3644 -0.1059
 1419SOL    HW115719   4.679   0.985   5.786  2.0942  1.1983 -0.4062
 1419SOL    HW215720   4.580   1.031   5.684  0.4026  1.0961  0.4988
 1420SOL     OW15721   0.219   3.740   2.506  0.1662  0.0232  0.5414
 1420SOL    HW115722   0.309   3.723   2.533  0.9926  1.4258 -1.3231
 1420SOL    HW215723   0.169   3.681   2.562 -0.8175  0.3179 -0.0313
 1421SOL     OW15724   2.235   0.312   4.431  0.4210 -0.3827  0.4911
 1421SOL    HW115725   2.312   0.361   4.457  1.2716 -1.8168  0.6805
 1421SOL    HW215726   2.182   0.392   4.425  0.7098 -0.3586 -1.7375
 1422SOL     OW15727   4.028   2.985   3.011 -0.4493 -0.1233 -0.1666
 1422SOL    HW115728   4.096   3.016   2.951 -1.5035 -0.7411 -1.6712
 1422SOL    HW215729   3.958   3.046   2.989 -0.1526  0.3367  0.1642
 1423SOL     OW15730   3.653   2.474   8.339 -0.0314  0.0671 -0.0836
 1423SOL    HW115731   3.717   2.465   8.268 -0.6408 -1.0451 -0.4787
 1423SOL    HW215732   3.569   2.444   8.305  1.0169 -0.1513 -2.4745
 1424SOL     OW15733   4.113   0.143   0.139 -0.5238 -0.3552  0.1777
 1424SOL    HW115734   4.123   0.080   0.211 -3.1272  1.3202  2.0050
 1424SOL    HW215735   4.122   0.080   0.068 -2.1162 -2.6867  2.0743
 1425SOL     OW15736   4.182   0.782  16.692  0.0064  0.4147 -0.4175
 1425SOL    HW115737   4.237   0.733  16.630 -1.0956 -0.7812 -0.4412
 1425SOL    HW215738   4.203   0.867  16.652 -1.4528  0.7515 -0.4626
 1426SOL     OW15739   3.695   3.452  11.963  0.0694 -0.8644 -0.0922
 1426SOL    HW115740   3.790   3.448  11.957 -0.0001  0.8270 -2.3986
 1426SOL    HW215741   3.674   3.527  11.907  0.8792  1.0959  2.2197
 1427SOL     OW15742   1.756   0.723  10.720 -0.3320 -0.2979  0.4607
 1427SOL    HW115743   1.738   0.711  10.814  0.7726  1.1001  0.8478
 1427SOL    HW215744   1.739   0.630  10.703 -0.9277 -0.2855  0.9556
 1428SOL     OW15745   1.996   2.151   8.439  0.4288 -0.0522  0.0192
 1428SOL    HW115746   2.043   2.231   8.416  0.3856 -0.0575 -0.0876
 1428SOL    HW215747   2.048   2.078   8.408 -0.6808 -1.7262  2.0521
 1429SOL     OW15748   1.602   0.912  14.845 -0.7363  0.5767 -0.1069
 1429SOL    HW115749   1.519   0.864  14.849 -0.4382  0.1430  0.8753
 1429SOL    HW215750   1.662   0.845  14.877 -0.9760  0.0124 -0.8551
 1430SOL     OW15751   4.445   3.231  14.681  0.0995  0.4481  0.1533
 1430SOL    HW115752   4.508   3.272  14.622  0.1430 -0.5693 -0.5013
 1430SOL    HW215753   4.396   3.171  14.625  0.2904 -1.0685  1.6110
 1431SOL     OW15754   3.072   0.377  10.954 -0.2284 -0.2575  0.4131
 1431SOL    HW115755   3.161   0.391  10.984  0.4183 -0.6546 -1.2996
 1431SOL    HW215756   3.070   0.396  10.860 -0.1611 -1.8071  0.1024
 1432SOL     OW15757   3.175   1.418  10.625 -0.1667 -0.5443  0.2343
 1432SOL    HW115758   3.233   1.370  10.566  1.4366  1.7244 -0.0620
 1432SOL    HW215759   3.165   1.348  10.689 -1.1999 -1.1955 -0.6557
 1433SOL     OW15760   1.395   4.095   2.991 -0.8974 -0.2138  0.5285
 1433SOL    HW115761   1.448   4.175   2.988 -1.8702  0.3723 -1.3634
 1433SOL    HW215762   1.463   4.029   2.997 -0.8651 -0.2867 -0.5703
 1434SOL     OW15763   1.354   1.958   6.362  0.1935  0.0260 -0.1117
 1434SOL    HW115764   1.430   1.907   6.391  0.3001  0.3902  0.2478
 1434SOL    HW215765   1.383   2.038   6.318  0.3474 -0.9063 -1.6861
 1435SOL     OW15766   1.243   2.018   9.023  0.6360  0.0606 -0.0916
 1435SOL    HW115767   1.333   1.985   9.023  1.2285  1.5917  1.9555
 1435SOL    HW215768   1.197   1.943   9.058  0.4551  0.5236  0.6736
 1436SOL     OW15769   3.884   3.024   9.426  0.6847  0.6268 -0.2872
 1436SOL    HW115770   3.902   3.068   9.509 -1.2654  0.4097  0.2541
 1436SOL    HW215771   3.977   3.016   9.407  1.4085  2.3716  2.3975
 1437SOL     OW15772   3.221   1.123   1.860  0.1719  0.2544  0.3875
 1437SOL    HW115773   3.183   1.115   1.773  0.8225  1.7925 -0.0385
 1437SOL    HW215774   3.213   1.217   1.875 -1.8087  0.0742  0.3472
 1438SOL     OW15775   0.068   4.341   6.266  0.1577  0.8987  0.2134
 1438SOL    HW115776   0.011   4.310   6.337 -1.7666 -0.6825 -2.0209
 1438SOL    HW215777   0.070   4.260   6.215 -0.7874  1.5141 -0.7775
 1439SOL     OW15778   2.463   1.555   7.022 -0.1687 -0.2371 -0.3831
 1439SOL    HW115779   2.378   1.594   7.044  0.7450  1.6787 -0.2792
 1439SOL    HW215780   2.489   1.537   7.113 -1.9756 -2.3165 -0.2646
 1440SOL     OW15781   2.677   1.533   5.484 -0.0369  0.1116  0.1307
 1440SOL    HW115782   2.736   1.464   5.513 -0.4372  0.3691  1.5365
 1440SOL    HW215783   2.725   1.615   5.496 -2.4907  1.2438  2.1840
 1441SOL     OW15784   3.916   2.131   6.679 -0.1442  0.2906 -0.1640
 1441SOL    HW115785   3.822   2.142   6.692 -0.4078 -0.3788 -1.5397
 1441SOL    HW215786   3.940   2.136   6.772  0.5754 -0.5428 -0.3093
 1442SOL     OW15787   1.059   4.101   6.956 -0.4342 -0.1752 -0.5669
 1442SOL    HW115788   1.077   4.161   7.028  0.2280 -0.0328 -0.8538
 1442SOL    HW215789   1.065   4.012   6.990  0.7899 -0.3401 -1.1963
 1443SOL     OW15790   1.475   0.773   3.690 -0.3113  0.0858 -0.0865
 1443SOL    HW115791   1.411   0.757   3.620  0.1460 -0.8390 -0.2950
 1443SOL    HW215792   1.408   0.782   3.757 -0.2823 -0.8423  0.0773
 1444SOL     OW15793   3.939   1.349   4.479  0.0563  0.3067  0.0474
 1444SOL    HW115794   4.023   1.304   4.486 -0.5193 -0.7460  0.2162
 1444SOL    HW215795   3.957   1.425   4.534  2.4019  0.5068 -1.0048
 1445SOL     OW15796   0.367   1.596   5.269 -0.0503 -0.6296 -0.1670
 1445SOL    HW115797   0.424   1.673   5.263  1.7840 -2.0814 -1.2128
 1445SOL    HW215798   0.345   1.610   5.361 -2.1110 -1.2607 -0.5629
 1446SOL     OW15799   2.045   2.464   5.451  0.0032  0.2350 -0.1611
 1446SOL    HW115800   2.118   2.526   5.441 -0.4564  0.7989 -0.0025
 1446SOL    HW215801   2.078   2.415   5.527 -0.1061  1.6632  0.8171
 1447SOL     OW15802   1.738   2.368   0.639  0.0253 -0.2050 -0.2103
 1447SOL    HW115803   1.778   2.455   0.629 -1.1077  0.3677  0.2049
 1447SOL    HW215804   1.668   2.372   0.574  0.5092  1.4137 -0.6385
 1448SOL     OW15805   3.788   2.681  17.184  0.2562 -0.4761 -0.0146
 1448SOL    HW115806   3.733   2.607  17.160 -1.2798  0.2037  1.4235
 1448SOL    HW215807   3.732   2.754  17.156  0.2598 -0.6407 -0.4626
 1449SOL     OW15808   0.684   0.039   7.630 -0.2713 -0.3165 -0.4416
 1449SOL    HW115809   0.594   0.020   7.655 -0.6570  0.4248 -1.2514
 1449SOL    HW215810   0.670   0.129   7.601  3.0285  0.4878  0.4016
 1450SOL     OW15811   0.838   2.394   6.406  0.2388 -0.2193 -0.7943
 1450SOL    HW115812   0.748   2.422   6.425  1.1229  0.0920  2.9874
 1450SOL    HW215813   0.883   2.454   6.465  1.9114 -0.1690 -2.1320
 1451SOL     OW15814   4.107   3.448   8.682 -0.6721 -0.4894  0.0294
 1451SOL    HW115815   4.050   3.471   8.755  0.1722  1.1557  0.1619
 1451SOL    HW215816   4.130   3.537   8.654  1.6581 -1.1487 -0.2382
 1452SOL     OW15817   1.672   0.328   2.278 -1.3896 -0.0679 -0.4585
 1452SOL    HW115818   1.618   0.404   2.258 -0.6184  0.3325 -1.0260
 1452SOL    HW215819   1.618   0.257   2.242 -1.6623 -0.2341  0.2771
 1453SOL     OW15820   1.820   1.587   8.148  0.4911  0.4938 -0.1979
 1453SOL    HW115821   1.881   1.620   8.081 -2.0932  2.5758 -1.5119
 1453SOL    HW215822   1.863   1.521   8.203  0.3009  1.7739  1.5004
 1454SOL     OW15823   2.421   0.616   6.867  0.1020 -0.2809 -0.5120
 1454SOL    HW115824   2.399   0.551   6.800  4.2761 -1.4479 -0.7962
 1454SOL    HW215825   2.442   0.697   6.820 -1.2930 -0.2720 -1.1243
 1455SOL     OW15826   1.219   0.997   9.748 -0.9384  0.0264  0.1766
 1455SOL    HW115827   1.285   0.954   9.803  0.5043  1.3670 -0.5036
 1455SOL    HW215828   1.182   1.066   9.803  1.3879  1.2607  0.2013
 1456SOL     OW15829   2.450   3.412   4.189  0.5828  0.1310 -0.3752
 1456SOL    HW115830   2.389   3.481   4.161 -0.5826 -1.0483 -0.7264
 1456SOL    HW215831   2.523   3.464   4.223  1.3968 -0.3045 -1.4294
 1457SOL     OW15832   1.101   4.652   5.910 -0.0672  0.3194 -0.0359
 1457SOL    HW115833   1.034   4.702   5.958 -0.7510 -0.0076 -0.6404
 1457SOL    HW215834   1.129   4.718   5.847 -0.1479  0.3328 -0.0588
 1458SOL     OW15835   2.862   1.103   0.152  0.1960  0.1215 -0.1623
 1458SOL    HW115836   2.832   1.167   0.217 -0.4443 -0.1304 -0.2085
 1458SOL    HW215837   2.958   1.110   0.158  0.4273 -2.0958 -1.6765
 1459SOL     OW15838   2.000   1.989   8.652 -0.0827  0.3183 -0.1762
 1459SOL    HW115839   1.995   2.063   8.592  1.1051 -0.0389 -0.7081
 1459SOL    HW215840   1.913   1.951   8.635  0.6976 -1.8693  0.6716
 1460SOL     OW15841   2.149   1.110   1.881 -0.5579  0.1368  0.1356
 1460SOL    HW115842   2.130   1.192   1.834  0.7174 -0.5317 -1.5594
 1460SOL    HW215843   2.238   1.095   1.849  0.2492  1.1274  1.9325
 1461SOL     OW15844   4.283   0.461   3.287  0.7483 -0.0506  0.2209
 1461SOL    HW115845   4.337   0.446   3.365 -0.1859 -0.7299  0.7343
 1461SOL    HW215846   4.330   0.409   3.222 -0.3244 -1.5626  0.6393
 1462SOL     OW15847   0.158   1.274   6.550  0.5427  0.5814 -0.1073
 1462SOL    HW115848   0.108   1.328   6.489 -0.5489 -1.3910 -0.9731
 1462SOL    HW215849   0.105   1.195   6.539 -0.8626  1.3779  1.0009
 1463SOL     OW15850   1.437   0.169   5.493  0.2941  0.4426  0.1376
 1463SOL    HW115851   1.386   0.088   5.482 -0.2421  1.2355 -3.2639
 1463SOL    HW215852   1.438   0.216   5.410 -0.2429 -1.9682 -1.2594
 1464SOL     OW15853   1.621   3.350   6.721  0.3461  0.7434 -0.2790
 1464SOL    HW115854   1.645   3.258   6.711 -2.5282  0.0691 -1.0510
 1464SOL    HW215855   1.593   3.363   6.631  0.1505  1.1981 -0.1531
 1465SOL     OW15856   2.143   3.910   3.057 -0.1096  0.3117  0.2754
 1465SOL    HW115857   2.147   3.881   2.966  1.9105 -0.4498  0.5955
 1465SOL    HW215858   2.184   3.996   3.043  2.6957 -1.0621 -0.0759
 1466SOL     OW15859   0.221   3.940   3.357  0.1911 -0.1554  0.4688
 1466SOL    HW115860   0.190   3.856   3.321 -1.8738 -0.1724  2.2305
 1466SOL    HW215861   0.276   3.977   3.288 -0.9349  3.3882  1.4748
 1467SOL     OW15862   3.715   3.104   4.917 -0.1210 -0.2787 -0.0075
 1467SOL    HW115863   3.703   3.071   4.827 -1.5581  0.6118 -0.1455
 1467SOL    HW215864   3.644   3.167   4.918 -0.6453 -0.9168  1.7168
 1468SOL     OW15865   4.526   2.793   6.476 -0.0599 -0.1077 -0.2436
 1468SOL    HW115866   4.432   2.778   6.480 -0.3063  0.8703 -2.2710
 1468SOL    HW215867   4.534   2.861   6.409  0.8837  0.7485  0.7330
 1469SOL     OW15868   1.024   0.589   9.699  0.1884  0.8543  0.0845
 1469SOL    HW115869   0.929   0.590   9.692  0.3020 -1.0718 -1.6739
 1469SOL    HW215870   1.045   0.673   9.741  2.5771  0.2372  0.1232
 1470SOL     OW15871   4.201   1.822   7.573 -0.2378 -0.3063  0.6099
 1470SOL    HW115872   4.143   1.814   7.498 -0.4367 -0.2274  0.7567
 1470SOL    HW215873   4.190   1.735   7.612 -1.0143  0.5678  2.3447
 1471SOL     OW15874   2.928   2.245   3.451  0.4618  0.2406 -0.7747
 1471SOL    HW115875   2.897   2.156   3.472  0.8627 -0.0344 -1.3567
 1471SOL    HW215876   3.010   2.245   3.500 -0.6258 -3.5406  1.1375
 1472SOL     OW15877   4.020   2.766   4.426  0.2161 -0.0457  0.1095
 1472SOL    HW115878   4.096   2.736   4.475  1.0802 -0.2397 -1.3285
 1472SOL    HW215879   4.033   2.746   4.333 -1.0249 -3.0782  0.5989
 1473SOL     OW15880   2.454   0.465   0.406 -0.2497  0.1185 -0.1023
 1473SOL    HW115881   2.429   0.395   0.345 -0.4853  0.4545 -0.3882
 1473SOL    HW215882   2.386   0.461   0.474 -0.6574  0.4525 -0.4874
 1474SOL     OW15883   2.505   4.544  15.437 -0.0708 -0.5425  0.3916
 1474SOL    HW115884   2.586   4.548  15.387  0.0501 -1.4671  0.5025
 1474SOL    HW215885   2.459   4.628  15.431  0.1215 -0.4286  0.5274
 1475SOL     OW15886   0.818   1.690   0.605  0.0983  0.3744 -0.5033
 1475SOL    HW115887   0.849   1.748   0.675  1.4636 -1.6948  0.6282
 1475SOL    HW215888   0.724   1.704   0.596 -0.3154  0.3071  3.8276
 1476SOL     OW15889   1.461   4.100   2.197  0.5052  0.3052 -0.6073
 1476SOL    HW115890   1.554   4.119   2.204  0.3156  0.6919  0.9531
 1476SOL    HW215891   1.443   4.096   2.103  1.3444  0.9477 -0.7853
 1477SOL     OW15892   2.525   4.708   6.602  0.5512 -0.1568 -0.3943
 1477SOL    HW115893   2.460   4.715   6.532  1.0562  2.2401 -0.6048
 1477SOL    HW215894   2.501   0.061   6.655 -1.7264 -0.5096 -0.8900
 1478SOL     OW15895   2.820   0.911   7.231  0.0048 -0.3730  0.1355
 1478SOL    HW115896   2.834   0.934   7.323 -2.0928  1.8677 -0.1237
 1478SOL    HW215897   2.907   0.874   7.214 -1.2107 -3.4026  0.5167
 1479SOL     OW15898   1.708   1.885  14.506  0.4727  0.1395  0.2747
 1479SOL    HW115899   1.772   1.953  14.484  0.0753  0.0407 -1.2359
 1479SOL    HW215900   1.761   1.812  14.473  0.3640  0.5879 -0.8983
 1480SOL     OW15901   1.681   2.421   4.878 -0.3788  0.0258 -0.2681
 1480SOL    HW115902   1.586   2.427   4.881 -0.3693 -0.2060  0.5595
 1480SOL    HW215903   1.700   2.329   4.861  0.7139  0.3167 -0.6064
 1481SOL     OW15904   2.760   2.311   4.525 -0.4840 -0.0980 -0.1971
 1481SOL    HW115905   2.695   2.282   4.461 -0.0046 -2.1580  0.2458
 1481SOL    HW215906   2.703   2.377   4.565 -1.5432 -1.1392  0.0155
 1482SOL     OW15907   3.664   2.640   3.134  0.2247 -0.2652  0.1011
 1482SOL    HW115908   3.741   2.696   3.140 -0.0756 -0.0553  2.0207
 1482SOL    HW215909   3.687   2.586   3.059  1.4516 -0.6833  0.7646
 1483SOL     OW15910   2.786   1.429   1.955 -0.0082  0.1800 -0.2101
 1483SOL    HW115911   2.737   1.494   1.905  0.5866  1.9250  1.4517
 1483SOL    HW215912   2.772   1.348   1.907  2.1876  0.6931 -1.7033
 1484SOL     OW15913   1.838   4.261   2.102 -0.0752 -0.6766  0.2499
 1484SOL    HW115914   1.897   4.300   2.166  0.0892  0.9935 -0.9360
 1484SOL    HW215915   1.783   4.198   2.150  1.0529 -1.4417  0.5498
 1485SOL     OW15916   3.783   2.780   3.467  0.0264  0.1374  0.3834
 1485SOL    HW115917   3.751   2.691   3.482 -0.1222 -0.1265 -1.5443
 1485SOL    HW215918   3.815   2.769   3.378  0.3820  2.6493  0.1926
 1486SOL     OW15919   0.524   0.838   8.571 -0.2490  0.1102  0.5953
 1486SOL    HW115920   0.478   0.754   8.569  0.1602 -0.1332  1.6355
 1486SOL    HW215921   0.512   0.859   8.663  1.0571 -1.8878  1.2025
 1487SOL     OW15922   0.059   1.302   6.967  0.2663 -0.6862  0.4100
 1487SOL    HW115923   0.136   1.312   6.911 -1.0339  0.1588 -1.1930
 1487SOL    HW215924   4.708   1.346   6.926  0.5964 -1.2401 -0.7597
 1488SOL     OW15925   0.778   3.089  10.964 -0.1808  0.4544 -0.3141
 1488SOL    HW115926   0.759   2.996  10.973 -0.9936  0.7323  0.8441
 1488SOL    HW215927   0.746   3.098  10.874  0.1601  0.2684 -0.4529
 1489SOL     OW15928   3.712   2.140   4.677  0.1803  0.2136  0.4020
 1489SOL    HW115929   3.769   2.191   4.735  2.1367  0.7891 -1.9687
 1489SOL    HW215930   3.747   2.052   4.688 -1.2403  0.1604  4.3545
 1490SOL     OW15931   3.908   0.640  12.784  0.2262  0.7072 -0.0393
 1490SOL    HW115932   3.902   0.545  12.778 -1.4404  0.8296 -0.0934
 1490SOL    HW215933   3.980   0.651  12.722  0.8689  2.6700  1.0476
 1491SOL     OW15934   3.687   2.620   0.373  0.0564 -0.2990 -0.4086
 1491SOL    HW115935   3.716   2.594   0.460  0.7918  2.7293  0.2750
 1491SOL    HW215936   3.733   2.562   0.311 -1.3814 -0.6802 -1.1194
 1492SOL     OW15937   2.872   0.909   6.114 -0.6510 -0.2710 -0.1414
 1492SOL    HW115938   2.840   0.911   6.024  1.0268 -2.1641 -0.7817
 1492SOL    HW215939   2.791   0.891   6.161 -0.2816  0.1767  0.6557
 1493SOL     OW15940   4.694   3.614   5.459 -0.3070  0.1643  0.0545
 1493SOL    HW115941   4.601   3.592   5.470 -0.4097  1.3583  1.5894
 1493SOL    HW215942   4.693   3.630   5.364 -2.6350  0.9928  0.2145
 1494SOL     OW15943   0.742   2.026  11.532 -0.4379  0.2895 -0.1937
 1494SOL    HW115944   0.705   1.990  11.452 -0.0432  1.2799 -0.8307
 1494SOL    HW215945   0.809   2.085  11.496 -1.3146  0.4635 -1.5243
 1495SOL     OW15946   0.418   4.289  15.186  0.3604 -0.4192  0.0872
 1495SOL    HW115947   0.433   4.293  15.280 -1.3961  0.6417  0.3265
 1495SOL    HW215948   0.385   4.378  15.173  3.1683  0.3133 -2.1352
 1496SOL     OW15949   1.860   1.381   2.876 -0.4598 -0.3172 -0.6469
 1496SOL    HW115950   1.911   1.321   2.930 -1.1451  0.0823  0.4425
 1496SOL    HW215951   1.864   1.444   2.948  1.8052 -0.8395 -0.3174
 1497SOL     OW15952   1.429   2.120   9.531  0.3641  0.1555 -0.4801
 1497SOL    HW115953   1.468   2.096   9.615 -0.8432  0.9398  0.3099
 1497SOL    HW215954   1.360   2.054   9.521  0.1574  0.3993 -0.6718
 1498SOL     OW15955   1.169   3.054   0.919 -0.0689  0.0332 -0.0071
 1498SOL    HW115956   1.148   3.086   1.007  0.8048 -0.9331  0.5525
 1498SOL    HW215957   1.263   3.038   0.926  0.2983  2.0760 -0.1084
 1499SOL     OW15958   1.440   4.540   7.376 -0.5663  0.3946  0.8723
 1499SOL    HW115959   1.366   4.562   7.319 -0.4610  0.0955  0.6207
 1499SOL    HW215960   1.435   4.613   7.438 -0.2751  1.1769 -0.0367
 1500SOL     OW15961   1.264   3.331   7.829  0.1160 -1.1051 -0.0520
 1500SOL    HW115962   1.169   3.334   7.836  0.2094 -0.0940  0.7828
 1500SOL    HW215963   1.267   3.289   7.743  0.7362  1.0937 -1.1199
 1501SOL     OW15964   2.101   1.056   9.439 -0.1246  0.2817  0.2617
 1501SOL    HW115965   2.098   1.015   9.525  1.3091  0.9545  0.6348
 1501SOL    HW215966   2.192   1.077   9.419 -0.0087  0.1128  0.6115
 1502SOL     OW15967   1.242   3.543   2.920  0.6408  0.0289  0.7054
 1502SOL    HW115968   1.162   3.530   2.869  1.4999 -2.8101  0.0661
 1502SOL    HW215969   1.201   3.592   2.991 -4.1093  1.1193 -2.7459
 1503SOL     OW15970   2.276   1.927   2.516 -0.4740 -0.0799 -0.5707
 1503SOL    HW115971   2.271   1.959   2.607 -0.1782 -0.7492 -0.3182
 1503SOL    HW215972   2.328   1.848   2.530 -0.0334 -0.1916 -2.8855
 1504SOL     OW15973   3.484   4.652   5.570  0.2320 -0.3235  0.4254
 1504SOL    HW115974   3.534   4.716   5.621 -3.7190  2.7223  0.4816
 1504SOL    HW215975   3.440   4.604   5.640  2.4584 -1.3947  1.0783
 1505SOL     OW15976   3.779   4.528  17.609 -0.0471  0.0431 -0.3752
 1505SOL    HW115977   3.867   4.544  17.574  0.6973  0.0789  1.5273
 1505SOL    HW215978   3.736   4.572  17.536 -1.7782 -0.7363  0.1904
 1506SOL     OW15979   4.552   1.890  14.877 -0.6682  0.0122 -0.2014
 1506SOL    HW115980   4.526   1.808  14.836 -0.6874 -1.1418  2.1311
 1506SOL    HW215981   4.558   1.951  14.803 -2.3505  0.3155 -0.0921
 1507SOL     OW15982   1.019   0.681   8.414 -0.0261  0.6103  0.3303
 1507SOL    HW115983   0.991   0.680   8.506 -2.9774 -0.6427 -0.5984
 1507SOL    HW215984   0.934   0.700   8.374  0.4031 -1.1780 -1.4096
 1508SOL     OW15985   4.166   4.387   7.002  0.2129  0.1435 -0.3383
 1508SOL    HW115986   4.245   4.442   7.002  1.7282 -2.0620 -0.5728
 1508SOL    HW215987   4.134   4.399   7.091 -1.9537  1.9826 -1.3491
 1509SOL     OW15988   0.448   2.003   2.090  0.4615  0.5974 -0.2424
 1509SOL    HW115989   0.403   2.077   2.050  0.3803  0.7192  0.0743
 1509SOL    HW215990   0.438   2.035   2.180  0.3289 -3.9530  1.4034
 1510SOL     OW15991   2.713   2.996   5.610  0.3471 -0.0102 -0.2073
 1510SOL    HW115992   2.725   3.032   5.522  0.0699  0.7984  0.0797
 1510SOL    HW215993   2.667   3.068   5.654 -2.0420 -1.1927 -0.7812
 1511SOL     OW15994   3.901   3.535  10.857 -0.3579 -0.1288 -0.7143
 1511SOL    HW115995   3.851   3.464  10.897 -0.2039  0.5070  0.6197
 1511SOL    HW215996   3.956   3.558  10.932 -0.6288  2.3772 -1.2834
 1512SOL     OW15997   4.266   0.448  15.669  0.2028 -0.6511 -0.4197
 1512SOL    HW115998   4.198   0.507  15.637 -0.0365 -0.0642  1.1378
 1512SOL    HW215999   4.326   0.508  15.715  0.2273 -2.2119  1.6118
 1513SOL     OW16000   3.567   0.190  15.943 -0.4451  0.2034  0.2175
 1513SOL    HW116001   3.549   0.147  15.860  2.2326 -0.1218 -0.2124
 1513SOL    HW216002   3.499   0.257  15.940 -0.7873 -0.1700 -0.1680
 1514SOL     OW16003   2.484   0.237  15.749 -0.0432 -0.8171 -0.5382
 1514SOL    HW116004   2.461   0.148  15.724  2.2311 -1.1157 -1.5071
 1514SOL    HW216005   2.563   0.261  15.701  0.9686 -0.8037  1.1258
 1515SOL     OW16006   0.574   3.918   7.992 -0.0069  0.1085  0.1085
 1515SOL    HW116007   0.548   3.996   8.041 -0.4400  0.3984 -0.5907
 1515SOL    HW216008   0.488   3.897   7.956 -0.0309 -0.9555  0.7542
 1516SOL     OW16009   0.165   3.455   5.562  0.0533 -0.2337 -0.7250
 1516SOL    HW116010   0.082   3.493   5.531  1.1855  3.6755  1.0091
 1516SOL    HW216011   0.232   3.475   5.497  1.5218 -0.6842  0.6487
 1517SOL     OW16012   2.747   0.006   9.125  0.0528  0.3304 -0.1292
 1517SOL    HW116013   2.685   4.658   9.109  0.0885 -0.3521  2.6873
 1517SOL    HW216014   2.792   0.008   9.041  0.0797  0.5463 -0.1104
 1518SOL     OW16015   1.537   1.790   8.760 -0.2269 -0.0571 -0.5775
 1518SOL    HW116016   1.461   1.780   8.818 -0.6628  2.6579 -0.6768
 1518SOL    HW216017   1.522   1.726   8.690 -0.8750  0.0755 -0.5638
 1519SOL     OW16018   2.836   4.100   2.925  0.0603 -0.1373  0.6922
 1519SOL    HW116019   2.855   4.096   3.019  1.8582 -0.2233  0.3193
 1519SOL    HW216020   2.826   4.006   2.909  1.0045  0.2978 -2.3741
 1520SOL     OW16021   4.571   3.957   8.142 -0.6315  0.1939 -0.2274
 1520SOL    HW116022   4.584   3.990   8.231  0.0213  0.4022 -0.3967
 1520SOL    HW216023   4.637   3.888   8.129  1.4115  1.4609  3.5180
 1521SOL     OW16024   0.245   1.027  11.020  0.0403  0.8636  0.5441
 1521SOL    HW116025   0.228   0.976  11.099  2.3556 -0.5916  0.1032
 1521SOL    HW216026   0.199   0.989  10.945 -1.5850  0.5775  1.6928
 1522SOL     OW16027   3.282   1.228   3.034 -0.3739  0.8612 -0.0770
 1522SOL    HW116028   3.284   1.250   2.941 -0.2104 -0.1709 -0.3156
 1522SOL    HW216029   3.278   1.133   3.039  0.3127  0.7137 -2.2222
 1523SOL     OW16030   2.516   0.861   9.251  0.0308 -0.0390 -0.1755
 1523SOL    HW116031   2.490   0.918   9.178 -0.3526 -2.1380 -1.6763
 1523SOL    HW216032   2.435   0.815   9.273  0.2375  0.0283  0.7249
 1524SOL     OW16033   4.431   3.946   8.678  0.1824  0.3882  0.0539
 1524SOL    HW116034   4.525   3.967   8.675  0.1798  0.5344  1.0663
 1524SOL    HW216035   4.393   4.018   8.729  0.3563 -0.4302  1.3466
 1525SOL     OW16036   4.326   0.408   6.587  0.1016  0.1340  0.4516
 1525SOL    HW116037   4.233   0.387   6.591 -0.1460  1.4557  1.6340
 1525SOL    HW216038   4.313   0.500   6.611  1.3453  0.0766  1.3556
 1526SOL     OW16039   0.689   2.357  12.524  0.5673  0.8564  0.2734
 1526SOL    HW116040   0.755   2.340  12.458  1.0482  0.1284  0.9486
 1526SOL    HW216041   0.724   2.424  12.583  1.0313 -0.1475  1.1308
 1527SOL     OW16042   1.914   2.661   3.837 -0.0804 -0.2578 -0.7185
 1527SOL    HW116043   1.901   2.669   3.931 -0.3661 -1.5275 -0.6502
 1527SOL    HW216044   1.887   2.749   3.812 -0.1886 -0.2331 -0.5168
 1528SOL     OW16045   4.299   4.401  16.790 -0.1580 -0.0990 -0.4089
 1528SOL    HW116046   4.266   4.317  16.759  2.1224 -1.3836  0.6151
 1528SOL    HW216047   4.394   4.403  16.773 -0.2515 -0.2691 -0.9364
 1529SOL     OW16048   0.136   2.621   7.914  0.2358  0.0234  0.1179
 1529SOL    HW116049   0.078   2.611   7.989  2.3106  0.0905  1.7170
 1529SOL    HW216050   0.167   2.532   7.896  0.8253  0.3781 -0.6244
 1530SOL     OW16051   2.165   0.602   1.638  0.5024  0.3789  0.1071
 1530SOL    HW116052   2.135   0.571   1.553 -0.1827 -0.8460  0.7929
 1530SOL    HW216053   2.219   0.677   1.615  2.0660 -0.5792  0.6016
 1531SOL     OW16054   2.931   1.514   6.424 -0.0525  0.0936  0.6554
 1531SOL    HW116055   3.015   1.521   6.469  0.4032  0.2671 -0.2259
 1531SOL    HW216056   2.919   1.602   6.390 -2.0222  0.0742  1.3349
 1532SOL     OW16057   1.583   1.363   5.435  0.2060  0.1751 -0.1059
 1532SOL    HW116058   1.605   1.452   5.407  0.4543 -0.5581 -2.2556
 1532SOL    HW216059   1.567   1.309   5.357 -1.3202  0.0458  0.2800
 1533SOL     OW16060   3.235   0.163   9.160 -0.1025 -0.2034 -0.2190
 1533SOL    HW116061   3.254   0.254   9.141 -0.7972 -0.1315 -0.5575
 1533SOL    HW216062   3.285   0.153   9.241  0.8180  2.1752 -0.4967
 1534SOL     OW16063   1.502   2.542   1.861 -0.1519 -0.0893 -0.4172
 1534SOL    HW116064   1.500   2.634   1.835 -0.3106  0.3779  1.2645
 1534SOL    HW216065   1.524   2.541   1.954 -0.6372 -2.0357 -0.3229
 1535SOL     OW16066   2.831   1.769  17.294 -0.5440 -1.0288 -0.5230
 1535SOL    HW116067   2.879   1.748  17.214  0.5899 -0.9222  0.1198
 1535SOL    HW216068   2.838   1.864  17.284  0.6624 -1.2160 -1.4781
 1536SOL     OW16069   4.028   2.358   7.662  0.3932 -0.1396  0.0409
 1536SOL    HW116070   4.052   2.266   7.654 -2.0057 -0.6350 -1.4752
 1536SOL    HW216071   4.113   2.397   7.643  0.9675 -0.1300  2.6433
 1537SOL     OW16072   2.499   2.494  14.355  0.0938 -0.0484 -0.5089
 1537SOL    HW116073   2.427   2.502  14.293 -0.6786 -0.3485  0.3411
 1537SOL    HW216074   2.519   2.586  14.338 -0.0637 -0.1688 -1.3052
 1538SOL     OW16075   2.866   3.601   4.010  0.2351 -0.1228 -0.3734
 1538SOL    HW116076   2.821   3.671   3.963  2.0944  0.1106 -1.8059
 1538SOL    HW216077   2.898   3.542   3.942  1.3137  0.4032 -0.3250
 1539SOL     OW16078   3.665   3.355   2.342 -0.2192 -0.6353  0.4259
 1539SOL    HW116079   3.694   3.266   2.358  2.2617  0.3414  1.2633
 1539SOL    HW216080   3.588   3.348   2.399  0.5480 -0.0489  1.5079
 1540SOL     OW16081   4.059   2.826   5.400 -0.0727  0.3306 -0.6303
 1540SOL    HW116082   4.135   2.769   5.398  3.1994  4.5717  1.5495
 1540SOL    HW216083   4.091   2.892   5.339  0.4559  0.8973  0.2526
 1541SOL     OW16084   2.991   3.156  15.277  0.3059  0.4850  0.4905
 1541SOL    HW116085   2.963   3.065  15.292 -0.0072  0.6702  1.0099
 1541SOL    HW216086   2.981   3.189  15.366  3.2116 -0.9181  1.3504
 1542SOL     OW16087   2.286   4.565   9.814  0.5833  0.2511 -0.0298
 1542SOL    HW116088   2.364   4.571   9.759  0.8860  1.6611  0.5330
 1542SOL    HW216089   2.230   4.586   9.739  0.5282  4.1646  1.0609
 1543SOL     OW16090   1.380   3.182   4.492  0.1082 -0.5581  0.1209
 1543SOL    HW116091   1.316   3.179   4.563 -0.1961 -1.2026 -0.1799
 1543SOL    HW216092   1.394   3.091   4.465  0.4163 -0.5981  0.4120
 1544SOL     OW16093   4.330   3.893   4.781 -0.7215  0.0736 -0.4116
 1544SOL    HW116094   4.323   3.955   4.708 -1.0884  0.6279  0.1078
 1544SOL    HW216095   4.404   3.934   4.825 -0.2423 -1.9035  0.6212
 1545SOL     OW16096   1.002   0.202  10.031  0.7044  0.0420 -0.0864
 1545SOL    HW116097   0.966   0.200   9.943 -1.9089 -0.6785  0.9992
 1545SOL    HW216098   1.047   0.286  10.037 -0.5057  0.7225 -0.5345
 1546SOL     OW16099   0.987   0.695   9.968  0.2141 -0.3943  0.4710
 1546SOL    HW116100   0.940   0.735  10.041  2.3924  0.0502  1.6200
 1546SOL    HW216101   0.984   0.771   9.910 -2.5393  0.6050  1.9026
 1547SOL     OW16102   3.961   2.280   0.488  0.5047  1.2899 -0.5517
 1547SOL    HW116103   4.028   2.248   0.427  0.1789 -0.1511 -0.1478
 1547SOL    HW216104   3.914   2.204   0.521  1.2908  1.3582  0.7487
 1548SOL     OW16105   1.082   1.558   0.296  0.3136 -0.3669  0.6423
 1548SOL    HW116106   1.087   1.476   0.346  0.6022 -0.8200 -0.1330
 1548SOL    HW216107   1.075   1.517   0.210 -2.9151  1.9955 -0.2024
 1549SOL     OW16108   2.660   3.361   6.795 -0.3330  0.0179 -0.1373
 1549SOL    HW116109   2.608   3.440   6.808 -1.5766 -0.8435  0.0360
 1549SOL    HW216110   2.711   3.365   6.876  1.4844  4.8082 -1.4979
 1550SOL     OW16111   2.675   3.237  14.637  0.4565  0.2698  0.4445
 1550SOL    HW116112   2.752   3.184  14.655 -0.1918 -1.2042 -1.1122
 1550SOL    HW216113   2.706   3.328  14.639 -2.9008  1.4509 -0.4290
 1551SOL     OW16114   1.854   4.407   8.744 -0.0566  0.2929  0.2308
 1551SOL    HW116115   1.777   4.433   8.793 -2.3276 -0.0837 -3.1702
 1551SOL    HW216116   1.882   4.495   8.721  0.1396 -0.2851 -1.8165
 1552SOL     OW16117   0.573   3.118   0.919 -0.1889  0.0627 -0.3104
 1552SOL    HW116118   0.491   3.074   0.941  0.2768 -0.1808  0.8934
 1552SOL    HW216119   0.614   3.054   0.862 -1.1709  1.4398 -2.5985
 1553SOL     OW16120   0.385   3.625   6.921  0.7198  0.2432 -0.0479
 1553SOL    HW116121   0.448   3.693   6.898  1.2843  0.2660  1.5353
 1553SOL    HW216122   0.364   3.649   7.012 -1.7389  0.1264 -0.5951
 1554SOL     OW16123   2.239   3.515   5.721  0.4738 -0.5416 -0.2671
 1554SOL    HW116124   2.258   3.594   5.671 -0.3793  0.8650  1.6362
 1554SOL    HW216125   2.177   3.465   5.668 -1.7249  2.6219 -0.6825
 1555SOL     OW16126   3.666   2.047   9.166 -0.4265 -0.0457  0.2175
 1555SOL    HW116127   3.581   2.073   9.201 -0.7983 -1.2000  0.1485
 1555SOL    HW216128   3.657   1.953   9.179 -0.1399 -0.0764  0.1954
 1556SOL     OW16129   4.239   1.953   8.401 -0.0395 -0.4316 -0.2728
 1556SOL    HW116130   4.223   1.940   8.307 -3.4318 -0.6615  0.3341
 1556SOL    HW216131   4.183   1.890   8.445 -0.0657 -1.2794 -1.5101
 1557SOL     OW16132   2.005   1.428   8.881  0.0057 -0.3059 -0.2227
 1557SOL    HW116133   1.924   1.382   8.858 -1.6440  2.5817 -0.1370
 1557SOL    HW216134   1.974   1.474   8.959  0.0479 -0.0288 -0.3688
 1558SOL     OW16135   0.258   1.250   4.459  0.1094  0.2018  0.0741
 1558SOL    HW116136   0.280   1.256   4.552  3.0631  2.8731 -0.7906
 1558SOL    HW216137   0.174   1.205   4.460  0.6238 -0.7957 -0.9014
 1559SOL     OW16138   2.420   1.894   3.967  0.7931  0.0308 -0.2920
 1559SOL    HW116139   2.417   1.887   4.063 -1.6979  0.9053 -0.3085
 1559SOL    HW216140   2.480   1.823   3.945  1.3282  1.0011 -1.9339
 1560SOL     OW16141   1.278   1.684  15.208 -0.3501 -0.2642 -0.2092
 1560SOL    HW116142   1.232   1.616  15.256  0.2697 -0.2604  0.3831
 1560SOL    HW216143   1.344   1.724  15.265  0.4653  1.1494 -2.1290
 1561SOL     OW16144   0.231   0.590   5.592  0.0522  0.1225  0.1069
 1561SOL    HW116145   0.255   0.680   5.570 -1.0329  0.7951  1.6780
 1561SOL    HW216146   0.176   0.579   5.515 -1.2039 -0.8061  1.1401
 1562SOL     OW16147   2.695   2.675   5.934 -0.1700 -0.1893 -0.1412
 1562SOL    HW116148   2.705   2.701   6.026  1.5412 -0.3918 -0.2809
 1562SOL    HW216149   2.705   2.580   5.933 -1.7485 -0.3522 -1.0564
 1563SOL     OW16150   4.622   2.763   2.253  0.4465  0.1962  0.5768
 1563SOL    HW116151   4.572   2.681   2.256  1.2762 -0.3872 -1.8484
 1563SOL    HW216152   4.560   2.818   2.302  0.0085 -0.6474  0.9834
 1564SOL     OW16153   2.580   1.259   3.823 -0.3072  0.5916  0.0849
 1564SOL    HW116154   2.588   1.332   3.762 -0.1865  0.4874 -0.0251
 1564SOL    HW216155   2.516   1.197   3.789  1.8069 -0.1718 -2.5804
 1565SOL     OW16156   1.369   2.951   5.911  0.5905  0.5947  0.1338
 1565SOL    HW116157   1.454   2.962   5.955  2.4220 -2.7118 -2.5237
 1565SOL    HW216158   1.345   2.863   5.942 -0.2858 -0.2883 -3.0579
 1566SOL     OW16159   2.568   0.898   2.840 -0.0648  0.0526  0.5911
 1566SOL    HW116160   2.550   0.845   2.917  0.5448  0.1376  0.7970
 1566SOL    HW216161   2.566   0.983   2.883  1.3296  0.2025  0.3804
 1567SOL     OW16162   3.472   0.101  16.637  0.1544  0.2949  0.1455
 1567SOL    HW116163   3.398   0.104  16.698  0.0996 -0.5747  0.1187
 1567SOL    HW216164   3.470   0.191  16.605 -1.1683  0.3761  0.4346
 1568SOL     OW16165   1.738   4.236   4.674 -0.0368 -0.0352  0.1836
 1568SOL    HW116166   1.651   4.266   4.648  0.7188  0.6664 -1.4966
 1568SOL    HW216167   1.720   4.200   4.761 -0.8220  1.8114  0.7907
 1569SOL     OW16168   2.778   0.369   6.703 -0.0502  0.1348 -0.4794
 1569SOL    HW116169   2.739   0.331   6.781  0.1469  0.3227 -0.2871
 1569SOL    HW216170   2.866   0.332   6.706 -0.4632 -1.0156 -2.7890
 1570SOL     OW16171   3.996   3.235   6.096  0.1449 -0.5194 -0.0187
 1570SOL    HW116172   4.016   3.253   6.004 -0.6846 -2.0946 -0.5027
 1570SOL    HW216173   3.979   3.323   6.129  3.7852 -0.5412  1.8576
 1571SOL     OW16174   4.301   1.577   8.558  0.1356 -0.1994 -0.0742
 1571SOL    HW116175   4.239   1.576   8.630 -0.1940 -0.1346 -0.3592
 1571SOL    HW216176   4.364   1.644   8.585  2.4484 -2.3331 -0.2074
 1572SOL     OW16177   3.327   2.357   9.787 -0.0551  0.1271 -0.4101
 1572SOL    HW116178   3.356   2.298   9.857  1.3110 -1.0150 -1.9278
 1572SOL    HW216179   3.258   2.402   9.834  1.5678  1.8693  0.2909
 1573SOL     OW16180   1.084   0.727   1.594 -0.5290  0.2157  0.2611
 1573SOL    HW116181   1.130   0.658   1.546 -0.4019 -0.1438  0.8989
 1573SOL    HW216182   1.122   0.801   1.548  0.7136 -2.2112 -2.6279
 1574SOL     OW16183   2.479   3.808   8.701  0.4203 -0.4366  0.0057
 1574SOL    HW116184   2.410   3.757   8.743 -0.1448  0.5179  0.2343
 1574SOL    HW216185   2.468   3.774   8.613 -1.0083 -0.7691  0.3228
 1575SOL     OW16186   1.884   1.827  17.692  0.5296  0.6541  0.3552
 1575SOL    HW116187   1.891   1.754  17.630  1.7001 -0.1044  1.3713
 1575SOL    HW216188   1.870   1.894  17.626 -1.9556  0.5141  0.7381
 1576SOL     OW16189   4.204   2.397   2.530  0.2508 -0.0482  0.2433
 1576SOL    HW116190   4.173   2.473   2.480 -0.0645 -0.2648  0.1091
 1576SOL    HW216191   4.290   2.383   2.492 -0.1305 -0.3512 -0.4922
 1577SOL     OW16192   1.676   1.748   7.885  0.4808  0.2692  0.3860
 1577SOL    HW116193   1.693   1.718   7.795 -1.0695 -0.7717  0.4196
 1577SOL    HW216194   1.729   1.826   7.893 -1.1044  1.2928  0.8971
 1578SOL     OW16195   2.810   4.628   5.624 -0.1367  0.3820  0.4618
 1578SOL    HW116196   2.788   4.706   5.676  2.0464  0.9617  0.5165
 1578SOL    HW216197   2.843   4.563   5.687  0.7275 -1.9307 -2.4029
 1579SOL     OW16198   4.271   2.639   5.292 -0.2773  0.0830  0.0745
 1579SOL    HW116199   4.304   2.718   5.250 -0.3470 -0.4730 -1.0170
 1579SOL    HW216200   4.351   2.612   5.338  1.2828  0.2475 -2.5439
 1580SOL     OW16201   0.085   3.070  10.734 -0.2032  0.3897  0.8338
 1580SOL    HW116202   0.048   3.026  10.810 -2.0012 -1.1822 -0.9624
 1580SOL    HW216203   0.168   3.107  10.765  0.5824 -0.0652 -0.6861
 1581SOL     OW16204   2.089   2.097   6.014 -0.0420  0.0351  0.0421
 1581SOL    HW116205   2.053   2.011   5.995  2.1772 -1.1628  1.2243
 1581SOL    HW216206   2.125   2.074   6.100  1.3474 -0.5602 -0.6829
 1582SOL     OW16207   4.090   1.986   0.448  0.0994 -0.1038  0.4214
 1582SOL    HW116208   4.173   2.027   0.472 -0.4078  1.2012 -0.1010
 1582SOL    HW216209   4.048   1.999   0.533 -1.0534 -0.5503 -0.0794
 1583SOL     OW16210   2.419   3.841   3.352  0.4933  0.0832 -0.3842
 1583SOL    HW116211   2.378   3.911   3.402 -2.1897 -0.8198 -1.3387
 1583SOL    HW216212   2.380   3.766   3.398 -1.1492 -0.0951 -2.0637
 1584SOL     OW16213   4.484   1.853   2.472 -0.2118  0.1207  0.2898
 1584SOL    HW116214   4.568   1.822   2.441 -0.8836 -1.1605 -0.2335
 1584SOL    HW216215   4.500   1.933   2.522 -0.5294  0.7843 -0.6653
 1585SOL     OW16216   2.990   2.654   8.072 -0.1119 -0.0813 -0.7559
 1585SOL    HW116217   3.065   2.704   8.103 -2.8070  3.7636 -0.4851
 1585SOL    HW216218   2.946   2.657   8.157  1.6540 -0.3416  0.1773
 1586SOL     OW16219   2.367   2.454   4.037 -0.9823 -0.2844  0.5111
 1586SOL    HW116220   2.437   2.519   4.045  1.8168 -2.9767 -1.8506
 1586SOL    HW216221   2.332   2.454   3.948  2.4462  0.4683 -0.8448
 1587SOL     OW16222   1.519   2.784  10.218  0.5140 -0.3132 -0.3454
 1587SOL    HW116223   1.598   2.767  10.166  1.1782  0.0333  0.5515
 1587SOL    HW216224   1.450   2.738  10.170  0.0390  1.0368 -0.9552
 1588SOL     OW16225   0.815   0.584   2.357 -0.0994  0.0912  0.5148
 1588SOL    HW116226   0.854   0.667   2.328  1.2650 -0.9083 -0.5415
 1588SOL    HW216227   0.854   0.585   2.445 -1.1553  2.3874  0.9609
 1589SOL     OW16228   3.347   3.192   2.573 -0.0151 -0.1691  0.6474
 1589SOL    HW116229   3.319   3.246   2.648 -1.8528 -1.2243  0.7205
 1589SOL    HW216230   3.437   3.169   2.599 -0.3170  0.0948  1.9489
 1590SOL     OW16231   3.666   0.023   4.409 -0.2701  0.3160 -0.1984
 1590SOL    HW116232   3.632   0.105   4.374  1.5493  0.2957 -2.0515
 1590SOL    HW216233   3.743   0.030   4.352  0.3270 -1.9612  0.2936
 1591SOL     OW16234   3.210   0.941   3.116  0.4242  0.1855  0.9371
 1591SOL    HW116235   3.275   0.899   3.060  2.3462  1.9343  1.8576
 1591SOL    HW216236   3.172   0.861   3.151  2.3459 -0.1442  2.2651
 1592SOL     OW16237   0.550   4.235   4.621  0.1921  0.4608  0.2294
 1592SOL    HW116238   0.574   4.303   4.684  0.1232  0.5709  0.1380
 1592SOL    HW216239   0.480   4.190   4.669  0.3396 -0.2284 -0.1989
 1593SOL     OW16240   1.213   2.812  10.158 -0.4265 -0.6445  0.0287
 1593SOL    HW116241   1.165   2.893  10.140 -0.0908 -0.3497  0.4555
 1593SOL    HW216242   1.235   2.847  10.245 -2.2167 -0.9047  0.5798
 1594SOL     OW16243   4.025   3.353   1.895 -0.3283  0.1567 -0.5481
 1594SOL    HW116244   3.942   3.373   1.938  0.7840  1.5982  0.8956
 1594SOL    HW216245   4.043   3.267   1.934  0.4586  0.6035  0.0667
 1595SOL     OW16246   3.154   0.529   8.813  0.2034 -0.5157 -0.0379
 1595SOL    HW116247   3.087   0.476   8.856 -2.1902  1.0646 -1.8490
 1595SOL    HW216248   3.184   0.459   8.755  2.9899 -0.5120  1.3911
 1596SOL     OW16249   3.707   3.578   0.219 -0.0700  0.2533  0.1153
 1596SOL    HW116250   3.719   3.642   0.150  1.2448 -1.8406 -1.6072
 1596SOL    HW216251   3.643   3.516   0.184  0.1634  0.6323 -0.9732
 1597SOL     OW16252   4.374   3.669   1.583 -0.3454  0.1296 -0.4730
 1597SOL    HW116253   4.378   3.696   1.675 -2.3787 -0.4545 -0.2145
 1597SOL    HW216254   4.323   3.739   1.543 -0.6471 -0.5302 -1.2253
 1598SOL     OW16255   3.755   0.974   4.868 -0.2670 -0.0386  0.5755
 1598SOL    HW116256   3.783   1.059   4.835 -1.0641  0.0758  0.1716
 1598SOL    HW216257   3.670   0.972   4.823  0.2912 -1.5506 -0.4121
 1599SOL     OW16258   2.831   2.330   1.770  0.3210 -0.1414  0.3761
 1599SOL    HW116259   2.812   2.367   1.684 -1.6872 -0.3593  0.7302
 1599SOL    HW216260   2.740   2.306   1.788 -0.0256  1.3418  0.5834
 1600SOL     OW16261   1.114   3.863   3.327 -0.3461  0.3503  1.0287
 1600SOL    HW116262   1.067   3.853   3.410 -0.6521  0.7760  0.9040
 1600SOL    HW216263   1.189   3.910   3.365 -0.0754  1.8628 -1.4220
 1601SOL     OW16264   0.309   1.991   5.606 -0.3224  0.3302 -0.4436
 1601SOL    HW116265   0.332   1.899   5.623  0.2594  0.6203  0.3006
 1601SOL    HW216266   0.215   2.002   5.618 -0.1815  0.2523  0.7346
 1602SOL     OW16267   2.051   0.943   1.534 -0.0320  0.1266  0.1252
 1602SOL    HW116268   1.981   0.985   1.484 -0.3396 -1.7398 -1.0333
 1602SOL    HW216269   2.055   0.867   1.476  0.0671  0.6264 -0.5243
 1603SOL     OW16270   0.402   0.185  12.329 -0.4033  0.2294  0.1623
 1603SOL    HW116271   0.327   0.128  12.343 -0.4015  0.1085 -0.3354
 1603SOL    HW216272   0.375   0.254  12.390 -2.6023 -0.1795 -0.3485
 1604SOL     OW16273   3.844   3.880  11.567 -0.3143 -0.0986  0.1283
 1604SOL    HW116274   3.850   3.857  11.474 -0.9217  2.0426 -0.4346
 1604SOL    HW216275   3.808   3.968  11.558 -0.3461 -0.1404 -0.1561
 1605SOL     OW16276   1.589   2.260  14.491  0.4285  0.1464 -0.1871
 1605SOL    HW116277   1.623   2.299  14.411 -0.0847  0.0134 -0.4657
 1605SOL    HW216278   1.500   2.234  14.466  0.0159 -0.1922  1.6355
 1606SOL     OW16279   4.520   0.074   6.739  0.0577 -0.3077 -0.3761
 1606SOL    HW116280   4.494   0.130   6.812  0.4667  0.5096 -0.8575
 1606SOL    HW216281   4.587   0.017   6.778  1.4911  1.3527 -0.4291
 1607SOL     OW16282   2.581   1.771   7.729  0.5897 -0.1651  0.5976
 1607SOL    HW116283   2.529   1.694   7.752  0.2893 -0.5848 -1.4708
 1607SOL    HW216284   2.617   1.736   7.648  0.2197  1.3955 -0.2447
 1608SOL     OW16285   2.723   3.097  11.823 -0.0466  0.0483  0.7577
 1608SOL    HW116286   2.710   3.171  11.764  0.4352 -1.3799 -1.1357
 1608SOL    HW216287   2.803   3.063  11.782  0.5837  1.4481  0.8285
 1609SOL     OW16288   3.022   3.064   8.812 -0.2048 -0.0329  0.1488
 1609SOL    HW116289   2.957   3.002   8.778 -1.4801  0.0777  2.4109
 1609SOL    HW216290   3.003   3.064   8.906  1.1561 -1.6707  0.4355
 1610SOL     OW16291   1.100   4.147  15.170  0.3643 -0.1228  0.4603
 1610SOL    HW116292   1.092   4.118  15.079  0.3298  2.4022 -0.3358
 1610SOL    HW216293   1.053   4.230  15.162 -1.5581 -0.9103  3.8427
 1611SOL     OW16294   3.234   4.350  15.682  0.2201 -0.2608 -0.0344
 1611SOL    HW116295   3.294   4.404  15.732  1.4423 -1.4694 -0.1964
 1611SOL    HW216296   3.160   4.336  15.741 -0.1211 -1.8641 -0.8227
 1612SOL     OW16297   2.517   1.940   3.642  0.2685 -0.0937  0.2985
 1612SOL    HW116298   2.534   1.925   3.735  1.1936 -0.7753  0.0125
 1612SOL    HW216299   2.424   1.917   3.638  0.6945 -1.4097 -2.0476
 1613SOL     OW16300   4.464   0.946   4.544  0.4017 -0.2091  0.2642
 1613SOL    HW116301   4.425   0.947   4.456 -1.1112 -0.9737  0.9333
 1613SOL    HW216302   4.546   0.897   4.531 -1.1717 -2.1211 -2.4705
 1614SOL     OW16303   0.293   1.652   4.398  0.2228 -0.1509  0.0299
 1614SOL    HW116304   0.223   1.624   4.339  0.9718 -0.6131 -0.6466
 1614SOL    HW216305   0.280   1.747   4.401 -0.6721 -0.2497 -0.7856
 1615SOL     OW16306   1.273   0.122  10.267 -0.5189  0.4575 -0.2089
 1615SOL    HW116307   1.339   0.069  10.312 -1.5288  0.4846  1.3140
 1615SOL    HW216308   1.278   0.069  10.187 -0.1508 -0.6817  0.5660
 1616SOL     OW16309   2.497   2.349   1.179 -0.0003 -0.5351  0.1811
 1616SOL    HW116310   2.428   2.345   1.113 -1.6217  0.4068  1.8498
 1616SOL    HW216311   2.547   2.421   1.142  1.3933 -1.4203  0.3342
 1617SOL     OW16312   3.305   0.792  11.511  0.0276 -0.3701  0.2475
 1617SOL    HW116313   3.339   0.856  11.573  0.3724 -2.0171  1.7473
 1617SOL    HW216314   3.300   0.853  11.438  0.1878  0.3235  0.8205
 1618SOL     OW16315   3.722   4.291   2.302 -0.1628 -0.3638  0.3076
 1618SOL    HW116316   3.792   4.226   2.308  1.4200  1.3640  0.5628
 1618SOL    HW216317   3.743   4.322   2.214 -0.2389 -0.1470  0.3650
 1619SOL     OW16318   2.698   1.981   2.671 -0.2820  0.2895 -0.0817
 1619SOL    HW116319   2.754   1.984   2.748 -0.2384 -0.2704 -0.0898
 1619SOL    HW216320   2.626   2.029   2.712  1.0880  1.5841  0.7880
 1620SOL     OW16321   3.042   2.693   7.069  0.2173 -0.2713  0.2102
 1620SOL    HW116322   3.112   2.628   7.060  0.4664 -0.1785  1.4637
 1620SOL    HW216323   3.069   2.743   6.993 -0.0403  0.4509  0.5913
 1621SOL     OW16324   3.420   3.438   5.337  0.0453 -0.6862 -0.3672
 1621SOL    HW116325   3.434   3.492   5.259  0.6934  1.1982  1.0494
 1621SOL    HW216326   3.433   3.350   5.301  0.4160 -0.5386 -0.5995
 1622SOL     OW16327   2.096   1.364   6.020 -0.8632 -0.1168  0.0568
 1622SOL    HW116328   2.006   1.394   6.008 -1.0064 -0.3513  0.5684
 1622SOL    HW216329   2.090   1.281   5.973  1.3567  0.7297 -1.7740
 1623SOL     OW16330   1.399   4.601   3.517 -0.2424  0.3651 -0.0740
 1623SOL    HW116331   1.375   4.554   3.437 -1.8485  0.6773  0.2150
 1623SOL    HW216332   1.462   4.542   3.559  0.1549  0.6943 -0.2104
 1624SOL     OW16333   4.248   0.974   6.979  0.3732 -0.7881  0.1488
 1624SOL    HW116334   4.198   0.908   7.026 -1.1818 -1.0104 -1.8407
 1624SOL    HW216335   4.193   1.051   6.995  0.0533 -1.0919  0.5360
 1625SOL     OW16336   4.670   2.726  15.509  0.3384 -0.0654 -0.2156
 1625SOL    HW116337   4.697   2.780  15.583 -2.2112 -0.4940  1.0162
 1625SOL    HW216338   4.653   2.645  15.556  0.3710 -1.5074 -2.6907
 1626SOL     OW16339   3.032   0.914   9.366  0.5676 -0.3155 -0.3226
 1626SOL    HW116340   3.043   0.963   9.447  0.5743 -1.5922  0.4638
 1626SOL    HW216341   2.969   0.848   9.397  1.3435 -0.0489  1.8361
 1627SOL     OW16342   1.722   4.661   8.750  0.5241  0.2107  0.4254
 1627SOL    HW116343   1.763   0.010   8.702 -1.3859 -0.0305 -1.5682
 1627SOL    HW216344   1.727   4.702   8.836  2.1612 -1.7421  1.2874
 1628SOL     OW16345   3.376   0.715   2.811  0.1846  0.5502  0.0965
 1628SOL    HW116346   3.366   0.765   2.731  0.8552  0.6656  0.0830
 1628SOL    HW216347   3.307   0.651   2.795  1.0557 -0.0015 -1.4459
 1629SOL     OW16348   3.354   1.976  12.320 -0.3237  0.5112  0.4139
 1629SOL    HW116349   3.285   1.999  12.258  1.3903  1.6774 -1.0697
 1629SOL    HW216350   3.346   2.044  12.387  0.4978  0.6058  0.4145
 1630SOL     OW16351   1.038   0.897   2.468  0.6790 -0.3212 -0.3290
 1630SOL    HW116352   1.101   0.950   2.420 -0.3639  0.3511 -0.9491
 1630SOL    HW216353   0.970   0.897   2.401 -0.8005 -1.2500  1.1603
 1631SOL     OW16354   2.904   0.695   6.987  0.7158 -0.2642 -0.3915
 1631SOL    HW116355   2.826   0.744   7.016  0.7167 -1.0353  0.9357
 1631SOL    HW216356   2.903   0.702   6.892 -2.7153 -1.0490 -0.4388
 1632SOL     OW16357   2.418   4.591  14.885 -0.3246  0.1392 -0.3903
 1632SOL    HW116358   2.360   4.515  14.883 -0.3957  0.1258  2.5951
 1632SOL    HW216359   2.441   4.598  14.792  1.2604  0.4552  0.0317
 1633SOL     OW16360   4.353   4.031   7.165  0.5249 -0.6161  0.4553
 1633SOL    HW116361   4.358   4.082   7.084 -2.9115 -1.4579 -0.3019
 1633SOL    HW216362   4.281   3.969   7.149  0.8384 -0.9078  0.1893
 1634SOL     OW16363   0.456   2.945  15.855  0.0898 -0.1225 -0.0489
 1634SOL    HW116364   0.422   2.889  15.785 -0.6649  0.4506 -0.1326
 1634SOL    HW216365   0.443   3.031  15.816  1.8508 -0.1076 -0.5979
 1635SOL     OW16366   3.075   1.436   9.942  0.3196  0.0756  0.3316
 1635SOL    HW116367   3.101   1.361   9.996  1.0649 -1.9791 -2.8199
 1635SOL    HW216368   3.164   1.466   9.920  0.8390 -1.7936 -0.2032
 1636SOL     OW16369   3.300   4.001  12.131 -0.2290 -0.2974 -0.4609
 1636SOL    HW116370   3.381   4.051  12.134  1.3444 -2.8582  0.2830
 1636SOL    HW216371   3.235   4.067  12.153  1.3818  0.6310  1.4977
 1637SOL     OW16372   2.705   4.089   8.609  0.3300  0.3110  0.4774
 1637SOL    HW116373   2.767   4.016   8.604 -0.3258 -0.1977 -0.1913
 1637SOL    HW216374   2.765   4.164   8.617 -1.1023  1.3287  1.5171
 1638SOL     OW16375   0.921   3.675   2.871  0.1596  0.8661  0.2497
 1638SOL    HW116376   0.849   3.738   2.866 -0.4340  0.2504  1.0253
 1638SOL    HW216377   0.927   3.641   2.781  2.1176  1.5143  0.1457
 1639SOL     OW16378   3.348   0.057  11.322 -0.0346 -0.3407 -0.6578
 1639SOL    HW116379   3.368   0.084  11.232 -1.8328  1.8258 -0.3789
 1639SOL    HW216380   3.260   0.088  11.340  0.6900  1.4220 -0.1786
 1640SOL     OW16381   3.031   1.149   2.292 -0.3948  0.4199 -0.2051
 1640SOL    HW116382   2.997   1.142   2.203  0.7647  1.4922 -0.7508
 1640SOL    HW216383   3.124   1.126   2.287 -0.9198 -1.7535  0.2271
 1641SOL     OW16384   2.380   0.947   7.332 -0.5422 -0.3216  0.0233
 1641SOL    HW116385   2.460   0.898   7.352  1.0382  2.2862  0.0099
 1641SOL    HW216386   2.397   1.035   7.364  0.5961 -0.8318  0.8187
 1642SOL     OW16387   1.450   0.243  16.314 -0.4105 -0.7770  0.2381
 1642SOL    HW116388   1.407   0.283  16.389  0.5757  0.5733  0.0800
 1642SOL    HW216389   1.450   0.323  16.261  1.5638 -1.5397 -0.9285
 1643SOL     OW16390   0.689   3.502   7.033  0.3493 -0.6985  0.0974
 1643SOL    HW116391   0.675   3.442   7.106 -0.3730  0.7695  1.1697
 1643SOL    HW216392   0.600   3.521   7.003  0.5372  0.4110  0.2298
 1644SOL     OW16393   3.048   4.412   6.291 -0.3321 -0.5773  0.2967
 1644SOL    HW116394   3.074   4.355   6.363 -0.8998 -1.6225 -0.3376
 1644SOL    HW216395   3.045   4.493   6.342  0.8869  0.5441 -1.4089
 1645SOL     OW16396   0.835   3.828   4.258 -0.4206 -0.3294 -0.3355
 1645SOL    HW116397   0.756   3.844   4.311 -1.4242 -3.6121 -0.7832
 1645SOL    HW216398   0.833   3.732   4.253 -3.2131 -0.3475  0.8283
 1646SOL     OW16399   4.266   1.633   7.213 -0.6638  0.6170 -0.2462
 1646SOL    HW116400   4.206   1.697   7.251  0.9323  1.8757  0.1691
 1646SOL    HW216401   4.326   1.598   7.279 -0.2763 -1.9169 -1.9517
 1647SOL     OW16402   0.161   2.737  11.005 -0.0685 -0.0481 -0.0578
 1647SOL    HW116403   0.114   2.678  10.946 -1.0536 -0.2688  0.9551
 1647SOL    HW216404   0.110   2.814  10.978  0.7115 -0.4652 -2.6774
 1648SOL     OW16405   0.702   0.078   4.730  0.0850  0.2844 -0.0572
 1648SOL    HW116406   0.728   0.138   4.660 -1.7152 -0.6771 -1.5477
 1648SOL    HW216407   0.612   0.111   4.741  0.9517  1.9778  2.0617
 1649SOL     OW16408   0.219   3.792  16.378  0.3786  0.4295  0.1525
 1649SOL    HW116409   0.240   3.730  16.448 -0.9894  0.1584  0.3117
 1649SOL    HW216410   0.200   3.863  16.439 -0.1566 -1.2260  1.8907
 1650SOL     OW16411   0.743   0.791  15.848 -0.4653 -0.4344  0.2216
 1650SOL    HW116412   0.708   0.817  15.763 -0.1135 -1.1595 -0.1436
 1650SOL    HW216413   0.833   0.818  15.834 -0.0003 -1.1355  1.8523
 1651SOL     OW16414   1.335   0.760   3.232  0.2736 -0.0147 -0.1949
 1651SOL    HW116415   1.322   0.701   3.158 -0.3211  0.4810 -0.4842
 1651SOL    HW216416   1.329   0.849   3.199  1.0383 -0.7821 -2.3847
 1652SOL     OW16417   3.103   4.536   2.359 -0.0085  0.8713 -0.5587
 1652SOL    HW116418   3.093   4.630   2.372  0.2672  0.5327  2.0258
 1652SOL    HW216419   3.117   4.522   2.265  3.1455 -3.2125  0.4794
 1653SOL     OW16420   4.020   3.568   0.821  0.5249 -0.0277 -0.7552
 1653SOL    HW116421   4.010   3.608   0.734 -1.1475  2.0083  0.3944
 1653SOL    HW216422   4.065   3.630   0.879  0.6704 -0.0728 -0.8197
 1654SOL     OW16423   4.708   0.684   3.987  0.2494 -0.3195  0.1127
 1654SOL    HW116424   0.081   0.688   3.997  0.7135 -1.5379 -3.7928
 1654SOL    HW216425   4.677   0.751   4.049  1.3359 -0.6609  1.0363
 1655SOL     OW16426   0.682   1.736   8.635 -0.2323 -0.1264  0.4062
 1655SOL    HW116427   0.699   1.821   8.596 -0.7245  0.4125  1.3708
 1655SOL    HW216428   0.586   1.740   8.638 -0.2743 -1.1865  0.6977
 1656SOL     OW16429   3.489   2.513   1.063  0.3107  0.3850 -0.3311
 1656SOL    HW116430   3.486   2.575   1.136 -1.7942  0.5286 -0.5391
 1656SOL    HW216431   3.440   2.442   1.105  2.6512 -0.9486  0.1674
 1657SOL     OW16432   4.302   1.193  14.840 -0.5430  0.2265 -0.4315
 1657SOL    HW116433   4.257   1.277  14.835 -0.3590  0.3334 -0.2669
 1657SOL    HW216434   4.224   1.138  14.852 -0.2425  0.2214  1.5257
 1658SOL     OW16435   3.689   4.113   4.683 -0.4182 -0.1079  0.1954
 1658SOL    HW116436   3.631   4.055   4.733  0.6232 -0.4299  1.0312
 1658SOL    HW216437   3.746   4.045   4.648 -0.1412  0.1283  0.1847
 1659SOL     OW16438   4.359   1.053   7.937 -0.2449  0.1710  0.1037
 1659SOL    HW116439   4.313   0.970   7.921  1.0269 -1.3720  4.5426
 1659SOL    HW216440   4.309   1.078   8.015  3.1808  0.7493  2.0810
 1660SOL     OW16441   4.049   3.683   6.877  0.3791  0.4771 -0.2447
 1660SOL    HW116442   4.053   3.590   6.901 -0.7989  0.1342 -1.4246
 1660SOL    HW216443   4.132   3.676   6.829  0.7550  2.9050  0.0724
 1661SOL     OW16444   3.141   0.288  16.730  0.2124  0.3137 -1.0108
 1661SOL    HW116445   3.177   0.351  16.792  0.2692 -0.6777 -0.0398
 1661SOL    HW216446   3.103   0.338  16.658 -2.2287  0.7419  0.5902
 1662SOL     OW16447   0.218   3.806   3.931  0.3861 -0.0890 -0.2604
 1662SOL    HW116448   0.298   3.852   3.904  0.8289 -0.1159  1.0303
 1662SOL    HW216449   0.217   3.727   3.876  1.2232  0.0076 -0.4071
 1663SOL     OW16450   2.295   1.281   2.304 -0.2397 -0.2438  0.3086
 1663SOL    HW116451   2.215   1.239   2.336 -0.5219  1.1070  1.3875
 1663SOL    HW216452   2.254   1.351   2.253  1.0236  0.2839  0.0239
 1664SOL     OW16453   2.554   2.653   6.759 -0.3425  0.1872  0.0131
 1664SOL    HW116454   2.546   2.559   6.769 -1.2442  0.1564 -0.9913
 1664SOL    HW216455   2.647   2.674   6.749 -0.4134  0.1667 -0.6853
 1665SOL     OW16456   1.320   2.080   8.029 -0.2921 -0.0981 -0.4130
 1665SOL    HW116457   1.378   2.133   8.083 -0.4009 -0.5230  0.1182
 1665SOL    HW216458   1.365   2.000   8.001 -0.2038 -0.6558  1.3696
 1666SOL     OW16459   1.962   1.125   7.051  0.1712 -0.6059  0.3431
 1666SOL    HW116460   1.959   1.220   7.041  0.7122 -0.5704  0.5220
 1666SOL    HW216461   2.008   1.096   6.972  2.1009  1.9448  0.5462
 1667SOL     OW16462   2.562   4.384   2.987  0.3555  0.2458  0.4242
 1667SOL    HW116463   2.588   4.402   2.897  0.1008  2.2922  0.7805
 1667SOL    HW216464   2.490   4.446   2.986  0.9830  0.9375 -1.2895
 1668SOL     OW16465   1.859   2.322   2.425  0.4609  0.1595  0.6652
 1668SOL    HW116466   1.794   2.366   2.370  0.2926  3.0088  3.1715
 1668SOL    HW216467   1.891   2.252   2.367 -0.3306  0.4720 -0.1517
 1669SOL     OW16468   1.755   2.268   3.964  0.5230 -0.5412 -0.0871
 1669SOL    HW116469   1.851   2.271   3.971  0.5730 -1.9594 -0.1464
 1669SOL    HW216470   1.738   2.174   3.960 -2.1941 -0.1555  2.4244
 1670SOL     OW16471   3.388   0.767   5.291 -0.0160  0.3718 -0.0366
 1670SOL    HW116472   3.359   0.707   5.223  0.3645  0.3028 -0.1384
 1670SOL    HW216473   3.340   0.735   5.368  1.7724  0.3880  1.1040
 1671SOL     OW16474   0.593   1.220   7.788 -1.1262 -0.0011 -0.0229
 1671SOL    HW116475   0.516   1.165   7.792 -1.6723  0.7672  0.0170
 1671SOL    HW216476   0.554   1.295   7.743 -0.5019 -0.8482 -1.9893
 1672SOL     OW16477   3.948   4.227   7.101  0.3927  0.1984  0.6229
 1672SOL    HW116478   3.856   4.245   7.079 -0.1462 -1.1419  1.8366
 1672SOL    HW216479   3.973   4.283   7.174  0.0161  0.7331  0.3538
 1673SOL     OW16480   2.548   2.551   0.722  0.8927 -0.3519 -0.5392
 1673SOL    HW116481   2.521   2.602   0.645  0.0994  1.0262  0.6450
 1673SOL    HW216482   2.511   2.612   0.786  0.2756 -3.1545  1.7738
 1674SOL     OW16483   2.040   1.639   7.460 -0.0247 -0.2830  0.8069
 1674SOL    HW116484   1.950   1.624   7.434  0.0592  0.7799 -0.0655
 1674SOL    HW216485   2.059   1.706   7.394 -1.9732 -3.4646 -2.9519
 1675SOL     OW16486   4.053   0.283  16.601 -0.3638 -0.5654 -0.0199
 1675SOL    HW116487   4.011   0.256  16.519  3.9606 -2.4940 -1.5977
 1675SOL    HW216488   4.137   0.313  16.567 -0.1911 -0.4698  0.5080
 1676SOL     OW16489   1.883   4.312   2.902 -0.2943  0.1293  0.4184
 1676SOL    HW116490   1.866   4.363   2.823 -0.2995  0.2713  0.5116
 1676SOL    HW216491   1.850   4.225   2.879 -0.6670  1.3090 -3.5479
 1677SOL     OW16492   4.521   1.389   9.857 -0.4557  0.5888  0.1259
 1677SOL    HW116493   4.479   1.305   9.872 -1.4254  1.4538  2.2181
 1677SOL    HW216494   4.577   1.392   9.934 -1.4126  1.5115  0.7768
 1678SOL     OW16495   1.723   4.351   1.867  0.5315 -0.5910  0.1096
 1678SOL    HW116496   1.726   4.280   1.803  0.6879  0.3517 -0.9085
 1678SOL    HW216497   1.771   4.312   1.941  2.0339  0.1412 -0.4973
 1679SOL     OW16498   4.313   4.453   6.128  0.0938  0.0764  0.3403
 1679SOL    HW116499   4.244   4.403   6.172  0.8357 -0.8629  0.4301
 1679SOL    HW216500   4.259   4.511   6.075  0.0931 -0.1571  0.0893
 1680SOL     OW16501   0.027   1.535   5.292 -0.2974 -0.2150  0.0969
 1680SOL    HW116502   4.713   1.463   5.343 -0.0835 -0.2695  0.1718
 1680SOL    HW216503   0.091   1.567   5.355 -1.7230  0.3368  1.2521
 1681SOL     OW16504   3.279   4.555   8.605  0.0210  0.5806 -0.3242
 1681SOL    HW116505   3.271   4.634   8.658 -1.0783  0.3566 -0.1484
 1681SOL    HW216506   3.374   4.558   8.601  0.0559  1.9399  2.0417
 1682SOL     OW16507   1.823   3.509   2.773 -0.0350  0.1653  0.1424
 1682SOL    HW116508   1.916   3.510   2.798  0.1145  0.1061 -0.4178
 1682SOL    HW216509   1.816   3.585   2.716  0.0579  0.6582  0.7824
 1683SOL     OW16510   0.116   1.396   3.551  0.1782 -0.8923 -0.0947
 1683SOL    HW116511   0.054   1.468   3.543  0.0298 -0.7598  2.1319
 1683SOL    HW216512   0.059   1.320   3.549  1.0157 -1.6067  2.1819
 1684SOL     OW16513   2.517   3.670   9.423  0.1284  0.4679  0.5701
 1684SOL    HW116514   2.550   3.646   9.337  1.5031  1.1324  0.9130
 1684SOL    HW216515   2.585   3.724   9.464 -1.3223  2.4889  0.3245
 1685SOL     OW16516   1.071   2.352   9.288 -0.1386 -0.6619  0.7081
 1685SOL    HW116517   1.062   2.381   9.379  3.0066  1.2443  0.3867
 1685SOL    HW216518   1.118   2.427   9.252 -2.2363 -0.3494 -1.4194
 1686SOL     OW16519   3.660   4.328   4.161  0.0248  0.0377 -0.4561
 1686SOL    HW116520   3.596   4.289   4.220  2.4446 -3.8002 -0.3781
 1686SOL    HW216521   3.737   4.325   4.218  0.1342  0.1555 -0.5949
 1687SOL     OW16522   4.641   0.096  12.200  0.0781 -0.1522 -0.0680
 1687SOL    HW116523   4.680   0.125  12.282 -0.5562  1.1236 -0.2239
 1687SOL    HW216524   0.003   0.086  12.157 -0.9511  0.9109 -2.3448
 1688SOL     OW16525   1.493   2.688   3.424  0.0130 -0.3881  0.0684
 1688SOL    HW116526   1.567   2.631   3.403 -0.5003 -1.0537  0.0524
 1688SOL    HW216527   1.442   2.702   3.345 -0.9240 -1.1506  0.5398
 1689SOL     OW16528   1.199   0.492   6.982 -0.0100  0.5073  0.1132
 1689SOL    HW116529   1.117   0.446   7.004 -0.8970  1.9565 -0.2157
 1689SOL    HW216530   1.167   0.581   6.995 -1.7314 -0.2577  1.1460
 1690SOL     OW16531   1.278   1.397   6.842  0.2772  0.2339  0.1906
 1690SOL    HW116532   1.280   1.334   6.915  0.9302  0.3317  0.2581
 1690SOL    HW216533   1.362   1.387   6.796  0.0673 -2.1226  0.3181
 1691SOL     OW16534   1.322   0.403   9.187  0.1568  0.4188 -0.2931
 1691SOL    HW116535   1.254   0.360   9.134 -0.2995 -0.8394  1.3225
 1691SOL    HW216536   1.356   0.446   9.108  4.0264 -1.7759  0.2032
 1692SOL     OW16537   3.452   2.729   4.394  0.1086 -0.3152 -0.3956
 1692SOL    HW116538   3.506   2.805   4.372  3.6854 -2.2048  1.8730
 1692SOL    HW216539   3.373   2.779   4.411 -0.1573 -0.5746 -0.8567
 1693SOL     OW16540   4.468   2.622   2.741 -0.2559  0.0956 -0.0920
 1693SOL    HW116541   4.493   2.637   2.832  2.1117 -1.6592 -0.4464
 1693SOL    HW216542   4.556   2.643   2.709 -0.7154 -0.5537 -1.7810
 1694SOL     OW16543   1.023   0.487   8.909  0.1080  0.2922 -0.2221
 1694SOL    HW116544   1.059   0.435   8.981  2.9940  2.9607  0.2744
 1694SOL    HW216545   1.002   0.568   8.955 -0.7878  0.7763 -1.4731
 1695SOL     OW16546   3.613   1.730   3.374  0.1831 -0.4072  0.0703
 1695SOL    HW116547   3.654   1.733   3.460  2.5677  0.8407 -1.1090
 1695SOL    HW216548   3.660   1.664   3.323  0.6859 -0.2440  0.3191
 1696SOL     OW16549   2.737   2.578   8.800 -0.1608  0.0915  0.5563
 1696SOL    HW116550   2.798   2.512   8.767  1.4876  2.7895 -1.7914
 1696SOL    HW216551   2.680   2.580   8.724  3.3423 -1.0752 -2.1287
 1697SOL     OW16552   1.194   1.738   4.739 -0.4007  0.0840 -0.1903
 1697SOL    HW116553   1.274   1.785   4.713 -0.9955  1.0143 -0.3316
 1697SOL    HW216554   1.142   1.762   4.662 -0.7901  0.6139  0.2428
 1698SOL     OW16555   1.836   0.809   6.194  0.1919 -0.9952  0.1379
 1698SOL    HW116556   1.855   0.716   6.206  0.0919 -0.9385  0.7437
 1698SOL    HW216557   1.833   0.850   6.280  2.1952  0.0716 -0.2977
 1699SOL     OW16558   3.524   3.304   1.784  0.2396 -0.0736  0.1765
 1699SOL    HW116559   3.525   3.374   1.719 -3.7101 -0.6066 -0.4359
 1699SOL    HW216560   3.500   3.233   1.724  2.2499 -0.3248 -0.3493
 1700SOL     OW16561   4.285   0.135  13.804 -0.8102  0.1575 -0.1359
 1700SOL    HW116562   4.220   0.065  13.793 -1.0358  0.1640  1.2471
 1700SOL    HW216563   4.273   0.163  13.894 -2.4116  2.1653 -0.9618
 1701SOL     OW16564   0.671   2.828  11.002  0.3690 -0.7345 -0.2544
 1701SOL    HW116565   0.587   2.782  11.006 -0.1726  0.1510 -1.2644
 1701SOL    HW216566   0.670   2.864  11.091  0.4264  0.4814 -0.7416
 1702SOL     OW16567   1.196   2.185   4.877  0.3410  0.1110  0.2400
 1702SOL    HW116568   1.291   2.185   4.861  0.1819  2.5631 -0.7974
 1702SOL    HW216569   1.185   2.176   4.972 -0.9398  1.9977  0.2697
 1703SOL     OW16570   1.075   0.584  15.988 -0.3525 -0.7466  0.5256
 1703SOL    HW116571   0.992   0.566  16.031 -0.2776 -1.2389  0.4735
 1703SOL    HW216572   1.103   0.671  16.015 -1.8879 -0.3221  0.7176
 1704SOL     OW16573   2.521   4.650   4.875 -0.0657  0.3169  0.6086
 1704SOL    HW116574   2.532   0.002   4.933  1.4386  1.4452 -1.1165
 1704SOL    HW216575   2.492   4.689   4.793 -0.5194 -1.9050 -0.2940
 1705SOL     OW16576   4.382   2.113  11.332  0.0362 -0.5490  0.4554
 1705SOL    HW116577   4.326   2.135  11.258 -2.1600  2.0037  2.8838
 1705SOL    HW216578   4.335   2.168  11.394  0.9647  0.2068  0.4957
 1706SOL     OW16579   2.657   4.492   2.641  0.2594  0.0904 -0.3282
 1706SOL    HW116580   2.683   4.400   2.646  1.3710  0.3855 -0.8847
 1706SOL    HW216581   2.701   4.528   2.565  1.9297 -0.5319  0.3333
 1707SOL     OW16582   3.361   2.700   8.002  0.1580  0.2027  0.0156
 1707SOL    HW116583   3.301   2.714   8.075  1.1926 -2.0918  1.2754
 1707SOL    HW216584   3.398   2.613   8.013  1.6645  0.9200  0.7386
 1708SOL     OW16585   3.752   0.129   1.076  0.0290 -0.0252  0.2402
 1708SOL    HW116586   3.705   0.054   1.039 -0.3370 -0.2739  1.2069
 1708SOL    HW216587   3.755   0.101   1.167 -2.8910 -2.6361 -0.4759
 1709SOL     OW16588   0.986   3.836  17.569 -0.2634 -0.0226 -1.2032
 1709SOL    HW116589   0.983   3.812  17.661 -3.1906  1.8659 -0.8039
 1709SOL    HW216590   1.069   3.796  17.545 -0.6479 -0.3372 -2.0066
 1710SOL     OW16591   3.285   0.476  10.163  0.1192  0.7775  0.3066
 1710SOL    HW116592   3.190   0.465  10.174  0.2516 -0.1255  0.5614
 1710SOL    HW216593   3.289   0.569  10.183 -3.2547  1.3150 -1.4219
 1711SOL     OW16594   2.407   1.773   6.683  0.2215 -0.3986  0.5672
 1711SOL    HW116595   2.373   1.743   6.599  0.5185  0.6357  0.0733
 1711SOL    HW216596   2.412   1.866   6.661 -0.9645 -0.0452  1.8152
 1712SOL     OW16597   0.913   2.550   3.277  0.0236 -0.1591  0.2982
 1712SOL    HW116598   0.868   2.570   3.195  1.2807 -0.1818 -0.3931
 1712SOL    HW216599   0.993   2.509   3.243 -1.2800 -3.3803  1.1248
 1713SOL     OW16600   0.783   2.312   5.175  0.2350 -0.1759 -0.4184
 1713SOL    HW116601   0.876   2.289   5.173  1.0833  3.3656 -0.9482
 1713SOL    HW216602   0.785   2.400   5.138 -1.7321 -0.0377 -0.1955
 1714SOL     OW16603   3.261   3.569  16.389  0.3368  0.0613  0.0530
 1714SOL    HW116604   3.330   3.508  16.414  1.0266  0.9272  0.2518
 1714SOL    HW216605   3.246   3.548  16.297  1.6807 -0.0565 -0.1411
 1715SOL     OW16606   0.259   2.330   8.617 -0.2430  0.2632 -0.3844
 1715SOL    HW116607   0.297   2.381   8.546 -1.1781  1.4419 -0.0362
 1715SOL    HW216608   0.286   2.383   8.692 -1.3844 -0.0467  0.2475
 1716SOL     OW16609   0.369   1.873  10.076  0.7429 -0.0702  0.7629
 1716SOL    HW116610   0.424   1.798  10.099  2.8295  1.6628  1.3913
 1716SOL    HW216611   0.404   1.937  10.137 -1.3475  0.9089  0.9209
 1717SOL     OW16612   0.913   2.860   4.561  0.5557 -0.0691 -0.6236
 1717SOL    HW116613   0.971   2.870   4.637 -1.2934  1.1777  0.6292
 1717SOL    HW216614   0.932   2.942   4.516  0.4684 -0.4588 -1.3659
 1718SOL     OW16615   2.590   0.986  10.008 -0.5374 -0.1044  0.0744
 1718SOL    HW116616   2.648   1.053   9.971 -1.0314  0.5046  0.3916
 1718SOL    HW216617   2.512   0.989   9.952  0.0512 -1.6532 -0.8087
 1719SOL     OW16618   0.925   3.384  13.834 -0.0726 -0.3841  0.0140
 1719SOL    HW116619   0.976   3.312  13.871 -0.0981  0.4258  1.6282
 1719SOL    HW216620   0.842   3.388  13.881  0.1176  0.1644  0.3076
 1720SOL     OW16621   2.245   4.113   6.387 -0.1811  0.1610 -0.1732
 1720SOL    HW116622   2.217   4.167   6.460  2.1335 -0.9604  1.5352
 1720SOL    HW216623   2.276   4.038   6.437  0.2469  0.9475  0.7339
 1721SOL     OW16624   0.695   1.250  15.395  0.4950 -0.2298 -0.0361
 1721SOL    HW116625   0.669   1.299  15.472 -3.9933 -0.9150 -1.1385
 1721SOL    HW216626   0.788   1.249  15.420  0.2198 -0.6560  0.9708
 1722SOL     OW16627   3.784   3.321   0.294  0.4915  0.6408 -0.0351
 1722SOL    HW116628   3.696   3.308   0.329  1.4313 -1.7508  1.3840
 1722SOL    HW216629   3.768   3.415   0.290  1.5368  0.9522  3.4274
 1723SOL     OW16630   3.654   4.316   6.238  0.0067  0.0206  0.2904
 1723SOL    HW116631   3.685   4.403   6.263  0.0489 -0.7120  2.7437
 1723SOL    HW216632   3.696   4.290   6.157  0.5922 -1.6172  1.1286
 1724SOL     OW16633   0.174   4.209   3.922  0.6349  0.0537 -1.3213
 1724SOL    HW116634   0.083   4.225   3.947  1.1869 -0.6224  1.1084
 1724SOL    HW216635   0.170   4.117   3.897  0.7656 -0.3229  0.0900
 1725SOL     OW16636   4.280   2.791   1.486 -0.1391  0.0694  0.4984
 1725SOL    HW116637   4.346   2.794   1.416  1.0429 -2.7915  1.4986
 1725SOL    HW216638   4.207   2.832   1.440 -0.5887 -2.1251 -0.7414
 1726SOL     OW16639   2.309   4.472   8.194  0.0391 -0.2596 -0.1455
 1726SOL    HW116640   2.349   4.555   8.170 -0.0210 -0.0192  0.5824
 1726SOL    HW216641   2.372   4.446   8.261  0.3346  0.6794 -0.0645
 1727SOL     OW16642   4.115   0.255   8.093  0.1810 -0.2671 -0.3690
 1727SOL    HW116643   4.199   0.210   8.104  0.9236  0.8891 -1.3967
 1727SOL    HW216644   4.137   0.348   8.091  1.5004 -0.6086 -1.8997
 1728SOL     OW16645   3.436   1.376  16.098  0.3947 -0.2124 -0.2477
 1728SOL    HW116646   3.402   1.312  16.160  0.1464  0.0621 -0.1046
 1728SOL    HW216647   3.446   1.325  16.017  1.7493 -0.7399  0.2482
 1729SOL     OW16648   1.022   3.846   3.814 -0.2205 -0.0533  0.2048
 1729SOL    HW116649   0.947   3.842   3.873  1.1036 -2.6748  1.6807
 1729SOL    HW216650   1.092   3.820   3.875 -2.1982  0.7681  2.7889
 1730SOL     OW16651   3.928   3.369   0.605  0.1931 -0.1915 -0.1603
 1730SOL    HW116652   3.968   3.411   0.682  2.0904 -0.5317 -0.9466
 1730SOL    HW216653   3.902   3.448   0.559 -0.0510  0.3065  0.8339
 1731SOL     OW16654   1.326   4.643   3.911  0.3695  0.0442  0.2290
 1731SOL    HW116655   1.392   4.712   3.910  0.0252  0.3286 -1.7585
 1731SOL    HW216656   1.266   4.675   3.844 -1.4448 -1.5245  1.0642
 1732SOL     OW16657   0.425   1.870   4.726 -0.0215  0.0202 -0.1309
 1732SOL    HW116658   0.423   1.900   4.817 -0.2443  1.0708 -0.4825
 1732SOL    HW216659   0.334   1.842   4.719  0.2944 -0.9528 -0.4126
 1733SOL     OW16660   3.568   4.054  13.825  0.3759  0.2570  0.0497
 1733SOL    HW116661   3.584   4.148  13.817 -0.7475  0.4045 -0.4953
 1733SOL    HW216662   3.575   4.042  13.919 -0.5527 -2.2604 -0.2103
 1734SOL     OW16663   1.659   0.706   9.593  0.2322  0.2892 -0.0922
 1734SOL    HW116664   1.609   0.743   9.666 -3.2549  0.4297 -2.5757
 1734SOL    HW216665   1.722   0.775   9.573  1.3551 -0.2983  1.4097
 1735SOL     OW16666   2.167   4.405   4.692 -0.1827 -0.1367 -0.0460
 1735SOL    HW116667   2.218   4.326   4.708 -0.2935 -0.1535  0.2237
 1735SOL    HW216668   2.184   4.460   4.768 -1.9232  2.0300 -1.2293
 1736SOL     OW16669   0.967   2.096   1.030  0.2487 -0.1624 -0.4132
 1736SOL    HW116670   0.981   2.003   1.048  1.9700  0.5380  1.8007
 1736SOL    HW216671   1.053   2.134   1.017  1.3356 -2.8383 -1.0673
 1737SOL     OW16672   1.960   1.134  14.847 -0.2497  0.0391  0.6861
 1737SOL    HW116673   1.895   1.126  14.778 -0.6596  0.2581  1.0517
 1737SOL    HW216674   1.957   1.047  14.886 -0.7474 -0.3817 -0.3133
 1738SOL     OW16675   2.185   0.084   9.667  0.2611  0.4142 -0.2551
 1738SOL    HW116676   2.145   0.161   9.626 -3.5210 -1.8883 -0.8893
 1738SOL    HW216677   2.147   0.011   9.619  1.5511  0.5173 -1.4436
 1739SOL     OW16678   2.394   1.939   4.238  0.3041 -0.2592  0.0260
 1739SOL    HW116679   2.481   1.960   4.273  0.3289 -0.8970  0.3484
 1739SOL    HW216680   2.370   2.031   4.234 -1.8055 -0.8135  0.0289
 1740SOL     OW16681   1.885   2.019  16.699  0.0598 -0.3695 -0.1931
 1740SOL    HW116682   1.827   2.030  16.624  1.0531  0.6568 -0.8184
 1740SOL    HW216683   1.964   2.068  16.677 -1.6237  2.4813 -0.0065
 1741SOL     OW16684   0.018   1.146   7.194 -0.4923  0.4028  0.1550
 1741SOL    HW116685   0.025   1.188   7.108 -1.3457  1.6856  0.7142
 1741SOL    HW216686   0.098   1.094   7.191 -1.3517 -0.8269 -1.4778
 1742SOL     OW16687   3.987   2.244  14.621  0.0750  0.7361  0.6712
 1742SOL    HW116688   3.897   2.228  14.594  0.0169 -0.1098  1.3584
 1742SOL    HW216689   4.028   2.237  14.535 -0.5270 -1.5995  0.5706
 1743SOL     OW16690   0.647   2.439   3.886  0.3356 -0.6422 -0.1691
 1743SOL    HW116691   0.732   2.412   3.920  0.2025 -1.3159 -0.3707
 1743SOL    HW216692   0.622   2.353   3.853  0.1308  0.0496 -1.8673
 1744SOL     OW16693   0.163   2.998  11.645  0.3238 -0.6651  0.1296
 1744SOL    HW116694   0.149   2.917  11.596 -0.1348 -1.2546  1.2246
 1744SOL    HW216695   0.103   3.003  11.720 -1.1481 -1.7859 -0.9667
 1745SOL     OW16696   0.582   1.776   0.437 -0.0250 -0.2116  0.3984
 1745SOL    HW116697   0.581   1.771   0.341 -0.4318  0.8804  0.3426
 1745SOL    HW216698   0.493   1.748   0.458 -0.8858  0.0704 -2.8932
 1746SOL     OW16699   3.625   0.352   8.014 -0.3050  1.0875  0.5382
 1746SOL    HW116700   3.532   0.331   8.022 -0.7471  1.9659 -2.3281
 1746SOL    HW216701   3.667   0.274   8.050 -1.0767 -0.2653 -1.4908
 1747SOL     OW16702   3.262   3.830   5.292 -0.0386 -0.2543  0.0812
 1747SOL    HW116703   3.199   3.830   5.364 -0.8746  1.6119 -0.6373
 1747SOL    HW216704   3.218   3.884   5.226 -0.4178  0.0473  0.5847
 1748SOL     OW16705   4.189   1.573   7.694  0.1220 -0.0541  0.1050
 1748SOL    HW116706   4.196   1.506   7.627  0.0414  0.7286 -0.6954
 1748SOL    HW216707   4.171   1.524   7.774 -0.9054  0.5302  0.2374
 1749SOL     OW16708   1.124   4.118   6.229 -0.4642  0.7153  0.3055
 1749SOL    HW116709   1.144   4.028   6.252 -1.0368  0.6028  0.3703
 1749SOL    HW216710   1.177   4.122   6.150 -2.6538  0.3535 -1.2074
 1750SOL     OW16711   1.486   1.590   4.190  0.1561  0.2393 -0.0911
 1750SOL    HW116712   1.510   1.609   4.099  1.0429 -2.9746 -0.5191
 1750SOL    HW216713   1.502   1.671   4.239  3.6033 -0.2749 -0.4118
 1751SOL     OW16714   0.896   2.330   3.906  0.2920  0.3397  0.4026
 1751SOL    HW116715   0.963   2.388   3.870  0.6136  0.2386  0.8434
 1751SOL    HW216716   0.919   2.242   3.875  0.5040 -0.4319  2.7926
 1752SOL     OW16717   2.927   2.537   6.103 -0.3198 -0.2554 -0.3924
 1752SOL    HW116718   2.873   2.520   6.025 -2.4128  1.0161  0.7798
 1752SOL    HW216719   2.882   2.615   6.135  0.8679  0.0732  0.4606
 1753SOL     OW16720   1.338   3.062   5.444  0.0531  0.1095  0.1054
 1753SOL    HW116721   1.245   3.078   5.463 -0.0590 -1.2044  0.6625
 1753SOL    HW216722   1.362   3.009   5.520  0.0701  1.1944  0.8530
 1754SOL     OW16723   1.034   0.421   0.797  0.4673 -0.2381 -0.0117
 1754SOL    HW116724   1.010   0.416   0.890 -0.9620 -1.6436 -0.4737
 1754SOL    HW216725   1.068   0.511   0.793 -1.4260  0.4505 -0.4442
 1755SOL     OW16726   1.223   3.640   2.216  0.3002  0.5997  0.2424
 1755SOL    HW116727   1.137   3.630   2.256  1.4096  0.3706  2.5847
 1755SOL    HW216728   1.267   3.569   2.263 -0.5930 -0.5853 -0.7110
 1756SOL     OW16729   3.283   3.422   8.919 -0.2179 -0.0038 -0.2726
 1756SOL    HW116730   3.271   3.511   8.885  0.6940  0.0361 -0.4860
 1756SOL    HW216731   3.195   3.409   8.954 -0.4102  2.2528  0.1119
 1757SOL     OW16732   3.761   0.247   5.277 -0.1408  0.5732  0.6856
 1757SOL    HW116733   3.759   0.195   5.357 -2.2119  0.6768  0.6891
 1757SOL    HW216734   3.802   0.331   5.300  1.1557  0.2748 -0.5002
 1758SOL     OW16735   2.261   3.935   2.248 -0.5310 -0.1492 -0.1564
 1758SOL    HW116736   2.205   3.994   2.196 -1.8649 -2.5064 -1.4058
 1758SOL    HW216737   2.294   3.996   2.314 -0.5121 -0.8753  0.5043
 1759SOL     OW16738   3.551   2.642   5.328  0.0957 -0.4354 -0.3451
 1759SOL    HW116739   3.598   2.672   5.250  2.3303 -1.1733  0.7019
 1759SOL    HW216740   3.478   2.593   5.291 -0.8128  1.6499 -1.3106
 1760SOL     OW16741   3.220   2.124  10.226  0.3192 -0.4412  0.3328
 1760SOL    HW116742   3.140   2.162  10.260  0.7177  0.3835  0.3582
 1760SOL    HW216743   3.232   2.067  10.302 -2.1242  0.1703  1.1581
 1761SOL     OW16744   0.837   0.238   3.946  0.2607 -0.4695 -0.1502
 1761SOL    HW116745   0.843   0.274   3.858 -1.5480  0.7308  0.2260
 1761SOL    HW216746   0.767   0.176   3.925  0.7560 -1.8570  2.3317
 1762SOL     OW16747   1.785   2.478   6.872 -0.1531 -0.1930 -0.1743
 1762SOL    HW116748   1.785   2.509   6.962  1.0773  1.9738 -0.9005
 1762SOL    HW216749   1.713   2.529   6.835 -1.5018 -3.0096 -1.4663
 1763SOL     OW16750   2.016   2.224  15.136 -0.3675  0.4651 -0.3444
 1763SOL    HW116751   1.976   2.149  15.180  1.3595  0.1263  0.6388
 1763SOL    HW216752   2.064   2.174  15.070  1.0917  0.3770  0.7829
 1764SOL     OW16753   3.552   4.483  13.480  0.4232 -0.2836 -0.1305
 1764SOL    HW116754   3.536   4.399  13.523 -0.7754  0.2467  0.4399
 1764SOL    HW216755   3.612   4.450  13.412 -0.4351  0.7737 -1.4005
 1765SOL     OW16756   3.995   0.084  15.366  0.0641 -0.0064 -0.2819
 1765SOL    HW116757   4.009   0.158  15.425 -1.0492 -0.8060  1.0245
 1765SOL    HW216758   4.064   0.022  15.389  0.4609  0.3861 -0.4251
 1766SOL     OW16759   0.401   3.249  15.479  0.2735 -0.1397 -0.0790
 1766SOL    HW116760   0.379   3.340  15.499  1.2278 -0.0235  0.4532
 1766SOL    HW216761   0.406   3.213  15.567  2.9538  0.6621  0.0820
 1767SOL     OW16762   0.707   4.156  12.536 -0.0036 -0.3294  0.1074
 1767SOL    HW116763   0.649   4.086  12.567  0.1812 -0.1988  0.7572
 1767SOL    HW216764   0.729   4.132  12.446 -0.9726 -1.1391  0.0816
 1768SOL     OW16765   4.178   1.906   8.133 -0.1742 -0.1661  0.1698
 1768SOL    HW116766   4.258   1.900   8.080 -0.1911  0.0348  0.1203
 1768SOL    HW216767   4.135   1.975   8.083  1.0212 -1.1301 -2.2020
 1769SOL     OW16768   0.888   3.442  10.197 -0.2729 -0.5661 -0.3676
 1769SOL    HW116769   0.920   3.498  10.126 -2.0813  0.3616 -0.4569
 1769SOL    HW216770   0.963   3.388  10.221  0.9481  1.3719  0.1763
 1770SOL     OW16771   0.357   3.706   4.243 -0.5419  0.3846 -0.3107
 1770SOL    HW116772   0.433   3.654   4.217 -1.5358 -0.2328 -1.9319
 1770SOL    HW216773   0.325   3.636   4.302  0.1917 -0.5228 -0.9975
 1771SOL     OW16774   2.520   3.138   3.068 -0.1126 -0.2092 -0.4255
 1771SOL    HW116775   2.559   3.063   3.022  2.1091  1.3309 -1.0547
 1771SOL    HW216776   2.535   3.112   3.159  1.5481  1.2753 -0.2818
 1772SOL     OW16777   2.048   2.608  11.692 -0.3502  0.0915  0.4848
 1772SOL    HW116778   2.143   2.605  11.700 -0.1099 -1.5158 -2.8561
 1772SOL    HW216779   2.031   2.698  11.720 -3.5210  0.0987 -1.3849
 1773SOL     OW16780   0.805   0.572   6.238  0.0196  0.3140  0.1114
 1773SOL    HW116781   0.819   0.637   6.169  0.3484 -0.1160 -0.2249
 1773SOL    HW216782   0.819   0.493   6.186  0.7912  1.1200 -0.9177
 1774SOL     OW16783   2.022   0.731   0.347  0.1190 -0.2221 -0.0097
 1774SOL    HW116784   2.050   0.718   0.437 -2.6575 -0.8553  0.7518
 1774SOL    HW216785   1.928   0.714   0.350 -0.1754  1.5148  0.3910
 1775SOL     OW16786   1.182   0.257   2.622  0.1513  0.1822  0.1083
 1775SOL    HW116787   1.210   0.325   2.684 -4.2153  2.4230 -0.4003
 1775SOL    HW216788   1.198   0.292   2.534  1.6876  2.4359  1.2668
 1776SOL     OW16789   3.799   4.318   4.794  0.1470 -0.8172  0.0983
 1776SOL    HW116790   3.862   4.359   4.735  1.1255 -0.5517  1.3428
 1776SOL    HW216791   3.786   4.232   4.755  2.2920 -0.4324 -1.4472
 1777SOL     OW16792   1.498   1.077   6.365  0.0906  0.1121 -0.6706
 1777SOL    HW116793   1.456   1.135   6.302  2.0089 -0.3124 -2.3355
 1777SOL    HW216794   1.474   1.125   6.444  0.1529  0.0117 -0.5893
 1778SOL     OW16795   4.287   3.140   9.081  0.0810 -0.2386 -0.1133
 1778SOL    HW116796   4.309   3.073   9.146 -0.1985 -0.7947 -0.5866
 1778SOL    HW216797   4.276   3.209   9.146 -2.4219 -1.0934  0.3686
 1779SOL     OW16798   2.552   4.422   9.317  0.0470 -0.0502  0.2997
 1779SOL    HW116799   2.635   4.456   9.350  0.4279 -0.6359 -0.0560
 1779SOL    HW216800   2.557   4.475   9.237 -3.2929 -0.7135 -0.3377
 1780SOL     OW16801   3.751   0.429  10.122 -0.0366  0.0865  0.2526
 1780SOL    HW116802   3.798   0.411  10.041  0.6589 -0.7597  0.8447
 1780SOL    HW216803   3.720   0.516  10.099  0.1109  0.5229  1.7374
 1781SOL     OW16804   2.752   4.165   2.074  0.0692 -0.3620  0.3367
 1781SOL    HW116805   2.660   4.142   2.066 -0.0580  1.4211 -3.1827
 1781SOL    HW216806   2.772   4.170   2.167 -1.8757  0.0271  0.7309
 1782SOL     OW16807   0.585   0.028  12.117 -0.0926  0.3427 -0.1734
 1782SOL    HW116808   0.525   0.050  12.188 -1.8919 -0.4493 -1.4425
 1782SOL    HW216809   0.596   0.111  12.071  1.5453  0.6668  0.8285
 1783SOL     OW16810   3.028   0.249  12.342  0.3915  0.7539  0.8516
 1783SOL    HW116811   3.070   0.247  12.256  1.9852  3.1435  1.5504
 1783SOL    HW216812   2.936   0.232  12.325  0.5291  0.9627 -0.0657
 1784SOL     OW16813   1.112   1.124   3.792 -0.1297  0.0835  0.3147
 1784SOL    HW116814   1.179   1.163   3.735 -1.8665  2.2711 -0.2150
 1784SOL    HW216815   1.154   1.113   3.877  1.4252  1.1193 -0.3238
 1785SOL     OW16816   4.533   2.412   8.049  0.1803 -0.3671 -0.5112
 1785SOL    HW116817   4.604   2.357   8.082 -1.9236 -2.7457  0.1257
 1785SOL    HW216818   4.578   2.496   8.050  1.9934 -1.3632  2.8483
 1786SOL     OW16819   1.127   2.828   7.265  0.4226 -0.5236  0.1572
 1786SOL    HW116820   1.076   2.770   7.208 -1.2696  0.5504  0.5605
 1786SOL    HW216821   1.140   2.902   7.206 -3.8428  1.1293  1.2567
 1787SOL     OW16822   1.266   3.242   2.805  0.2881 -0.5806 -0.2426
 1787SOL    HW116823   1.259   3.327   2.848  0.7209 -1.1155  0.8608
 1787SOL    HW216824   1.354   3.242   2.769  0.8736  1.9755  1.2297
 1788SOL     OW16825   3.328   2.134   3.737  0.2520 -0.0014 -0.2618
 1788SOL    HW116826   3.369   2.134   3.823 -0.7746 -0.0543  0.2317
 1788SOL    HW216827   3.366   2.054   3.700  2.3846  0.9808 -0.2139
 1789SOL     OW16828   4.309   4.186   5.674 -0.5467 -0.2527 -0.6186
 1789SOL    HW116829   4.347   4.224   5.595  0.9679 -2.2404 -0.8160
 1789SOL    HW216830   4.352   4.221   5.752 -1.5349  1.5603 -0.8786
 1790SOL     OW16831   3.435   2.820   3.100 -0.2205  0.4656 -0.1589
 1790SOL    HW116832   3.509   2.773   3.137  1.3730  1.0088 -2.6781
 1790SOL    HW216833   3.403   2.868   3.177  0.8288  2.4039 -0.9315
 1791SOL     OW16834   0.188   1.936   4.247 -0.2975  0.0180 -0.5420
 1791SOL    HW116835   0.197   1.995   4.322  0.1264 -0.3121 -0.3327
 1791SOL    HW216836   0.199   2.001   4.177 -0.9923 -0.0359 -0.7008
 1792SOL     OW16837   1.455   4.126   1.921 -0.2485  0.7860  0.9605
 1792SOL    HW116838   1.473   4.115   1.827  0.3209  0.9110  1.0544
 1792SOL    HW216839   1.471   4.218   1.942  0.8130  1.6438 -3.4712
 1793SOL     OW16840   2.186   3.099   5.608  0.0025 -0.4074 -0.3069
 1793SOL    HW116841   2.253   3.146   5.658 -0.5592 -0.1137  0.1740
 1793SOL    HW216842   2.216   3.101   5.518  3.3856 -2.2875  0.7897
 1794SOL     OW16843   3.098   4.186  12.154 -0.2033  0.5593  0.4657
 1794SOL    HW116844   3.010   4.203  12.189 -0.6475 -1.7735  0.5328
 1794SOL    HW216845   3.093   4.218  12.064 -2.4492 -0.3619  0.2570
 1795SOL     OW16846   1.825   1.616   4.334  0.2744 -0.4740  0.1666
 1795SOL    HW116847   1.828   1.656   4.248 -2.3581 -0.4781  0.0685
 1795SOL    HW216848   1.908   1.567   4.336  0.3713 -0.3132  0.0583
 1796SOL     OW16849   3.612   1.695   1.233  0.1178  0.5188  0.5907
 1796SOL    HW116850   3.569   1.655   1.157  2.1034  1.6413 -1.1480
 1796SOL    HW216851   3.685   1.748   1.201  1.1611 -1.4795 -0.3098
 1797SOL     OW16852   2.543   1.367   6.800  0.3760  0.7591 -0.0594
 1797SOL    HW116853   2.573   1.420   6.727  0.3300 -0.3297 -0.8762
 1797SOL    HW216854   2.514   1.431   6.865  1.0157 -0.9247  1.9005
 1798SOL     OW16855   0.651   1.783   5.551  0.1532 -0.0509 -0.1867
 1798SOL    HW116856   0.639   1.834   5.631 -0.2004  1.9920 -1.5453
 1798SOL    HW216857   0.744   1.761   5.544  0.1103  0.0005 -0.9941
 1799SOL     OW16858   4.573   4.378   1.585 -0.5998  0.4049 -0.3227
 1799SOL    HW116859   4.576   4.292   1.628 -1.6218  0.2704 -0.5018
 1799SOL    HW216860   4.622   4.361   1.505 -0.2651 -0.3011  0.0278
 1800SOL     OW16861   2.570   2.353   5.623  0.1042  0.0309 -0.5041
 1800SOL    HW116862   2.535   2.407   5.694 -0.8563 -0.7936 -0.3564
 1800SOL    HW216863   2.573   2.416   5.550  0.9413  1.2708  0.6026
 1801SOL     OW16864   4.475   1.920   7.843 -0.3989 -0.4094 -0.1563
 1801SOL    HW116865   4.477   1.934   7.749 -0.6124  0.0407 -0.0919
 1801SOL    HW216866   4.412   1.988   7.866  1.6414  0.9903  1.2778
 1802SOL     OW16867   1.891   4.031   5.470 -0.7865  0.3231  0.5498
 1802SOL    HW116868   1.932   4.111   5.503  1.0611  0.8432 -2.9440
 1802SOL    HW216869   1.935   3.960   5.517 -1.5650  0.6967  1.8578
 1803SOL     OW16870   0.418   3.530   8.690  0.1343 -0.1319 -0.0957
 1803SOL    HW116871   0.445   3.596   8.754 -0.0690  1.4137 -1.6064
 1803SOL    HW216872   0.363   3.584   8.633  1.1368  1.9454  0.9382
 1804SOL     OW16873   2.928   0.967   1.749  0.3035 -0.0433 -0.0552
 1804SOL    HW116874   2.949   0.900   1.684 -0.9153 -2.7300  2.3587
 1804SOL    HW216875   2.833   0.967   1.738  0.2702  3.8500  0.0056
 1805SOL     OW16876   2.719   2.314   8.548  0.3500 -0.5223  0.6173
 1805SOL    HW116877   2.689   2.333   8.459  3.7490 -1.1380 -0.6631
 1805SOL    HW216878   2.688   2.224   8.555 -2.2192  0.4624  1.7762
 1806SOL     OW16879   1.099   2.408  16.585 -0.1103 -0.1678 -0.1657
 1806SOL    HW116880   1.053   2.429  16.666  0.5318  1.4869 -0.2242
 1806SOL    HW216881   1.060   2.484  16.541  2.8867  0.4109 -1.7823
 1807SOL     OW16882   0.042   3.412   7.722  0.3702 -0.0932  0.3211
 1807SOL    HW116883   0.081   3.476   7.662 -1.2442  0.6848  0.0776
 1807SOL    HW216884   0.110   3.348   7.740 -0.4658 -1.0425  0.1099
 1808SOL     OW16885   3.047   4.301  11.925 -0.5708  0.4347  0.2272
 1808SOL    HW116886   3.055   4.360  11.851  0.1392 -0.2814 -0.2599
 1808SOL    HW216887   2.953   4.310  11.943 -0.4661  2.2955 -0.1523
 1809SOL     OW16888   3.717   2.084  15.053  0.9684 -0.4780 -0.2268
 1809SOL    HW116889   3.652   2.040  15.108  2.3570 -1.6678  0.4370
 1809SOL    HW216890   3.799   2.036  15.061  1.1842  0.1015  1.0130
 1810SOL     OW16891   0.765   4.026  17.570  0.7612  1.1087 -0.1411
 1810SOL    HW116892   0.735   3.997  17.484  1.2836  0.5025 -0.1231
 1810SOL    HW216893   0.843   3.970  17.573  0.2266  0.2713 -2.3255
 1811SOL     OW16894   0.117   3.261  12.352  0.1606 -0.4281  0.1519
 1811SOL    HW116895   0.150   3.341  12.392  0.2136  1.1180 -2.9598
 1811SOL    HW216896   0.024   3.255  12.376  0.6479  1.5332  2.5241
 1812SOL     OW16897   0.086   2.121   4.889 -0.8963 -0.1259 -0.4560
 1812SOL    HW116898   0.137   2.041   4.901  1.2970  1.3409  0.0166
 1812SOL    HW216899   0.125   2.174   4.958 -1.2666 -0.0969 -0.2689
 1813SOL     OW16900   4.245   1.241  11.547 -0.1303  0.2484  0.1962
 1813SOL    HW116901   4.313   1.180  11.518  0.0779  0.8341 -0.5418
 1813SOL    HW216902   4.197   1.237  11.464 -0.5663 -0.9803  0.4955
 1814SOL     OW16903   0.324   4.158   1.141 -0.1509 -0.3907  0.3427
 1814SOL    HW116904   0.352   4.135   1.229 -3.1594 -1.7159  0.9501
 1814SOL    HW216905   0.274   4.238   1.154  1.7503  1.4693 -3.5436
 1815SOL     OW16906   0.459   0.180  12.663 -0.0903  0.1173 -0.1643
 1815SOL    HW116907   0.413   0.135  12.593 -2.5868  1.9055  0.3224
 1815SOL    HW216908   0.543   0.181  12.618  0.4939  0.3389  0.9107
 1816SOL     OW16909   3.496   3.816  12.775 -0.6714  0.5585  0.3111
 1816SOL    HW116910   3.448   3.734  12.781 -0.7261  0.6735  1.4769
 1816SOL    HW216911   3.435   3.890  12.784 -0.0114  1.3082 -1.3637
 1817SOL     OW16912   3.572   1.764  11.607 -0.1644 -0.3491 -0.7029
 1817SOL    HW116913   3.480   1.740  11.621 -0.6203  0.4509 -2.2711
 1817SOL    HW216914   3.578   1.718  11.523  1.0921 -1.2437 -0.1314
 1818SOL     OW16915   0.786   4.225   3.070  1.0055 -0.7265 -0.2514
 1818SOL    HW116916   0.702   4.203   3.030  0.5835  0.9308 -0.2663
 1818SOL    HW216917   0.794   4.315   3.038 -0.1690  0.3717  2.5418
 1819SOL     OW16918   2.210   4.614   4.307  0.1440 -0.1022 -0.1055
 1819SOL    HW116919   2.233   4.567   4.227 -1.0566  0.5442 -0.8411
 1819SOL    HW216920   2.220   4.701   4.270 -1.8912 -0.2767 -1.1155
 1820SOL     OW16921   1.466   0.121  13.032  0.1862  0.5061 -0.7672
 1820SOL    HW116922   1.495   0.176  12.959 -1.1833  0.6619 -1.1956
 1820SOL    HW216923   1.542   0.149  13.083  0.9181  0.4661 -1.8206
 1821SOL     OW16924   4.222   3.942   7.741 -0.3396  0.1554  0.2010
 1821SOL    HW116925   4.227   3.999   7.817  2.7876 -1.4928  1.2442
 1821SOL    HW216926   4.130   3.919   7.751 -0.8229  1.8990 -0.3222
 1822SOL     OW16927   2.347   2.842   4.981  0.3049 -0.7904  0.2934
 1822SOL    HW116928   2.317   2.781   4.914 -1.5472 -0.8859  1.1932
 1822SOL    HW216929   2.363   2.780   5.052 -0.3740 -1.6053 -0.2661
 1823SOL     OW16930   0.488   1.539   6.875 -0.7220 -0.5485 -0.1114
 1823SOL    HW116931   0.432   1.545   6.952 -0.6764  1.0528 -0.2043
 1823SOL    HW216932   0.548   1.467   6.895 -1.1438 -0.7126  0.5667
 1824SOL     OW16933   0.906   4.171   5.044 -0.0712 -0.4566 -0.6900
 1824SOL    HW116934   0.820   4.136   5.065  0.6698 -1.2540  1.0709
 1824SOL    HW216935   0.888   4.263   5.061 -1.7317 -1.1609  1.4452
 1825SOL     OW16936   0.625   3.200  14.614 -0.1596 -0.2287  0.3518
 1825SOL    HW116937   0.636   3.115  14.656  0.4522  0.1053  0.8695
 1825SOL    HW216938   0.710   3.240  14.633 -0.3121 -0.4723  1.5235
 1826SOL     OW16939   0.334   1.557  14.019  0.4621  0.0779 -0.0300
 1826SOL    HW116940   0.375   1.558  14.105  0.2472  0.4083  0.0672
 1826SOL    HW216941   0.252   1.507  14.029  0.0229  0.7825 -0.0878
 1827SOL     OW16942   0.641   0.883   4.722  0.0811 -0.9858 -0.4101
 1827SOL    HW116943   0.632   0.847   4.811 -1.5459 -0.6408 -0.4465
 1827SOL    HW216944   0.732   0.856   4.705  0.7810  0.6632  0.7064
 1828SOL     OW16945   3.936   2.705   7.426  0.0472 -0.6607  0.1150
 1828SOL    HW116946   4.014   2.651   7.418  1.3859  1.4098 -0.4942
 1828SOL    HW216947   3.960   2.789   7.388  1.2007 -1.6597 -1.3300
 1829SOL     OW16948   1.447   3.569   1.459 -0.2744  0.1480  0.6824
 1829SOL    HW116949   1.518   3.541   1.402 -2.0941  0.4509 -1.7728
 1829SOL    HW216950   1.409   3.482   1.472  2.9713 -1.3707 -0.1378
 1830SOL     OW16951   2.107   3.346   6.430  0.0431  0.0420 -0.5565
 1830SOL    HW116952   2.114   3.433   6.468 -3.9318 -0.1103  0.6065
 1830SOL    HW216953   2.062   3.290   6.494  1.7200  0.8755  1.3655
 1831SOL     OW16954   0.700   3.811  11.619 -0.7312 -0.4988 -0.2968
 1831SOL    HW116955   0.624   3.753  11.630  0.6742 -1.9964  1.3772
 1831SOL    HW216956   0.761   3.758  11.568  0.5496 -0.6571  1.4391
 1832SOL     OW16957   1.324   1.055   7.433 -0.3755 -0.0754  0.2935
 1832SOL    HW116958   1.407   1.094   7.459  0.3245 -1.1446 -0.3468
 1832SOL    HW216959   1.262   1.106   7.485 -0.3776 -1.6945  1.8673
 1833SOL     OW16960   4.551   0.650   0.982 -0.2727  0.5337 -0.5346
 1833SOL    HW116961   4.600   0.656   1.064  1.9738  0.4025 -1.8575
 1833SOL    HW216962   4.613   0.594   0.936 -0.8791 -0.7493  0.2244
 1834SOL     OW16963   3.160   1.370  13.274  0.0223 -0.5141  0.4360
 1834SOL    HW116964   3.102   1.392  13.200 -2.4893 -0.4271  2.4231
 1834SOL    HW216965   3.243   1.383  13.229 -0.5384  0.1005 -0.4322
 1835SOL     OW16966   3.350   2.966   8.859 -0.2094 -0.0258 -0.5256
 1835SOL    HW116967   3.297   3.038   8.894 -1.8141 -0.7659 -1.4620
 1835SOL    HW216968   3.391   2.997   8.778 -1.2616 -0.0617 -1.0673
 1836SOL     OW16969   4.478   0.108   4.000 -0.3045  0.0087  0.4566
 1836SOL    HW116970   4.564   0.065   4.003 -1.1011 -1.7388 -1.3975
 1836SOL    HW216971   4.449   0.091   3.910  0.1554  0.7472  0.1698
 1837SOL     OW16972   4.370   2.393   6.701  0.6092 -0.1389 -0.4503
 1837SOL    HW116973   4.432   2.337   6.748  0.1815 -2.3562 -2.5548
 1837SOL    HW216974   4.316   2.320   6.670 -0.2061  0.6710 -0.9316
 1838SOL     OW16975   2.596   3.160   4.429  0.0522  0.0338 -0.2411
 1838SOL    HW116976   2.603   3.156   4.524  0.8508  1.0525 -0.2523
 1838SOL    HW216977   2.561   3.075   4.402  2.7654 -0.8645 -0.9718
 1839SOL     OW16978   3.682   2.975   2.304 -0.2476  0.0540 -0.6504
 1839SOL    HW116979   3.680   2.999   2.212 -1.0546 -0.4385 -0.7660
 1839SOL    HW216980   3.734   3.046   2.341  0.1697  0.3623 -1.8512
 1840SOL     OW16981   1.819   1.959  10.263  0.0293  0.4057 -0.0840
 1840SOL    HW116982   1.801   2.009  10.183  0.6951 -0.1345 -0.5689
 1840SOL    HW216983   1.742   1.988  10.312  0.3915  0.5659  0.3876
 1841SOL     OW16984   1.669   0.772   5.531 -0.0676 -0.3591  0.0330
 1841SOL    HW116985   1.637   0.686   5.503 -1.3721  0.9075 -2.3362
 1841SOL    HW216986   1.765   0.765   5.523  0.0087  1.5276 -0.6873
 1842SOL     OW16987   1.008   1.901   7.282 -0.1224  0.2542  0.0889
 1842SOL    HW116988   0.947   1.932   7.349 -0.0086 -2.0626  1.2690
 1842SOL    HW216989   1.056   1.979   7.254  0.8097 -0.4073 -0.1741
 1843SOL     OW16990   0.797   1.550   8.438  0.0953  0.0386 -0.0588
 1843SOL    HW116991   0.736   1.477   8.450 -0.6598  0.3612 -1.8357
 1843SOL    HW216992   0.766   1.616   8.500 -2.0746  0.1640 -1.2612
 1844SOL     OW16993   3.745   0.660   8.967  0.8329  0.6471 -0.3710
 1844SOL    HW116994   3.701   0.709   9.037  0.3845  0.4567 -0.5141
 1844SOL    HW216995   3.751   0.730   8.902  1.5184  0.2452 -0.7349
 1845SOL     OW16996   1.200   0.368  16.081  0.0638  0.2327 -0.1948
 1845SOL    HW116997   1.159   0.443  16.038 -0.3449  0.1719  0.0902
 1845SOL    HW216998   1.249   0.410  16.152  2.4714 -2.3090 -0.3445
 1846SOL     OW16999   1.438   2.760   2.737 -0.0998  0.6682  0.1150
 1846SOL    HW117000   1.441   2.684   2.678 -1.6859  0.4828  0.2720
 1846SOL    HW217001   1.364   2.804   2.696  0.3593  1.9365  0.6739
 1847SOL     OW17002   1.734   3.065  12.435 -0.4599 -0.0340  0.6491
 1847SOL    HW117003   1.705   3.118  12.510  0.7622  0.0551  1.0525
 1847SOL    HW217004   1.758   2.989  12.489  1.0693 -0.2930 -0.4213
 1848SOL     OW17005   4.464   1.593   0.291  0.3904  0.5605 -0.5723
 1848SOL    HW117006   4.369   1.588   0.298  0.1140  1.0509 -4.1093
 1848SOL    HW217007   4.470   1.665   0.354  0.0810  1.0801 -1.1469
 1849SOL     OW17008   4.428   1.124   9.966  0.0837  0.2887  0.4140
 1849SOL    HW117009   4.423   1.050   9.905  0.3916  0.8838 -0.3382
 1849SOL    HW217010   4.397   1.079  10.045 -1.7510  3.3469  1.4211
 1850SOL     OW17011   2.705   0.768   7.584 -0.0092 -0.0748  0.7900
 1850SOL    HW117012   2.753   0.849   7.566  1.0129 -0.5481  1.3834
 1850SOL    HW217013   2.650   0.771   7.506 -1.1507 -0.2454  1.5832
 1851SOL     OW17014   3.851   1.496   8.255  0.1122  0.5805 -0.4974
 1851SOL    HW117015   3.884   1.411   8.285  0.9017  1.0697  0.0202
 1851SOL    HW217016   3.789   1.514   8.326  0.8266  1.1971 -0.0224
 1852SOL     OW17017   2.659   0.770   4.744  0.3991 -0.1859  0.0413
 1852SOL    HW117018   2.707   0.739   4.667 -0.6470  2.0941 -1.5222
 1852SOL    HW217019   2.708   0.849   4.768  0.2830 -0.2515  0.5073
 1853SOL     OW17020   3.347   4.246   7.272  0.4328  0.2205  0.1963
 1853SOL    HW117021   3.431   4.207   7.247 -0.2677 -1.0657 -0.1487
 1853SOL    HW217022   3.304   4.225   7.189  0.6849 -2.6544  0.7943
 1854SOL     OW17023   3.902   3.760  15.253  0.0100  0.5593 -0.2948
 1854SOL    HW117024   3.937   3.826  15.193 -0.6136  2.6625  1.6642
 1854SOL    HW217025   3.809   3.784  15.257 -0.4091 -0.8090 -1.4859
 1855SOL     OW17026   0.352   3.908  12.476 -0.1256 -0.1056 -0.2735
 1855SOL    HW117027   0.389   3.856  12.404  2.1493  0.3898  0.5486
 1855SOL    HW217028   0.417   3.913  12.545 -0.7555 -1.4415  0.4052
 1856SOL     OW17029   4.597   3.700   4.741  0.0659  0.1149  0.2452
 1856SOL    HW117030   4.518   3.661   4.778  0.7474 -1.1095  0.3949
 1856SOL    HW217031   4.664   3.676   4.805 -0.1916 -3.5801 -0.8565
 1857SOL     OW17032   1.716   1.765   8.332 -0.3438  0.3579 -0.1710
 1857SOL    HW117033   1.751   1.826   8.267  2.5674 -0.2685  0.8041
 1857SOL    HW217034   1.751   1.684   8.294 -1.1691  0.8466 -1.9795
 1858SOL     OW17035   0.724   4.267   4.278  0.9669 -0.1900 -0.1639
 1858SOL    HW117036   0.755   4.310   4.357  1.2653 -0.0321 -0.3673
 1858SOL    HW217037   0.632   4.252   4.300  1.2251  1.8982  2.2505
 1859SOL     OW17038   2.139   0.802   7.292  0.1859 -1.1584  0.3760
 1859SOL    HW117039   2.223   0.847   7.291  0.4948 -1.6855  2.7194
 1859SOL    HW217040   2.165   0.718   7.330  0.6067 -1.1863  0.0329
 1860SOL     OW17041   1.374   4.175   6.042  0.0192 -0.2952 -0.1323
 1860SOL    HW117042   1.365   4.126   5.960 -2.6867  0.9540 -0.5826
 1860SOL    HW217043   1.374   4.267   6.014  0.9390 -0.4409 -0.6130
 1861SOL     OW17044   2.981   3.038   9.072  0.2721  0.2588 -0.9641
 1861SOL    HW117045   3.005   3.099   9.142 -1.9836  0.4848 -0.4003
 1861SOL    HW217046   2.890   3.018   9.095  0.3040 -1.7056 -2.6234
 1862SOL     OW17047   3.704   2.871   1.573 -0.3241  0.1463 -0.2693
 1862SOL    HW117048   3.688   2.826   1.490 -0.8661 -0.1777  0.0151
 1862SOL    HW217049   3.645   2.945   1.565 -0.7304 -0.4483 -2.9151
 1863SOL     OW17050   2.868   2.088   3.920 -0.2908 -0.3699  0.5648
 1863SOL    HW117051   2.777   2.117   3.925 -0.2031  0.1203 -0.4843
 1863SOL    HW217052   2.878   2.023   3.990 -1.4515 -1.2312 -0.0636
 1864SOL     OW17053   1.981   3.990   4.960 -0.1269 -0.4581  0.2971
 1864SOL    HW117054   1.981   4.029   5.047 -0.2431  0.0792  0.0596
 1864SOL    HW217055   1.954   3.902   4.985  1.0763 -0.8473  0.2409
 1865SOL     OW17056   1.737   3.319   8.251  0.7619 -0.4886 -0.2149
 1865SOL    HW117057   1.646   3.333   8.278  0.6220 -2.5810  0.4372
 1865SOL    HW217058   1.727   3.321   8.156 -0.0828  3.5015 -0.0411
 1866SOL     OW17059   0.943   0.619   6.881  0.2280 -0.2272 -0.4757
 1866SOL    HW117060   0.873   0.563   6.915  0.5596  1.7117  3.4429
 1866SOL    HW217061   0.944   0.682   6.954  0.7720  0.0265 -0.7058
 1867SOL     OW17062   1.016   1.382   9.365  0.5182  0.3781 -0.4367
 1867SOL    HW117063   0.996   1.379   9.272  0.5339  1.0952 -0.4675
 1867SOL    HW217064   0.937   1.427   9.395  1.9252  1.9352  0.9679
 1868SOL     OW17065   3.276   2.238   4.938 -0.2128  0.1216  0.6864
 1868SOL    HW117066   3.221   2.314   4.957  0.6885  0.7333  0.9123
 1868SOL    HW217067   3.364   2.270   4.917  0.4681 -0.9647  1.8989
 1869SOL     OW17068   2.151   3.530   8.461  0.0663  0.2225 -0.3148
 1869SOL    HW117069   2.238   3.522   8.422  0.9187  1.7314  1.2757
 1869SOL    HW217070   2.168   3.552   8.552 -0.3091  2.5275 -0.8006
 1870SOL     OW17071   1.751   1.147   5.534 -0.2351  0.5604  0.1058
 1870SOL    HW117072   1.690   1.085   5.493  0.7023 -0.7876  0.7590
 1870SOL    HW217073   1.701   1.223   5.505  1.3331  0.6362 -2.3505
 1871SOL     OW17074   2.523   3.605  16.190  0.0682 -0.3534  0.1948
 1871SOL    HW117075   2.542   3.559  16.109 -4.4354  1.4817 -1.9271
 1871SOL    HW217076   2.538   3.695  16.159  1.6219 -0.7172 -0.0994
 1872SOL     OW17077   2.664   1.607   7.533 -0.6056  0.0297  0.5982
 1872SOL    HW117078   2.758   1.600   7.552 -0.4960  1.5538  0.6403
 1872SOL    HW217079   2.646   1.562   7.451 -0.8091 -1.1531  1.2960
 1873SOL     OW17080   2.437   4.227   2.256  0.0676 -0.4809 -0.9021
 1873SOL    HW117081   2.399   4.314   2.248 -1.1143 -1.0270 -1.3624
 1873SOL    HW217082   2.511   4.234   2.315 -1.6630  0.1210  1.1970
 1874SOL     OW17083   3.226   0.761   4.523  0.0470 -0.4631  0.3212
 1874SOL    HW117084   3.179   0.841   4.502 -0.2900 -0.4844  0.9832
 1874SOL    HW217085   3.316   0.783   4.500  0.8239 -2.8594  1.0201
 1875SOL     OW17086   1.371   0.886   7.950 -0.1027 -0.0870 -0.4339
 1875SOL    HW117087   1.329   0.969   7.926  1.4907  1.0269  0.5521
 1875SOL    HW217088   1.466   0.899   7.943 -0.3529  1.7244 -0.5409
 1876SOL     OW17089   3.219   3.761   6.311  0.0458  0.1533  0.1927
 1876SOL    HW117090   3.268   3.713   6.378  0.7102 -1.5270 -1.4881
 1876SOL    HW217091   3.139   3.774   6.362 -1.0371 -1.6746 -1.0294
 1877SOL     OW17092   0.815   0.045   2.402 -0.0392  0.9831 -0.0044
 1877SOL    HW117093   0.880   4.719   2.452  0.7542  1.4113 -0.6177
 1877SOL    HW217094   0.868   0.123   2.386 -1.4652  2.2321  1.2952
 1878SOL     OW17095   3.918   2.186   2.949 -0.3995  0.5110 -0.1005
 1878SOL    HW117096   3.957   2.105   2.980 -2.0134  0.1952  1.1366
 1878SOL    HW217097   3.960   2.199   2.864  0.4363 -0.7068  0.1300
 1879SOL     OW17098   2.951   1.068   8.124 -0.0941  0.3207  0.5526
 1879SOL    HW117099   2.936   1.069   8.030 -1.1403  1.5505  0.7410
 1879SOL    HW217100   2.888   0.999   8.146  0.9223 -0.8117 -0.0693
 1880SOL     OW17101   2.438   0.381   8.062 -0.1091 -0.2129  0.0807
 1880SOL    HW117102   2.348   0.353   8.077 -0.0203  1.0551  3.1683
 1880SOL    HW217103   2.467   0.382   8.154 -0.1752  0.2393  0.0975
 1881SOL     OW17104   0.967   4.720  10.180  0.0565  0.1771 -0.6424
 1881SOL    HW117105   0.962   0.070  10.118 -0.3238  0.2421 -0.5318
 1881SOL    HW217106   1.052   4.689  10.149  0.4820  2.2140 -1.5068
 1882SOL     OW17107   4.196   4.717   8.440  0.2001 -0.6368 -0.4406
 1882SOL    HW117108   4.153   4.665   8.508  1.9402 -0.9542  0.4204
 1882SOL    HW217109   4.122   0.045   8.407  0.6208  0.8951  0.9535
 1883SOL     OW17110   3.394   3.085   6.489  0.1729  0.4704  0.7735
 1883SOL    HW117111   3.386   3.047   6.576 -0.2533  2.6908  1.6876
 1883SOL    HW217112   3.320   3.055   6.437  0.0303  1.1322  0.5989
 1884SOL     OW17113   3.431   0.786  10.425 -0.0049 -0.5519 -0.4026
 1884SOL    HW117114   3.445   0.870  10.380  0.5518  0.3778  1.4972
 1884SOL    HW217115   3.498   0.787  10.494  0.0448  0.2047 -0.4628
 1885SOL     OW17116   1.154   0.255   9.015  0.3057  0.3304  0.2840
 1885SOL    HW117117   1.198   0.239   8.931 -1.7434 -2.6993 -0.1863
 1885SOL    HW217118   1.168   0.172   9.059 -1.2582  0.5225  1.1372
 1886SOL     OW17119   0.700   4.199   5.657  0.1749  0.1354 -0.0401
 1886SOL    HW117120   0.685   4.106   5.644 -1.6947  0.5276 -0.7669
 1886SOL    HW217121   0.643   4.246   5.596  0.9826  0.6986 -0.3647
 1887SOL     OW17122   1.149   0.908   5.741 -0.1995 -0.1699  0.2744
 1887SOL    HW117123   1.082   0.913   5.809 -0.4710 -0.1879  0.0112
 1887SOL    HW217124   1.187   0.822   5.754  1.0860  0.5948  1.5189
 1888SOL     OW17125   3.842   2.033   2.336  0.4446  0.2964 -0.4473
 1888SOL    HW117126   3.860   1.948   2.374 -0.9134  0.5285  0.7281
 1888SOL    HW217127   3.930   2.069   2.339  2.5307 -4.8394 -0.5876
 1889SOL     OW17128   3.663   1.951  10.047 -0.0013 -0.1050 -0.2711
 1889SOL    HW117129   3.691   1.869  10.006 -0.6380 -0.8862  0.8797
 1889SOL    HW217130   3.586   1.929  10.099  2.9737 -1.8666  3.3856
 1890SOL     OW17131   0.753   1.482   5.613  0.2236 -0.1295  0.1330
 1890SOL    HW117132   0.776   1.513   5.701 -0.4427  0.1876  0.1963
 1890SOL    HW217133   0.797   1.544   5.555 -3.1594  2.8492  0.7480
 1891SOL     OW17134   2.728   3.248   2.686 -0.0929 -0.1002 -0.0761
 1891SOL    HW117135   2.794   3.213   2.627 -1.0853  1.7742 -2.3033
 1891SOL    HW217136   2.753   3.201   2.766  1.4313 -2.7580 -2.1389
 1892SOL     OW17137   1.383   1.396   8.910 -0.2279  0.1772 -0.0340
 1892SOL    HW117138   1.412   1.487   8.905 -2.0189  0.7230 -0.3260
 1892SOL    HW217139   1.448   1.366   8.975 -0.9772  1.5959  1.3747
 1893SOL     OW17140   0.652   2.639   2.256  0.3417 -0.1793  0.1903
 1893SOL    HW117141   0.604   2.718   2.230  0.4303 -0.4699 -0.8733
 1893SOL    HW217142   0.658   2.598   2.170 -1.3693  1.7700 -0.8668
 1894SOL     OW17143   3.733   4.689   3.475 -0.6936 -0.0671  0.1749
 1894SOL    HW117144   3.726   0.049   3.428 -0.2240 -0.2924 -0.2875
 1894SOL    HW217145   3.688   4.624   3.421 -1.3386  0.9529 -0.5057
 1895SOL     OW17146   2.174   0.405  17.050  0.1513 -0.6299 -0.2563
 1895SOL    HW117147   2.214   0.350  17.117 -0.2753  1.4687  1.7059
 1895SOL    HW217148   2.259   0.422  17.009  0.0757 -0.1715 -0.2151
 1896SOL     OW17149   3.897   3.895   6.785  0.2326 -0.2608  0.6264
 1896SOL    HW117150   3.944   3.812   6.787 -0.4032 -0.6661 -1.6760
 1896SOL    HW217151   3.860   3.899   6.873  2.5309 -0.5536  1.5856
 1897SOL     OW17152   0.463   2.563   7.492 -0.0543  0.0569  0.1756
 1897SOL    HW117153   0.556   2.576   7.472 -0.1821  0.2445 -0.3013
 1897SOL    HW217154   0.453   2.482   7.442 -1.6270  0.1062  0.4255
 1898SOL     OW17155   3.459   4.227  12.204 -0.4908  0.2177  0.2675
 1898SOL    HW117156   3.473   4.284  12.128 -0.5765  1.1574  0.9563
 1898SOL    HW217157   3.513   4.271  12.269 -0.8435 -1.1286  1.4749
 1899SOL     OW17158   0.749   0.708  14.744  0.4658 -0.4596  0.3668
 1899SOL    HW117159   0.677   0.664  14.789 -0.6001  2.1991  1.2238
 1899SOL    HW217160   0.704   0.725  14.661  2.8608  1.2837 -0.5637
 1900SOL     OW17161   0.354   3.439  12.415 -0.2157  0.0759  0.0087
 1900SOL    HW117162   0.384   3.393  12.336  0.3567 -1.9541  1.4241
 1900SOL    HW217163   0.407   3.396  12.482 -0.0275  1.3461  0.6679
 1901SOL     OW17164   3.413   2.973   6.731  0.2305  0.2359  0.4610
 1901SOL    HW117165   3.399   2.879   6.740  2.3638  0.0936  2.2770
 1901SOL    HW217166   3.475   2.993   6.801  0.0768 -0.6535  0.8473
 1902SOL     OW17167   0.861   4.684   8.496  0.3970 -0.6612 -0.2456
 1902SOL    HW117168   0.778   4.640   8.479 -0.1995  1.8016 -3.6470
 1902SOL    HW217169   0.842   0.054   8.493  0.5926 -0.5923  0.6130
 1903SOL     OW17170   1.935   2.732   2.591 -0.2847  0.3942 -0.1669
 1903SOL    HW117171   1.916   2.741   2.498 -0.8382  0.7436 -0.0155
 1903SOL    HW217172   1.846   2.720   2.625 -0.7974 -0.1497 -1.7260
 1904SOL     OW17173   4.110   0.553   6.845 -0.3861  0.0842  0.3526
 1904SOL    HW117174   4.155   0.572   6.763  0.5479 -1.7251  0.4492
 1904SOL    HW217175   4.087   0.637   6.884 -2.3704 -0.1628 -0.2577
 1905SOL     OW17176   3.134   0.647   0.646  0.1603  0.2732 -0.5107
 1905SOL    HW117177   3.085   0.610   0.720  0.1751 -0.2614 -0.7670
 1905SOL    HW217178   3.082   0.640   0.566  0.0602  1.3295 -0.5328
 1906SOL     OW17179   1.592   4.255   2.759  0.1208  0.0071  0.1842
 1906SOL    HW117180   1.508   4.291   2.730 -1.6961 -3.1596  1.4963
 1906SOL    HW217181   1.589   4.282   2.850  1.0797  1.7143 -0.3022
 1907SOL     OW17182   0.147   3.522  13.098 -0.2763  0.3442  0.1316
 1907SOL    HW117183   0.070   3.530  13.155 -0.5220 -0.3953 -0.0968
 1907SOL    HW217184   0.159   3.428  13.084  1.2090  0.7265 -1.1901
 1908SOL     OW17185   3.985   0.057   3.994  0.4314 -0.4178 -0.5531
 1908SOL    HW117186   4.001   0.093   4.081  3.7052  1.8923 -2.1332
 1908SOL    HW217187   3.895   0.026   3.990  0.2240 -0.2507  2.4854
 1909SOL     OW17188   3.288   0.420   9.127  0.2582  0.0614  0.2191
 1909SOL    HW117189   3.272   0.502   9.081  0.2044  0.1709  0.4337
 1909SOL    HW217190   3.354   0.453   9.188 -0.7601 -0.4455  1.6103
 1910SOL     OW17191   0.534   3.366   5.467  0.3206  0.2287 -0.0941
 1910SOL    HW117192   0.621   3.378   5.429  0.7243 -1.7140  0.2120
 1910SOL    HW217193   0.545   3.405   5.553 -1.2469  0.4460  0.0169
 1911SOL     OW17194   4.059   4.580   5.670 -0.0243 -0.0364  0.2013
 1911SOL    HW117195   4.091   4.503   5.717  1.0704  1.6323  2.2060
 1911SOL    HW217196   4.060   4.554   5.578  0.7613 -0.8661  0.4461
 1912SOL     OW17197   2.649   2.876  12.862  0.0807  0.6277  0.9252
 1912SOL    HW117198   2.565   2.914  12.836 -0.5175 -1.1791  0.2186
 1912SOL    HW217199   2.678   2.858  12.772 -1.5309  2.0912  0.1156
 1913SOL     OW17200   4.326   4.291   7.317 -0.2447  0.0846  0.0754
 1913SOL    HW117201   4.342   4.275   7.410 -2.1683  0.6041  0.5011
 1913SOL    HW217202   4.330   4.198   7.296 -0.5567  0.2546 -0.7333
 1914SOL     OW17203   2.119   1.227   4.537  0.1664  0.2532  0.6334
 1914SOL    HW117204   2.046   1.210   4.478  2.0298 -2.1479 -0.9895
 1914SOL    HW217205   2.191   1.197   4.482 -0.6691 -2.3460  0.9441
 1915SOL     OW17206   1.502   0.300   4.706  0.4491  0.1268  0.5952
 1915SOL    HW117207   1.590   0.328   4.734  0.3038  2.8214 -1.6731
 1915SOL    HW217208   1.493   0.348   4.624 -1.1300 -0.0128  0.6895
 1916SOL     OW17209   1.328   1.720   2.802  0.5195 -0.5421  0.2106
 1916SOL    HW117210   1.263   1.790   2.800  0.7546 -0.3721 -1.4512
 1916SOL    HW217211   1.388   1.762   2.740  1.6689 -2.3065  0.1273
 1917SOL     OW17212   0.126   2.559   6.820 -0.2442 -0.4033 -0.2166
 1917SOL    HW117213   0.064   2.623   6.786 -1.3450 -1.5673 -0.3867
 1917SOL    HW217214   0.147   2.598   6.905 -3.0439  0.8061 -0.0964
 1918SOL     OW17215   1.377   2.837   7.668  0.1408 -0.6731  0.1189
 1918SOL    HW117216   1.437   2.838   7.594 -2.6841  4.1289 -2.0879
 1918SOL    HW217217   1.436   2.816   7.741  0.2172  2.4149  0.9378
 1919SOL     OW17218   1.129   3.443  16.162 -0.3087 -0.1743 -0.6932
 1919SOL    HW117219   1.207   3.424  16.110  0.2166  2.3190 -0.8110
 1919SOL    HW217220   1.138   3.378  16.232 -0.6734  0.3957 -0.1236
 1920SOL     OW17221   1.533   1.833   4.282 -0.0222 -0.3395  0.1092
 1920SOL    HW117222   1.497   1.921   4.287 -0.5531 -0.4722 -1.3363
 1920SOL    HW217223   1.598   1.840   4.212 -0.7921 -0.5909 -0.6323
 1921SOL     OW17224   3.461   1.514   7.992 -0.0712  0.0280  0.3455
 1921SOL    HW117225   3.520   1.580   8.030  0.3445  0.2348 -0.6606
 1921SOL    HW217226   3.508   1.432   8.008 -0.0312 -0.0267 -0.0645
 1922SOL     OW17227   1.205   3.667   3.162  0.5702 -0.2870  0.4765
 1922SOL    HW117228   1.173   3.737   3.218 -0.1213  0.1899 -0.5159
 1922SOL    HW217229   1.272   3.628   3.219 -0.2345 -0.0940  1.5420
 1923SOL     OW17230   4.715   4.312  14.544 -0.5824 -0.1797 -0.2592
 1923SOL    HW117231   0.028   4.308  14.455 -2.4291 -1.0229 -0.9486
 1923SOL    HW217232   4.631   4.269  14.530 -0.2432 -0.9273  0.0224
 1924SOL     OW17233   1.367   1.988   5.875  0.3838 -0.5356 -0.2220
 1924SOL    HW117234   1.432   1.937   5.826  0.4173 -1.2726  0.5945
 1924SOL    HW217235   1.394   1.960   5.963  0.6659  2.8320  0.7491
 1925SOL     OW17236   1.864   0.256   8.768 -0.2429  0.1950  0.4637
 1925SOL    HW117237   1.948   0.292   8.740 -0.4195 -1.2405 -2.0082
 1925SOL    HW217238   1.809   0.308   8.709 -0.2059  2.1118  2.1427
 1926SOL     OW17239   0.600   3.883  12.193 -0.5131  0.6547  0.1061
 1926SOL    HW117240   0.605   3.817  12.262 -1.0741  1.7933  1.2282
 1926SOL    HW217241   0.680   3.874  12.142 -1.2922  0.7449 -1.1631
 1927SOL     OW17242   3.118   0.287   1.525 -0.4680 -0.3528  0.2128
 1927SOL    HW117243   3.164   0.356   1.476  1.1589 -1.3125  0.4026
 1927SOL    HW217244   3.047   0.266   1.464  0.5567  0.1166 -1.1453
 1928SOL     OW17245   4.552   0.414   5.877 -0.0065  0.3028 -0.1141
 1928SOL    HW117246   4.593   0.467   5.808  1.1266 -0.0815  0.2660
 1928SOL    HW217247   4.533   0.468   5.953 -1.3994  0.6884 -0.7401
 1929SOL     OW17248   4.348   3.388  13.889 -0.2172  0.5231  0.1186
 1929SOL    HW117249   4.255   3.366  13.889 -0.0358 -0.2124 -0.9163
 1929SOL    HW217250   4.332   3.481  13.870 -1.7771 -0.2449 -2.3862
 1930SOL     OW17251   4.563   1.447   6.862 -0.4826  0.2783 -0.1638
 1930SOL    HW117252   4.505   1.371   6.872  0.2215 -0.7569 -4.1373
 1930SOL    HW217253   4.510   1.520   6.895  0.6720  0.6765  0.7999
 1931SOL     OW17254   1.520   3.706   1.847 -0.3367 -0.4134  0.0588
 1931SOL    HW117255   1.589   3.759   1.807 -0.7282 -1.2459 -1.7077
 1931SOL    HW217256   1.477   3.766   1.908 -0.4745  0.8318 -1.2879
 1932SOL     OW17257   3.734   4.283   9.457  0.0236  0.5558  0.6316
 1932SOL    HW117258   3.797   4.211   9.456 -0.1305  0.4240 -0.5575
 1932SOL    HW217259   3.775   4.328   9.530  2.3706 -1.1400  0.3423
 1933SOL     OW17260   1.530   1.606   8.586  0.1987  0.3933  0.1583
 1933SOL    HW117261   1.449   1.627   8.539  0.2785  0.1555 -0.0868
 1933SOL    HW217262   1.549   1.522   8.543  0.6170 -0.8955  2.8654
 1934SOL     OW17263   0.000   2.230   5.800  0.0033 -0.1541  0.4664
 1934SOL    HW117264   4.644   2.282   5.782  0.5497  1.0157  1.4007
 1934SOL    HW217265   0.063   2.300   5.785  0.7420 -1.2064 -1.2844
 1935SOL     OW17266   3.150   1.438   3.397 -0.3631 -0.1073  0.3031
 1935SOL    HW117267   3.180   1.364   3.344  0.5460  2.2574 -2.5371
 1935SOL    HW217268   3.232   1.488   3.400 -0.1920 -0.3339 -0.4541
 1936SOL     OW17269   3.111   1.070   3.940 -0.1444 -0.0617  0.6298
 1936SOL    HW117270   3.055   1.120   3.881  0.3550  0.9038  0.9850
 1936SOL    HW217271   3.173   1.037   3.874 -1.7495 -1.1798 -0.3212
 1937SOL     OW17272   4.550   0.490   2.270  0.0255 -0.1935  0.4092
 1937SOL    HW117273   4.598   0.408   2.258 -1.1020 -0.3905 -2.6550
 1937SOL    HW217274   4.614   0.548   2.314 -0.7928  0.5959  0.5621
 1938SOL     OW17275   3.967   2.507   6.693 -0.1213 -0.0850  0.0216
 1938SOL    HW117276   4.011   2.500   6.778 -0.7576  1.1415  0.4484
 1938SOL    HW217277   3.970   2.416   6.664 -0.2509 -0.5475  1.4937
 1939SOL     OW17278   1.864   0.613  11.203  0.1522 -0.1786 -0.1018
 1939SOL    HW117279   1.777   0.601  11.240  0.2791  3.7189  1.5498
 1939SOL    HW217280   1.866   0.568  11.119 -1.9653  0.6044 -0.5654
 1940SOL     OW17281   0.101   0.079   7.526  0.0759  0.3911  0.3190
 1940SOL    HW117282   0.164   0.101   7.595  1.2882 -1.0889 -0.3170
 1940SOL    HW217283   0.131   4.716   7.495 -4.8191 -1.1330 -0.1806
 1941SOL     OW17284   0.090   2.768  12.695  0.2830  0.1354  0.3789
 1941SOL    HW117285   0.023   2.809  12.750  0.0397 -0.6985  0.7040
 1941SOL    HW217286   0.072   2.813  12.612  1.2089  0.1058  0.1664
 1942SOL     OW17287   1.611   3.900   8.015  0.0005 -0.9303  0.6860
 1942SOL    HW117288   1.518   3.880   8.026  0.1869 -1.6166  1.0431
 1942SOL    HW217289   1.631   3.979   8.066 -0.5872 -0.3306 -0.0247
 1943SOL     OW17290   2.397   0.667   4.690 -0.3091  0.2053  0.4017
 1943SOL    HW117291   2.481   0.711   4.702  0.2117 -0.5973 -0.3284
 1943SOL    HW217292   2.388   0.680   4.595  3.4819  0.4630  0.1020
 1944SOL     OW17293   1.441   4.546  10.654 -0.5293  0.3654  0.2201
 1944SOL    HW117294   1.464   4.635  10.680  1.0383  1.3066 -4.3200
 1944SOL    HW217295   1.519   4.526  10.602 -0.7940 -0.5489  0.1771
 1945SOL     OW17296   2.587   4.625   5.450  0.4150  0.2657  0.0956
 1945SOL    HW117297   2.577   4.531   5.435 -1.0778  0.1213  2.0275
 1945SOL    HW217298   2.672   4.630   5.494  0.9154  1.0349 -0.9457
 1946SOL     OW17299   3.779   4.506  11.471  0.1322  0.1865 -0.1932
 1946SOL    HW117300   3.760   4.560  11.394  0.5861  1.7244  0.7780
 1946SOL    HW217301   3.865   4.535  11.499  0.1731 -0.5186  0.4084
 1947SOL     OW17302   1.640   1.085  15.072  0.4847  0.0304 -0.6864
 1947SOL    HW117303   1.723   1.042  15.090  0.1970  1.5618  4.3434
 1947SOL    HW217304   1.613   1.033  14.996  1.5887  0.0556 -1.0915
 1948SOL     OW17305   2.922   3.339  16.847 -0.4403  0.4743  0.0248
 1948SOL    HW117306   2.836   3.376  16.827 -1.8299 -2.9258 -0.2623
 1948SOL    HW217307   2.926   3.378  16.934 -0.7950  3.0740 -1.1068
 1949SOL     OW17308   1.541   2.935   7.197 -0.0800 -0.6784 -0.4614
 1949SOL    HW117309   1.547   2.931   7.293  2.6807 -2.1408 -0.6981
 1949SOL    HW217310   1.489   3.012   7.174  0.7497 -0.0561 -0.2869
 1950SOL     OW17311   4.671   1.095  15.497 -0.0200  0.1295  0.0873
 1950SOL    HW117312   4.638   1.166  15.552  3.6089 -1.1619  3.9957
 1950SOL    HW217313   4.697   1.146  15.420 -0.5276  0.3715  0.0775
 1951SOL     OW17314   3.106   4.031   9.429  0.2272 -0.5603  0.0570
 1951SOL    HW117315   3.018   4.027   9.392 -0.4813  0.0275  1.6823
 1951SOL    HW217316   3.121   3.949   9.476 -0.9917  0.0419  1.4899
 1952SOL     OW17317   0.775   3.279   7.666 -0.1027 -0.2987 -0.5779
 1952SOL    HW117318   0.706   3.345   7.674  2.7037  2.7141 -1.1783
 1952SOL    HW217319   0.721   3.200   7.657  1.1458 -1.4594  2.0625
 1953SOL     OW17320   0.902   0.074   6.053  0.6024 -0.3800 -0.7722
 1953SOL    HW117321   0.852   0.030   6.122  1.0134 -1.0470 -0.9014
 1953SOL    HW217322   0.961   0.113   6.117 -0.1133 -0.2816 -0.1740
 1954SOL     OW17323   1.709   1.785   4.515  0.1792  0.1612 -0.0962
 1954SOL    HW117324   1.768   1.739   4.455  0.7720  0.5544  0.1922
 1954SOL    HW217325   1.635   1.790   4.454 -0.6738 -1.5262  0.8013
 1955SOL     OW17326   0.907   1.056   1.796  0.0115  0.0323  0.3006
 1955SOL    HW117327   0.828   1.097   1.761  0.0216  0.0151  0.2583
 1955SOL    HW217328   0.980   1.107   1.762 -1.0653  3.4032  3.0553
 1956SOL     OW17329   2.366   3.774   7.496 -0.0386  0.3555 -0.6105
 1956SOL    HW117330   2.430   3.754   7.564 -2.1820  2.0867  1.9048
 1956SOL    HW217331   2.293   3.784   7.557  0.2805  0.6070 -0.2760
 1957SOL     OW17332   3.714   3.645   2.076 -0.0702 -0.5372  0.1479
 1957SOL    HW117333   3.630   3.638   2.123  0.6523 -0.4607  1.4495
 1957SOL    HW217334   3.737   3.552   2.075  0.1499 -0.4255 -3.3649
 1958SOL     OW17335   1.714   2.828   3.046 -0.3714 -0.4430  0.8006
 1958SOL    HW117336   1.757   2.829   2.960 -1.0913 -1.5076  0.4403
 1958SOL    HW217337   1.692   2.921   3.052  0.2621 -0.3248  1.2611
 1959SOL     OW17338   1.807   1.600   2.686 -0.0528 -0.2554 -0.4341
 1959SOL    HW117339   1.815   1.541   2.761 -2.7329  1.5084  1.1931
 1959SOL    HW217340   1.734   1.562   2.636 -1.5203  2.1629 -0.0930
 1960SOL     OW17341   1.993   1.524   9.412 -0.2277 -0.0770  0.3837
 1960SOL    HW117342   1.903   1.555   9.422 -1.3756 -2.7586 -1.7157
 1960SOL    HW217343   1.987   1.441   9.460 -3.1212  0.7087  1.3789
 1961SOL     OW17344   3.894   2.459  16.222 -0.2696  0.5314  0.5875
 1961SOL    HW117345   3.831   2.492  16.286 -0.6797  2.5732 -0.8629
 1961SOL    HW217346   3.893   2.365  16.237  0.0462  0.5669  0.8615
 1962SOL     OW17347   3.397   3.499   1.575 -0.7140  0.7759  0.0791
 1962SOL    HW117348   3.339   3.424   1.560  1.3371 -0.6392 -0.6421
 1962SOL    HW217349   3.335   3.570   1.558  0.5247  1.7105 -0.4946
 1963SOL     OW17350   4.434   0.258   6.927  0.4827 -0.0025  0.9249
 1963SOL    HW117351   4.343   0.235   6.913  0.4050  1.7059 -1.3181
 1963SOL    HW217352   4.427   0.342   6.974  0.5085  1.2437 -1.3226
 1964SOL     OW17353   2.755   4.344   6.383 -0.3459 -0.7524 -0.7356
 1964SOL    HW117354   2.840   4.376   6.352 -0.3524  1.9101  2.0220
 1964SOL    HW217355   2.694   4.406   6.343 -0.7346 -0.0925  0.8926
 1965SOL     OW17356   4.364   3.302  16.132 -0.0578 -0.4258  0.4684
 1965SOL    HW117357   4.368   3.395  16.152 -0.2506 -0.0161 -1.3655
 1965SOL    HW217358   4.378   3.263  16.218 -2.2135  1.6619  1.7362
 1966SOL     OW17359   1.273   0.135   7.179  0.5243  0.7698 -0.5205
 1966SOL    HW117360   1.245   0.066   7.240 -0.5159  0.8585 -0.8997
 1966SOL    HW217361   1.325   0.188   7.240  0.7338  1.4398 -1.2892
 1967SOL     OW17362   2.060   1.627  13.308  0.1910  0.3054 -0.2303
 1967SOL    HW117363   2.095   1.574  13.379  3.2599  1.5782 -0.8259
 1967SOL    HW217364   1.968   1.602  13.321  0.5311 -0.1278  1.2603
 1968SOL     OW17365   1.766   2.607  16.281  0.2818  0.5049  0.3138
 1968SOL    HW117366   1.842   2.641  16.328  1.1848 -1.3630  0.1718
 1968SOL    HW217367   1.692   2.623  16.340 -1.5450 -1.3377 -1.4930
 1969SOL     OW17368   1.452   1.831   7.990  0.3038  0.1027 -0.1917
 1969SOL    HW117369   1.420   1.820   7.901  0.6272  0.3617 -0.3402
 1969SOL    HW217370   1.543   1.808   7.971  0.3611 -0.1528  0.3810
 1970SOL     OW17371   0.629   4.196   7.146  0.8269  1.0622 -0.1796
 1970SOL    HW117372   0.713   4.188   7.191 -0.9622 -3.3304  2.4742
 1970SOL    HW217373   0.631   4.288   7.121 -3.1101  1.6168  1.5092
 1971SOL     OW17374   0.849   3.332   2.573  0.1579 -0.2646  0.1743
 1971SOL    HW117375   0.881   3.250   2.537  0.8476 -0.6714  1.7301
 1971SOL    HW217376   0.753   3.329   2.575  0.1162  0.4104 -0.8041
 1972SOL     OW17377   3.865   2.841  12.818  0.4702  0.0159 -0.6747
 1972SOL    HW117378   3.935   2.890  12.774  0.0083  0.6588 -0.6891
 1972SOL    HW217379   3.894   2.826  12.908 -0.5124 -1.6660 -0.6323
 1973SOL     OW17380   2.542   3.048   3.955  0.3401  0.1872  0.4811
 1973SOL    HW117381   2.532   2.977   4.019  0.8547 -1.4271 -1.2410
 1973SOL    HW217382   2.571   3.124   4.006  1.7879  0.1942 -0.3654
 1974SOL     OW17383   4.258   0.747   5.792  0.6082  0.5330 -0.8077
 1974SOL    HW117384   4.338   0.710   5.828  0.8293 -0.1556 -1.9827
 1974SOL    HW217385   4.187   0.718   5.849  0.0734  1.3147 -1.0598
 1975SOL     OW17386   3.024   3.088   7.650  0.1930  0.6662 -0.0899
 1975SOL    HW117387   3.033   3.009   7.598 -0.4407 -0.9743  2.2898
 1975SOL    HW217388   3.110   3.125   7.630 -0.9687  2.9371 -0.9181
 1976SOL     OW17389   0.613   3.686   4.788 -0.1131 -0.0387 -0.5416
 1976SOL    HW117390   0.655   3.600   4.784  0.5531  0.2620 -0.0450
 1976SOL    HW217391   0.688   3.745   4.794  0.8893 -1.0607 -3.1653
 1977SOL     OW17392   2.214   4.247   7.717 -0.3249 -0.3874 -0.0863
 1977SOL    HW117393   2.245   4.262   7.807 -0.0159 -0.4206 -0.1886
 1977SOL    HW217394   2.280   4.185   7.686 -0.0382 -0.1483  0.0393
 1978SOL     OW17395   1.318   2.723   3.996  0.5570  0.0708  0.2854
 1978SOL    HW117396   1.395   2.768   4.030  2.3485 -1.2619 -2.0220
 1978SOL    HW217397   1.334   2.671   3.917  3.0261  1.5487 -0.1806
 1979SOL     OW17398   1.106   0.686   6.035  0.0933  0.3006 -0.1843
 1979SOL    HW117399   1.017   0.714   6.058 -0.6026  0.4546 -3.0279
 1979SOL    HW217400   1.102   0.601   6.078 -1.5655  0.1668 -0.5867
 1980SOL     OW17401   3.613   3.395   8.180 -0.2442  0.0610  0.3772
 1980SOL    HW117402   3.575   3.346   8.253  1.9556 -0.8523  0.8995
 1980SOL    HW217403   3.675   3.330   8.146 -0.0497 -0.3661  1.5514
 1981SOL     OW17404   0.558   3.041  15.018 -0.3618  0.0858 -0.0373
 1981SOL    HW117405   0.538   3.082  15.103  0.1350  2.6910 -1.1711
 1981SOL    HW217406   0.485   2.978  15.016 -0.7381  0.4568  2.3184
 1982SOL     OW17407   4.358   4.555   4.220 -0.5976  0.1735  0.0523
 1982SOL    HW117408   4.282   4.525   4.170 -0.8976 -1.0936  1.2579
 1982SOL    HW217409   4.419   4.541   4.148  1.1242 -0.4994  1.6345
 1983SOL     OW17410   2.320   3.011  10.434  0.3316 -0.3887 -0.5749
 1983SOL    HW117411   2.266   3.006  10.513  0.4961  2.5318 -0.2951
 1983SOL    HW217412   2.262   3.040  10.364 -1.0575  2.1392  1.6337
 1984SOL     OW17413   1.197   2.583  11.900  0.7148 -0.5501  0.3554
 1984SOL    HW117414   1.243   2.504  11.929 -1.5108 -1.9012  0.1810
 1984SOL    HW217415   1.235   2.649  11.958  2.0940  0.6600 -1.9223
 1985SOL     OW17416   4.519   4.139   2.103 -0.2384 -0.0239 -0.4149
 1985SOL    HW117417   4.449   4.125   2.167  0.7715  2.1661  1.1766
 1985SOL    HW217418   4.481   4.225   2.083 -0.2341  0.2821  0.8547
 1986SOL     OW17419   0.982   1.748   6.334  0.0529  0.5537 -0.0713
 1986SOL    HW117420   0.896   1.768   6.370  0.0878 -0.2891  0.4851
 1986SOL    HW217421   0.967   1.672   6.278  0.4447 -0.4231  1.1341
 1987SOL     OW17422   3.273   1.054   4.940  0.0544  0.4666  0.4194
 1987SOL    HW117423   3.274   1.011   5.025 -0.1387 -0.6043 -0.1172
 1987SOL    HW217424   3.215   0.998   4.889 -0.4306  3.9514 -2.8957
 1988SOL     OW17425   3.697   4.293   0.838 -0.4566  0.0691 -0.1595
 1988SOL    HW117426   3.693   4.388   0.828 -3.4144 -0.0611 -0.2004
 1988SOL    HW217427   3.628   4.266   0.778 -1.2956 -0.0934  0.8652
 1989SOL     OW17428   3.835   0.990   9.488 -0.1896  0.0602 -0.5387
 1989SOL    HW117429   3.883   0.909   9.505 -1.1689 -0.0107  1.9733
 1989SOL    HW217430   3.748   0.956   9.510  0.5175 -0.2971  1.7625
 1990SOL     OW17431   4.534   0.101   3.285  0.9253 -0.2422 -0.7740
 1990SOL    HW117432   4.555   0.012   3.258  0.4077  0.0292 -2.0445
 1990SOL    HW217433   4.615   0.145   3.261  1.5343 -0.1948  1.3765
 1991SOL     OW17434   2.154   2.630   6.989 -0.2952 -0.8408  0.5473
 1991SOL    HW117435   2.247   2.643   7.009 -0.0806 -0.3287 -0.7411
 1991SOL    HW217436   2.100   2.679   7.050  1.0278  2.1330 -0.6486
 1992SOL     OW17437   1.696   2.414  14.794 -0.1409  0.0870 -0.0611
 1992SOL    HW117438   1.728   2.376  14.712 -0.9023 -0.2443 -0.2019
 1992SOL    HW217439   1.771   2.472  14.807 -0.5251  0.5965 -0.1145
 1993SOL     OW17440   0.100   4.040   3.623 -0.3343  0.0860 -0.3212
 1993SOL    HW117441   0.012   4.039   3.660  0.3624  0.2868  1.3223
 1993SOL    HW217442   0.090   3.971   3.557 -0.7469 -0.0683 -0.1003
 1994SOL     OW17443   3.106   0.704   8.595 -0.1383  0.0556  0.2519
 1994SOL    HW117444   3.116   0.629   8.654  0.0254  1.5878  2.1378
 1994SOL    HW217445   3.011   0.696   8.584 -0.1372  0.3075  0.0661
 1995SOL     OW17446   1.696   1.331   4.221 -0.0719 -0.4021 -0.2551
 1995SOL    HW117447   1.614   1.293   4.191  1.9881 -1.4845 -4.4696
 1995SOL    HW217448   1.667   1.414   4.259 -0.2193 -0.2288 -0.7438
 1996SOL     OW17449   4.491   2.816   1.290 -0.3736 -0.2876  0.0730
 1996SOL    HW117450   4.497   2.910   1.310  1.9472  0.1247 -2.5049
 1996SOL    HW217451   4.560   2.808   1.223  0.8130 -0.0227  1.2716
 1997SOL     OW17452   1.153   3.724   6.666 -0.3276 -0.1751  0.2684
 1997SOL    HW117453   1.190   3.743   6.752 -2.0167 -0.8114  1.1211
 1997SOL    HW217454   1.145   3.817   6.642  1.5685 -0.9126 -3.2850
 1998SOL     OW17455   2.450   4.184   6.226  0.1064  0.1885  0.1671
 1998SOL    HW117456   2.363   4.186   6.267 -0.1353  2.6782 -0.4905
 1998SOL    HW217457   2.496   4.176   6.310  0.1621 -3.0400 -0.1660
 1999SOL     OW17458   3.470   2.395   5.209  0.3754  0.0895 -0.4003
 1999SOL    HW117459   3.435   2.389   5.120  0.5680  0.4005 -0.4981
 1999SOL    HW217460   3.555   2.350   5.210  0.7141  0.7804  2.8893
 2000SOL     OW17461   4.090   2.543  14.223  0.2645  0.1002 -0.6761
 2000SOL    HW117462   4.095   2.567  14.131  0.9193 -1.3154 -1.0150
 2000SOL    HW217463   4.029   2.608  14.258  0.6355  0.4926 -0.7412
 2001SOL     OW17464   0.057   3.030   8.216 -0.2822  0.4975 -0.2432
 2001SOL    HW117465   4.717   3.003   8.283 -0.1694  0.4967 -0.1386
 2001SOL    HW217466   4.719   3.038   8.142  2.0558 -0.7299 -2.3000
 2002SOL     OW17467   0.990   0.050   5.351  0.3581  0.3157  0.0993
 2002SOL    HW117468   1.027   0.137   5.341  1.0305  0.1694  1.3799
 2002SOL    HW217469   1.024   0.011   5.270 -0.5883 -1.7463  0.6824
 2003SOL     OW17470   4.450   0.152   8.451 -0.7838 -0.3846  0.3556
 2003SOL    HW117471   4.392   0.204   8.506 -0.5139  0.9341 -0.5914
 2003SOL    HW217472   4.392   0.078   8.430 -1.3909  0.6612 -1.6829
 2004SOL     OW17473   4.622   3.531   0.946  0.7881  0.3101  0.2950
 2004SOL    HW117474   4.601   3.505   0.856  0.6336  1.8726 -0.1102
 2004SOL    HW217475   4.693   3.471   0.966 -0.6521 -1.8323 -0.9912
 2005SOL     OW17476   1.215   2.085   6.910 -0.3734 -0.1423  0.4147
 2005SOL    HW117477   1.123   2.068   6.887 -1.3548 -0.0054  4.1807
 2005SOL    HW217478   1.258   2.039   6.837  2.8617  0.9628  1.6619
 2006SOL     OW17479   3.650   3.484   5.482 -0.1675 -0.4277 -0.1324
 2006SOL    HW117480   3.578   3.456   5.426 -1.6105 -0.9917  2.0268
 2006SOL    HW217481   3.602   3.552   5.529 -0.5172 -1.2056  0.6273
 2007SOL     OW17482   1.102   4.168   9.892  0.1113  0.4102 -0.0398
 2007SOL    HW117483   1.132   4.098   9.834 -0.4547 -0.7135  1.0040
 2007SOL    HW217484   1.040   4.115   9.943 -2.1909  1.1843 -2.0211
 2008SOL     OW17485   0.920   3.037   4.826 -0.1098 -0.7757  0.0749
 2008SOL    HW117486   0.889   3.127   4.827  0.7407 -0.4848  0.6032
 2008SOL    HW217487   1.013   3.051   4.844  0.0870 -0.1813 -1.3724
 2009SOL     OW17488   3.371   0.404  15.975 -0.2493  0.2651  0.1315
 2009SOL    HW117489   3.388   0.494  15.951  0.2502 -0.3062 -1.6481
 2009SOL    HW217490   3.298   0.404  16.037 -1.4767 -0.0412 -1.3030
 2010SOL     OW17491   2.522   2.294  12.650 -0.2961 -0.3020 -0.6927
 2010SOL    HW117492   2.548   2.250  12.731 -2.2810 -0.0285  0.0879
 2010SOL    HW217493   2.568   2.246  12.580  0.1212 -1.8766  0.6601
 2011SOL     OW17494   2.776   2.751   3.897  0.2828  0.2313  0.3717
 2011SOL    HW117495   2.844   2.683   3.893 -1.5675 -1.5445 -0.9154
 2011SOL    HW217496   2.781   2.783   3.808  1.0030 -0.8427  0.0130
 2012SOL     OW17497   1.957   3.472   9.374 -0.1766 -0.2195 -0.4095
 2012SOL    HW117498   1.962   3.377   9.380  0.7360 -0.2669 -1.7505
 2012SOL    HW217499   2.006   3.503   9.451  1.9428  1.0511 -2.2403
 2013SOL     OW17500   3.502   1.002   4.762 -0.0249 -0.0949 -0.6881
 2013SOL    HW117501   3.421   1.005   4.812  1.1041 -0.8147  1.1857
 2013SOL    HW217502   3.508   1.088   4.720 -2.4580  0.9700  1.1877
 2014SOL     OW17503   2.851   1.243  11.634 -0.3104  0.0712 -0.8613
 2014SOL    HW117504   2.880   1.254  11.544 -1.3920  0.2948 -1.1786
 2014SOL    HW217505   2.932   1.273  11.675 -0.2354 -1.5244  0.1701
 2015SOL     OW17506   0.087   2.828   7.252 -0.4867  0.1579 -0.5920
 2015SOL    HW117507   0.168   2.853   7.297 -1.2634  0.9694  0.3435
 2015SOL    HW217508   0.068   2.749   7.301  0.9629  1.7625  2.5585
 2016SOL     OW17509   2.978   1.268   8.331  0.1190  0.1483 -0.0609
 2016SOL    HW117510   2.964   1.208   8.258 -0.7738 -0.4481  0.6041
 2016SOL    HW217511   2.894   1.263   8.378  1.5166  0.0423  2.4213
 2017SOL     OW17512   0.854   2.186   3.113  0.3002  0.4189  0.0208
 2017SOL    HW117513   0.848   2.195   3.018 -0.2512  0.2519  0.0346
 2017SOL    HW217514   0.845   2.280   3.129 -2.3080  0.2038 -0.0819
 2018SOL     OW17515   1.654   3.849  17.147  0.4775  0.2081  0.3903
 2018SOL    HW117516   1.575   3.802  17.119 -0.3746  2.1469 -0.4222
 2018SOL    HW217517   1.630   3.909  17.217  2.8542  3.3470 -1.4660
 2019SOL     OW17518   3.723   2.231   5.166 -0.0358  0.2342  0.2492
 2019SOL    HW117519   3.786   2.301   5.151  0.8776 -0.4541  0.9083
 2019SOL    HW217520   3.735   2.213   5.260  0.7535  1.0003  0.2903
 2020SOL     OW17521   3.983   2.052   0.676  0.2236  0.3631  0.6502
 2020SOL    HW117522   3.908   2.012   0.720  1.0694  1.1500  2.8001
 2020SOL    HW217523   4.019   2.112   0.740  1.1163 -0.3599  0.8280
 2021SOL     OW17524   0.146   3.397   3.944 -0.2661  0.2821  0.2945
 2021SOL    HW117525   0.236   3.419   3.917 -0.5266 -1.3377 -1.9115
 2021SOL    HW217526   0.138   3.303   3.931  0.3847  0.5406 -2.0675
 2022SOL     OW17527   0.020   1.802  10.981  0.0731 -0.0148  0.0272
 2022SOL    HW117528   4.656   1.843  10.974 -0.1701 -0.5973 -0.3562
 2022SOL    HW217529   0.042   1.812  11.074  0.3302 -1.1280  0.0742
 2023SOL     OW17530   1.475   3.256   5.290 -0.1723  0.0143  0.0427
 2023SOL    HW117531   1.514   3.291   5.370 -0.1531  1.3996 -0.5761
 2023SOL    HW217532   1.420   3.183   5.319 -0.6925  0.4231  0.0863
 2024SOL     OW17533   2.856   4.399   8.292 -0.1507 -0.2283  0.8301
 2024SOL    HW117534   2.950   4.406   8.313 -0.0861 -0.7721  0.7422
 2024SOL    HW217535   2.852   4.337   8.219  1.2689 -1.8171  2.0967
 2025SOL     OW17536   0.967   0.094  17.066 -0.2025  0.2750 -0.5916
 2025SOL    HW117537   0.970   0.024  17.131  2.1189  0.0696 -0.9277
 2025SOL    HW217538   1.062   0.104  17.059 -0.0721 -0.1882  0.4547
 2026SOL     OW17539   0.170   2.199   6.087  1.0592 -0.7959 -0.1500
 2026SOL    HW117540   0.079   2.172   6.071  0.2988 -0.3008  3.3237
 2026SOL    HW217541   0.204   2.190   5.998 -0.5494  1.9364 -1.0389
 2027SOL     OW17542   2.284   0.348   5.583 -0.2790  0.5062 -0.7457
 2027SOL    HW117543   2.249   0.360   5.494  0.9406  1.3606 -1.1145
 2027SOL    HW217544   2.203   0.376   5.626  2.1293  2.6693  2.4125
 2028SOL     OW17545   4.649   4.717   3.576  0.0316 -0.4711  0.0025
 2028SOL    HW117546   4.618   0.030   3.493  1.8704 -2.1273 -1.4014
 2028SOL    HW217547   0.019   4.713   3.554  0.2446 -0.9443  0.9633
 2029SOL     OW17548   4.217   2.961   3.285  0.5873  0.1508  0.1146
 2029SOL    HW117549   4.233   2.934   3.194  0.6086  2.5477 -0.5766
 2029SOL    HW217550   4.283   3.027   3.305 -1.2751  2.3763 -1.0557
 2030SOL     OW17551   0.550   4.192   7.672 -0.3831 -0.0082  0.1290
 2030SOL    HW117552   0.590   4.124   7.617 -0.4906  1.2088 -1.4725
 2030SOL    HW217553   0.624   4.211   7.730 -1.1501  0.9061  0.7818
 2031SOL     OW17554   4.287   2.910   7.890  0.0475 -0.2482  0.4282
 2031SOL    HW117555   4.222   2.848   7.924 -2.3842 -0.3686 -4.4280
 2031SOL    HW217556   4.261   2.986   7.941  1.7068 -0.3829  1.4441
 2032SOL     OW17557   1.565   3.461   9.114  0.6428 -0.1762 -0.7481
 2032SOL    HW117558   1.581   3.367   9.111  1.7676 -0.0157  0.1567
 2032SOL    HW217559   1.480   3.467   9.070 -0.4550  0.9307  1.4902
 2033SOL     OW17560   4.290   3.027  10.529 -0.1318 -0.4898  0.0802
 2033SOL    HW117561   4.335   3.103  10.493 -0.6067 -0.3255 -0.1803
 2033SOL    HW217562   4.220   3.066  10.582  0.4784  0.1261  0.4230
 2034SOL     OW17563   1.511   1.190   9.920  0.3486 -0.2507  0.1314
 2034SOL    HW117564   1.480   1.226   9.837 -0.5015 -0.7089  0.2541
 2034SOL    HW217565   1.474   1.103   9.932 -1.4505  0.3879 -0.8339
 2035SOL     OW17566   3.421   2.829   7.572 -0.1890  0.6160 -0.4556
 2035SOL    HW117567   3.376   2.779   7.504 -0.7362  1.2409 -0.5555
 2035SOL    HW217568   3.498   2.850   7.518 -0.6931  0.5070 -1.2184
 2036SOL     OW17569   3.881   0.114   3.219 -0.2506 -0.1006 -0.0054
 2036SOL    HW117570   3.950   0.078   3.275 -1.0721 -0.0495  1.0366
 2036SOL    HW217571   3.872   0.049   3.149 -2.7524  1.1537 -0.8525
 2037SOL     OW17572   0.987   1.233  10.744 -0.6179  0.4394 -0.1122
 2037SOL    HW117573   0.996   1.140  10.724  0.4241  0.4147  0.4580
 2037SOL    HW217574   0.896   1.237  10.774 -0.7314 -0.8376 -0.2836
 2038SOL     OW17575   3.976   0.797   3.421 -0.2648 -1.0209  0.3992
 2038SOL    HW117576   3.918   0.849   3.475 -0.6873  1.7103 -2.6982
 2038SOL    HW217577   3.922   0.719   3.406  1.2894 -1.9460 -0.4493
 2039SOL     OW17578   3.703   0.633   5.475 -0.3398 -1.0051  0.1638
 2039SOL    HW117579   3.710   0.682   5.392 -1.7640  0.8710  1.1441
 2039SOL    HW217580   3.641   0.563   5.455 -0.5433 -0.3376 -1.5587
 2040SOL     OW17581   1.122   0.337  12.562 -0.5118  1.3105  0.1463
 2040SOL    HW117582   1.172   0.321  12.482 -0.5778 -1.9451  0.7597
 2040SOL    HW217583   1.189   0.337  12.629 -0.8851  0.7371  0.5194
 2041SOL     OW17584   4.402   3.549   4.274  0.4053 -0.6097  0.2903
 2041SOL    HW117585   4.454   3.552   4.354  0.8331 -3.2451  0.1066
 2041SOL    HW217586   4.472   3.536   4.210  0.6325 -0.9627  0.6102
 2042SOL     OW17587   4.691   1.584   1.136 -0.2358  0.0261 -0.5760
 2042SOL    HW117588   0.048   1.632   1.157 -0.7321  0.4455  0.3779
 2042SOL    HW217589   0.003   1.498   1.159  0.6038  0.1268 -1.4678
 2043SOL     OW17590   1.218   2.839   4.524  0.2845  0.3158  0.1120
 2043SOL    HW117591   1.306   2.866   4.496  0.4176  0.8450  1.0548
 2043SOL    HW217592   1.171   2.916   4.491  1.3362  0.3127 -1.4143
 2044SOL     OW17593   4.417   1.017  16.351  0.0783  0.1536 -0.1829
 2044SOL    HW117594   4.464   1.086  16.397  1.5089  0.6678 -2.4172
 2044SOL    HW217595   4.335   1.067  16.351  0.1087  0.2008  2.4440
 2045SOL     OW17596   3.860   0.070  13.578  0.3573 -0.1015 -0.4396
 2045SOL    HW117597   3.783   0.026  13.543  0.1403  0.3956 -0.5840
 2045SOL    HW217598   3.814   0.141  13.623  1.1984  1.3895 -1.9137
 2046SOL     OW17599   2.862   0.782   1.290  0.3917  0.6805  0.6247
 2046SOL    HW117600   2.796   0.834   1.244  0.3983  0.5986  0.5218
 2046SOL    HW217601   2.897   0.740   1.211  0.4042 -0.7854  1.3998
 2047SOL     OW17602   3.633   1.017   8.389  0.2748  0.2697  0.2334
 2047SOL    HW117603   3.582   1.050   8.463  1.7579 -0.6804  1.6694
 2047SOL    HW217604   3.563   1.002   8.325 -1.9807  2.4447  2.1910
 2048SOL     OW17605   1.980   1.141   5.682 -0.0080  0.0615  0.0775
 2048SOL    HW117606   1.890   1.157   5.652 -0.5814 -0.7414  1.3427
 2048SOL    HW217607   2.025   1.153   5.599 -2.3324  1.5790 -0.9650
 2049SOL     OW17608   0.043   3.583  14.172 -0.6604 -0.1628  0.6864
 2049SOL    HW117609   4.696   3.529  14.134 -1.5156  0.5171  1.2927
 2049SOL    HW217610   0.103   3.567  14.100 -1.1564 -0.3268  0.3050
 2050SOL     OW17611   1.730   0.479   7.457  0.3760 -0.4123  1.0177
 2050SOL    HW117612   1.637   0.500   7.446  0.2843 -1.1251  0.4054
 2050SOL    HW217613   1.732   0.386   7.432 -3.7780 -0.2108 -0.2055
 2051SOL     OW17614   2.733   1.618   5.783 -0.1958 -0.3082 -0.6132
 2051SOL    HW117615   2.738   1.690   5.719 -0.3542 -0.2570 -0.5687
 2051SOL    HW217616   2.789   1.662   5.846 -1.2092 -0.2546  0.2651
 2052SOL     OW17617   2.585   1.068  10.522 -0.3767 -0.2020  0.1799
 2052SOL    HW117618   2.564   1.039  10.434 -0.0187 -1.5079  0.5272
 2052SOL    HW217619   2.677   1.041  10.520 -0.4571 -0.2612 -1.9613
 2053SOL     OW17620   3.975   1.950   7.156 -0.0900 -0.4826 -0.0145
 2053SOL    HW117621   3.898   1.984   7.111 -1.0642 -1.6981  0.7465
 2053SOL    HW217622   4.039   1.940   7.085 -1.4335 -1.0682 -1.1324
 2054SOL     OW17623   3.665   1.608  12.991  0.0145  0.0027 -0.2362
 2054SOL    HW117624   3.604   1.588  13.061 -0.1917  0.3188 -0.3305
 2054SOL    HW217625   3.731   1.659  13.037 -0.3465 -1.0057  1.3899
 2055SOL     OW17626   4.175   0.427   9.105 -0.2678 -0.1562  0.5875
 2055SOL    HW117627   4.099   0.433   9.163  0.2656  1.4258  1.1291
 2055SOL    HW217628   4.227   0.503   9.129  0.1115 -1.0085  2.4558
 2056SOL     OW17629   3.884   2.796   3.193 -0.0108 -0.4786  0.2015
 2056SOL    HW117630   3.970   2.785   3.233  0.2966  0.4983 -0.1780
 2056SOL    HW217631   3.897   2.865   3.128 -0.0089 -1.5901 -0.9633
 2057SOL     OW17632   0.911   2.414   2.676  0.6620 -0.0344 -0.2185
 2057SOL    HW117633   0.878   2.486   2.624 -1.0565 -0.3944  0.3860
 2057SOL    HW217634   0.978   2.383   2.615  0.4355  0.5163 -0.7397
 2058SOL     OW17635   3.768   1.241  10.651 -0.3446 -0.1964 -0.0741
 2058SOL    HW117636   3.697   1.282  10.601  1.2669  3.3545  0.5244
 2058SOL    HW217637   3.716   1.204  10.722  0.5982 -0.7944  0.3026
 2059SOL     OW17638   2.360   2.393  15.430 -0.2667 -0.1075  0.5782
 2059SOL    HW117639   2.336   2.303  15.405 -0.1675 -0.3142  1.2437
 2059SOL    HW217640   2.384   2.427  15.344 -0.5054 -1.2528  0.0501
 2060SOL     OW17641   3.811   4.663   0.431  0.0772 -0.4807  0.1272
 2060SOL    HW117642   3.794   4.588   0.374  0.3743 -0.0797 -0.4892
 2060SOL    HW217643   3.787   0.014   0.375  0.8448 -0.0747  0.3302
 2061SOL     OW17644   2.755   2.962  10.032  0.3915 -0.3205  0.2233
 2061SOL    HW117645   2.724   2.949   9.943  3.7322 -0.5800 -0.8687
 2061SOL    HW217646   2.841   2.995  10.006  0.8947 -0.9857  1.0363
 2062SOL     OW17647   4.560   0.495   3.210  0.3429 -0.5666  0.3207
 2062SOL    HW117648   4.565   0.495   3.305  2.9915  0.1336  0.1704
 2062SOL    HW217649   4.649   0.525   3.194 -0.1269 -0.7373 -2.5942
 2063SOL     OW17650   4.541   3.538   4.502  0.5096  0.5216  0.0483
 2063SOL    HW117651   4.531   3.571   4.592 -0.4981  0.0249  0.1235
 2063SOL    HW217652   4.620   3.484   4.507 -0.1023 -0.4189 -0.4725
 2064SOL     OW17653   2.006   3.767   5.593  0.2082  0.5685  0.7252
 2064SOL    HW117654   2.045   3.739   5.675  1.2485 -0.3802 -0.0889
 2064SOL    HW217655   2.045   3.699   5.537  0.4293  0.1030  1.4562
 2065SOL     OW17656   0.873   2.778   8.548 -0.1769  0.2643 -0.1535
 2065SOL    HW117657   0.855   2.865   8.513 -0.1313  0.6151  0.6731
 2065SOL    HW217658   0.806   2.761   8.615 -0.8574  0.1370 -0.8727
 2066SOL     OW17659   1.705   3.343   2.610  0.3512 -0.2238  0.1216
 2066SOL    HW117660   1.735   3.405   2.676 -0.4726 -0.3524  0.6293
 2066SOL    HW217661   1.791   3.319   2.576  0.5884  0.8731 -0.0487
 2067SOL     OW17662   0.179   3.362  15.710  0.0120  0.3983  0.1550
 2067SOL    HW117663   0.175   3.270  15.683  0.0241  1.0281 -2.0197
 2067SOL    HW217664   0.202   3.407  15.628  1.3857  0.5319  0.6143
 2068SOL     OW17665   1.664   0.287  16.670  0.0733 -0.2481 -0.1834
 2068SOL    HW117666   1.759   0.292  16.667 -0.0902  2.8777 -0.5017
 2068SOL    HW217667   1.632   0.361  16.618  1.3167  2.2878  2.6597
 2069SOL     OW17668   0.945   1.928   3.153  0.3529  0.4678  0.1112
 2069SOL    HW117669   0.933   2.020   3.176 -1.3633  0.4421 -0.6949
 2069SOL    HW217670   0.880   1.881   3.206  0.3833 -0.5682 -0.7964
 2070SOL     OW17671   0.549   4.234  17.640  0.0105 -0.2383  0.1505
 2070SOL    HW117672   0.492   4.231   0.023  0.3382 -0.9988  0.3616
 2070SOL    HW217673   0.613   4.164  17.651 -0.4572 -1.0874 -2.5988
 2071SOL     OW17674   3.474   0.044   1.166 -0.3853  0.1501  0.0201
 2071SOL    HW117675   3.392   4.723   1.188  1.3843 -2.0444  2.2421
 2071SOL    HW217676   3.515   4.712   1.099  0.2249  1.4061 -0.6360
 2072SOL     OW17677   3.058   0.457   7.935  0.4774  0.0866 -0.0375
 2072SOL    HW117678   2.982   0.515   7.937 -0.4608 -1.1676  1.2456
 2072SOL    HW217679   3.013   0.379   7.903  0.7063 -0.7304  1.6457
 2073SOL     OW17680   1.165   1.022  16.077 -0.0661 -0.2285 -0.0256
 2073SOL    HW117681   1.123   0.991  15.996 -1.3991  2.0128 -0.1769
 2073SOL    HW217682   1.136   0.961  16.146  0.0145  0.3115  0.4831
 2074SOL     OW17683   0.037   0.940   5.019  0.7127 -0.0235  0.0784
 2074SOL    HW117684   0.061   1.008   5.082 -2.3735  0.3757  0.8018
 2074SOL    HW217685   4.672   0.971   4.995  0.3148  0.0050  1.5614
 2075SOL     OW17686   2.135   2.363   7.968  0.3097 -0.0723 -0.2504
 2075SOL    HW117687   2.084   2.354   8.049  0.5097  0.1421 -0.0995
 2075SOL    HW217688   2.221   2.362   8.010 -0.4682 -0.1658  1.3461
 2076SOL     OW17689   4.386   4.380  12.545 -0.4493 -0.0596 -0.5584
 2076SOL    HW117690   4.420   4.292  12.562 -1.1242 -0.3629 -0.7888
 2076SOL    HW217691   4.314   4.356  12.487 -0.7718  0.6161 -0.4465
 2077SOL     OW17692   3.649   1.921   1.941  0.2029 -0.1207 -0.4841
 2077SOL    HW117693   3.672   1.922   1.848 -1.7746 -0.6855 -0.9823
 2077SOL    HW217694   3.723   1.873   1.978 -0.1581 -0.9652 -0.8629
 2078SOL     OW17695   3.848   3.100   7.205 -0.3318  0.5210 -0.2826
 2078SOL    HW117696   3.843   3.124   7.298  0.7426 -0.5311  0.0429
 2078SOL    HW217697   3.933   3.057   7.195 -1.1811 -0.9250 -1.2633
 2079SOL     OW17698   4.477   1.590   6.589  0.2870  0.4748  0.1331
 2079SOL    HW117699   4.492   1.498   6.612 -1.4915  0.1870  0.0771
 2079SOL    HW217700   4.407   1.602   6.653 -2.6039  0.4272 -3.0514
 2080SOL     OW17701   0.646   4.556   3.360 -0.6384  0.2110 -0.7735
 2080SOL    HW117702   0.737   4.528   3.360 -0.7796 -0.2506 -0.7785
 2080SOL    HW217703   0.620   4.499   3.433 -1.6884  2.1181  0.3185
 2081SOL     OW17704   3.058   4.523   3.951 -0.2246 -0.0937 -0.0100
 2081SOL    HW117705   3.116   4.597   3.936  0.8504 -0.6885  1.1951
 2081SOL    HW217706   3.089   4.494   4.037 -1.3487 -0.3332  0.3204
 2082SOL     OW17707   1.260   4.460   6.566 -0.4602  0.5397  0.6068
 2082SOL    HW117708   1.227   4.435   6.480  0.7494 -1.4064  0.7096
 2082SOL    HW217709   1.301   4.377   6.589  2.5712  1.4943 -1.2822
 2083SOL     OW17710   2.208   1.703   6.170  0.0469  0.3567  0.2977
 2083SOL    HW117711   2.183   1.791   6.200 -0.4760  0.1460  0.4887
 2083SOL    HW217712   2.204   1.705   6.074  2.9832  0.1780  0.1759
 2084SOL     OW17713   4.673   2.505  11.802  0.6919 -0.4584  0.7872
 2084SOL    HW117714   4.637   2.563  11.734  1.5348  0.9873  1.5634
 2084SOL    HW217715   0.041   2.498  11.773  0.6326  2.1906 -0.0753
 2085SOL     OW17716   4.432   2.952   6.943 -0.0226  0.2636 -0.2942
 2085SOL    HW117717   4.416   3.000   6.861  0.3074 -0.5845 -0.8535
 2085SOL    HW217718   4.440   3.030   6.999 -1.0895  0.4045 -0.3340
 2086SOL     OW17719   0.196   2.522   7.208  0.4857 -0.2470  0.2307
 2086SOL    HW117720   0.273   2.542   7.154  0.5963 -0.6276  0.2475
 2086SOL    HW217721   0.232   2.459   7.270  0.5951 -1.6451 -1.2676
 2087SOL     OW17722   2.654   2.022   7.977  0.5110 -0.3589 -0.8663
 2087SOL    HW117723   2.628   2.001   7.887  0.3543 -0.4469 -0.8016
 2087SOL    HW217724   2.617   1.956   8.035  1.2042  2.4860  2.7580
 2088SOL     OW17725   2.470   3.692   8.076 -0.6663  0.0570 -0.1320
 2088SOL    HW117726   2.550   3.656   8.114  0.1070  2.1912  0.2329
 2088SOL    HW217727   2.501   3.782   8.078  1.6745 -0.7232 -1.5504
 2089SOL     OW17728   1.182   0.067   3.196 -0.3314 -0.1734 -0.0126
 2089SOL    HW117729   1.125   0.027   3.130 -0.9218 -0.1955  0.5166
 2089SOL    HW217730   1.247   0.098   3.133  1.1140 -0.5197  1.3353
 2090SOL     OW17731   3.175   0.175   5.070 -0.5266  0.0951 -0.6636
 2090SOL    HW117732   3.203   0.263   5.095  0.2545  0.5212 -2.9951
 2090SOL    HW217733   3.190   0.139   5.158  1.8492 -0.8806 -1.4607
 2091SOL     OW17734   3.762   3.076   0.982  0.7097  0.6017  0.2498
 2091SOL    HW117735   3.820   3.151   0.993  1.5076  0.3830 -2.3282
 2091SOL    HW217736   3.722   3.099   0.898  0.9101  0.5536  0.1414
 2092SOL     OW17737   0.488   3.278   2.457 -0.0919 -0.2695  0.8572
 2092SOL    HW117738   0.419   3.330   2.415 -0.2484 -1.7129 -0.6695
 2092SOL    HW217739   0.512   3.229   2.378  1.4639 -0.5240  1.4752
 2093SOL     OW17740   3.005   4.395   0.456 -0.1253 -0.3168 -0.8101
 2093SOL    HW117741   3.077   4.367   0.512 -0.8516 -1.9892 -0.7131
 2093SOL    HW217742   2.977   4.308   0.427 -0.7053 -0.3396 -0.1707
 2094SOL     OW17743   3.241   0.482   4.599 -0.0214  0.3525 -0.6200
 2094SOL    HW117744   3.176   0.422   4.562 -0.0117  1.2974 -2.1500
 2094SOL    HW217745   3.218   0.569   4.568  0.3791  0.7166  0.0920
 2095SOL     OW17746   1.860   1.686   3.885  0.7178 -0.0723  0.0108
 2095SOL    HW117747   1.812   1.614   3.844  1.6022  0.3498 -1.7667
 2095SOL    HW217748   1.895   1.738   3.812 -0.4575 -2.9529 -2.6091
 2096SOL     OW17749   1.459   0.692   9.394  0.1514  0.2565 -0.6673
 2096SOL    HW117750   1.528   0.724   9.452 -1.3665  0.8227  0.8519
 2096SOL    HW217751   1.379   0.727   9.434  0.5016  1.2282 -0.8199
 2097SOL     OW17752   2.195   0.088   9.039 -0.3685 -0.2736  0.7612
 2097SOL    HW117753   2.231   0.002   9.016  0.7209  0.5774 -0.6194
 2097SOL    HW217754   2.206   0.081   9.134 -0.1884 -1.1395  0.6799
 2098SOL     OW17755   2.766   0.384  15.347 -0.5775  0.0291  0.0070
 2098SOL    HW117756   2.846   0.337  15.321 -0.1418  1.4352 -1.2303
 2098SOL    HW217757   2.697   0.336  15.301 -2.4571  2.0944  0.6607
 2099SOL     OW17758   4.048   0.537   0.030  0.5105 -0.4538 -0.3212
 2099SOL    HW117759   4.127   0.490   0.005  0.4584 -1.4112  1.3337
 2099SOL    HW217760   4.020   0.565  17.636 -2.7168  0.8657  1.1481
 2100SOL     OW17761   4.516   4.515  14.628  0.5984 -0.1947 -0.0644
 2100SOL    HW117762   4.432   4.474  14.652  0.2476  0.3689 -0.3322
 2100SOL    HW217763   4.578   4.467  14.684  1.1608 -1.2626 -1.6149
 2101SOL     OW17764   1.414   0.600   5.118 -0.2867  0.8465 -0.2770
 2101SOL    HW117765   1.490   0.560   5.074  0.3801  2.0522 -0.2253
 2101SOL    HW217766   1.363   0.608   5.037 -1.6262 -1.4111  0.3711
 2102SOL     OW17767   1.828   1.845   3.098 -0.3376 -0.8479  0.2372
 2102SOL    HW117768   1.905   1.828   3.151 -0.7843 -2.4797  0.3602
 2102SOL    HW217769   1.768   1.904   3.143  2.1075  1.0378  1.0418
 2103SOL     OW17770   3.585   4.271  12.774  0.4601 -0.1105  0.5343
 2103SOL    HW117771   3.628   4.343  12.819 -1.3952  1.9723 -1.0017
 2103SOL    HW217772   3.543   4.302  12.694 -2.4877 -2.8492  0.9722
 2104SOL     OW17773   0.485   2.050   4.153 -0.5828  0.1079  0.4103
 2104SOL    HW117774   0.437   1.980   4.108 -0.2674  1.2816 -1.7228
 2104SOL    HW217775   0.565   2.057   4.101 -1.1000  0.0212 -0.4027
 2105SOL     OW17776   3.286   1.680  13.277  0.3915 -0.1027 -0.3461
 2105SOL    HW117777   3.313   1.608  13.221 -2.3685 -1.8562  0.5941
 2105SOL    HW217778   3.289   1.747  13.209  1.6786  0.7220  0.4975
 2106SOL     OW17779   3.292   0.605   3.770 -0.0580  0.4189 -0.1672
 2106SOL    HW117780   3.353   0.667   3.810 -0.4737  0.7448 -0.0392
 2106SOL    HW217781   3.211   0.650   3.794  0.5679  1.3137  0.3100
 2107SOL     OW17782   1.810   1.577   8.605  0.8626 -0.0629 -0.0409
 2107SOL    HW117783   1.718   1.552   8.614  0.4651  0.8505 -1.7504
 2107SOL    HW217784   1.844   1.493   8.574  1.1415 -0.3068  0.9082
 2108SOL     OW17785   3.850   4.048   2.293 -0.2291 -0.3439 -0.2661
 2108SOL    HW117786   3.789   3.984   2.328  0.2347 -0.4535  0.3397
 2108SOL    HW217787   3.849   4.033   2.198  0.5135 -1.1413 -0.1360
 2109SOL     OW17788   3.421   1.799   3.069 -0.0132 -0.1813 -0.1001
 2109SOL    HW117789   3.331   1.802   3.037  0.7427  0.8476 -2.1499
 2109SOL    HW217790   3.455   1.711   3.053 -0.7971 -0.5448  0.2693
 2110SOL     OW17791   2.510   0.276   3.176  0.0526  0.6493  0.0268
 2110SOL    HW117792   2.542   0.195   3.136  1.1042  0.9210  0.3077
 2110SOL    HW217793   2.588   0.329   3.159  1.8768 -2.3282 -0.8442
 2111SOL     OW17794   2.071   2.432  15.302  0.2423  0.1440  0.3992
 2111SOL    HW117795   2.159   2.459  15.277 -0.0716  1.2414  0.4358
 2111SOL    HW217796   2.058   2.366  15.234 -0.2971 -1.1870  1.8185
 2112SOL     OW17797   2.115   3.963  16.069 -0.2348  0.1909 -0.1158
 2112SOL    HW117798   2.141   3.882  16.113  0.8010 -1.4045 -3.7431
 2112SOL    HW217799   2.040   3.988  16.123 -0.4393 -0.4340 -0.1117
 2113SOL     OW17800   3.354   0.379   3.043  0.0045 -0.2355  0.1874
 2113SOL    HW117801   3.356   0.284   3.049 -1.5714 -0.3606 -1.1427
 2113SOL    HW217802   3.336   0.388   2.949  0.3193 -2.0734 -0.0462
 2114SOL     OW17803   1.731   1.093  14.701  0.9134 -0.3856  0.2319
 2114SOL    HW117804   1.673   1.154  14.748  0.9965  1.0342 -1.5197
 2114SOL    HW217805   1.696   1.015  14.745  1.0495 -2.5939 -3.5735
 2115SOL     OW17806   2.357   4.546   3.000  0.1326 -0.0940  0.2205
 2115SOL    HW117807   2.305   4.561   2.921 -0.8461  0.5225  0.9848
 2115SOL    HW217808   2.294   4.537   3.070  0.1844 -0.4815  0.2151
 2116SOL     OW17809   3.701   2.855   2.825 -0.7100  0.1798 -0.0965
 2116SOL    HW117810   3.707   2.768   2.786  0.7823  0.3905 -0.3395
 2116SOL    HW217811   3.791   2.886   2.817 -1.1449  1.6511  0.6056
 2117SOL     OW17812   1.418   0.149  10.602 -0.0254 -0.0085  0.1573
 2117SOL    HW117813   1.342   0.115  10.554  0.9167 -1.4949 -0.2895
 2117SOL    HW217814   1.492   0.150  10.541 -0.2807  0.0316 -0.1531
 2118SOL     OW17815   3.164   3.689  17.057  0.3147 -0.2372  0.3745
 2118SOL    HW117816   3.073   3.661  17.067  0.7784 -1.2457  1.7346
 2118SOL    HW217817   3.156   3.700  16.962  0.0895  1.4122  0.5796
 2119SOL     OW17818   1.339   1.974   3.994  0.4735  0.2701  0.0645
 2119SOL    HW117819   1.341   1.979   3.898 -0.4765 -1.0366 -0.0248
 2119SOL    HW217820   1.285   1.898   4.013 -1.4364  2.3958  3.1244
 2120SOL     OW17821   0.967   3.882   2.200  0.2536 -0.0053  0.2966
 2120SOL    HW117822   1.048   3.898   2.150 -0.2574 -2.3920 -1.2997
 2120SOL    HW217823   0.920   3.959   2.169 -0.8762 -0.8196  0.0114
 2121SOL     OW17824   3.553   4.082  10.249  0.0932 -0.1472  0.0213
 2121SOL    HW117825   3.509   4.082  10.334  1.4691 -1.8569  0.7424
 2121SOL    HW217826   3.600   4.165  10.263  0.3493 -0.2761 -0.0690
 2122SOL     OW17827   0.908   3.346  12.964 -0.0150 -0.2291  0.1340
 2122SOL    HW117828   0.938   3.348  13.055  2.6481 -1.3556 -0.6996
 2122SOL    HW217829   0.820   3.315  12.985 -0.3725 -0.0596 -1.1134
 2123SOL     OW17830   3.778   3.875   4.551  0.2367 -0.0675 -0.6571
 2123SOL    HW117831   3.747   3.800   4.603 -0.7195  1.1704  0.5726
 2123SOL    HW217832   3.720   3.867   4.475  0.4517 -3.0540 -0.5208
 2124SOL     OW17833   0.915   1.486   0.899 -0.5193  0.1559 -0.2795
 2124SOL    HW117834   0.888   1.512   0.987 -1.0772 -0.6772 -0.1996
 2124SOL    HW217835   0.829   1.466   0.862 -1.1518  0.9273  0.7800
 2125SOL     OW17836   4.163   1.523  13.041  0.1005 -0.1192  0.3917
 2125SOL    HW117837   4.231   1.472  12.995  0.2713 -1.0042  1.6276
 2125SOL    HW217838   4.112   1.546  12.963  0.0373  2.0182  1.0830
 2126SOL     OW17839   4.240   4.375   5.222  1.2162 -0.1984  0.4884
 2126SOL    HW117840   4.300   4.431   5.172  0.3598 -0.4667 -0.8502
 2126SOL    HW217841   4.232   4.303   5.159  0.0309 -0.1025  0.5350
 2127SOL     OW17842   3.417   0.169  13.388  0.7992 -0.0925  0.1417
 2127SOL    HW117843   3.415   0.264  13.404 -2.0281 -0.0492 -0.4674
 2127SOL    HW217844   3.364   0.162  13.308 -0.6048  1.5898  0.9159
 2128SOL     OW17845   0.913   2.994   3.853  0.0824  0.3346 -0.0371
 2128SOL    HW117846   0.831   2.944   3.851 -0.8608  1.7611  2.7017
 2128SOL    HW217847   0.941   2.972   3.764 -1.0976 -0.2425 -0.2600
 2129SOL     OW17848   2.304   0.909   5.185 -0.7708  0.7980  0.2364
 2129SOL    HW117849   2.348   0.989   5.213 -0.7302  0.0226  2.3736
 2129SOL    HW217850   2.318   0.907   5.090  1.5588  2.5792  0.5424
 2130SOL     OW17851   0.763   3.674   6.167  0.0410  0.1055 -0.4388
 2130SOL    HW117852   0.804   3.760   6.163  4.1680 -1.8588 -0.4645
 2130SOL    HW217853   0.683   3.701   6.121 -0.4910 -1.2965 -0.3462
 2131SOL     OW17854   4.128   3.073  15.647 -0.2573  0.0072  0.2134
 2131SOL    HW117855   4.163   3.137  15.708  3.3721 -3.1551  1.4552
 2131SOL    HW217856   4.183   3.086  15.570  0.8139  1.6477  1.2539
 2132SOL     OW17857   3.687   0.460   8.386  0.0695  0.0846  0.0271
 2132SOL    HW117858   3.645   0.515   8.320  0.3933  1.6829  1.1574
 2132SOL    HW217859   3.771   0.506   8.392  0.2311 -0.5289  2.4651
 2133SOL     OW17860   0.497   0.011  14.809  0.0806  0.7967  0.0641
 2133SOL    HW117861   0.584   0.048  14.803  0.9018 -1.5838 -2.5152
 2133SOL    HW217862   0.446   0.050  14.738  2.7224 -1.8068 -3.2182
 2134SOL     OW17863   2.203   3.062   4.898  0.4012  0.0739  0.4006
 2134SOL    HW117864   2.116   3.069   4.938 -0.7420 -1.6923 -1.8210
 2134SOL    HW217865   2.237   2.976   4.923 -1.0440 -0.6509 -0.0800
 2135SOL     OW17866   4.139   3.200   7.511 -0.2281  0.5580  0.3059
 2135SOL    HW117867   4.155   3.288   7.545  1.1830  1.0527 -1.6252
 2135SOL    HW217868   4.232   3.178   7.514 -0.3888  0.0173  1.2774
 2136SOL     OW17869   1.509   0.411   9.401  0.1796  0.4238  0.2902
 2136SOL    HW117870   1.442   0.374   9.344  1.6629 -2.7277  0.6198
 2136SOL    HW217871   1.500   0.505   9.383 -2.3030 -0.1643 -1.5188
 2137SOL     OW17872   4.711   1.996   6.288 -0.4112  0.7538  0.1371
 2137SOL    HW117873   0.012   2.020   6.378 -0.1262 -1.0577  0.5417
 2137SOL    HW217874   4.703   2.083   6.248 -2.0165  0.6965  0.3683
 2138SOL     OW17875   2.153   1.054   3.251 -0.5401 -0.1379  0.0283
 2138SOL    HW117876   2.131   0.969   3.287  0.5229 -0.1769  0.5941
 2138SOL    HW217877   2.234   1.043   3.200 -0.8256 -2.1463  0.0204
 2139SOL     OW17878   2.925   0.619   0.469 -0.3603 -0.0628  0.0857
 2139SOL    HW117879   2.834   0.615   0.498 -0.9249 -0.8962 -1.8164
 2139SOL    HW217880   2.911   0.555   0.398  0.1428  0.9154 -0.8890
 2140SOL     OW17881   1.401   2.266   3.887  0.0675 -0.2505  0.3522
 2140SOL    HW117882   1.380   2.214   3.964 -2.5502  1.4207  0.7677
 2140SOL    HW217883   1.348   2.210   3.831  1.0647 -1.6583  0.8211
 2141SOL     OW17884   1.889   3.909   6.969 -0.3380  0.2104 -0.2237
 2141SOL    HW117885   1.964   3.930   6.913 -0.3611  2.8288  0.7245
 2141SOL    HW217886   1.869   3.823   6.933 -0.8327  0.4822 -0.6096
 2142SOL     OW17887   2.834   1.668   3.544 -0.1461  0.2240 -0.1642
 2142SOL    HW117888   2.753   1.705   3.508 -0.5992 -1.5032 -0.9493
 2142SOL    HW217889   2.894   1.691   3.473 -0.4583 -2.8267 -1.4001
 2143SOL     OW17890   0.161   0.847   7.185  0.1529 -0.5904 -0.4729
 2143SOL    HW117891   0.069   0.860   7.164 -0.1889  0.7409  1.8652
 2143SOL    HW217892   0.191   0.799   7.107 -0.5492 -1.9510  0.0873
 2144SOL     OW17893   2.270   3.664   3.797 -0.0563  0.4559  0.9599
 2144SOL    HW117894   2.293   3.735   3.737  0.8607 -1.7908 -1.3473
 2144SOL    HW217895   2.177   3.678   3.814 -0.0700  0.9738  0.4610
 2145SOL     OW17896   4.534   0.653   6.888  0.1924 -0.6015  0.2638
 2145SOL    HW117897   4.565   0.572   6.929  2.7804  1.4958  2.4689
 2145SOL    HW217898   4.588   0.660   6.810 -1.3224 -1.5370 -0.8710
 2146SOL     OW17899   1.984   0.702  16.306  0.5163 -0.3006  0.1766
 2146SOL    HW117900   1.960   0.649  16.230 -0.0289  0.4177 -0.1605
 2146SOL    HW217901   1.972   0.640  16.377 -1.9130 -1.3313 -1.1431
 2147SOL     OW17902   1.310   4.365  13.219 -0.3576  0.4754  0.4396
 2147SOL    HW117903   1.390   4.415  13.238  0.8045 -0.4297 -2.0013
 2147SOL    HW217904   1.339   4.276  13.241 -1.9025 -0.9893 -3.4556
 2148SOL     OW17905   0.303   3.675  12.291 -0.2689 -0.2979  0.3289
 2148SOL    HW117906   0.398   3.664  12.290  0.1238  3.2607 -0.7059
 2148SOL    HW217907   0.290   3.599  12.348 -0.5790 -0.1189  0.5012
 2149SOL     OW17908   4.004   1.990   1.653  0.3442 -0.5970  0.9407
 2149SOL    HW117909   4.055   1.952   1.725  2.3656  1.1550  0.4308
 2149SOL    HW217910   3.916   1.992   1.692  0.1823  0.0335  0.5450
 2150SOL     OW17911   1.234   2.772   5.207  0.5907  0.4461 -0.1701
 2150SOL    HW117912   1.251   2.685   5.173 -1.1633  1.0941 -2.6562
 2150SOL    HW217913   1.139   2.775   5.216  0.5881  2.6490 -1.0146
 2151SOL     OW17914   4.387   1.988  10.432 -0.0056  0.3796  0.0037
 2151SOL    HW117915   4.335   2.069  10.430  0.5593  0.7819  1.5527
 2151SOL    HW217916   4.323   1.922  10.405 -0.1664  0.5838 -0.1236
 2152SOL     OW17917   2.715   3.713   8.854 -0.2930  0.0532  0.2290
 2152SOL    HW117918   2.644   3.751   8.803  0.1798 -3.4125 -3.0777
 2152SOL    HW217919   2.676   3.637   8.896 -2.4578  1.6407  1.0468
 2153SOL     OW17920   1.961   4.183   7.912  0.6531  0.2313 -0.1234
 2153SOL    HW117921   1.901   4.214   7.844  2.1768  1.4501 -0.9218
 2153SOL    HW217922   2.026   4.253   7.922 -0.1720  0.9414  0.2644
 2154SOL     OW17923   3.540   0.983   4.278  0.0656 -0.7813  0.0700
 2154SOL    HW117924   3.497   0.938   4.206 -3.1253  1.8243  0.3696
 2154SOL    HW217925   3.630   0.951   4.269  0.7210  0.4143  2.3760
 2155SOL     OW17926   3.918   0.332   4.580 -0.3852 -0.5576 -0.0554
 2155SOL    HW117927   3.874   0.404   4.534  1.2657  0.3305 -0.2219
 2155SOL    HW217928   3.887   0.344   4.670  1.4537 -2.1518  0.7731
 2156SOL     OW17929   4.181   1.811   6.398 -0.3891  0.0777 -0.5830
 2156SOL    HW117930   4.161   1.723   6.368 -0.4093 -0.0036 -0.3259
 2156SOL    HW217931   4.274   1.822   6.378 -0.0152 -1.4899  0.2880
 2157SOL     OW17932   1.063   0.294   3.615 -1.1135  0.3085  0.1567
 2157SOL    HW117933   0.980   0.335   3.641 -0.7657  2.6148 -2.3909
 2157SOL    HW217934   1.126   0.337   3.673  0.0047 -0.9464 -0.1161
 2158SOL     OW17935   2.951   1.363   2.468 -0.3531  0.0200  0.1574
 2158SOL    HW117936   2.888   1.377   2.398 -0.0723 -1.5308 -0.4046
 2158SOL    HW217937   2.978   1.274   2.446  0.0476  0.2338 -0.2238
 2159SOL     OW17938   0.325   2.779   8.558 -0.2803 -0.5648 -0.0330
 2159SOL    HW117939   0.259   2.848   8.547  0.1390 -0.1797 -0.1492
 2159SOL    HW217940   0.387   2.834   8.607 -0.4016  0.3477 -0.9091
 2160SOL     OW17941   0.488   0.056   7.884 -0.2098 -0.1485  0.2030
 2160SOL    HW117942   0.583   0.056   7.901  0.1504 -0.8131 -1.8345
 2160SOL    HW217943   0.479   4.689   7.854  0.7991 -0.3411  0.4560
 2161SOL     OW17944   3.490   4.364   8.941  0.5335 -0.0632  0.0953
 2161SOL    HW117945   3.507   4.322   8.856 -1.6417  1.3853 -1.0743
 2161SOL    HW217946   3.572   4.402   8.971  1.0621 -2.3392  1.5177
 2162SOL     OW17947   2.027   2.297   3.983 -0.4126  0.2628  0.1676
 2162SOL    HW117948   2.031   2.368   3.918  0.0512 -0.2627 -0.3817
 2162SOL    HW217949   2.036   2.215   3.935 -1.4670 -0.1581  0.6854
 2163SOL     OW17950   3.538   0.307   8.594 -0.0183  0.3722  0.4329
 2163SOL    HW117951   3.592   0.332   8.519  2.3680 -1.9579  1.3939
 2163SOL    HW217952   3.586   0.354   8.662  0.3911 -1.1715  1.2100
 2164SOL     OW17953   1.410   0.215   7.411 -0.1475 -0.8844 -0.3690
 2164SOL    HW117954   1.369   0.146   7.464 -0.4024 -0.5561 -0.1423
 2164SOL    HW217955   1.373   0.292   7.455  1.6367 -0.0952 -0.2752
 2165SOL     OW17956   1.255   4.672  11.043  0.2272 -0.1514  0.4278
 2165SOL    HW117957   1.249   4.628  11.128  1.5926 -1.2661 -0.0486
 2165SOL    HW217958   1.208   0.030  11.061  0.0885 -0.3031  0.7653
 2166SOL     OW17959   4.045   2.749   0.707  0.4382  0.0082 -0.1371
 2166SOL    HW117960   4.084   2.825   0.664  0.3141  0.5255  0.6486
 2166SOL    HW217961   3.957   2.782   0.728  1.4527  1.8692  1.2694
 2167SOL     OW17962   3.297   2.497   7.062  0.7782 -0.0780  0.3306
 2167SOL    HW117963   3.306   2.420   7.118 -2.3917 -0.4459  0.3299
 2167SOL    HW217964   3.375   2.545   7.091  1.1264  0.8548 -2.1773
 2168SOL     OW17965   2.760   2.360   4.103  0.5250 -0.4313  0.4161
 2168SOL    HW117966   2.813   2.403   4.036  2.2941 -0.3673  1.8640
 2168SOL    HW217967   2.711   2.299   4.048 -0.7918  1.8205 -0.9254
 2169SOL     OW17968   0.003   4.047   5.538  0.4290 -0.0060 -0.2424
 2169SOL    HW117969   4.644   4.000   5.523  1.0808 -1.2766  0.1535
 2169SOL    HW217970   0.048   4.035   5.454 -0.4293 -1.6152 -0.4688
 2170SOL     OW17971   1.821   1.295   7.867 -0.1212 -0.0839 -0.6146
 2170SOL    HW117972   1.733   1.279   7.901  0.9092  0.8991  2.6030
 2170SOL    HW217973   1.864   1.314   7.951  0.8694 -1.0279 -0.9027
 2171SOL     OW17974   3.361   2.066  14.329 -0.2034 -0.0065 -0.0987
 2171SOL    HW117975   3.280   2.112  14.307 -1.0413 -1.4232  0.0171
 2171SOL    HW217976   3.395   2.046  14.241  0.2431 -0.7452  0.2433
 2172SOL     OW17977   2.928   0.413   8.527 -0.0684  0.1779 -1.0042
 2172SOL    HW117978   2.994   0.348   8.500  0.3316 -0.3794  1.3736
 2172SOL    HW217979   2.892   0.375   8.607  1.5571 -0.1794 -0.4433
 2173SOL     OW17980   4.633   2.928  11.393  0.0303  0.7186  0.8597
 2173SOL    HW117981   4.703   2.867  11.419 -0.6532 -0.3727  0.1584
 2173SOL    HW217982   4.616   2.884  11.310  0.1103 -0.3545  1.4051
 2174SOL     OW17983   3.143   3.861   7.763 -0.4815  0.3692  0.7046
 2174SOL    HW117984   3.225   3.822   7.732 -0.1629  1.1172  0.6121
 2174SOL    HW217985   3.143   3.951   7.731 -0.5704 -0.0131 -0.3945
 2175SOL     OW17986   1.292   4.037   4.053  0.2580  0.5432  0.6980
 2175SOL    HW117987   1.367   4.063   4.106 -1.3395  3.9394  1.3616
 2175SOL    HW217988   1.315   3.951   4.020 -0.3666  0.6796 -0.1125
 2176SOL     OW17989   3.896   2.630   1.351 -0.7330  0.1292 -0.6619
 2176SOL    HW117990   3.936   2.717   1.348 -1.3319  0.3489 -2.0488
 2176SOL    HW217991   3.807   2.661   1.365 -0.0649  1.3123  1.1076
 2177SOL     OW17992   3.398   2.037   1.425  0.0037  0.0977  0.2331
 2177SOL    HW117993   3.411   1.955   1.472  0.8188  1.6215  2.6527
 2177SOL    HW217994   3.316   2.027   1.377  0.9302 -0.3085 -1.2766
 2178SOL     OW17995   2.896   0.174   3.640 -0.0264  0.4859 -0.1928
 2178SOL    HW117996   2.988   0.197   3.641  0.0053  0.2574  1.4441
 2178SOL    HW217997   2.846   0.255   3.650  0.9796  1.1257 -0.3532
 2179SOL     OW17998   0.717   0.175  14.736 -0.1197 -0.4440  0.0415
 2179SOL    HW117999   0.659   0.213  14.670  1.3594 -0.2841 -1.1773
 2179SOL    HW218000   0.769   0.117  14.680 -0.6917 -0.5091 -0.4267
 2180SOL     OW18001   4.557   2.266   6.852  0.6211 -0.3533  0.1351
 2180SOL    HW118002   4.564   2.340   6.912 -1.3175  0.4410 -0.6141
 2180SOL    HW218003   4.648   2.263   6.823  0.7586 -2.5291  0.7454
 2181SOL     OW18004   4.295   2.756   4.046 -0.1361 -0.3250 -0.2185
 2181SOL    HW118005   4.370   2.790   4.095  0.2776 -1.7858  0.1648
 2181SOL    HW218006   4.316   2.780   3.956  0.2929  0.7089  0.1545
 2182SOL     OW18007   0.696   3.851   6.408  0.2206 -0.2890  0.4381
 2182SOL    HW118008   0.697   3.911   6.333  1.4846  3.0528  3.1010
 2182SOL    HW218009   0.638   3.783   6.375  1.9660 -2.0590  1.0382
 2183SOL     OW18010   2.919   3.680  17.507  0.1830 -0.5253  0.5913
 2183SOL    HW118011   2.998   3.721  17.474  0.1169 -1.4984 -0.7455
 2183SOL    HW218012   2.955   3.654  17.592  0.8499 -1.1623  0.0968
 2184SOL     OW18013   2.626   3.649   1.329 -0.2192 -0.2622  0.3228
 2184SOL    HW118014   2.533   3.635   1.314  0.0657 -1.0985 -0.7028
 2184SOL    HW218015   2.665   3.576   1.279 -0.7898 -0.5603  0.3120
 2185SOL     OW18016   0.177   2.781   2.824 -0.3825 -0.7064 -0.1492
 2185SOL    HW118017   0.258   2.820   2.858 -1.4032  1.5683 -0.3110
 2185SOL    HW218018   0.123   2.860   2.814  2.1949  1.2919  1.8383
 2186SOL     OW18019   0.718   2.241   8.600 -0.5103  0.0124 -0.2995
 2186SOL    HW118020   0.797   2.291   8.618  0.9703 -1.6230 -2.1642
 2186SOL    HW218021   0.660   2.287   8.660  0.0047 -2.0425  1.7588
 2187SOL     OW18022   2.053   2.212   2.786  0.7081  0.6120  0.2165
 2187SOL    HW118023   2.083   2.236   2.699 -3.2505  0.5010 -1.1483
 2187SOL    HW218024   2.111   2.136   2.796  0.9628  0.8475  0.5386
 2188SOL     OW18025   3.907   1.561   9.685 -0.5180 -0.1605 -0.0043
 2188SOL    HW118026   3.842   1.580   9.618  1.0473  0.6454 -1.2773
 2188SOL    HW218027   3.847   1.552   9.759 -1.9496  2.0845 -0.8725
 2189SOL     OW18028   2.788   2.730   7.454 -0.2631  0.0481 -0.2453
 2189SOL    HW118029   2.756   2.809   7.411  2.3415  1.3134  0.1631
 2189SOL    HW218030   2.865   2.715   7.400  0.7596  3.0079  0.3979
 2190SOL     OW18031   1.217   0.963  11.014 -0.2284  0.4535 -0.6907
 2190SOL    HW118032   1.283   0.902  10.981 -0.8152 -1.5890  1.8702
 2190SOL    HW218033   1.233   1.042  10.963 -1.6917  0.4957 -1.0856
 2191SOL     OW18034   3.225   1.214   5.889  0.5351 -0.8964 -1.1308
 2191SOL    HW118035   3.238   1.125   5.921 -1.0610 -0.0219  1.8805
 2191SOL    HW218036   3.309   1.210   5.844 -0.0835  0.2464 -2.4089
 2192SOL     OW18037   2.990   0.810   1.528  0.1823 -0.3176 -0.2579
 2192SOL    HW118038   2.934   0.826   1.452  1.7257 -0.7996 -1.4899
 2192SOL    HW218039   3.072   0.777   1.490 -0.5070 -0.7190 -1.4231
 2193SOL     OW18040   4.439   1.263   7.089 -0.3592  0.1446 -0.1057
 2193SOL    HW118041   4.345   1.266   7.107 -0.4645 -2.2995 -0.2879
 2193SOL    HW218042   4.470   1.300   7.172  1.9374 -0.1542 -0.8545
 2194SOL     OW18043   1.254   1.069   4.707 -0.2622  0.3217 -0.5241
 2194SOL    HW118044   1.308   1.060   4.786  1.3157  1.1005 -1.5044
 2194SOL    HW218045   1.255   0.977   4.680 -1.6569  0.0937  0.2159
 2195SOL     OW18046   1.632   3.445   8.701  0.0909 -0.6652 -0.0219
 2195SOL    HW118047   1.685   3.399   8.766  0.3638 -1.0246 -0.4949
 2195SOL    HW218048   1.696   3.458   8.631 -1.2464 -1.3227 -1.3787
 2196SOL     OW18049   1.454   2.912  15.120  0.5361  0.3888 -0.2053
 2196SOL    HW118050   1.438   2.833  15.068 -0.2816  0.0018  0.6132
 2196SOL    HW218051   1.372   2.960  15.107  1.3315  1.1118 -2.4193
 2197SOL     OW18052   1.209   2.962  16.083 -0.0108  0.3479  0.0924
 2197SOL    HW118053   1.251   3.024  16.023 -0.6993 -0.7102 -1.4863
 2197SOL    HW218054   1.188   2.898  16.015  0.4684 -1.3112  1.5104
 2198SOL     OW18055   3.205   3.125   2.221  0.7516 -0.0068  1.1470
 2198SOL    HW118056   3.110   3.119   2.222  0.6563  0.4625 -2.7419
 2198SOL    HW218057   3.225   3.204   2.272  1.2252 -0.7698  2.1354
 2199SOL     OW18058   1.873   3.337   3.602  0.2375 -0.2316 -0.2617
 2199SOL    HW118059   1.934   3.285   3.655  0.7087 -0.3699 -0.9344
 2199SOL    HW218060   1.800   3.276   3.613  0.2499 -0.0137  1.0526
 2200SOL     OW18061   1.849   3.786   4.071 -0.1148  0.3289  0.7839
 2200SOL    HW118062   1.836   3.759   4.162  1.4534 -1.4574  0.4685
 2200SOL    HW218063   1.776   3.757   4.015 -0.0095 -0.5244  1.1000
 2201SOL     OW18064   3.113   4.643   6.081 -0.4723 -0.4204  0.0482
 2201SOL    HW118065   3.143   4.649   6.172 -2.3540 -0.8733  0.7012
 2201SOL    HW218066   3.138   4.551   6.069 -1.1506 -0.4486 -1.1216
 2202SOL     OW18067   0.891   1.989   9.311 -0.3963 -0.4013 -0.0399
 2202SOL    HW118068   0.961   1.999   9.247 -0.1170  4.2220  0.9237
 2202SOL    HW218069   0.864   2.080   9.326  0.4760 -0.2359  0.5242
 2203SOL     OW18070   1.558   3.964   4.799  0.0972  0.5124 -0.2673
 2203SOL    HW118071   1.483   3.945   4.856  0.5411 -2.3697 -0.6450
 2203SOL    HW218072   1.617   3.991   4.869 -0.3610  0.2049  0.2403
 2204SOL     OW18073   1.605   2.994   2.516 -0.7683 -0.1927 -0.6645
 2204SOL    HW118074   1.667   3.040   2.460  0.2505 -1.8569 -0.8715
 2204SOL    HW218075   1.578   2.919   2.464  0.7707 -1.5345  0.4726
 2205SOL     OW18076   3.417   0.975   2.929 -0.3193 -0.2595  0.9543
 2205SOL    HW118077   3.356   1.011   2.865  0.1916  0.6966  1.0160
 2205SOL    HW218078   3.442   0.901   2.872 -0.0237 -0.1306  0.9170
 2206SOL     OW18079   0.762   1.068  15.763  0.1717  0.2579 -0.2225
 2206SOL    HW118080   0.680   1.028  15.733 -0.0189 -0.2421  0.9541
 2206SOL    HW218081   0.749   1.081  15.857  2.0439  2.6532 -0.3028
 2207SOL     OW18082   4.248   0.156   3.263 -0.1625  0.1628 -0.2668
 2207SOL    HW118083   4.334   0.122   3.286 -0.0180 -0.7338 -2.2085
 2207SOL    HW218084   4.269   0.178   3.173 -0.0597 -3.7425 -1.1771
 2208SOL     OW18085   3.035   1.535   5.278  0.4028 -0.1731  0.5637
 2208SOL    HW118086   3.016   1.530   5.371  1.3766  3.2784  0.9541
 2208SOL    HW218087   3.091   1.612   5.269 -1.6588  1.2121 -0.7372
 2209SOL     OW18088   0.364   1.375   3.468 -0.1987  0.1074 -0.2215
 2209SOL    HW118089   0.377   1.292   3.514  3.0542  0.5375 -0.3538
 2209SOL    HW218090   0.276   1.402   3.495  0.0706 -0.1340  0.9014
 2210SOL     OW18091   0.001   1.530  16.390 -1.1659  0.0606 -0.1418
 2210SOL    HW118092   4.680   1.616  16.390  0.6773  0.9994 -0.5982
 2210SOL    HW218093   0.074   1.549  16.449 -1.1920 -1.1225  0.2701
 2211SOL     OW18094   2.760   4.243   2.678 -0.1766 -0.7259 -0.4782
 2211SOL    HW118095   2.847   4.270   2.708  0.5664 -2.6353 -0.9389
 2211SOL    HW218096   2.745   4.166   2.733  1.3885 -1.2015 -0.7070
 2212SOL     OW18097   1.676   4.302   0.615 -0.5602 -0.5678 -0.2667
 2212SOL    HW118098   1.591   4.344   0.631  0.2066  1.2264 -0.9059
 2212SOL    HW218099   1.668   4.292   0.520  1.3444 -1.6121 -0.3179
 2213SOL     OW18100   1.387   3.379   3.114  0.3752  0.6598 -0.0502
 2213SOL    HW118101   1.341   3.449   3.068  0.4988  1.9369  1.7770
 2213SOL    HW218102   1.476   3.407   3.132  0.1754  2.9091 -2.5890
 2214SOL     OW18103   1.701   3.818   3.544 -0.0094 -0.5378  0.0125
 2214SOL    HW118104   1.618   3.820   3.498 -0.7104 -1.2327  1.2367
 2214SOL    HW218105   1.694   3.900   3.592 -1.9084 -0.7083  0.0370
 2215SOL     OW18106   2.200   1.474  10.261  0.0461 -0.0172 -0.1437
 2215SOL    HW118107   2.133   1.485  10.193  1.4081  1.5886 -1.2467
 2215SOL    HW218108   2.145   1.437  10.329  2.9081  2.1587  3.3777
 2216SOL     OW18109   0.160   2.003   3.117 -0.0876  0.4061  0.2452
 2216SOL    HW118110   0.234   2.056   3.145  0.4867  0.0113 -0.5416
 2216SOL    HW218111   0.119   2.069   3.061 -0.7794 -0.8514 -0.7331
 2217SOL     OW18112   0.585   3.608   9.983  0.3184 -0.5979 -0.4305
 2217SOL    HW118113   0.608   3.576   9.896 -3.6265 -1.7235 -1.0579
 2217SOL    HW218114   0.495   3.634   9.965 -0.3850 -1.6504  1.5732
 2218SOL     OW18115   0.243   1.703   8.485  0.1651  0.3687 -0.1461
 2218SOL    HW118116   0.286   1.719   8.569 -1.2586  1.7692  0.3096
 2218SOL    HW218117   0.150   1.698   8.505  0.6108 -0.8483  1.6822
 2219SOL     OW18118   1.192   3.590  12.774  0.2847  0.3220 -0.1683
 2219SOL    HW118119   1.262   3.574  12.711 -0.6147 -1.1240 -0.7903
 2219SOL    HW218120   1.123   3.534  12.738  0.1070  0.5497 -0.1847
 2220SOL     OW18121   0.581   0.966   6.073  0.1620 -0.0900 -0.0836
 2220SOL    HW118122   0.529   0.908   6.129 -0.4892  0.9006  0.3476
 2220SOL    HW218123   0.592   0.911   5.996 -0.7746 -3.3187  2.0908
 2221SOL     OW18124   0.136   2.473   8.307 -0.4614  0.5333 -0.1737
 2221SOL    HW118125   0.070   2.406   8.321 -1.3009  0.8522 -2.6221
 2221SOL    HW218126   0.078   2.547   8.292 -0.3745  0.3875 -1.2339
 2222SOL     OW18127   2.992   1.312   5.770  0.5644 -0.0310 -0.2376
 2222SOL    HW118128   2.998   1.338   5.862  1.1176 -1.9352  0.2487
 2222SOL    HW218129   3.083   1.290   5.748  1.4553  2.5239  0.7547
 2223SOL     OW18130   2.846   3.378   6.314 -0.3967  0.1268  0.1049
 2223SOL    HW118131   2.872   3.327   6.391 -1.2196 -1.3492 -0.6059
 2223SOL    HW218132   2.753   3.355   6.317 -0.7110  1.7243  2.3718
 2224SOL     OW18133   3.591   1.050  16.244 -0.1344 -0.1371  0.0840
 2224SOL    HW118134   3.627   1.070  16.158 -2.7193 -0.4840 -1.0614
 2224SOL    HW218135   3.541   1.131  16.256 -1.1481 -0.8642  0.8466
 2225SOL     OW18136   1.285   0.471   7.263  0.1681 -0.2787 -0.3511
 2225SOL    HW118137   1.294   0.472   7.168  1.5576 -0.4919 -0.2212
 2225SOL    HW218138   1.376   0.464   7.290 -0.0835  0.6219  0.7593
 2226SOL     OW18139   0.668   2.975  14.764 -0.0184 -0.6464 -0.4521
 2226SOL    HW118140   0.628   3.002  14.847  0.1875  1.3734 -1.0291
 2226SOL    HW218141   0.756   2.959  14.797  0.7104  0.6192 -1.8011
 2227SOL     OW18142   0.162   3.598  17.509  0.3829  0.3897  0.9600
 2227SOL    HW118143   0.087   3.599  17.450  1.4663 -2.3163 -0.4711
 2227SOL    HW218144   0.150   3.524  17.569 -0.1218 -0.5722 -0.3275
 2228SOL     OW18145   1.503   2.062   2.610 -0.3848 -0.3071  1.1041
 2228SOL    HW118146   1.590   2.064   2.649 -0.0688 -0.3060  0.4063
 2228SOL    HW218147   1.498   1.968   2.595 -0.1234 -0.3540  1.3144
 2229SOL     OW18148   2.709   3.359   1.326  0.1448 -0.4909 -0.8162
 2229SOL    HW118149   2.725   3.364   1.420 -2.3693  1.2666 -0.4981
 2229SOL    HW218150   2.628   3.310   1.314 -1.3764  1.4204  1.7126
 2230SOL     OW18151   3.790   2.526   0.634 -0.4221 -0.0336  0.1177
 2230SOL    HW118152   3.831   2.612   0.644  1.4552 -1.3198  3.6570
 2230SOL    HW218153   3.773   2.497   0.724  1.3665 -0.0607  0.4594
 2231SOL     OW18154   4.316   2.283   1.523  0.3101  0.1770 -0.3683
 2231SOL    HW118155   4.352   2.227   1.592 -1.9541 -1.4758 -0.5434
 2231SOL    HW218156   4.230   2.244   1.507 -0.1523  0.9397  0.2237
 2232SOL     OW18157   1.068   3.904   1.401  0.4181  0.7379 -0.1546
 2232SOL    HW118158   1.014   3.898   1.322 -1.3784  1.3989  1.0092
 2232SOL    HW218159   1.132   3.972   1.380  2.3053 -0.0265  3.0491
 2233SOL     OW18160   2.215   4.129   8.479  0.1399  0.3691  0.2438
 2233SOL    HW118161   2.193   4.169   8.564 -2.9846  2.4394 -1.5769
 2233SOL    HW218162   2.166   4.187   8.421 -1.2612 -0.8468  0.2267
 2234SOL     OW18163   3.709   4.212   6.940  0.3583 -0.9571  0.0919
 2234SOL    HW118164   3.724   4.194   6.847 -1.2730  0.0672 -0.3703
 2234SOL    HW218165   3.702   4.308   6.935  0.8593 -0.8578  1.3002
 2235SOL     OW18166   4.485   0.532  15.819 -0.1229  0.1968  0.0813
 2235SOL    HW118167   4.528   0.618  15.811  2.9323 -1.5007 -1.6875
 2235SOL    HW218168   4.565   0.481  15.829  1.1590  1.9788 -1.1183
 2236SOL     OW18169   3.812   3.313   6.360 -0.0881 -0.3180  0.1001
 2236SOL    HW118170   3.737   3.343   6.410 -1.3755 -0.8447 -1.5186
 2236SOL    HW218171   3.878   3.283   6.422  1.2273 -1.2631 -1.7448
 2237SOL     OW18172   3.876   4.682   2.365 -0.3667  0.0046  0.1806
 2237SOL    HW118173   3.890   0.003   2.281  2.1360  1.5575  1.4216
 2237SOL    HW218174   3.839   0.031   2.416  1.7588  0.2430  1.3749
 2238SOL     OW18175   3.498   1.345   8.340 -0.0378 -0.1253 -0.1229
 2238SOL    HW118176   3.589   1.327   8.363 -0.7225  0.1136  2.8617
 2238SOL    HW218177   3.458   1.258   8.330 -1.9818  0.3819  2.9225
 2239SOL     OW18178   1.644   0.949  13.507  0.1646 -0.2747 -0.1175
 2239SOL    HW118179   1.669   0.901  13.585 -0.2805 -2.4224 -1.2843
 2239SOL    HW218180   1.657   0.882  13.440 -0.7788 -1.4273  0.8539
 2240SOL     OW18181   4.639   2.133  11.225 -0.1921 -0.3403 -0.5494
 2240SOL    HW118182   4.545   2.118  11.235 -0.2869  0.2102 -0.6244
 2240SOL    HW218183   4.662   2.187  11.301 -0.1957 -0.5361 -0.4090
 2241SOL     OW18184   2.683   1.653   0.949 -0.0787 -0.1309  0.7029
 2241SOL    HW118185   2.686   1.693   1.036 -2.3393  0.6916  0.3839
 2241SOL    HW218186   2.704   1.561   0.966 -0.8860 -0.7752 -1.6588
 2242SOL     OW18187   3.698   4.598   5.323  0.0364 -0.0678  1.2159
 2242SOL    HW118188   3.603   4.589   5.336 -0.5531  0.9045 -2.2020
 2242SOL    HW218189   3.731   4.509   5.317 -1.4569 -0.4686 -1.3742
 2243SOL     OW18190   1.836   1.615   6.844  0.3667  0.2371 -0.1671
 2243SOL    HW118191   1.824   1.580   6.755 -1.5176 -1.7922  0.8893
 2243SOL    HW218192   1.751   1.583   6.876  0.3254  0.1718 -0.3380
 2244SOL     OW18193   1.367   3.777   3.736 -0.7898  0.6951  0.1023
 2244SOL    HW118194   1.361   3.774   3.832 -2.5078 -1.2480 -0.0648
 2244SOL    HW218195   1.359   3.682   3.732 -0.7988  0.6434  1.4256
 2245SOL     OW18196   4.706   1.688   6.697 -0.0026  0.3631  0.5211
 2245SOL    HW118197   4.688   1.747   6.624 -0.0351  0.3540  0.5216
 2245SOL    HW218198   4.637   1.624   6.681  1.0344 -0.6022 -0.1479
 2246SOL     OW18199   0.586   4.623   8.230  0.2127 -0.0183 -0.1127
 2246SOL    HW118200   0.504   4.573   8.224 -0.6877  1.5670 -0.8458
 2246SOL    HW218201   0.602   4.658   8.142 -0.1086  0.5723  0.0683
 2247SOL     OW18202   4.348   4.501   3.367 -0.6516  0.0174 -0.6528
 2247SOL    HW118203   4.310   4.502   3.455  1.3109  1.0877  0.1686
 2247SOL    HW218204   4.427   4.555   3.361 -0.0837 -0.7971 -0.4534
 2248SOL     OW18205   3.828   4.563  12.619 -0.1220 -0.0386  0.0448
 2248SOL    HW118206   3.855   4.487  12.568 -0.8782 -0.6953  0.6137
 2248SOL    HW218207   3.773   4.608  12.555  0.4885  1.9419  0.9088
 2249SOL     OW18208   3.465   1.348   1.158 -0.3754  0.2654 -0.5346
 2249SOL    HW118209   3.449   1.385   1.244  1.7202  2.5504 -1.1611
 2249SOL    HW218210   3.560   1.339   1.163 -0.1093  2.3272 -2.0240
 2250SOL     OW18211   1.985   2.147  15.562 -0.2912 -0.0756  0.1882
 2250SOL    HW118212   1.992   2.126  15.469  1.4253 -2.0128  0.7434
 2250SOL    HW218213   1.939   2.230  15.549 -0.7205 -0.1721  1.1112
 2251SOL     OW18214   0.597   1.195   5.917  0.0610  0.3142  0.6757
 2251SOL    HW118215   0.574   1.146   5.996 -0.9361  0.7933  0.6912
 2251SOL    HW218216   0.691   1.206   5.925 -0.1609  1.9424  1.1321
 2252SOL     OW18217   0.956   1.698   2.719 -0.3109  0.1203  0.1262
 2252SOL    HW118218   0.909   1.743   2.789 -0.6039 -1.4269  0.9193
 2252SOL    HW218219   0.888   1.667   2.659 -1.3092  1.0111  0.7979
 2253SOL     OW18220   1.006   0.885   4.997 -0.1625 -0.3338 -0.2834
 2253SOL    HW118221   1.009   0.980   4.992  0.1945 -0.3283  0.1033
 2253SOL    HW218222   1.087   0.868   5.044  0.4100 -1.4160 -1.6567
 2254SOL     OW18223   3.878   1.017  13.167 -0.3583 -0.3988 -0.4455
 2254SOL    HW118224   3.864   1.037  13.260 -0.0560 -1.4262 -0.1808
 2254SOL    HW218225   3.808   0.953  13.158 -0.3708 -0.9095  3.1651
 2255SOL     OW18226   4.429   0.380   4.033  0.9118  0.0963 -0.3683
 2255SOL    HW118227   4.488   0.437   4.083  0.3319  1.8069 -1.6184
 2255SOL    HW218228   4.462   0.292   4.019  1.8465  0.0983  1.8770
 2256SOL     OW18229   4.436   1.736   6.286  0.2867  0.4053  0.3074
 2256SOL    HW118230   4.439   1.673   6.357 -1.1836  0.5688  0.5168
 2256SOL    HW218231   4.528   1.763   6.283  0.9344 -1.8145  0.5604
 2257SOL     OW18232   4.720   3.469   0.279  0.1457 -0.4530 -0.1904
 2257SOL    HW118233   4.678   3.399   0.330 -1.7751  0.5897 -0.3640
 2257SOL    HW218234   0.006   3.519   0.361 -1.0206  0.5119 -0.6643
 2258SOL     OW18235   1.465   0.559   7.444 -0.2738  0.3829 -0.4090
 2258SOL    HW118236   1.382   0.602   7.425  0.6873  3.2165  1.8779
 2258SOL    HW218237   1.435   0.497   7.510 -3.6177  1.7532 -0.6657
 2259SOL     OW18238   2.963   1.575   7.456 -0.8951 -0.0233  0.2028
 2259SOL    HW118239   3.006   1.545   7.536 -2.5304 -0.5233  0.8936
 2259SOL    HW218240   3.041   1.600   7.405 -1.0319 -0.0655 -0.0253
 2260SOL     OW18241   1.676   1.026   2.561 -0.3178 -0.6686 -0.0663
 2260SOL    HW118242   1.752   0.994   2.514 -0.3419  2.1152 -1.9981
 2260SOL    HW218243   1.712   1.096   2.615 -0.7779 -1.2850  1.0334
 2261SOL     OW18244   2.488   4.074   8.776 -0.8105 -0.1677  0.5659
 2261SOL    HW118245   2.470   3.981   8.761  0.6291 -0.3343 -0.0443
 2261SOL    HW218246   2.557   4.082   8.711  1.1504 -0.0774  2.6677
 2262SOL     OW18247   1.351   4.255   6.415  0.2429 -0.1641  0.0413
 2262SOL    HW118248   1.279   4.246   6.353  1.8034  1.2140 -1.9862
 2262SOL    HW218249   1.428   4.250   6.358 -0.0843 -2.5701 -0.1880
 2263SOL     OW18250   3.839   3.622  17.042  0.0252 -0.1819 -0.3681
 2263SOL    HW118251   3.855   3.531  17.066  0.9932 -0.6638 -2.9165
 2263SOL    HW218252   3.799   3.614  16.956 -0.7967 -1.2766  0.1183
 2264SOL     OW18253   2.894   2.913   4.085  0.4796  0.6789 -0.6290
 2264SOL    HW118254   2.841   2.975   4.135 -0.5127 -1.0471  0.4559
 2264SOL    HW218255   2.826   2.872   4.031 -1.4064  2.0055  0.7312
 2265SOL     OW18256   2.790   3.899   1.992  1.1219  0.1628  0.5763
 2265SOL    HW118257   2.844   3.853   2.056  0.8848  1.0288  1.3992
 2265SOL    HW218258   2.781   3.989   2.024  0.6358  0.5122 -0.5481
 2266SOL     OW18259   0.017   2.272   9.503  0.2656  0.2573 -0.2002
 2266SOL    HW118260   0.029   2.243   9.412  1.4770 -1.3180  0.4759
 2266SOL    HW218261   0.067   2.354   9.494  0.1620  0.2736 -0.6413
 2267SOL     OW18262   2.226   2.539   7.691 -0.1652 -0.2893 -0.5342
 2267SOL    HW118263   2.300   2.493   7.650 -0.2148 -0.1066 -0.8287
 2267SOL    HW218264   2.277   2.563   7.768 -0.8592 -0.0580 -0.1528
 2268SOL     OW18265   4.072   3.497   8.945 -0.1935 -0.4549 -0.2164
 2268SOL    HW118266   4.150   3.532   8.987 -0.7309  0.2801  0.1578
 2268SOL    HW218267   4.018   3.479   9.022  1.6638 -2.8049  0.5340
 2269SOL     OW18268   2.728   2.218   2.905  0.2188  0.1410  0.0604
 2269SOL    HW118269   2.791   2.272   2.952  0.0557 -1.1416  1.7413
 2269SOL    HW218270   2.735   2.133   2.948 -0.5756 -0.2844 -0.6617
 2270SOL     OW18271   2.696   2.900   1.902  0.2760 -0.9096  0.9053
 2270SOL    HW118272   2.670   2.809   1.889  0.2936 -0.9070  0.8532
 2270SOL    HW218273   2.788   2.878   1.916 -0.2701 -1.9350  2.9353
 2271SOL     OW18274   1.821   0.539   3.187  0.0672 -0.3088 -0.2946
 2271SOL    HW118275   1.844   0.510   3.099 -0.9396 -1.3572 -0.2148
 2271SOL    HW218276   1.729   0.512   3.190  0.2143 -0.7839 -0.0039
 2272SOL     OW18277   3.234   3.703   3.839 -0.1061  0.0265 -0.1160
 2272SOL    HW118278   3.192   3.648   3.773 -0.7857 -0.1808  0.4856
 2272SOL    HW218279   3.183   3.784   3.838  0.0674  0.1372  0.2210
 2273SOL     OW18280   1.230   3.159   3.125 -0.0795  0.1321 -0.3431
 2273SOL    HW118281   1.288   3.090   3.156  0.2058  0.6293  0.2366
 2273SOL    HW218282   1.294   3.229   3.114  0.5579 -0.1720  1.4258
 2274SOL     OW18283   4.213   1.091  16.169 -0.5277 -0.0851  0.1905
 2274SOL    HW118284   4.167   1.009  16.188 -1.5780  1.0617  2.6936
 2274SOL    HW218285   4.263   1.067  16.091 -0.0338  0.7602  0.2476
 2275SOL     OW18286   3.953   0.379  15.413 -0.0094  0.3417  0.1399
 2275SOL    HW118287   3.955   0.388  15.318  0.1930  1.0515  0.2155
 2275SOL    HW218288   4.000   0.458  15.440 -0.6232  1.2416 -1.4507
 2276SOL     OW18289   3.032   2.274  10.322  0.0279 -0.0887  0.5151
 2276SOL    HW118290   2.962   2.215  10.351 -1.9200  2.6804  1.4086
 2276SOL    HW218291   2.998   2.360  10.347  0.2901  0.4488 -1.0177
 2277SOL     OW18292   3.107   0.980   7.801  0.6067 -0.3589 -0.3765
 2277SOL    HW118293   3.086   1.053   7.743  1.8300  0.5453  0.3156
 2277SOL    HW218294   3.023   0.948   7.835  0.8599  0.9690  1.5053
 2278SOL     OW18295   4.360   3.486  15.461  0.0934 -0.0296 -0.0502
 2278SOL    HW118296   4.391   3.426  15.394  0.3155  0.7392 -0.6366
 2278SOL    HW218297   4.265   3.489  15.454  0.0200 -0.3693  0.8902
 2279SOL     OW18298   1.104   3.065   5.572  0.3741 -0.0459 -0.4976
 2279SOL    HW118299   1.085   2.978   5.606  0.5805 -0.1638 -0.6763
 2279SOL    HW218300   1.019   3.089   5.536  0.4500  0.8122 -0.0978
 2280SOL     OW18301   3.896   2.801   4.674  0.0327 -0.1995 -0.2349
 2280SOL    HW118302   3.904   2.776   4.582 -0.2760  1.1885 -0.6503
 2280SOL    HW218303   3.838   2.731   4.704 -0.1589  1.0032  2.2505
 2281SOL     OW18304   3.207   1.537   2.913  0.0512  0.2313  0.5013
 2281SOL    HW118305   3.197   1.447   2.882  1.3835  0.5557 -0.8182
 2281SOL    HW218306   3.120   1.546   2.953  0.1944  1.2778  0.5678
 2282SOL     OW18307   4.092   1.460  12.421  0.2137  0.5804 -0.1520
 2282SOL    HW118308   4.030   1.410  12.367  1.1499 -2.1288  1.2422
 2282SOL    HW218309   4.175   1.440  12.378  0.4783 -0.9089  1.0562
 2283SOL     OW18310   0.759   2.448  16.623 -0.0611 -0.1845 -0.5041
 2283SOL    HW118311   0.672   2.485  16.636  0.0649  0.3549 -1.2208
 2283SOL    HW218312   0.784   2.390  16.695 -0.2993 -0.5302 -0.6985
 2284SOL     OW18313   1.630   0.379   4.243 -0.3827  0.6307  0.0048
 2284SOL    HW118314   1.712   0.343   4.208  0.9858  3.0510  0.7333
 2284SOL    HW218315   1.659   0.460   4.286  1.5440  0.0412 -0.1531
 2285SOL     OW18316   2.890   1.193   6.767  0.2263  0.3993  0.1061
 2285SOL    HW118317   2.908   1.258   6.699 -1.8084 -0.5791 -1.3608
 2285SOL    HW218318   2.978   1.159   6.786 -0.5409 -1.9119 -0.4613
 2286SOL     OW18319   2.705   0.924   5.151 -0.3452  0.0522 -0.6246
 2286SOL    HW118320   2.796   0.907   5.125 -0.3314 -1.3708  0.3284
 2286SOL    HW218321   2.695   0.862   5.223 -1.2952  0.5685 -0.3177
 2287SOL     OW18322   2.633   0.675  17.577  0.2086 -0.1004 -0.1038
 2287SOL    HW118323   2.538   0.684  17.576  0.6112  4.1527  0.2297
 2287SOL    HW218324   2.644   0.667  17.672  2.4046  2.2500 -0.1802
 2288SOL     OW18325   4.077   4.095   9.859 -0.1426  0.0126  0.4089
 2288SOL    HW118326   3.999   4.140   9.891 -1.3358 -1.3287 -0.6194
 2288SOL    HW218327   4.126   4.090   9.941  1.5485  1.1694 -0.5360
 2289SOL     OW18328   0.151   4.372   2.864 -0.5786  0.2643  0.5248
 2289SOL    HW118329   0.228   4.374   2.921  0.8866 -1.4448 -1.3818
 2289SOL    HW218330   0.081   4.331   2.914 -1.0691 -0.6193 -0.8869
 2290SOL     OW18331   4.442   3.851   0.377  0.5325  0.1056 -0.4337
 2290SOL    HW118332   4.534   3.845   0.403  0.2962  1.5951  0.7547
 2290SOL    HW218333   4.408   3.762   0.378 -1.8363  1.0678  2.2512
 2291SOL     OW18334   3.603   2.941  14.151  0.0648 -0.2631 -1.0374
 2291SOL    HW118335   3.526   2.951  14.094  0.3903  1.6392 -1.1459
 2291SOL    HW218336   3.619   3.031  14.177 -2.7036 -0.0827  0.0487
 2292SOL     OW18337   1.280   2.694  11.479  0.2241  0.6278  0.3531
 2292SOL    HW118338   1.282   2.634  11.554 -1.1095  0.9229  0.6278
 2292SOL    HW218339   1.366   2.699  11.438 -0.4882  1.3468 -1.0708
 2293SOL     OW18340   3.705   1.764   7.273  0.1425  0.3611 -0.0265
 2293SOL    HW118341   3.687   1.706   7.199  1.0040  1.8686 -1.4172
 2293SOL    HW218342   3.778   1.715   7.309  0.8706  1.5900  0.1515
 2294SOL     OW18343   1.318   2.858   2.442  0.0808 -0.3138  0.3142
 2294SOL    HW118344   1.379   2.786   2.425  0.0304  0.2108 -2.0318
 2294SOL    HW218345   1.344   2.915   2.370  0.9228 -3.0527 -1.5400
 2295SOL     OW18346   0.332   2.533   8.467 -0.6379 -0.4683  0.2619
 2295SOL    HW118347   0.263   2.533   8.400  0.9319 -0.3784 -1.3712
 2295SOL    HW218348   0.321   2.616   8.512  0.4863 -1.3743  2.1712
 2296SOL     OW18349   0.599   0.761  14.500 -0.4138  0.2863  0.5463
 2296SOL    HW118350   0.567   0.846  14.468 -0.2933  0.4223  0.7854
 2296SOL    HW218351   0.579   0.716  14.418 -1.8920  0.1748  0.9754
 2297SOL     OW18352   2.527   1.945  13.769  0.6496  0.4369 -0.0086
 2297SOL    HW118353   2.520   1.879  13.701 -0.0076 -1.0326  1.4917
 2297SOL    HW218354   2.580   1.886  13.823 -0.1204 -1.2853 -1.1388
 2298SOL     OW18355   0.121   4.047   4.609 -0.7766  0.1005 -0.2764
 2298SOL    HW118356   0.100   4.084   4.523 -1.0519  1.9450  0.5823
 2298SOL    HW218357   0.068   4.098   4.671 -0.0184 -1.7519  1.8609
 2299SOL     OW18358   0.564   0.572   2.504 -0.0510  0.1750  0.1685
 2299SOL    HW118359   0.561   0.569   2.409 -1.5688 -1.2410  0.2488
 2299SOL    HW218360   0.608   0.488   2.518  0.4795  0.5688  0.8396
 2300SOL     OW18361   2.807   3.983   4.642 -0.5112  0.1098  0.3120
 2300SOL    HW118362   2.823   3.900   4.597 -0.5542  0.1258  0.2675
 2300SOL    HW218363   2.718   3.964   4.670 -0.4911  0.6001  0.7247
 2301SOL     OW18364   3.433   1.505  16.506 -0.1410 -0.0837  0.4437
 2301SOL    HW118365   3.503   1.564  16.481 -0.0316  0.3472  1.7920
 2301SOL    HW218366   3.428   1.528  16.599 -1.9001  1.4502 -0.0335
 2302SOL     OW18367   3.915   4.004   7.283 -0.0091  0.3605 -0.2292
 2302SOL    HW118368   3.977   4.060   7.237 -0.6549  0.3595 -1.0856
 2302SOL    HW218369   3.877   4.071   7.340 -1.4517  1.2274 -2.2265
 2303SOL     OW18370   0.244   1.123   6.086  0.4346 -0.4675  0.2971
 2303SOL    HW118371   0.175   1.188   6.095  0.7841  0.2881 -2.5131
 2303SOL    HW218372   0.304   1.134   6.160 -0.9390  1.0058  1.1916
 2304SOL     OW18373   2.186   3.308  17.524 -0.6719 -0.0006  0.1696
 2304SOL    HW118374   2.223   3.269  17.603 -0.5531  0.3652  0.2942
 2304SOL    HW218375   2.117   3.354  17.571 -0.9653  1.0520 -1.2934
 2305SOL     OW18376   0.960   0.650   8.681  0.1231  0.3796 -0.1394
 2305SOL    HW118377   0.961   0.733   8.729 -0.0608  1.2577 -1.6357
 2305SOL    HW218378   0.984   0.590   8.751 -0.7911 -0.3447 -0.4532
 2306SOL     OW18379   0.060   1.033   3.533 -0.6702  0.0484 -0.5050
 2306SOL    HW118380   0.139   1.067   3.575 -0.3347 -2.0507  0.5395
 2306SOL    HW218381   0.027   0.981   3.606  3.0696 -0.8978  0.4989
 2307SOL     OW18382   4.065   2.982   8.918  0.1623  0.4981  0.2622
 2307SOL    HW118383   4.152   3.014   8.944  0.4360 -0.3461  0.3870
 2307SOL    HW218384   4.017   3.065   8.924  1.4203  1.2410  0.1553
 2308SOL     OW18385   1.835   3.445   5.381 -0.4105  0.0310 -0.1340
 2308SOL    HW118386   1.742   3.448   5.403 -0.1530 -0.8514  1.0576
 2308SOL    HW218387   1.851   3.353   5.398 -0.8217 -0.2400 -1.2312
 2309SOL     OW18388   0.100   3.199   9.227  0.1848  0.0520 -0.3356
 2309SOL    HW118389   0.137   3.111   9.233  1.0673  0.5431  1.2262
 2309SOL    HW218390   0.094   3.204   9.131  0.1280  0.2645 -0.3199
 2310SOL     OW18391   0.022   3.140   4.166  0.0326  0.7121 -0.3923
 2310SOL    HW118392   0.100   3.094   4.197  0.9583  1.6944 -1.2810
 2310SOL    HW218393   4.712   3.071   4.108 -0.4957 -1.0065  1.9540
 2311SOL     OW18394   4.399   4.616   5.819 -0.0970  0.2543  0.3338
 2311SOL    HW118395   4.368   4.527   5.839  1.4781 -0.0776  1.3650
 2311SOL    HW218396   4.378   4.617   5.726  0.1161  1.0613  0.2984
 2312SOL     OW18397   4.660   3.677   1.827 -0.2222 -0.2601  0.0988
 2312SOL    HW118398   4.667   3.673   1.732 -0.2071 -3.0975  0.2280
 2312SOL    HW218399   4.577   3.726   1.824 -1.0586 -1.5195  2.4582
 2313SOL     OW18400   4.428   1.475   1.938 -0.0416  0.0511 -0.1494
 2313SOL    HW118401   4.410   1.381   1.947 -2.2898  0.7620  2.7274
 2313SOL    HW218402   4.514   1.476   1.895  0.1729 -3.2997  0.1537
 2314SOL     OW18403   1.504   1.878   9.082 -0.2185  0.5881  0.1038
 2314SOL    HW118404   1.493   1.810   9.147 -0.8048 -0.8552 -1.5049
 2314SOL    HW218405   1.593   1.854   9.058  0.8198  2.1624  2.3849
 2315SOL     OW18406   1.184   4.679   9.095  0.4671 -1.0556 -0.1114
 2315SOL    HW118407   1.192   4.662   9.001 -0.3988 -1.7470 -0.0603
 2315SOL    HW218408   1.108   4.628   9.122 -0.7677  0.8197 -0.0034
 2316SOL     OW18409   1.208   2.216  10.618 -0.2489  0.4758 -0.0475
 2316SOL    HW118410   1.159   2.287  10.576 -0.4731  0.2222 -0.2176
 2316SOL    HW218411   1.140   2.178  10.675  1.1335 -0.1284  1.2011
 2317SOL     OW18412   1.923   4.683  10.136  0.3766  0.2277  0.0011
 2317SOL    HW118413   2.005   4.640  10.157 -0.5698 -0.5748  2.0712
 2317SOL    HW218414   1.950   0.039  10.090  1.7856 -0.0246  0.4171
 2318SOL     OW18415   1.521   4.290   7.040  0.7091  0.1572  0.2362
 2318SOL    HW118416   1.538   4.218   6.980  1.4378 -0.6439  1.4098
 2318SOL    HW218417   1.510   4.359   6.974 -0.6616 -0.4626 -0.1816
 2319SOL     OW18418   3.864   4.683   0.688  0.5575  0.5010  0.2922
 2319SOL    HW118419   3.854   4.699   0.594 -0.0248 -0.0981  0.2482
 2319SOL    HW218420   3.788   4.630   0.713  0.8820 -0.6970 -1.2556
 2320SOL     OW18421   2.228   4.524  15.610  0.0928  0.1514 -0.0138
 2320SOL    HW118422   2.223   4.491  15.520  0.3503 -0.6489  0.2672
 2320SOL    HW218423   2.248   4.447  15.662  2.2519 -0.2420 -1.4238
 2321SOL     OW18424   0.099   3.066   7.802 -0.2222  0.2932 -0.4574
 2321SOL    HW118425   0.091   3.145   7.856 -0.9602 -0.9197  1.2050
 2321SOL    HW218426   0.178   3.021   7.833  1.5352  2.0945 -2.3601
 2322SOL     OW18427   2.366   4.110   3.464 -0.3957 -0.2401 -0.1641
 2322SOL    HW118428   2.274   4.131   3.454  0.0728  2.2444  0.6673
 2322SOL    HW218429   2.393   4.133   3.553 -0.5194  0.9881 -0.4311
 2323SOL     OW18430   1.131   1.833   2.554 -0.6846  0.4820 -0.2305
 2323SOL    HW118431   1.189   1.771   2.511 -0.3382  1.3260 -0.9966
 2323SOL    HW218432   1.083   1.779   2.616 -0.7838 -0.3581 -1.0498
 2324SOL     OW18433   2.847   1.893   1.346  0.1781 -0.5444  0.3521
 2324SOL    HW118434   2.882   1.866   1.261 -0.3415  1.9308 -0.6463
 2324SOL    HW218435   2.886   1.978   1.364  1.0948 -0.9895  0.4838
 2325SOL     OW18436   2.542   3.280   8.538  0.0302 -0.3764  0.1313
 2325SOL    HW118437   2.619   3.284   8.481  0.1886  1.1913  0.4324
 2325SOL    HW218438   2.572   3.232   8.616  0.2990 -1.3791 -0.5966
 2326SOL     OW18439   3.239   0.598  10.489 -0.2902  0.3278  0.9114
 2326SOL    HW118440   3.265   0.566  10.576 -0.7486 -0.6150  0.6998
 2326SOL    HW218441   3.248   0.693  10.497 -1.7380  0.6195 -1.0502
 2327SOL     OW18442   1.086   1.914  13.677 -0.1760 -0.3212 -0.5424
 2327SOL    HW118443   1.148   1.844  13.701  0.0170  0.0881  0.1544
 2327SOL    HW218444   1.072   1.904  13.583  0.5166  0.7840 -0.7679
 2328SOL     OW18445   3.130   4.299  11.198 -0.5092 -0.2868 -0.0646
 2328SOL    HW118446   3.217   4.338  11.206 -1.2179  1.2120  0.4858
 2328SOL    HW218447   3.078   4.373  11.231  1.3729  0.7327  0.6384
 2329SOL     OW18448   0.053   1.617   2.331 -0.6229 -0.0246 -0.3657
 2329SOL    HW118449   4.710   1.575   2.275 -1.4275 -0.2965  0.7693
 2329SOL    HW218450   0.137   1.597   2.290  0.1220  1.0201  0.6510
 2330SOL     OW18451   1.266   3.144  15.155 -0.6189 -0.1244 -0.0284
 2330SOL    HW118452   1.255   3.215  15.218 -2.5715 -1.1298  0.7408
 2330SOL    HW218453   1.216   3.072  15.195 -0.4589 -0.3514 -0.2323
 2331SOL     OW18454   0.115   1.684   6.943 -0.0848 -0.1475 -0.0402
 2331SOL    HW118455   0.048   1.677   6.875 -1.1968  1.0319  0.9328
 2331SOL    HW218456   0.145   1.775   6.946 -2.1247  0.5571 -1.2279
 2332SOL     OW18457   2.739   1.200  14.695 -0.1150 -0.1556 -0.1248
 2332SOL    HW118458   2.701   1.147  14.765 -0.0951  1.7031  1.2935
 2332SOL    HW218459   2.728   1.282  14.743 -0.2670  0.1790 -0.7215
 2333SOL     OW18460   4.516   1.543  12.859  0.1872  0.0984 -0.0230
 2333SOL    HW118461   4.468   1.625  12.844  0.4181  0.2749  0.1835
 2333SOL    HW218462   4.608   1.563  12.841  0.1102 -0.9618 -1.5736
 2334SOL     OW18463   3.841   1.912   8.269  0.3836  0.0246 -0.1872
 2334SOL    HW118464   3.812   1.902   8.359 -1.3708  2.0138 -0.5337
 2334SOL    HW218465   3.883   1.997   8.280  1.9018 -0.7697  0.1706
 2335SOL     OW18466   2.644   2.905   2.575  0.0538 -0.1801  0.4156
 2335SOL    HW118467   2.709   2.840   2.599 -0.0614 -0.2973  0.4123
 2335SOL    HW218468   2.602   2.862   2.501 -1.1037 -0.5565  1.2791
 2336SOL     OW18469   1.547   2.094   7.401 -0.2538  0.5342  0.1414
 2336SOL    HW118470   1.574   2.005   7.422 -2.3060 -0.2278 -0.4457
 2336SOL    HW218471   1.465   2.086   7.450 -1.6265 -1.9026 -2.5414
 2337SOL     OW18472   1.009   3.878   2.502 -0.2017 -0.4028 -0.2807
 2337SOL    HW118473   1.091   3.910   2.465 -0.7644  1.9708  0.5508
 2337SOL    HW218474   0.997   3.797   2.451 -1.4545  0.0898 -0.7893
 2338SOL     OW18475   2.634   1.595  15.588 -0.4657 -0.2664 -0.1365
 2338SOL    HW118476   2.665   1.524  15.532 -1.4182 -0.6166 -0.2203
 2338SOL    HW218477   2.584   1.544  15.652 -1.3462 -0.5641 -1.0772
 2339SOL     OW18478   0.708   1.951  13.784  0.0306 -0.2311  0.4762
 2339SOL    HW118479   0.656   2.006  13.842 -2.1104 -1.9234  0.1463
 2339SOL    HW218480   0.673   1.862  13.789 -1.8092  0.4008 -1.2594
 2340SOL     OW18481   3.982   0.335  17.148  0.3318  0.0101 -0.1016
 2340SOL    HW118482   4.052   0.274  17.175 -0.0728 -0.9100 -1.1440
 2340SOL    HW218483   4.007   0.358  17.059  2.5038 -0.5363  0.3692
 2341SOL     OW18484   4.508   1.022   4.960  0.2658 -0.1613  0.0884
 2341SOL    HW118485   4.470   1.090   4.905 -0.9623  0.0236  1.1729
 2341SOL    HW218486   4.432   0.966   4.978 -0.7830  1.3763  0.4058
 2342SOL     OW18487   1.525   0.726   9.846  0.0006 -0.2467 -0.5067
 2342SOL    HW118488   1.453   0.667   9.823 -1.9427  1.7179  0.5519
 2342SOL    HW218489   1.586   0.675   9.899  0.6995 -0.1806 -1.2514
 2343SOL     OW18490   3.643   4.051   5.800  0.1669 -0.2960  0.4360
 2343SOL    HW118491   3.578   4.116   5.772 -0.3772 -0.3520  1.5471
 2343SOL    HW218492   3.594   3.993   5.858 -1.1115  0.2406 -0.1065
 2344SOL     OW18493   1.552   3.668  16.452 -0.0353 -0.6037  0.0485
 2344SOL    HW118494   1.580   3.760  16.456  0.4876 -0.7292 -0.7322
 2344SOL    HW218495   1.635   3.642  16.494 -0.2357  0.2624  0.9793
 2345SOL     OW18496   4.166   4.626  15.401  0.0257 -0.8105  0.4313
 2345SOL    HW118497   4.220   4.645  15.478 -1.1997 -0.3123  1.1556
 2345SOL    HW218498   4.123   4.543  15.422  0.7845 -0.8952  1.6545
 2346SOL     OW18499   1.456   0.134   8.559  0.4047  0.5401  0.1364
 2346SOL    HW118500   1.472   0.151   8.652  0.5098  0.0068  0.2143
 2346SOL    HW218501   1.543   0.105   8.534  0.1702  3.0059 -3.5204
 2347SOL     OW18502   2.377   0.782   3.975  0.5711  0.1905 -0.0583
 2347SOL    HW118503   2.426   0.747   3.901  1.2825  1.5292 -0.2290
 2347SOL    HW218504   2.449   0.764   4.035 -1.8725 -0.4265  2.7180
 2348SOL     OW18505   2.262   3.817   4.676  0.2262  0.3833  0.3922
 2348SOL    HW118506   2.234   3.909   4.675 -1.8248 -0.2601  0.0349
 2348SOL    HW218507   2.186   3.759   4.669  1.5451 -1.6493  2.6926
 2349SOL     OW18508   4.693   3.613   1.545 -0.4177 -0.5047  0.2041
 2349SOL    HW118509   0.036   3.588   1.480  0.9350  2.2978  0.5289
 2349SOL    HW218510   4.612   3.606   1.495  0.0185  1.7499 -0.7890
 2350SOL     OW18511   4.145   1.108  12.806 -0.3158 -0.3291 -0.3896
 2350SOL    HW118512   4.111   1.194  12.783 -0.8257 -0.1059  1.2125
 2350SOL    HW218513   4.223   1.090  12.753 -1.2032 -3.4749 -0.6619
 2351SOL     OW18514   3.736   2.417   4.487 -0.7552 -0.7930 -0.4213
 2351SOL    HW118515   3.689   2.486   4.439  1.8939 -0.9552 -3.2306
 2351SOL    HW218516   3.703   2.342   4.438 -2.4342 -0.0160 -0.4893
 2352SOL     OW18517   1.762   4.132   4.944 -0.3606 -0.0830  0.4371
 2352SOL    HW118518   1.852   4.106   4.959 -0.6511 -1.6810 -0.6039
 2352SOL    HW218519   1.761   4.226   4.960  0.1712  0.0743 -0.4391
 2353SOL     OW18520   3.671   0.865   6.805  0.1773 -0.1794  0.1371
 2353SOL    HW118521   3.600   0.812   6.842  0.9378 -0.5952  1.0241
 2353SOL    HW218522   3.681   0.922   6.881 -2.3443 -0.4240  0.6791
 2354SOL     OW18523   3.931   2.208   9.226 -0.0143 -0.3207  0.7888
 2354SOL    HW118524   3.860   2.254   9.181  0.0640 -2.0782 -1.1520
 2354SOL    HW218525   3.998   2.273   9.248  0.7447 -0.9412  0.3367
 2355SOL     OW18526   3.836   1.821   1.136  0.9037 -0.2162 -0.4535
 2355SOL    HW118527   3.884   1.752   1.181 -2.2258 -1.2227  1.3024
 2355SOL    HW218528   3.898   1.893   1.142 -0.5084  0.5197  4.6796
 2356SOL     OW18529   3.432   2.504   9.174 -0.0723 -0.3618  0.1483
 2356SOL    HW118530   3.429   2.583   9.227  2.3677  1.4442 -2.4066
 2356SOL    HW218531   3.410   2.528   9.084 -0.9200  0.7643  0.6716
 2357SOL     OW18532   0.102   1.687   5.064 -0.4713  0.0550 -0.3362
 2357SOL    HW118533   0.110   1.640   5.148  1.9658 -1.4234 -1.3965
 2357SOL    HW218534   0.112   1.612   5.006  2.2165  1.2682 -1.4579
 2358SOL     OW18535   2.428   0.582   2.788 -0.3279 -0.4574 -0.6814
 2358SOL    HW118536   2.507   0.527   2.787  1.6303  2.3139 -0.6179
 2358SOL    HW218537   2.422   0.610   2.696  2.8738 -0.2639 -0.8488
 2359SOL     OW18538   2.465   0.968  10.284 -0.9875  0.2654  0.4978
 2359SOL    HW118539   2.407   1.042  10.267 -3.7103 -1.9692 -0.0824
 2359SOL    HW218540   2.498   0.945  10.197 -0.3070  1.1543  0.5181
 2360SOL     OW18541   3.290   0.289   4.225 -0.0105  0.2893  0.2263
 2360SOL    HW118542   3.237   0.283   4.304 -0.5624  0.7349 -0.1129
 2360SOL    HW218543   3.255   0.209   4.186  0.5629  0.8205 -1.4037
 2361SOL     OW18544   3.565   4.224   9.806  0.2293 -0.3397 -0.1634
 2361SOL    HW118545   3.520   4.156   9.856 -0.5558  0.1284 -0.2242
 2361SOL    HW218546   3.523   4.300   9.846  0.4681 -1.5821  2.4428
 2362SOL     OW18547   2.787   0.270  11.542  0.0204 -0.1788 -0.3066
 2362SOL    HW118548   2.806   0.363  11.537 -1.2620  0.0786 -0.5065
 2362SOL    HW218549   2.699   0.280  11.504 -0.3944  1.4357  1.1152
 2363SOL     OW18550   3.229   2.822  16.731 -0.5492  0.2237  0.1759
 2363SOL    HW118551   3.137   2.835  16.706  0.1892  1.1547 -2.0227
 2363SOL    HW218552   3.272   2.794  16.651 -0.7553  0.2197  0.0671
 2364SOL     OW18553   4.059   0.386   6.530  0.3324 -0.2449  0.2435
 2364SOL    HW118554   4.063   0.304   6.481 -0.8139  0.1664 -0.5385
 2364SOL    HW218555   3.966   0.401   6.513  0.2676 -1.0202 -0.1338
 2365SOL     OW18556   0.526   3.055   8.448 -0.5803 -0.3134 -0.2752
 2365SOL    HW118557   0.493   3.139   8.481  0.4743 -0.6031  1.5067
 2365SOL    HW218558   0.504   2.995   8.520  2.1915 -1.5247 -0.4592
 2366SOL     OW18559   1.942   2.330   7.428  0.6596  0.0961 -0.0420
 2366SOL    HW118560   1.999   2.405   7.417  1.9039 -0.9335 -0.5739
 2366SOL    HW218561   1.960   2.313   7.521 -1.3934 -0.7427  0.2059
 2367SOL     OW18562   1.875   2.640   2.326  0.0095 -0.1437 -0.3534
 2367SOL    HW118563   1.822   2.570   2.289 -1.1500  0.6417 -0.1906
 2367SOL    HW218564   1.961   2.614   2.294  1.5855  2.3534  1.8551
 2368SOL     OW18565   4.426   1.379  12.662  0.1003  0.5534  0.7138
 2368SOL    HW118566   4.487   1.445  12.694 -0.9199  1.4382  0.8274
 2368SOL    HW218567   4.347   1.432  12.652  1.2310  1.9458 -0.7462
 2369SOL     OW18568   2.594   4.357   7.185 -1.0597 -0.1252  0.3147
 2369SOL    HW118569   2.515   4.407   7.206 -1.2393 -0.3178  0.1022
 2369SOL    HW218570   2.590   4.364   7.090 -1.3481 -0.2113  0.3198
 2370SOL     OW18571   2.696   3.478  16.848 -0.0501 -0.3683 -0.6259
 2370SOL    HW118572   2.659   3.544  16.908 -0.0184  0.0340 -1.0546
 2370SOL    HW218573   2.625   3.445  16.794 -1.5948  2.2852 -0.2009
 2371SOL     OW18574   2.715   3.260   7.099  0.1902 -0.3879 -0.4500
 2371SOL    HW118575   2.700   3.354   7.093 -0.0950 -0.5280 -1.9055
 2371SOL    HW218576   2.652   3.237   7.168  1.2430  0.2778  0.7381
 2372SOL     OW18577   2.286   2.643   5.412  0.3634 -0.2479 -0.5824
 2372SOL    HW118578   2.327   2.728   5.395  0.3394 -0.0207  0.5391
 2372SOL    HW218579   2.359   2.588   5.441  1.1215  0.7587 -0.6058
 2373SOL     OW18580   4.018   3.933   1.007 -0.9754  0.1706  0.2400
 2373SOL    HW118581   3.996   4.026   1.003  1.1748  0.7118  1.3728
 2373SOL    HW218582   4.069   3.928   0.926 -2.8991 -1.5619 -0.8708
 2374SOL     OW18583   1.740   2.790   7.013 -0.0734 -0.0986 -0.2744
 2374SOL    HW118584   1.693   2.850   7.072 -1.6983  0.8103 -2.4787
 2374SOL    HW218585   1.673   2.731   6.979 -1.4366  0.4533  1.4270
 2375SOL     OW18586   0.502   3.369   0.809 -0.2912  0.2688 -0.1159
 2375SOL    HW118587   0.535   3.279   0.800 -2.6506 -0.8520  2.3395
 2375SOL    HW218588   0.417   3.364   0.766  0.2251  1.1594 -1.2294
 2376SOL     OW18589   2.436   1.547   2.733  0.1017  0.1836 -0.2820
 2376SOL    HW118590   2.488   1.467   2.726  1.0599  0.8037 -0.2823
 2376SOL    HW218591   2.498   1.616   2.758  0.7388  0.2457 -2.0289
 2377SOL     OW18592   0.193   3.270  16.672 -0.0693 -0.4797  0.5319
 2377SOL    HW118593   0.144   3.352  16.679 -0.1590 -0.4176 -0.9320
 2377SOL    HW218594   0.219   3.263  16.764  1.2799 -0.9442  0.1138
 2378SOL     OW18595   4.160   3.196   8.553  0.2877  0.1564  0.7359
 2378SOL    HW118596   4.066   3.177   8.552  0.0777  1.2246  0.6020
 2378SOL    HW218597   4.162   3.281   8.597  0.6643  0.6237 -0.2077
 2379SOL     OW18598   1.331   1.490   1.990  0.1755  0.3541  0.0768
 2379SOL    HW118599   1.257   1.544   1.962 -0.8830 -0.7238  0.8462
 2379SOL    HW218600   1.393   1.535   1.932 -2.0217  3.9845  0.5320
 2380SOL     OW18601   4.086   4.256   3.014  0.2609 -0.2748 -0.0595
 2380SOL    HW118602   4.026   4.227   2.945 -0.3295  1.0837 -0.1086
 2380SOL    HW218603   4.025   4.293   3.077  0.6271 -0.7173  0.5585
 2381SOL     OW18604   4.222   1.953  17.020 -0.0388 -0.6701 -0.0936
 2381SOL    HW118605   4.290   1.943  16.954 -0.0874  0.5845 -0.3358
 2381SOL    HW218606   4.221   1.871  17.070 -2.7967 -0.9039 -0.5203
 2382SOL     OW18607   2.929   1.630  15.113 -0.0950  0.6402 -0.0143
 2382SOL    HW118608   3.014   1.594  15.087 -0.6989 -1.1626  0.4479
 2382SOL    HW218609   2.883   1.551  15.142 -0.5533  0.7598 -0.4010
 2383SOL     OW18610   3.970   4.006   1.367  0.4777 -0.0796  0.0652
 2383SOL    HW118611   3.985   4.085   1.315 -1.6816  0.9109  0.9482
 2383SOL    HW218612   3.882   4.012   1.404 -0.1139  1.2585 -1.5550
 2384SOL     OW18613   3.495   2.181   2.829 -0.2350  0.8262 -0.1839
 2384SOL    HW118614   3.525   2.261   2.871  0.6941 -0.1115  0.9211
 2384SOL    HW218615   3.422   2.152   2.884 -0.0335  2.1572  0.7793
 2385SOL     OW18616   3.779   3.491   8.878  0.4704 -0.3250  0.3677
 2385SOL    HW118617   3.698   3.462   8.921 -0.9351  2.2495 -0.5565
 2385SOL    HW218618   3.826   3.474   8.960 -1.8934 -1.5268  1.4580
 2386SOL     OW18619   1.489   2.195  10.672 -0.4646 -0.0497  0.0443
 2386SOL    HW118620   1.402   2.228  10.648 -0.2299 -0.5923 -1.5392
 2386SOL    HW218621   1.479   2.156  10.759 -0.6226  0.6306  0.3296
 2387SOL     OW18622   0.821   0.776   7.713  0.1743 -1.1876  0.5451
 2387SOL    HW118623   0.747   0.835   7.725 -0.7353 -2.2345  0.0995
 2387SOL    HW218624   0.902   0.826   7.726  0.1188 -0.5187 -1.6997
 2388SOL     OW18625   2.794   3.644   7.866  0.4943  0.0980 -0.3431
 2388SOL    HW118626   2.806   3.699   7.943 -1.6104  0.6019 -0.3733
 2388SOL    HW218627   2.803   3.717   7.805  1.2242 -1.0934 -1.6558
 2389SOL     OW18628   3.901   3.464   9.154  0.1026 -0.1711 -0.7785
 2389SOL    HW118629   3.819   3.512   9.169 -0.0454 -0.2036 -1.4931
 2389SOL    HW218630   3.931   3.435   9.240 -2.0083  0.5140  0.2022
 2390SOL     OW18631   3.493   1.137   5.994 -0.0881  0.1100 -0.6374
 2390SOL    HW118632   3.470   1.196   6.066 -1.5916 -0.1415 -0.9103
 2390SOL    HW218633   3.417   1.079   5.993 -1.8393  2.4333 -0.6714
 2391SOL     OW18634   4.285   0.050   5.112 -0.4616 -0.4312  0.2979
 2391SOL    HW118635   4.356   0.113   5.097 -3.9030  2.8488 -2.4528
 2391SOL    HW218636   4.225   0.088   5.047 -0.8673 -1.2086  0.2139
 2392SOL     OW18637   3.818   2.078   1.388  0.1737 -0.1015 -0.2364
 2392SOL    HW118638   3.743   2.089   1.447 -0.6492  0.0289 -1.3110
 2392SOL    HW218639   3.785   2.114   1.306 -0.1827 -0.2261 -0.1499
 2393SOL     OW18640   3.039   2.643   9.336 -0.4562 -0.1602 -0.2412
 2393SOL    HW118641   3.024   2.558   9.295 -4.8731  0.4037  0.2160
 2393SOL    HW218642   2.960   2.673   9.381  0.6143  0.8910  0.9628
 2394SOL     OW18643   2.780   1.492  16.455 -0.4604  0.5499  0.0212
 2394SOL    HW118644   2.743   1.562  16.509  1.1391  0.8390  0.7323
 2394SOL    HW218645   2.736   1.415  16.491 -0.3984  0.9691  1.0038
 2395SOL     OW18646   4.426   2.211   8.382 -0.3783  0.0455 -0.1156
 2395SOL    HW118647   4.363   2.143   8.406 -1.5082  1.9215  2.2415
 2395SOL    HW218648   4.408   2.280   8.446  1.2420  0.4828 -0.1206
 2396SOL     OW18649   2.666   0.497   7.239 -0.1499 -0.6716  0.0107
 2396SOL    HW118650   2.757   0.477   7.217 -0.1974 -0.2607 -0.5819
 2396SOL    HW218651   2.655   0.446   7.318 -2.3598  2.5828  1.8005
 2397SOL     OW18652   0.768   1.756   8.263  0.1360 -0.4675 -0.1349
 2397SOL    HW118653   0.863   1.759   8.251  0.0909 -1.0477 -0.6335
 2397SOL    HW218654   0.756   1.678   8.318 -0.6670  1.7534  2.8767
 2398SOL     OW18655   0.459   2.396   0.148  0.4593  0.4488  0.0739
 2398SOL    HW118656   0.375   2.367   0.183 -0.2829  0.1862 -1.9644
 2398SOL    HW218657   0.434   2.462   0.084 -2.4438 -1.6524 -0.9519
 2399SOL     OW18658   2.832   3.461  14.556  0.0043  0.1216 -0.6864
 2399SOL    HW118659   2.900   3.413  14.508 -1.9967 -1.6979 -1.7063
 2399SOL    HW218660   2.796   3.524  14.494  2.5269  1.7272 -0.5575
 2400SOL     OW18661   1.910   0.143   8.047 -0.6507 -0.1180  0.5746
 2400SOL    HW118662   1.905   0.239   8.040  1.1710 -0.0373  0.1483
 2400SOL    HW218663   1.936   0.134   8.139  2.6094 -0.8210 -0.4066
 2401SOL     OW18664   1.523   1.541  15.117  0.4101 -0.0424 -0.8168
 2401SOL    HW118665   1.531   1.607  15.186 -1.8393 -0.3226 -0.2830
 2401SOL    HW218666   1.431   1.557  15.094  0.7383  1.6655 -0.9722
 2402SOL     OW18667   3.682   1.020  10.156 -0.0211 -0.0242  0.2519
 2402SOL    HW118668   3.744   0.950  10.177 -0.0002 -0.1285 -0.1558
 2402SOL    HW218669   3.742   1.092  10.175  2.9310 -2.9167  1.8285
 2403SOL     OW18670   0.604   1.200  15.153 -0.2337 -0.0766  0.3136
 2403SOL    HW118671   0.513   1.229  15.163 -0.7483 -1.4187 -0.4912
 2403SOL    HW218672   0.637   1.224  15.240 -0.4065  0.3237  0.2702
 2404SOL     OW18673   1.693   2.398   9.641  0.0346 -0.0163 -0.8838
 2404SOL    HW118674   1.705   2.339   9.567  0.7163  0.8028 -1.4193
 2404SOL    HW218675   1.634   2.350   9.700 -1.9638 -0.0265 -2.8806
 2405SOL     OW18676   0.839   0.869   2.306  0.3163 -0.3057  0.2697
 2405SOL    HW118677   0.862   0.893   2.216  0.3909  2.0979  0.9135
 2405SOL    HW218678   0.749   0.840   2.295  0.5844 -0.4684 -1.5153
 2406SOL     OW18679   4.719   0.226   5.780 -0.5884 -0.1675 -0.0252
 2406SOL    HW118680   4.705   0.142   5.824 -1.4063  0.8370  1.6387
 2406SOL    HW218681   4.654   0.279   5.826  0.7950  0.5238  1.1350
 2407SOL     OW18682   4.623   4.301  14.843  0.1040  0.0905  0.7779
 2407SOL    HW118683   4.642   4.242  14.916 -1.3662 -1.0450  0.2307
 2407SOL    HW218684   4.548   4.263  14.797  0.5625 -0.0777  0.1735
 2408SOL     OW18685   0.553   0.341   8.667 -0.0517  0.0182 -0.0011
 2408SOL    HW118686   0.625   0.311   8.612  0.5821  0.4108  0.6047
 2408SOL    HW218687   0.587   0.426   8.695 -1.3419  1.2489 -2.2639
 2409SOL     OW18688   3.280   1.828   2.001 -0.4466 -0.3111 -0.0486
 2409SOL    HW118689   3.365   1.835   2.046  0.6209  1.7030 -2.3717
 2409SOL    HW218690   3.252   1.915   2.028  0.3870  0.5052 -1.7906
 2410SOL     OW18691   1.882   3.508  15.405  0.0884 -0.1686  0.2042
 2410SOL    HW118692   1.858   3.516  15.498  1.3250  0.0366  0.4983
 2410SOL    HW218693   1.865   3.595  15.369  0.5572  0.6195  1.8483
 2411SOL     OW18694   0.824   1.822   2.918 -0.1919 -0.0402  0.0838
 2411SOL    HW118695   0.743   1.869   2.939 -1.2578 -1.1954 -1.3974
 2411SOL    HW218696   0.862   1.838   3.004 -1.0292  0.0868  0.4357
 2412SOL     OW18697   0.899   1.147  12.872  0.1993 -0.1639  0.0378
 2412SOL    HW118698   0.816   1.099  12.876  0.0694 -0.0206 -1.0241
 2412SOL    HW218699   0.867   1.237  12.870 -1.2507 -0.7125 -1.9177
 2413SOL     OW18700   1.015   2.568   8.440 -0.0023  0.2679  0.4800
 2413SOL    HW118701   0.962   2.643   8.467  0.0456  0.2877  0.5199
 2413SOL    HW218702   0.993   2.509   8.512  1.2831 -3.0688 -1.8751
 2414SOL     OW18703   4.059   1.587   5.529 -0.1435 -0.5173  0.2203
 2414SOL    HW118704   4.042   1.534   5.451 -2.1509 -0.7560  0.8160
 2414SOL    HW218705   4.154   1.579   5.536  0.2671  2.0881 -2.3187
 2415SOL     OW18706   2.747   0.460   5.201 -0.1519 -0.3221  0.4137
 2415SOL    HW118707   2.659   0.424   5.190 -0.2109 -0.4995  1.4674
 2415SOL    HW218708   2.787   0.393   5.257 -2.3350 -1.8186  0.2057
 2416SOL     OW18709   0.579   4.592   4.958 -0.3835 -0.0323 -0.3030
 2416SOL    HW118710   0.589   4.633   5.044  0.8347  0.9501 -0.9017
 2416SOL    HW218711   0.617   4.656   4.898  0.5471  0.6398  1.0107
 2417SOL     OW18712   4.342   0.308   3.542 -0.0103  0.3801  0.4406
 2417SOL    HW118713   4.376   0.218   3.546  1.1097  0.7613 -0.2943
 2417SOL    HW218714   4.286   0.317   3.619 -1.3527  2.0163 -0.7276
 2418SOL     OW18715   2.419   1.307   9.222  0.2758  0.3731  0.4878
 2418SOL    HW118716   2.458   1.384   9.263  3.8713 -1.1212 -0.0928
 2418SOL    HW218717   2.484   1.244   9.252  1.0069  1.6975  1.6934
 2419SOL     OW18718   1.371   3.678   0.539  0.0109  0.8811  0.7808
 2419SOL    HW118719   1.282   3.704   0.565 -0.5988  0.5920 -1.0463
 2419SOL    HW218720   1.401   3.624   0.612  1.2431  1.2755  0.5614
 2420SOL     OW18721   4.301   1.744  13.121 -0.4216  0.0859  0.6332
 2420SOL    HW118722   4.245   1.687  13.068  0.4025  0.8639 -1.0721
 2420SOL    HW218723   4.332   1.801  13.051  0.8780 -1.5062 -0.0767
 2421SOL     OW18724   3.869   2.369   7.409  0.0626 -0.2411  0.2028
 2421SOL    HW118725   3.818   2.446   7.432  0.9818  0.7422 -1.0214
 2421SOL    HW218726   3.914   2.342   7.489 -0.4112 -1.4834  0.0513
 2422SOL     OW18727   0.760   1.710   9.990 -0.0542  0.6291  0.2391
 2422SOL    HW118728   0.671   1.700  10.026  0.2014  0.6833  0.8979
 2422SOL    HW218729   0.817   1.700  10.067  0.6865  0.8056 -0.2958
 2423SOL     OW18730   0.822   4.156  13.762 -0.4919  0.0925  0.1848
 2423SOL    HW118731   0.908   4.167  13.803  0.1605  1.0149 -1.4349
 2423SOL    HW218732   0.821   4.063  13.743  1.7856  0.2300 -0.5015
 2424SOL     OW18733   3.173   0.993  10.595  0.2519 -0.1343  0.3345
 2424SOL    HW118734   3.109   0.937  10.637 -0.3878  0.6346  0.3829
 2424SOL    HW218735   3.179   1.058  10.664 -0.2770  0.6608 -0.3669
 2425SOL     OW18736   2.160   3.906   7.961 -0.7825  0.0229  0.1521
 2425SOL    HW118737   2.128   3.830   8.008 -0.8950  0.5106  0.8672
 2425SOL    HW218738   2.085   3.965   7.955 -0.0313  1.0177  0.3881
 2426SOL     OW18739   1.842   2.623   7.331  0.1102  0.4902  0.2003
 2426SOL    HW118740   1.931   2.605   7.361 -0.0298  0.4294  0.5814
 2426SOL    HW218741   1.803   2.646   7.415  2.0991  0.8819  1.0316
 2427SOL     OW18742   2.206   3.762   4.299  0.0109  0.1063 -0.4390
 2427SOL    HW118743   2.249   3.720   4.224  0.7304 -0.7903  0.4677
 2427SOL    HW218744   2.145   3.693   4.323 -0.1416  0.8364  1.2686
 2428SOL     OW18745   4.424   4.572   6.628  0.4335 -0.4201 -0.3509
 2428SOL    HW118746   4.456   4.655   6.663 -2.0163  0.5029 -0.3593
 2428SOL    HW218747   4.447   4.512   6.699  2.7903 -0.8760 -1.5021
 2429SOL     OW18748   3.896   1.005  11.440  0.3897  0.1342  0.2096
 2429SOL    HW118749   3.876   1.024  11.532 -0.3325 -1.0610  0.2987
 2429SOL    HW218750   3.805   0.988  11.417  0.8087 -1.4151 -0.3301
 2430SOL     OW18751   0.774   4.478   2.976 -0.4403  0.2078  0.3935
 2430SOL    HW118752   0.752   4.550   3.035  0.2195  1.9186 -1.4485
 2430SOL    HW218753   0.808   4.522   2.898  1.6368 -0.4051  0.9516
 2431SOL     OW18754   3.420   1.600   5.495 -0.1870  0.0068  0.3457
 2431SOL    HW118755   3.511   1.581   5.514 -0.3933 -1.3576 -0.0593
 2431SOL    HW218756   3.420   1.679   5.441  0.1746 -0.0364  0.2878
 2432SOL     OW18757   2.091   3.067   5.245  0.1891 -0.2242 -0.9561
 2432SOL    HW118758   2.032   3.089   5.317 -0.8510 -0.8579 -1.5991
 2432SOL    HW218759   2.040   2.994   5.208 -2.7724  0.4024  1.9070
 2433SOL     OW18760   0.925   3.925   6.118  0.1646 -0.4837  0.0908
 2433SOL    HW118761   1.000   3.876   6.084  0.1814 -0.9886  0.8570
 2433SOL    HW218762   0.951   4.006   6.074 -0.5313 -1.0202 -1.3096
 2434SOL     OW18763   0.253   0.279   2.419  0.3235  0.2612  0.1504
 2434SOL    HW118764   0.208   0.209   2.372  1.2525 -0.6364  0.5757
 2434SOL    HW218765   0.336   0.245   2.453  0.2963 -0.1346 -0.1753
 2435SOL     OW18766   2.022   3.946  10.222  0.4758 -0.2819 -0.2845
 2435SOL    HW118767   2.105   3.957  10.269 -0.0816  0.4346  0.5399
 2435SOL    HW218768   1.987   4.035  10.219 -0.8219 -0.7751  0.1911
 2436SOL     OW18769   3.211   2.169   4.537  0.4390 -0.0059  0.4447
 2436SOL    HW118770   3.123   2.203   4.554  0.7119  1.7016 -1.4519
 2436SOL    HW218771   3.220   2.124   4.621 -1.8396 -0.7032  0.3182
 2437SOL     OW18772   2.559   3.947   2.468 -0.2338  0.4981 -0.1973
 2437SOL    HW118773   2.573   4.041   2.457  1.0323  0.0277 -2.4187
 2437SOL    HW218774   2.593   3.919   2.384 -2.0877 -0.5604 -0.6045
 2438SOL     OW18775   1.926   3.070   8.262  0.3675 -0.5065 -0.0246
 2438SOL    HW118776   1.890   3.159   8.266 -0.6563 -0.9586  0.8398
 2438SOL    HW218777   1.996   3.070   8.327  0.3394  0.5289  0.0148
 2439SOL     OW18778   2.295   1.458   9.918  0.2456 -0.1628  0.5005
 2439SOL    HW118779   2.304   1.546   9.954 -1.1534  0.0469  0.3406
 2439SOL    HW218780   2.291   1.399   9.994 -0.2888  0.3547  0.8783
 2440SOL     OW18781   3.689   0.281   3.989  0.0372 -0.4936 -0.6815
 2440SOL    HW118782   3.779   0.300   4.017 -0.7283  2.8847 -0.5621
 2440SOL    HW218783   3.633   0.307   4.063  2.3707 -1.9090  1.5969
 2441SOL     OW18784   1.289   1.722   6.087 -0.4691  0.1613  0.3756
 2441SOL    HW118785   1.272   1.693   5.997  0.9703 -0.2582  0.2351
 2441SOL    HW218786   1.225   1.673   6.138  0.5131 -1.5784 -0.0592
 2442SOL     OW18787   3.748   2.044  14.698  0.3613 -0.5590  0.3481
 2442SOL    HW118788   3.734   2.007  14.611  2.6543  0.7603 -0.5871
 2442SOL    HW218789   3.753   1.964  14.751 -0.1810 -1.2720 -0.6759
 2443SOL     OW18790   1.363   4.190   5.143  0.2601 -0.5913 -0.2633
 2443SOL    HW118791   1.452   4.155   5.145 -0.7041 -3.1070 -1.8046
 2443SOL    HW218792   1.350   4.199   5.049 -0.3015 -0.4652 -0.1734
 2444SOL     OW18793   2.001   0.010   3.850 -0.4409  0.2527 -0.2419
 2444SOL    HW118794   1.931   0.066   3.816  0.4208 -0.6181 -3.4393
 2444SOL    HW218795   2.028   4.681   3.775  1.5923  1.1057 -0.0967
 2445SOL     OW18796   2.002   2.339   6.740 -0.0031  0.5827 -0.4522
 2445SOL    HW118797   1.926   2.353   6.683 -0.8310  0.0030  0.4980
 2445SOL    HW218798   1.952   2.365   6.818  0.2798  1.5637 -0.5982
 2446SOL     OW18799   3.540   3.054   2.976  0.0822  0.1432 -0.0914
 2446SOL    HW118800   3.571   3.014   2.895 -2.0935 -1.3864 -0.1818
 2446SOL    HW218801   3.483   2.988   3.015  1.5268 -2.1157 -1.7835
 2447SOL     OW18802   4.622   4.706  16.429  0.0613  0.3136  0.2111
 2447SOL    HW118803   4.648   4.718  16.338  0.6007 -0.1251  0.3060
 2447SOL    HW218804   4.621   0.072  16.465  2.3183 -0.2752  1.7083
 2448SOL     OW18805   2.230   2.115  11.825  0.3757 -0.1767 -0.2252
 2448SOL    HW118806   2.277   2.045  11.780 -0.1716 -0.6681 -0.0294
 2448SOL    HW218807   2.193   2.148  11.743 -1.2765  0.0297  0.6126
 2449SOL     OW18808   0.205   4.721   3.547 -0.4646  0.3136  0.4576
 2449SOL    HW118809   0.192   0.069   3.484  0.9895  0.8305  0.7515
 2449SOL    HW218810   0.293   4.699   3.517 -0.0199  2.8651 -0.1010
 2450SOL     OW18811   2.964   3.455   6.047  0.0220  0.3747 -0.2016
 2450SOL    HW118812   2.915   3.476   6.127  2.4581 -1.2637  1.6911
 2450SOL    HW218813   2.887   3.421   6.001  0.1848  0.6325 -0.6691
 2451SOL     OW18814   2.870   0.136   3.361 -0.2950  1.2739 -0.6379
 2451SOL    HW118815   2.842   0.054   3.320 -0.4531  0.6687  0.6658
 2451SOL    HW218816   2.857   0.129   3.456  1.1910  1.1496 -0.4535
 2452SOL     OW18817   0.193   1.357   2.482 -0.4270  0.3194  0.3439
 2452SOL    HW118818   0.154   1.444   2.481  0.6224  0.8078  2.0397
 2452SOL    HW218819   0.284   1.376   2.462 -0.1882 -2.1261 -0.9560
 2453SOL     OW18820   4.040   0.702   4.446 -0.2544 -0.0270  0.1162
 2453SOL    HW118821   4.031   0.681   4.539  2.5139 -3.3321 -0.3588
 2453SOL    HW218822   3.952   0.678   4.417  1.4404 -3.5595 -2.1241
 2454SOL     OW18823   2.167   0.014   8.185 -0.1817 -0.0975  0.7784
 2454SOL    HW118824   2.162   4.702   8.274 -0.4265 -2.4103 -0.1427
 2454SOL    HW218825   2.157   4.658   8.131  0.3329 -1.3134  2.4724
 2455SOL     OW18826   4.270   0.448  17.421  0.0746 -0.1839  0.1234
 2455SOL    HW118827   4.184   0.442  17.380 -1.5510  1.9841  3.3233
 2455SOL    HW218828   4.247   0.424  17.510 -0.3613 -2.8793 -0.7044
 2456SOL     OW18829   1.516   2.804   7.437 -0.0094  0.0521 -0.6375
 2456SOL    HW118830   1.461   2.756   7.375 -1.9194 -1.7654  2.4330
 2456SOL    HW218831   1.568   2.735   7.478 -1.3411  0.7441  2.2805
 2457SOL     OW18832   1.940   2.040   3.802  0.2346 -0.0961  0.1153
 2457SOL    HW118833   2.020   2.002   3.838  1.1699 -0.0318 -1.9161
 2457SOL    HW218834   1.967   2.085   3.722 -0.0680  0.7817  0.5063
 2458SOL     OW18835   0.257   3.023   4.322  0.0635  0.3038  0.1126
 2458SOL    HW118836   0.292   3.104   4.358  0.8791  0.0353 -0.0818
 2458SOL    HW218837   0.266   2.968   4.400  0.9339  0.4603  0.1266
 2459SOL     OW18838   1.308   3.082   8.510  0.0205 -0.5683  0.3839
 2459SOL    HW118839   1.339   3.171   8.529  0.6748 -0.8258  0.5153
 2459SOL    HW218840   1.268   3.064   8.595  0.9522 -1.2938  0.6583
 2460SOL     OW18841   3.631   3.849   4.296 -0.2787  0.7967 -0.1622
 2460SOL    HW118842   3.575   3.874   4.223  1.3300  2.4541 -0.8490
 2460SOL    HW218843   3.643   3.758   4.270 -0.0404  0.4694  1.1244
 2461SOL     OW18844   2.761   4.210  11.438 -0.1185 -0.0950  0.5191
 2461SOL    HW118845   2.745   4.117  11.424  1.7866 -0.5118  1.0173
 2461SOL    HW218846   2.725   4.260  11.365 -0.8493 -0.1293  0.8533
 2462SOL     OW18847   2.047   1.981   3.404 -0.4000 -0.1120  0.4708
 2462SOL    HW118848   2.087   2.066   3.386  0.8502 -0.4247  1.8199
 2462SOL    HW218849   1.959   2.007   3.433 -0.0513  1.0558  0.4538
 2463SOL     OW18850   0.877   4.424  12.876  0.0153  0.3251 -0.1125
 2463SOL    HW118851   0.816   4.458  12.810 -1.9998 -0.1031  1.5220
 2463SOL    HW218852   0.957   4.467  12.848  1.5983 -2.0325  0.8736
 2464SOL     OW18853   0.809   3.830   7.305  0.2021  0.2270  0.4326
 2464SOL    HW118854   0.735   3.774   7.330 -0.9442 -0.7131 -5.0594
 2464SOL    HW218855   0.836   3.792   7.222  1.9855  0.4166  0.9288
 2465SOL     OW18856   2.746   0.815   8.931 -0.1398 -0.2177  0.0424
 2465SOL    HW118857   2.732   0.745   8.996  1.7949 -0.0971  0.5893
 2465SOL    HW218858   2.755   0.888   8.992 -1.0962  0.7805 -1.0257
 2466SOL     OW18859   3.902   1.288   3.888  0.2590  0.3996 -0.4701
 2466SOL    HW118860   3.826   1.322   3.841 -0.2204 -0.4567 -0.3223
 2466SOL    HW218861   3.854   1.252   3.963  2.7683  0.2997  1.0698
 2467SOL     OW18862   2.834   3.168   6.101 -0.0373 -0.1889  0.1096
 2467SOL    HW118863   2.883   3.214   6.169  0.5230  1.4560 -1.4079
 2467SOL    HW218864   2.901   3.108   6.068 -1.4431 -0.0474 -2.9925
 2468SOL     OW18865   4.443   3.101   5.607 -0.1636  0.0233 -0.6158
 2468SOL    HW118866   4.371   3.115   5.546  1.0713 -1.6787 -2.4784
 2468SOL    HW218867   4.422   3.016   5.647 -1.2093  0.6426  0.1406
 2469SOL     OW18868   3.264   1.663   4.178 -0.1810  0.0173 -0.0521
 2469SOL    HW118869   3.344   1.612   4.161  0.3478  1.2004 -1.1168
 2469SOL    HW218870   3.272   1.740   4.122  1.4021 -0.2498 -0.2085
 2470SOL     OW18871   1.402   0.691   4.441  0.1553  0.1591  0.0136
 2470SOL    HW118872   1.498   0.695   4.436  0.0515  1.2731 -1.2053
 2470SOL    HW218873   1.384   0.760   4.377 -0.0674 -0.9751 -1.1526
 2471SOL     OW18874   1.619   3.704   8.780  0.7354 -0.0123  0.5867
 2471SOL    HW118875   1.620   3.743   8.692 -1.1136 -1.0112  0.1109
 2471SOL    HW218876   1.598   3.617   8.743  1.3713  0.3813 -0.7243
 2472SOL     OW18877   0.409   2.908   3.593  0.0013 -0.6029  0.1664
 2472SOL    HW118878   0.339   2.852   3.559  0.2197  0.9293 -2.8076
 2472SOL    HW218879   0.389   2.899   3.686  2.5027  0.2270  0.7843
 2473SOL     OW18880   1.184   0.361   2.366  0.2925  0.0117 -0.5427
 2473SOL    HW118881   1.132   0.333   2.290 -0.0710  0.1927 -0.3586
 2473SOL    HW218882   1.190   0.456   2.356 -3.5665  0.1335 -1.9393
 2474SOL     OW18883   3.145   4.409   0.860  0.2753  0.2821 -0.2501
 2474SOL    HW118884   3.060   4.365   0.870 -0.3454  0.8242 -3.1132
 2474SOL    HW218885   3.179   4.401   0.949  2.8891 -0.5941 -1.3326
 2475SOL     OW18886   0.020   0.942   5.954 -0.1501  0.4027 -0.6948
 2475SOL    HW118887   0.114   0.962   5.947  0.0055 -0.6314 -1.6733
 2475SOL    HW218888   0.007   0.941   6.049  1.4566 -2.1859 -0.5032
 2476SOL     OW18889   1.739   0.910   4.933 -0.8354  0.1462 -0.3011
 2476SOL    HW118890   1.772   0.986   4.981  0.0323 -0.0409 -0.5823
 2476SOL    HW218891   1.790   0.924   4.852 -0.4738 -0.9031 -0.2554
 2477SOL     OW18892   3.536   2.911   8.592  0.0837  0.0186 -0.4428
 2477SOL    HW118893   3.591   2.833   8.584 -0.0743 -0.1522  0.1510
 2477SOL    HW218894   3.600   2.972   8.629  1.2879 -0.6472 -1.4323
 2478SOL     OW18895   3.490   1.969   3.270  0.6823 -0.0184 -0.5690
 2478SOL    HW118896   3.516   1.885   3.309  1.0283  0.3468 -0.0219
 2478SOL    HW218897   3.452   1.929   3.192 -1.9484  0.6381  0.3712
 2479SOL     OW18898   2.761   0.261  16.952  0.0454  0.2753 -0.2916
 2479SOL    HW118899   2.851   0.248  16.980  0.5687  1.3003 -1.5321
 2479SOL    HW218900   2.740   0.190  16.891  0.1278  1.5020 -1.7531
 2480SOL     OW18901   2.887   4.208   4.758  0.5027  0.1746  0.0288
 2480SOL    HW118902   2.861   4.215   4.850  0.4860 -0.6695  0.0915
 2480SOL    HW218903   2.847   4.128   4.723 -0.4452  0.4055  0.6028
 2481SOL     OW18904   1.489   0.283   4.049  0.7643  0.3353 -0.0320
 2481SOL    HW118905   1.538   0.334   4.114 -0.1365  0.5966  0.4369
 2481SOL    HW218906   1.401   0.285   4.086  1.6057 -0.1554  2.0378
 2482SOL     OW18907   3.674   3.195   3.151  0.0796  0.0454 -0.2540
 2482SOL    HW118908   3.594   3.237   3.182 -0.2566 -0.2075 -0.7943
 2482SOL    HW218909   3.633   3.136   3.088  0.9920 -1.0933  0.2206
 2483SOL     OW18910   3.067   0.818  10.791  0.0528 -0.4380  0.8314
 2483SOL    HW118911   3.137   0.753  10.786  0.2327 -0.0771 -0.9826
 2483SOL    HW218912   3.102   0.888  10.846  0.7850 -0.8310  0.8705
 2484SOL     OW18913   2.265   4.467   4.086  0.1552  0.1063  0.8569
 2484SOL    HW118914   2.259   4.376   4.114 -3.0856 -0.2581 -1.0752
 2484SOL    HW218915   2.339   4.461   4.025 -0.1283  0.9582  0.4314
 2485SOL     OW18916   0.982   0.995   6.025 -0.5770  0.1618 -0.7761
 2485SOL    HW118917   1.000   1.019   6.116 -1.6129  1.6890 -0.9786
 2485SOL    HW218918   0.960   1.076   5.980 -0.8636  0.5353  0.0336
 2486SOL     OW18919   1.192   1.787   2.185  0.1158  0.1944 -0.0547
 2486SOL    HW118920   1.122   1.848   2.208  0.5980 -0.1818  2.4093
 2486SOL    HW218921   1.182   1.764   2.092 -1.3907  1.2744 -0.1552
 2487SOL     OW18922   0.146   4.431   3.245  0.3077 -0.2569  0.4734
 2487SOL    HW118923   0.241   4.445   3.239  0.2050  0.7083  1.1935
 2487SOL    HW218924   0.132   4.341   3.215  1.0954 -0.5363  0.9519
 2488SOL     OW18925   2.479   2.625   7.897  0.0949 -0.1999 -0.3388
 2488SOL    HW118926   2.551   2.568   7.871  0.0957  0.2555 -1.3178
 2488SOL    HW218927   2.515   2.711   7.875  1.1445 -0.2573  1.1739
 2489SOL     OW18928   1.334   2.409   0.815 -0.0797  0.6547 -0.7020
 2489SOL    HW118929   1.415   2.375   0.853  0.1329  1.6647 -0.2555
 2489SOL    HW218930   1.354   2.502   0.822  0.5300  0.5931 -1.5918
 2490SOL     OW18931   4.657   3.219  10.565  0.4115  0.3681  0.1662
 2490SOL    HW118932   4.617   3.155  10.505  0.5909  0.9555 -0.5834
 2490SOL    HW218933   4.722   3.163  10.608 -0.4127 -1.6871 -1.2605
 2491SOL     OW18934   0.664   3.169   2.243 -0.8690  0.8094 -0.3870
 2491SOL    HW118935   0.752   3.205   2.246  0.4850 -2.2632 -2.6628
 2491SOL    HW218936   0.641   3.166   2.150 -2.4872 -0.4081  0.0541
 2492SOL     OW18937   3.071   2.311  10.010  0.6257 -0.0872 -0.3830
 2492SOL    HW118938   3.092   2.304  10.103  0.1730  0.4807 -0.2401
 2492SOL    HW218939   3.060   2.217   9.995  0.2199  0.0014 -0.6570
 2493SOL     OW18940   2.739   4.247   5.018 -0.3774 -1.0033 -0.3804
 2493SOL    HW118941   2.707   4.195   4.944 -3.8925 -2.0192  1.8877
 2493SOL    HW218942   2.679   4.322   5.017  1.7513  0.7404  0.7089
 2494SOL     OW18943   4.298   0.321   2.499  0.3229 -0.1728  0.5230
 2494SOL    HW118944   4.302   0.329   2.404  1.7584  1.0989  0.7028
 2494SOL    HW218945   4.311   0.226   2.509 -1.6773 -0.3282  1.7070
 2495SOL     OW18946   3.930   2.641   5.878  0.5647 -0.0382 -0.6608
 2495SOL    HW118947   3.874   2.613   5.805 -1.2533  3.9758 -0.8150
 2495SOL    HW218948   3.975   2.711   5.831 -0.6216  2.5698  2.0552
 2496SOL     OW18949   2.052   1.650   5.326 -0.0902 -0.3298  0.1912
 2496SOL    HW118950   2.071   1.640   5.233 -0.6067  2.6529 -0.2068
 2496SOL    HW218951   1.980   1.713   5.326  0.4251  0.2582 -1.0746
 2497SOL     OW18952   4.556   1.272  17.394  0.2928  0.2985 -0.0602
 2497SOL    HW118953   4.544   1.367  17.393  1.7978  0.4816  0.1000
 2497SOL    HW218954   4.612   1.258  17.470  1.8137  0.4797 -1.1450
 2498SOL     OW18955   2.002   0.943   8.710 -0.4371 -0.3036 -0.4915
 2498SOL    HW118956   2.075   0.994   8.746 -0.9367 -1.0329  1.5870
 2498SOL    HW218957   1.938   0.976   8.773 -0.4061 -1.7207  0.2886
 2499SOL     OW18958   4.340   3.412   1.453  0.1161  0.0978 -0.1384
 2499SOL    HW118959   4.351   3.498   1.495  0.7626 -0.9605  1.8355
 2499SOL    HW218960   4.389   3.425   1.372  0.0272  0.6696 -0.1028
 2500SOL     OW18961   0.995   3.513   9.963  0.4488  0.5880 -0.0632
 2500SOL    HW118962   1.090   3.515   9.953  0.4178 -0.4232 -0.5867
 2500SOL    HW218963   0.972   3.455   9.891  0.2361  2.0353 -1.1469
 2501SOL     OW18964   0.824   4.019   8.136 -0.0630 -0.4539 -0.2301
 2501SOL    HW118965   0.734   4.001   8.113 -0.5758  1.1515  0.4853
 2501SOL    HW218966   0.812   4.038   8.229 -0.6851  1.6452 -0.7425
 2502SOL     OW18967   0.584   1.719   7.727  0.4488  0.0581  0.1947
 2502SOL    HW118968   0.581   1.721   7.823 -0.8714 -0.2117  0.1582
 2502SOL    HW218969   0.561   1.631   7.699 -2.4739  0.7159  0.5863
 2503SOL     OW18970   0.727   1.419   2.931  1.0535  0.2933  0.3963
 2503SOL    HW118971   0.633   1.405   2.942  1.1051 -2.0590 -2.0689
 2503SOL    HW218972   0.750   1.443   3.021  2.5439 -0.7783  0.3100
 2504SOL     OW18973   4.167   1.760   1.921  0.3385 -0.3545 -0.2194
 2504SOL    HW118974   4.214   1.725   1.996  0.2558  0.5329  0.2443
 2504SOL    HW218975   4.170   1.687   1.858  0.6005  0.3817 -1.0623
 2505SOL     OW18976   1.908   3.181   8.698  0.3930 -0.2027 -0.7637
 2505SOL    HW118977   1.961   3.204   8.621  1.0429  0.2289 -0.1833
 2505SOL    HW218978   1.825   3.179   8.649 -0.6764  0.8298  0.9780
 2506SOL     OW18979   2.173   2.114   7.376 -0.0893 -0.0891 -0.3913
 2506SOL    HW118980   2.096   2.070   7.413  0.2433 -2.1616 -2.1392
 2506SOL    HW218981   2.173   2.194   7.428 -1.4749 -1.3369  1.5732
 2507SOL     OW18982   2.300   1.454   0.629 -0.1297 -0.2845  0.1430
 2507SOL    HW118983   2.287   1.451   0.534  0.1462 -1.2720  0.1429
 2507SOL    HW218984   2.274   1.369   0.663  0.7102 -0.9728 -0.9599
 2508SOL     OW18985   4.533   1.261  13.713 -0.4160 -0.3321 -0.2187
 2508SOL    HW118986   4.563   1.339  13.761  2.7188 -1.7241  0.0633
 2508SOL    HW218987   4.553   1.195  13.780  2.4720 -1.2503 -2.0197
 2509SOL     OW18988   0.804   2.628   3.047 -0.0606  0.5746 -0.2724
 2509SOL    HW118989   0.838   2.556   2.994 -0.2044 -0.3852  0.9331
 2509SOL    HW218990   0.719   2.650   3.009  0.0766  1.4643 -0.0648
 2510SOL     OW18991   2.741   1.177   4.886 -0.2078  0.8202  0.2014
 2510SOL    HW118992   2.704   1.245   4.942 -1.4635  0.2797  0.0232
 2510SOL    HW218993   2.660   1.131   4.866  0.0210  0.5859 -0.1831
 2511SOL     OW18994   1.804   1.177  11.535 -0.0812  0.4138  0.2287
 2511SOL    HW118995   1.864   1.242  11.497 -0.8058  0.5522 -0.6867
 2511SOL    HW218996   1.823   1.207  11.624  2.1679 -1.7424  0.4543
 2512SOL     OW18997   2.050   0.472   9.103  0.3595  0.1488  0.2231
 2512SOL    HW118998   2.117   0.420   9.060 -0.6212 -0.8964 -0.0167
 2512SOL    HW218999   2.093   0.557   9.090 -0.6751  0.9419  1.8469
 2513SOL     OW19000   1.921   4.386   0.759 -0.5240 -0.6514  0.1551
 2513SOL    HW119001   1.885   4.369   0.846  2.9038 -0.0387  1.6898
 2513SOL    HW219002   1.854   4.338   0.711 -0.8755  0.9426 -0.9551
 2514SOL     OW19003   0.110   2.741   6.425 -0.4870  0.6377  0.2445
 2514SOL    HW119004   0.130   2.811   6.363  0.2236 -1.4467 -1.8795
 2514SOL    HW219005   0.031   2.706   6.385 -1.0164  0.4940  1.3995
 2515SOL     OW19006   4.640   3.203   6.529  0.5807 -0.3210 -0.1713
 2515SOL    HW119007   4.645   3.256   6.608 -1.3149 -1.1594  0.5132
 2515SOL    HW219008   4.706   3.142   6.559  0.1672 -0.2537  0.8821
 2516SOL     OW19009   0.311   3.231   7.670 -0.4817 -0.2195  0.2773
 2516SOL    HW119010   0.352   3.207   7.753 -1.3746  0.0098  0.7779
 2516SOL    HW219011   0.262   3.151   7.652 -1.9724  0.6120  0.6805
 2517SOL     OW19012   2.947   3.373  17.349  0.2182 -0.3184  0.4105
 2517SOL    HW119013   2.983   3.289  17.379 -2.0614 -1.1782  0.7049
 2517SOL    HW219014   2.899   3.400  17.427  0.1645  0.3840  0.1343
 2518SOL     OW19015   4.378   3.318   7.598  0.1768  0.1540  0.6405
 2518SOL    HW119016   4.411   3.334   7.510  0.3117 -0.2090  0.6227
 2518SOL    HW219017   4.451   3.278   7.645  0.8393 -1.2918 -1.6182
 2519SOL     OW19018   0.056   4.530   6.613 -0.2780 -0.2203  0.2775
 2519SOL    HW119019   4.701   4.491   6.574  0.0589 -0.1598 -0.4491
 2519SOL    HW219020   0.071   4.599   6.549  1.0069  0.1600  0.9941
 2520SOL     OW19021   3.767   4.074   6.357  0.0126 -0.3179 -0.1112
 2520SOL    HW119022   3.737   4.152   6.309 -0.2326 -1.8574 -2.4546
 2520SOL    HW219023   3.686   4.035   6.389 -0.3125  0.0009 -0.5331
 2521SOL     OW19024   2.450   4.613   8.654 -0.4190  0.4192 -0.0565
 2521SOL    HW119025   2.478   4.680   8.718 -0.9813  0.7847 -0.1907
 2521SOL    HW219026   2.382   4.560   8.695  1.5226 -1.9587  0.0769
 2522SOL     OW19027   3.322   1.259   6.188 -0.2424 -0.5840  0.0438
 2522SOL    HW119028   3.248   1.199   6.174  1.0354 -1.4956 -2.6948
 2522SOL    HW219029   3.286   1.326   6.247  0.2464  0.2833 -0.6482
 2523SOL     OW19030   1.371   1.489   6.399  0.3571  0.7572  0.8048
 2523SOL    HW119031   1.298   1.543   6.430 -0.5597  0.7717 -1.4209
 2523SOL    HW219032   1.437   1.549   6.366  0.0936  0.7110  0.1987
 2524SOL     OW19033   3.537   4.026   9.113 -0.3386  0.5625  0.3048
 2524SOL    HW119034   3.488   3.945   9.131  0.7657  0.1211  1.2906
 2524SOL    HW219035   3.598   4.000   9.043 -0.9156  0.4777 -0.1690
 2525SOL     OW19036   4.532   3.293   7.843 -0.1280  0.0273 -0.6896
 2525SOL    HW119037   4.470   3.365   7.843 -0.2016 -0.0467  1.5932
 2525SOL    HW219038   4.611   3.328   7.803  0.9082 -1.0605  0.3890
 2526SOL     OW19039   0.363   4.104   4.736 -0.0215  0.2344  0.1094
 2526SOL    HW119040   0.317   4.073   4.815 -0.3283 -1.6906 -0.8258
 2526SOL    HW219041   0.297   4.074   4.674  0.5627  0.5558 -0.6613
 2527SOL     OW19042   2.311   4.474   2.295  0.4864  0.1854 -0.6643
 2527SOL    HW119043   2.346   4.545   2.242  0.1033  0.3127 -0.7480
 2527SOL    HW219044   2.291   4.524   2.374 -0.3788  0.5074 -1.0917
 2528SOL     OW19045   1.153   4.551  14.908 -0.6816 -0.2419 -0.6938
 2528SOL    HW119046   1.085   4.489  14.882 -0.1805 -1.9227  1.9961
 2528SOL    HW219047   1.166   4.611  14.834  0.4378  0.9360  0.4498
 2529SOL     OW19048   0.587   0.774   5.841 -0.4859 -0.3048  0.2861
 2529SOL    HW119049   0.594   0.801   5.750 -1.7366 -0.0266  0.2834
 2529SOL    HW219050   0.492   0.763   5.845 -0.3039 -1.6005  0.9570
 2530SOL     OW19051   3.218   4.662  10.158 -0.0512 -0.2105 -0.3240
 2530SOL    HW119052   3.203   4.721  10.232 -1.8309  0.0472 -0.8820
 2530SOL    HW219053   3.242   4.582  10.206  0.8002  0.6365  0.6528
 2531SOL     OW19054   0.941   2.804   6.033  0.1848 -0.0067  0.7195
 2531SOL    HW119055   0.868   2.788   6.094 -1.6627 -1.1824 -1.8038
 2531SOL    HW219056   0.932   2.732   5.970 -2.9001  0.4749  0.6078
 2532SOL     OW19057   0.665   3.020   5.704  0.2253  0.4658  0.5106
 2532SOL    HW119058   0.710   2.938   5.684  0.2865  0.7048 -0.3326
 2532SOL    HW219059   0.728   3.090   5.690  0.1234  0.3087 -0.7245
 2533SOL     OW19060   1.013   0.195   7.109  0.5383 -0.5977  0.3242
 2533SOL    HW119061   0.961   0.116   7.125 -0.2557 -0.3068 -0.8490
 2533SOL    HW219062   1.102   0.179   7.141  1.1130  0.3383 -0.8189
 2534SOL     OW19063   1.145   1.189  15.775 -0.2166  0.0793  0.0770
 2534SOL    HW119064   1.090   1.239  15.715  1.2544  0.6336 -0.8265
 2534SOL    HW219065   1.152   1.245  15.853 -0.0805 -0.1148  0.2040
 2535SOL     OW19066   0.798   0.002   7.101  0.5310 -0.2942  0.2193
 2535SOL    HW119067   0.752   4.713   7.018 -1.6006 -2.1428  1.6543
 2535SOL    HW219068   0.715   0.019   7.145 -0.0352 -0.6386 -0.7112
 2536SOL     OW19069   3.234   0.225  10.732 -0.3345 -0.0399  0.2353
 2536SOL    HW119070   3.233   0.320  10.744  1.5531  0.0319 -0.1465
 2536SOL    HW219071   3.248   0.218  10.638  1.1855  2.9883  0.2222
 2537SOL     OW19072   3.615   1.978  13.336 -0.3957  0.3570 -0.2981
 2537SOL    HW119073   3.642   1.895  13.375  1.5442  1.2931  0.3211
 2537SOL    HW219074   3.560   1.954  13.262  1.2550 -2.1286 -0.7078
 2538SOL     OW19075   3.336   1.318   4.102  0.2621  0.0026  0.0402
 2538SOL    HW119076   3.272   1.247   4.105 -0.1874  0.5490  3.0124
 2538SOL    HW219077   3.342   1.319   4.197 -0.1207  0.2942  0.0605
 2539SOL     OW19078   3.615   1.307  10.009 -0.4933 -0.1918  0.0792
 2539SOL    HW119079   3.680   1.294  10.078 -0.7775  0.7996  0.5337
 2539SOL    HW219080   3.662   1.365   9.949 -3.2543  0.1527 -1.7689
 2540SOL     OW19081   3.259   0.923  17.055  0.4406  0.1523 -0.2410
 2540SOL    HW119082   3.304   0.919  17.139  3.2438  0.6716 -1.7123
 2540SOL    HW219083   3.324   0.942  16.987 -0.0419  0.8733 -0.4976
 2541SOL     OW19084   4.108   2.826   5.761 -0.2375  0.3610 -0.2444
 2541SOL    HW119085   4.161   2.895   5.722  0.9118 -0.5504 -0.2868
 2541SOL    HW219086   4.144   2.750   5.715 -2.8611 -1.6112  0.9310
 2542SOL     OW19087   4.439   1.658   6.995  0.6394  0.2558 -0.3668
 2542SOL    HW119088   4.376   1.660   7.067 -0.1832 -2.0052 -1.0301
 2542SOL    HW219089   4.409   1.738   6.951 -1.9720 -0.2427  0.5441
 2543SOL     OW19090   2.909   1.555   7.012  0.2792  0.6151 -0.1397
 2543SOL    HW119091   2.859   1.582   6.936 -0.2151 -0.8659 -0.3336
 2543SOL    HW219092   2.907   1.636   7.063 -0.4927  0.7965 -0.4556
 2544SOL     OW19093   3.448   1.041  11.759 -0.1790  0.0814 -0.9482
 2544SOL    HW119094   3.425   1.108  11.822  0.8079  0.6512 -1.1896
 2544SOL    HW219095   3.481   1.087  11.681 -0.7443  0.2397 -1.0930
 2545SOL     OW19096   1.615   0.306   0.529  0.1601 -0.3280 -0.2017
 2545SOL    HW119097   1.641   0.225   0.485 -1.5457 -0.9808  0.0024
 2545SOL    HW219098   1.521   0.304   0.510  0.4235 -0.7625 -1.3997
 2546SOL     OW19099   1.366   3.080   7.073 -0.3614 -0.0748  0.3689
 2546SOL    HW119100   1.277   3.113   7.084 -0.1886  1.5744 -3.2339
 2546SOL    HW219101   1.355   2.985   7.069  0.6634 -0.0989 -1.7355
 2547SOL     OW19102   2.365   1.536  16.725  0.0563 -0.0458 -0.3190
 2547SOL    HW119103   2.273   1.508  16.731 -0.6386  2.6100  1.5050
 2547SOL    HW219104   2.341   1.626  16.703  0.7233 -0.6223 -3.3474
 2548SOL     OW19105   0.492   0.598  14.821  0.5966 -0.2298  0.0130
 2548SOL    HW119106   0.456   0.546  14.749  0.2731  0.7634 -0.5428
 2548SOL    HW219107   0.488   0.533  14.891  0.5038  0.1506  0.3640
 2549SOL     OW19108   2.765   0.724  12.393 -0.6203  0.2365 -0.0228
 2549SOL    HW119109   2.738   0.663  12.462  1.9027  0.2471  0.9864
 2549SOL    HW219110   2.722   0.684  12.317  3.3463 -2.5998 -0.7966
 2550SOL     OW19111   1.355   1.368   8.146 -0.5931 -0.2437  0.0942
 2550SOL    HW119112   1.435   1.416   8.124 -1.8918  1.1396 -1.5510
 2550SOL    HW219113   1.303   1.412   8.213 -0.3807 -0.6229  0.5063
 2551SOL     OW19114   2.836   2.563   5.444  0.7032 -0.0714 -0.2032
 2551SOL    HW119115   2.923   2.544   5.480  1.2143 -0.9494 -1.9037
 2551SOL    HW219116   2.797   2.619   5.511  2.1625 -0.3643  0.9157
 2552SOL     OW19117   2.966   1.725   8.017 -0.4127  0.2720  1.0397
 2552SOL    HW119118   2.978   1.743   7.924 -1.9934 -0.9313  0.5859
 2552SOL    HW219119   3.059   1.709   8.032 -0.8083 -0.9855  2.1984
 2553SOL     OW19120   2.057   1.703   5.050  0.0060  0.4124  0.0047
 2553SOL    HW119121   2.100   1.784   5.078  0.8663  0.6910 -2.0873
 2553SOL    HW219122   1.966   1.726   5.030 -0.1683 -1.3196 -1.2262
 2554SOL     OW19123   2.236   3.030   4.611  0.0897  0.2999 -0.3215
 2554SOL    HW119124   2.156   2.988   4.580  1.0560 -0.9236 -1.1592
 2554SOL    HW219125   2.245   3.016   4.705 -2.6077 -1.5389 -0.3407
 2555SOL     OW19126   0.562   4.115   6.524  0.2323  0.1723  0.1329
 2555SOL    HW119127   0.623   4.119   6.451  1.4305 -3.4172  0.9459
 2555SOL    HW219128   0.616   4.147   6.596  0.3353 -0.8449  0.5164
 2556SOL     OW19129   0.233   2.824  16.054  0.1069 -0.5143  0.2099
 2556SOL    HW119130   0.273   2.763  16.117  0.1188 -1.2755 -0.5264
 2556SOL    HW219131   0.304   2.886  16.040  1.4314 -1.7680  1.2173
 2557SOL     OW19132   0.695   1.545   8.874  0.2493  0.1150  0.3533
 2557SOL    HW119133   0.695   1.599   8.794  1.7196 -1.4961 -0.7285
 2557SOL    HW219134   0.671   1.614   8.936 -1.3467  0.3011 -0.4685
 2558SOL     OW19135   4.703   3.289   1.959 -0.0211 -0.0294  0.5054
 2558SOL    HW119136   4.625   3.299   1.905 -1.1244 -0.0232  2.1063
 2558SOL    HW219137   0.045   3.348   1.921  0.4698 -1.0617 -0.2683
 2559SOL     OW19138   2.158   0.191   7.284  0.1503 -0.1733 -0.2991
 2559SOL    HW119139   2.091   0.123   7.280 -0.6716  0.6679 -1.1411
 2559SOL    HW219140   2.232   0.132   7.297  0.0546 -0.1096  0.5064
 2560SOL     OW19141   0.832   0.967   5.657 -0.3137  0.0796 -0.1826
 2560SOL    HW119142   0.737   0.974   5.658 -0.4231 -1.4005 -0.6406
 2560SOL    HW219143   0.859   1.059   5.660  2.8505 -0.9243  2.5146
 2561SOL     OW19144   0.966   3.134   3.181 -0.3820  0.4887 -0.0479
 2561SOL    HW119145   0.945   3.170   3.095  1.5841  1.0803 -0.2829
 2561SOL    HW219146   1.061   3.132   3.170 -0.3723  0.8590 -0.0073
 2562SOL     OW19147   1.610   1.108   4.566 -0.0672 -0.2915 -0.4637
 2562SOL    HW119148   1.578   1.197   4.578 -0.1242 -0.5387  1.3533
 2562SOL    HW219149   1.535   1.074   4.517 -1.4189 -1.1896  2.2223
 2563SOL     OW19150   0.105   3.040   1.733 -0.5547 -0.3909  0.4559
 2563SOL    HW119151   0.159   3.118   1.722  1.0360 -1.7986 -1.6569
 2563SOL    HW219152   0.023   3.083   1.710  0.4492  0.6013 -1.2924
 2564SOL     OW19153   0.019   3.516  10.597  0.3908  0.1969  0.1296
 2564SOL    HW119154   0.105   3.496  10.634  0.5501 -0.0955 -0.3978
 2564SOL    HW219155   4.706   3.433  10.566 -0.5430  0.9852 -0.8586
 2565SOL     OW19156   1.798   4.258   6.526  0.7017 -0.0011  0.4023
 2565SOL    HW119157   1.725   4.299   6.571 -0.3275  0.7040 -1.8830
 2565SOL    HW219158   1.756   4.174   6.506  0.2756 -0.1076  1.7379
 2566SOL     OW19159   3.314   2.736   7.291 -0.3422  0.1738  0.1056
 2566SOL    HW119160   3.385   2.686   7.250 -0.6016  1.5098 -1.9906
 2566SOL    HW219161   3.314   2.814   7.236  1.4447 -0.9314 -1.4756
 2567SOL     OW19162   3.092   1.716   1.729  0.0812 -0.6921  0.8430
 2567SOL    HW119163   3.128   1.706   1.818  1.5113  0.6140  0.4217
 2567SOL    HW219164   3.020   1.779   1.732  0.7574  0.1149 -0.2384
 2568SOL     OW19165   1.185   2.721  16.240 -0.2155  0.3191 -0.1509
 2568SOL    HW119166   1.263   2.771  16.217 -1.8259  2.7831 -0.2279
 2568SOL    HW219167   1.149   2.711  16.151 -1.0821  1.6674  0.0353
 2569SOL     OW19168   0.101   3.392   7.368  0.1228 -0.5541 -0.5329
 2569SOL    HW119169   0.080   3.460   7.432  0.9122 -0.7740 -0.0324
 2569SOL    HW219170   0.188   3.363   7.397 -0.1304 -0.4427  0.3325
 2570SOL     OW19171   1.954   4.240   4.518  0.0211 -0.0426  0.3122
 2570SOL    HW119172   1.965   4.335   4.506  0.9881 -0.3564 -1.3720
 2570SOL    HW219173   1.879   4.243   4.577 -1.2421 -2.1531 -1.1580
 2571SOL     OW19174   1.841   3.089   3.349  0.6577 -0.0518 -0.0096
 2571SOL    HW119175   1.850   3.003   3.309  2.6706  1.1386 -2.1137
 2571SOL    HW219176   1.746   3.085   3.357  0.7692  0.4619  1.7028
 2572SOL     OW19177   2.657   0.752   2.576 -0.2657  0.1773 -0.0407
 2572SOL    HW119178   2.620   0.798   2.652  1.8358 -0.4556  1.3813
 2572SOL    HW219179   2.649   0.825   2.515  3.4898  0.0873 -0.6171
 2573SOL     OW19180   1.696   0.956   3.721  0.0433 -0.3866  0.1478
 2573SOL    HW119181   1.616   0.904   3.717  0.3670 -1.0657  2.8146
 2573SOL    HW219182   1.732   0.956   3.632  0.9839 -1.0359  0.5332
 2574SOL     OW19183   2.638   1.950  12.331 -0.1718  0.8455 -0.3506
 2574SOL    HW119184   2.625   1.880  12.267  0.6440  1.8268 -1.5917
 2574SOL    HW219185   2.570   1.932  12.397  0.5586  1.9408  0.7043
 2575SOL     OW19186   0.088   3.941   6.293 -0.3621 -0.2411 -0.0059
 2575SOL    HW119187   0.168   3.931   6.242 -1.6900 -1.7069 -1.7979
 2575SOL    HW219188   0.119   3.901   6.374  2.8544  1.0444 -0.6035
 2576SOL     OW19189   0.375   3.236   4.464  0.3086  0.3111 -0.1432
 2576SOL    HW119190   0.386   3.319   4.510 -1.4886 -0.1684  1.1081
 2576SOL    HW219191   0.311   3.205   4.528  0.5098 -0.9793 -0.5664
 2577SOL     OW19192   4.273   0.973   4.752 -0.9178 -0.0425  0.1734
 2577SOL    HW119193   4.205   1.031   4.718 -1.3010 -0.1819  0.7158
 2577SOL    HW219194   4.340   0.981   4.683 -1.3029  0.1056 -0.1833
 2578SOL     OW19195   0.282   2.735  11.252  0.1975 -0.1094 -0.0625
 2578SOL    HW119196   0.335   2.813  11.240  0.7153 -0.9596 -3.3592
 2578SOL    HW219197   0.232   2.740  11.170  1.2379 -0.5581 -0.7223
 2579SOL     OW19198   0.087   3.271  13.144  0.1933  0.3107 -0.2482
 2579SOL    HW119199   0.084   3.188  13.097  1.3368  1.4414 -2.3333
 2579SOL    HW219200   4.720   3.285  13.172  0.1898  1.6366 -0.9194
 2580SOL     OW19201   1.901   4.037  16.259  0.1921  0.1329 -0.0061
 2580SOL    HW119202   1.808   4.050  16.241  0.3665  0.9853 -0.2709
 2580SOL    HW219203   1.887   3.961  16.316 -1.9762  0.3927 -0.2111
 2581SOL     OW19204   0.710   1.295  16.303 -0.0012 -0.5573 -0.7460
 2581SOL    HW119205   0.756   1.378  16.291  1.7385 -1.3872  0.2025
 2581SOL    HW219206   0.664   1.316  16.384  2.0443  2.4876 -0.3593
 2582SOL     OW19207   2.985   2.843   3.095 -0.1185  0.0703  0.2151
 2582SOL    HW119208   2.960   2.877   3.009 -1.0933 -1.5919 -0.1684
 2582SOL    HW219209   3.063   2.793   3.073 -1.0001 -1.0544 -0.3804
 2583SOL     OW19210   1.689   1.377  13.543  0.2329  0.4178  1.2785
 2583SOL    HW119211   1.598   1.354  13.561  0.2217  0.6592  1.5185
 2583SOL    HW219212   1.726   1.289  13.534 -1.9793 -0.1953 -2.0588
 2584SOL     OW19213   0.656   3.601   3.938  0.3330 -0.4460 -0.3151
 2584SOL    HW119214   0.678   3.573   4.027  2.4638  2.1944 -0.0113
 2584SOL    HW219215   0.728   3.664   3.935  0.8388 -0.9759  0.4865
 2585SOL     OW19216   2.925   1.793   6.430 -0.2220 -0.0056 -0.0254
 2585SOL    HW119217   2.833   1.806   6.451 -0.0071  0.0837  0.8438
 2585SOL    HW219218   2.945   1.883   6.404 -0.1711  0.6030  2.1796
 2586SOL     OW19219   3.904   2.824   7.902 -0.2275  0.0045  0.2626
 2586SOL    HW119220   3.841   2.790   7.966  0.8189  1.4213  2.0300
 2586SOL    HW219221   3.866   2.800   7.817 -0.4407  0.9362  0.0945
 2587SOL     OW19222   0.168   2.853   5.093 -0.6451 -0.2647  0.4512
 2587SOL    HW119223   0.245   2.877   5.041 -0.0157  0.3211  1.6595
 2587SOL    HW219224   0.198   2.873   5.182  0.9567 -1.0212  0.0646
 2588SOL     OW19225   3.878   0.228   3.659  0.1324 -0.4242  0.3413
 2588SOL    HW119226   3.918   0.288   3.596 -3.3374  0.9531 -0.5327
 2588SOL    HW219227   3.786   0.237   3.633  0.5617  0.5697 -0.8367
 2589SOL     OW19228   3.442   3.554   3.522  0.4972  0.0795  0.1203
 2589SOL    HW119229   3.432   3.472   3.569  0.1058 -1.2819 -2.2941
 2589SOL    HW219230   3.499   3.602   3.582 -0.0245  1.7954 -0.7285
 2590SOL     OW19231   4.301   4.093   6.182  0.1831  0.2339 -0.1774
 2590SOL    HW119232   4.255   4.161   6.231 -0.5064  3.2234 -4.9459
 2590SOL    HW219233   4.257   4.012   6.205  1.8782 -0.4225  0.7907
 2591SOL     OW19234   1.482   2.094  12.780 -0.4752 -0.4458 -0.4361
 2591SOL    HW119235   1.535   2.098  12.860  0.0628 -1.3572 -0.7356
 2591SOL    HW219236   1.441   2.008  12.784  0.7992 -1.1283 -1.7009
 2592SOL     OW19237   2.928   1.559   9.530  0.3191  0.3494  0.1914
 2592SOL    HW119238   2.885   1.638   9.497  1.2344  0.6456 -0.2983
 2592SOL    HW219239   3.007   1.568   9.476 -1.0658 -1.0796 -2.0541
 2593SOL     OW19240   4.106   3.319   4.039  0.3067  0.1501  0.3334
 2593SOL    HW119241   4.091   3.231   4.006 -0.7370  0.1873  0.7209
 2593SOL    HW219242   4.100   3.299   4.132  2.2873 -0.9976  0.2157
 2594SOL     OW19243   0.900   4.455   4.628  0.3148 -0.6489  0.5855
 2594SOL    HW119244   0.816   4.460   4.673 -0.1100  1.7669 -0.4688
 2594SOL    HW219245   0.893   4.361   4.613  1.1688 -0.6869  0.4261
 2595SOL     OW19246   1.209   0.367   6.425 -0.0122  0.0721 -0.5316
 2595SOL    HW119247   1.146   0.364   6.496  2.0317  0.2894  1.2925
 2595SOL    HW219248   1.278   0.306   6.451  2.1186  2.9615  0.6830
 2596SOL     OW19249   3.574   3.350   8.991  0.5446 -0.0742  0.5028
 2596SOL    HW119250   3.489   3.328   8.954  0.7291 -1.0217  0.6566
 2596SOL    HW219251   3.571   3.306   9.076  0.1147 -2.4032 -0.7330
 2597SOL     OW19252   2.096   2.569   4.132  0.5028 -0.0051 -0.2974
 2597SOL    HW119253   2.177   2.519   4.124  0.1858  0.0055 -3.8092
 2597SOL    HW219254   2.129   2.659   4.122 -0.3274  0.5895  2.5582
 2598SOL     OW19255   3.109   2.313   2.940  0.5179  0.5452 -0.2501
 2598SOL    HW119256   3.134   2.381   2.876  1.5275  0.2567 -0.1675
 2598SOL    HW219257   3.174   2.248   2.913  0.0311 -0.4117  0.9435
 2599SOL     OW19258   0.645   2.967   4.795 -0.0114  0.7011 -0.2781
 2599SOL    HW119259   0.724   3.009   4.829  0.1777  0.0492  0.0831
 2599SOL    HW219260   0.661   2.962   4.700 -1.5694  1.0388 -0.5640
 2600SOL     OW19261   1.484   2.302   8.478  0.3102  0.2383 -0.5176
 2600SOL    HW119262   1.563   2.265   8.439 -0.2119 -1.1140 -0.3158
 2600SOL    HW219263   1.488   2.394   8.452 -1.9272  0.3728 -0.4275
 2601SOL     OW19264   3.097   1.939   2.257 -0.2941 -0.3976  0.1970
 2601SOL    HW119265   3.017   1.983   2.285  0.2408  0.8727 -0.2833
 2601SOL    HW219266   3.117   1.977   2.172  2.0494  1.6534  1.6562
 2602SOL     OW19267   0.137   3.141  17.665 -0.5957  0.5204 -0.2283
 2602SOL    HW119268   0.058   3.102  17.629 -0.6768 -1.7815  2.4799
 2602SOL    HW219269   0.113   3.233  17.654 -0.5891  0.5278 -0.1801
 2603SOL     OW19270   3.198   0.099   2.700 -0.1389 -0.4225 -0.3254
 2603SOL    HW119271   3.253   0.032   2.740  3.2491  0.9686 -2.5366
 2603SOL    HW219272   3.253   0.177   2.712 -1.6432  0.3546  1.3966
 2604SOL     OW19273   3.217   1.793   3.740  0.0382  0.1469  0.2600
 2604SOL    HW119274   3.206   1.821   3.831 -3.1476  0.0212 -0.0820
 2604SOL    HW219275   3.143   1.844   3.708 -1.9011 -2.0196  1.2313
 2605SOL     OW19276   1.429   2.505   2.618 -0.3899  0.0140  0.3232
 2605SOL    HW119277   1.345   2.470   2.587 -1.1931 -0.8859  3.5495
 2605SOL    HW219278   1.443   2.451   2.696 -0.8317 -0.7125 -0.0993
 2606SOL     OW19279   0.065   1.375   2.784  0.0293  0.4794 -0.3243
 2606SOL    HW119280   4.708   1.327   2.807  0.3993  0.1981  0.3937
 2606SOL    HW219281   0.106   1.302   2.738  0.2487 -0.9260  2.0726
 2607SOL     OW19282   4.600   1.842   1.187 -0.0460  0.2583 -0.3211
 2607SOL    HW119283   4.643   1.760   1.164  1.1296  1.2873 -1.7998
 2607SOL    HW219284   4.650   1.859   1.268 -0.7663 -2.0665  0.6064
 2608SOL     OW19285   3.157   3.803   9.585  0.6528  0.6757  0.8129
 2608SOL    HW119286   3.191   3.772   9.669 -0.6643 -0.9452  0.7555
 2608SOL    HW219287   3.182   3.729   9.530  0.0084  0.9387  0.1687
 2609SOL     OW19288   4.019   4.066   3.947 -0.8127  0.6763  0.7326
 2609SOL    HW119289   3.991   4.063   3.856 -1.8077 -2.5921  1.1241
 2609SOL    HW219290   3.935   4.087   3.988 -0.9452  0.3328  0.6388
 2610SOL     OW19291   3.101   3.355   0.091  0.2786  0.2415 -0.9919
 2610SOL    HW119292   3.163   3.287   0.115 -0.2144  0.3213  0.4901
 2610SOL    HW219293   3.039   3.311   0.033 -1.2670  0.9076  0.1477
 2611SOL     OW19294   3.266   4.623   6.722  0.5251 -0.4453  0.3746
 2611SOL    HW119295   3.265   4.528   6.716 -0.5278 -0.3420 -1.0100
 2611SOL    HW219296   3.265   4.643   6.628 -0.3347  0.3410  0.5457
 2612SOL     OW19297   3.714   0.109   8.115 -0.1095  0.3148 -0.2350
 2612SOL    HW119298   3.746   0.028   8.076 -0.8345 -0.6946  1.2500
 2612SOL    HW219299   3.699   0.090   8.208  0.8013 -0.6776 -0.2960
 2613SOL     OW19300   3.110   2.214   5.646  0.7564 -0.1233  0.1287
 2613SOL    HW119301   3.169   2.289   5.637  1.7222 -0.8451  0.3802
 2613SOL    HW219302   3.022   2.250   5.644  0.2890 -1.0738  3.4838
 2614SOL     OW19303   3.809   2.308   4.025 -0.0633 -0.1163  0.0115
 2614SOL    HW119304   3.764   2.297   3.941 -0.2166 -0.5357  0.1500
 2614SOL    HW219305   3.783   2.400   4.034 -0.2375 -0.1301 -0.3576
 2615SOL     OW19306   4.328   0.680   7.715  0.2892  0.0027 -0.0836
 2615SOL    HW119307   4.420   0.660   7.735  0.5238  0.8607 -0.3215
 2615SOL    HW219308   4.304   0.600   7.667 -1.9242 -0.0298  1.0781
 2616SOL     OW19309   1.742   1.150  12.001  0.6204 -0.0107 -0.2882
 2616SOL    HW119310   1.782   1.136  12.086 -0.4354 -1.0319  0.0351
 2616SOL    HW219311   1.814   1.136  11.940  1.1901 -0.8980  0.6026
 2617SOL     OW19312   2.059   2.320   4.255  0.0418 -0.2195  0.1913
 2617SOL    HW119313   2.047   2.414   4.271  1.8765 -0.2152  1.5205
 2617SOL    HW219314   2.036   2.315   4.162  0.4278  0.0946  0.0802
 2618SOL     OW19315   2.933   2.435   8.666 -0.7193  0.7116  0.1043
 2618SOL    HW119316   3.006   2.422   8.605 -2.1563 -2.7391 -0.8966
 2618SOL    HW219317   2.871   2.372   8.630  0.8153  0.0489 -1.4055
 2619SOL     OW19318   3.491   1.197  11.544 -0.1685  0.4721 -0.1554
 2619SOL    HW119319   3.556   1.263  11.521 -1.8060  2.2760  0.3620
 2619SOL    HW219320   3.529   1.124  11.494 -1.7873 -1.7458  1.8857
 2620SOL     OW19321   2.901   2.522   2.797 -0.2728  0.4594 -0.1029
 2620SOL    HW119322   2.996   2.522   2.782 -0.6932  2.0678 -2.7498
 2620SOL    HW219323   2.892   2.438   2.752 -2.0038 -0.3550  1.7684
 2621SOL     OW19324   3.657   0.044   3.852  0.3653  0.0537 -0.0092
 2621SOL    HW119325   3.672   4.714   3.931  2.6168 -2.6506 -2.2557
 2621SOL    HW219326   3.675   0.131   3.888 -0.4201  0.7320 -1.2731
 2622SOL     OW19327   0.083   2.682  13.092 -0.2673  0.1297  0.9117
 2622SOL    HW119328   0.065   2.733  13.171 -0.8922 -0.0900  0.9143
 2622SOL    HW219329   0.044   2.738  13.024 -1.2682  0.1363  1.4819
 2623SOL     OW19330   1.074   0.180   4.086 -0.2885  0.1263  0.1167
 2623SOL    HW119331   1.027   0.211   4.009  2.5276 -0.4547 -1.8277
 2623SOL    HW219332   1.084   0.084   4.082 -0.8900  0.1628 -2.1333
 2624SOL     OW19333   0.955   2.080  13.855 -0.8039  0.7945 -0.7091
 2624SOL    HW119334   1.023   2.015  13.836 -2.1228 -0.8505  0.2018
 2624SOL    HW219335   0.881   2.028  13.823  0.7323 -2.0853  0.4267
 2625SOL     OW19336   3.015   0.981   8.482 -0.0286 -0.2220 -0.1257
 2625SOL    HW119337   2.963   0.973   8.562  0.5919 -0.1177  0.2915
 2625SOL    HW219338   3.000   0.896   8.439  0.5031 -1.5294  2.2734
 2626SOL     OW19339   4.045   1.767  12.124  0.7009  0.4649  0.1043
 2626SOL    HW119340   4.037   1.777  12.219 -0.2518 -1.6304  0.2426
 2626SOL    HW219341   4.104   1.834  12.090 -1.3851  2.7015  0.9102
 2627SOL     OW19342   4.086   2.170   8.079  0.3419  0.0953  0.7898
 2627SOL    HW119343   4.066   2.148   8.170 -0.1352  1.0644  0.9234
 2627SOL    HW219344   4.151   2.240   8.087  0.6675 -0.2724  1.3895
 2628SOL     OW19345   0.982   4.106   5.474  0.1656 -0.1994 -0.1242
 2628SOL    HW119346   0.902   4.106   5.421  0.9561 -0.7117 -1.3075
 2628SOL    HW219347   1.041   4.106   5.399 -0.1564 -0.1204 -0.3747
 2629SOL     OW19348   2.985   4.494   3.079 -0.2134 -0.3223 -0.2730
 2629SOL    HW119349   2.969   4.502   2.985  0.2408  0.7744 -0.2598
 2629SOL    HW219350   2.910   4.544   3.112 -0.8148 -0.8325 -0.8570
 2630SOL     OW19351   0.388   3.273   8.582  0.3950 -0.4074  0.2086
 2630SOL    HW119352   0.363   3.356   8.623 -1.2898 -0.0244 -1.5629
 2630SOL    HW219353   0.444   3.230   8.646  1.1006  0.4141  0.1502
 2631SOL     OW19354   2.059   0.193   5.132  0.0381 -0.2183  0.2864
 2631SOL    HW119355   2.146   0.156   5.123 -0.3796 -1.1368  0.0171
 2631SOL    HW219356   2.040   0.233   5.047 -0.0806 -2.7406 -0.8629
 2632SOL     OW19357   0.215   2.116   4.043  0.0554  0.1971  0.3435
 2632SOL    HW119358   0.218   2.095   3.949 -3.7307  2.0079 -0.1894
 2632SOL    HW219359   0.265   2.196   4.059 -1.1169  0.8725  0.6397
 2633SOL     OW19360   2.948   0.250  11.969  0.6786  0.2676  0.3815
 2633SOL    HW119361   2.880   0.300  12.015 -0.7416 -0.7074 -0.6604
 2633SOL    HW219362   2.907   0.249  11.882 -0.7664  1.6307  1.0338
 2634SOL     OW19363   1.071   3.201  15.469 -0.0944 -0.5154  0.0368
 2634SOL    HW119364   1.152   3.177  15.514 -0.2417 -0.1483  0.4931
 2634SOL    HW219365   1.026   3.117  15.482 -0.2670 -0.2622  1.1185
 2635SOL     OW19366   0.304   3.866   5.672 -0.1684 -0.1023 -0.0417
 2635SOL    HW119367   0.361   3.862   5.596  0.6537  0.9375  0.5276
 2635SOL    HW219368   0.355   3.931   5.719 -3.8374  1.9618  1.1122
 2636SOL     OW19369   4.351   1.852  11.264  0.7500 -0.3184  0.2113
 2636SOL    HW119370   4.404   1.851  11.185 -0.1690  0.3976 -0.4203
 2636SOL    HW219371   4.359   1.940  11.300  0.3894 -0.1263 -0.1789
 2637SOL     OW19372   3.512   3.277   4.873 -0.4150 -0.2847  0.4572
 2637SOL    HW119373   3.498   3.357   4.823  2.5126  0.6757  1.1758
 2637SOL    HW219374   3.431   3.227   4.866  0.1514 -1.2240  0.5676
 2638SOL     OW19375   0.825   1.376   8.053 -0.1199 -0.3828  0.0298
 2638SOL    HW119376   0.917   1.400   8.068  0.5930 -2.7382 -0.5313
 2638SOL    HW219377   0.825   1.285   8.083  1.3073  0.2283  1.9258
 2639SOL     OW19378   4.458   2.013   6.934 -0.4261 -0.0203  0.7722
 2639SOL    HW119379   4.520   1.974   6.996  0.1068  1.0499  0.9116
 2639SOL    HW219380   4.493   2.102   6.930 -0.3183 -0.0924  0.0907
 2640SOL     OW19381   1.626   3.362   5.545  0.5846  0.4147 -0.6039
 2640SOL    HW119382   1.577   3.393   5.622  3.2436  0.6559  1.0080
 2640SOL    HW219383   1.703   3.334   5.595 -1.3019 -1.7009  1.1206
 2641SOL     OW19384   3.168   2.069  16.027  0.3736 -0.8136 -0.0220
 2641SOL    HW119385   3.105   2.119  16.079 -1.2553 -3.7152  0.8038
 2641SOL    HW219386   3.112   2.019  15.967  1.6756 -1.6803 -0.5045
 2642SOL     OW19387   2.300   1.060   6.939 -0.0632 -0.4716  0.2434
 2642SOL    HW119388   2.299   0.985   6.998 -2.0576 -1.5158 -1.1022
 2642SOL    HW219389   2.217   1.054   6.892 -0.1229 -0.9171  0.4056
 2643SOL     OW19390   3.422   3.308   3.223 -0.1260 -0.3555  0.2881
 2643SOL    HW119391   3.415   3.404   3.226  0.9779 -0.2440 -0.8359
 2643SOL    HW219392   3.349   3.287   3.164  0.4017  0.7132 -0.7555
 2644SOL     OW19393   3.448   4.720  12.065  0.1146  0.2560  0.5383
 2644SOL    HW119394   3.405   0.082  12.057 -1.6132 -0.6357  0.3970
 2644SOL    HW219395   3.464   4.707  11.972  2.7694 -1.6979  1.2788
 2645SOL     OW19396   2.055   3.050   3.646 -0.3079 -0.0506  0.3255
 2645SOL    HW119397   2.084   3.131   3.603 -0.3169  1.0280  2.3460
 2645SOL    HW219398   2.066   2.994   3.569  0.8662  1.7627 -0.8398
 2646SOL     OW19399   1.033   4.627   6.977 -0.0895  0.1370  0.1547
 2646SOL    HW119400   0.939   4.639   6.985 -0.3248 -0.9481 -1.0203
 2646SOL    HW219401   1.035   4.561   6.907  0.7811  0.1713  0.1432
 2647SOL     OW19402   1.397   1.958  11.387 -0.0926  0.0511 -0.1821
 2647SOL    HW119403   1.459   1.923  11.451 -0.3295  1.4007  0.7918
 2647SOL    HW219404   1.361   2.032  11.435 -2.5507 -0.7209 -0.8637
 2648SOL     OW19405   0.072   0.105   1.955  0.3586 -0.0783  0.1040
 2648SOL    HW119406   0.074   0.069   1.866  0.8562  1.2240 -0.4083
 2648SOL    HW219407   0.104   0.031   2.006  3.0843  1.9684  1.3487
 2649SOL     OW19408   4.376   3.741   1.835  0.1607 -0.6832 -0.0111
 2649SOL    HW119409   4.293   3.696   1.850  0.7574 -0.8137  2.9031
 2649SOL    HW219410   4.382   3.777   1.923 -2.1814 -1.0186  0.2797
 2650SOL     OW19411   0.772   1.250   2.116  0.2878 -0.0513 -0.1681
 2650SOL    HW119412   0.827   1.173   2.134  2.5185  0.9280 -2.8580
 2650SOL    HW219413   0.815   1.319   2.167  0.0049  0.1446 -0.2001
 2651SOL     OW19414   3.988   3.512   3.172  0.1196  0.4872  0.6626
 2651SOL    HW119415   3.929   3.512   3.096  0.9976  0.4869 -0.0188
 2651SOL    HW219416   4.010   3.605   3.168  0.7641  0.2924 -0.2452
 2652SOL     OW19417   0.424   3.597  16.344 -0.5968 -0.3530  0.0504
 2652SOL    HW119418   0.410   3.563  16.433 -1.2985 -0.0127  0.0764
 2652SOL    HW219419   0.494   3.539  16.316 -0.3636  0.0551 -0.2093
 2653SOL     OW19420   3.276   2.184   4.111 -0.1734  0.2419  0.3508
 2653SOL    HW119421   3.184   2.205   4.094  0.3830  2.7095  0.2731
 2653SOL    HW219422   3.281   2.235   4.192  2.2987  1.6884 -0.6790
 2654SOL     OW19423   3.830   2.113  10.874 -0.3421 -0.2469  0.1092
 2654SOL    HW119424   3.774   2.178  10.831 -0.0808 -0.2733 -0.2719
 2654SOL    HW219425   3.800   2.029  10.840  0.9800  1.0390 -4.2076
 2655SOL     OW19426   0.057   2.710   7.688  0.4439 -0.1544 -0.1421
 2655SOL    HW119427   0.077   2.661   7.767 -2.4926 -0.8048  0.2205
 2655SOL    HW219428   0.103   2.665   7.616  0.9154 -1.4299  0.9606
 2656SOL     OW19429   4.065   4.410  15.555  0.2913 -0.1419 -0.6250
 2656SOL    HW119430   4.017   4.347  15.502 -0.5454 -1.1277  1.3149
 2656SOL    HW219431   3.995   4.450  15.606  0.3022 -0.8128 -0.0934
 2657SOL     OW19432   2.545   2.803  13.130 -0.0219 -0.6775  0.4662
 2657SOL    HW119433   2.551   2.836  13.041  3.3092  0.1568  1.0189
 2657SOL    HW219434   2.498   2.721  13.116 -2.6806  0.2641  3.7586
 2658SOL     OW19435   4.084   2.974   7.313  0.0895  0.0098  0.0975
 2658SOL    HW119436   4.108   3.065   7.296 -0.9019  0.3618  0.5779
 2658SOL    HW219437   4.135   2.960   7.393 -0.6197 -1.2618  0.3305
 2659SOL     OW19438   2.118   3.882   5.339 -0.1473  0.0952  0.2463
 2659SOL    HW119439   2.191   3.934   5.374 -1.5742  0.3311  2.8635
 2659SOL    HW219440   2.089   3.837   5.419  1.2625 -0.6295  0.3590
 2660SOL     OW19441   3.709   1.536   8.521  0.0533  0.0816  0.1385
 2660SOL    HW119442   3.719   1.509   8.612  3.2594  0.9302  0.0418
 2660SOL    HW219443   3.613   1.535   8.523  0.1070 -2.5333  2.2547
 2661SOL     OW19444   3.893   3.991   2.951 -0.1329  0.2288  0.6643
 2661SOL    HW119445   3.813   4.039   2.930 -0.8701 -0.9143  0.8664
 2661SOL    HW219446   3.880   3.968   3.043  2.4618 -0.8979  0.7330
 2662SOL     OW19447   0.180   1.604   4.136  0.2876  0.1701  0.3507
 2662SOL    HW119448   0.256   1.601   4.078 -0.7342 -0.6968 -0.9228
 2662SOL    HW219449   0.148   1.693   4.119 -1.7062 -0.7434 -0.5343
 2663SOL     OW19450   0.191   4.534   1.423  0.1885  0.1371  0.1938
 2663SOL    HW119451   0.120   4.595   1.401 -0.0427 -0.3000 -0.2779
 2663SOL    HW219452   0.260   4.597   1.444 -0.8075  1.5164 -0.6336
 2664SOL     OW19453   0.156   2.043   9.776 -0.2658 -0.2595  0.0536
 2664SOL    HW119454   0.199   2.070   9.694  1.6342 -2.8351  0.2111
 2664SOL    HW219455   0.081   1.989   9.752 -1.0805  0.8795  0.0123
 2665SOL     OW19456   3.839   4.665  12.860 -0.0773  0.0954  0.6375
 2665SOL    HW119457   3.825   4.635  12.770 -1.3793 -1.8349  1.4587
 2665SOL    HW219458   3.825   0.036  12.852  2.2100  0.5163  1.6110
 2666SOL     OW19459   3.976   2.837   6.160 -0.4288 -0.4848  0.4447
 2666SOL    HW119460   3.971   2.756   6.210  1.1335 -2.1249 -2.0934
 2666SOL    HW219461   3.908   2.824   6.095  1.4424 -0.6419 -1.4641
 2667SOL     OW19462   2.916   2.210   6.573  1.0201  0.3567  0.6525
 2667SOL    HW119463   2.830   2.169   6.583  2.0483 -1.4023  2.2745
 2667SOL    HW219464   2.901   2.272   6.502 -0.8662 -0.4718  0.2979
 2668SOL     OW19465   0.713   4.113   3.870 -0.0785 -0.6586 -0.1366
 2668SOL    HW119466   0.775   4.100   3.798  0.4158  0.5162  0.0834
 2668SOL    HW219467   0.643   4.154   3.820  0.5780  1.1671  0.4678
 2669SOL     OW19468   1.679   1.951   6.731 -0.0795  0.2896  0.1655
 2669SOL    HW119469   1.661   2.038   6.696 -2.5407 -0.4245 -0.3258
 2669SOL    HW219470   1.614   1.897   6.687  0.5745 -1.5641  1.4793
 2670SOL     OW19471   4.333   1.268   5.001  0.2089 -0.4301  0.8222
 2670SOL    HW119472   4.365   1.355   5.027 -0.6601  0.0037  0.4563
 2670SOL    HW219473   4.407   1.210   5.020  0.1088 -1.5322 -2.1704
 2671SOL     OW19474   3.967   0.375   2.464  0.7830  0.7251  0.7908
 2671SOL    HW119475   3.918   0.355   2.384  0.9456 -0.4283  0.9839
 2671SOL    HW219476   3.992   0.289   2.498  1.0208 -0.4064 -2.2381
 2672SOL     OW19477   0.555   4.708  16.966 -0.0497 -0.8948 -0.1074
 2672SOL    HW119478   0.641   4.694  17.005  0.2610 -1.6865 -1.0801
 2672SOL    HW219479   0.586   0.004  16.878 -0.2377 -2.0197 -0.4139
 2673SOL     OW19480   3.393   2.352   8.593  0.3614  0.0308  0.1274
 2673SOL    HW119481   3.348   2.268   8.605 -1.0280  0.6890 -0.5539
 2673SOL    HW219482   3.411   2.373   8.685 -1.3449 -0.3152  0.5533
 2674SOL     OW19483   4.300   0.443  12.003  0.6420  0.7400 -0.3975
 2674SOL    HW119484   4.211   0.474  11.991  0.0570 -1.3803 -1.6474
 2674SOL    HW219485   4.347   0.487  11.931 -1.0900  0.7991 -1.4981
 2675SOL     OW19486   0.001   3.925   6.658  0.3218  0.4164 -0.4182
 2675SOL    HW119487   4.696   3.893   6.743 -2.3872 -2.6862 -2.5053
 2675SOL    HW219488   4.651   3.974   6.620  1.1443  1.3384 -0.8362
 2676SOL     OW19489   2.333   2.734   9.349 -0.4891 -0.1559 -0.2804
 2676SOL    HW119490   2.256   2.775   9.388  0.8641 -1.2299  3.5675
 2676SOL    HW219491   2.305   2.643   9.360  0.7122 -0.3566  1.1596
 2677SOL     OW19492   1.175   2.819   1.139  0.4441 -0.3729 -0.0187
 2677SOL    HW119493   1.099   2.840   1.193  1.1319  2.3371 -0.1173
 2677SOL    HW219494   1.250   2.845   1.193  0.5654 -1.4448  0.3298
 2678SOL     OW19495   2.748   3.799   8.387  0.2055  0.1910  0.1083
 2678SOL    HW119496   2.803   3.755   8.452  0.2124  1.1857  0.7718
 2678SOL    HW219497   2.664   3.793   8.433  1.3838  1.5504  2.4484
 2679SOL     OW19498   3.379   3.698   4.783 -0.2667 -0.0724  0.2070
 2679SOL    HW119499   3.383   3.628   4.718  1.8978 -0.1244  0.3846
 2679SOL    HW219500   3.296   3.686   4.829 -0.5483  0.8408 -0.0658
 2680SOL     OW19501   4.279   1.929  12.370  0.3553 -0.1839  0.0404
 2680SOL    HW119502   4.250   2.001  12.315  0.4238 -2.0075 -2.3757
 2680SOL    HW219503   4.365   1.928  12.329  0.1747 -1.5891 -0.3014
 2681SOL     OW19504   4.433   3.573   5.769  0.5208 -0.0346 -0.4556
 2681SOL    HW119505   4.338   3.579   5.761  0.4080  0.2259  1.1402
 2681SOL    HW219506   4.454   3.661   5.736 -1.1197  0.5861  0.1894
 2682SOL     OW19507   1.635   0.018   6.105 -0.6805 -0.5299  0.1683
 2682SOL    HW119508   1.602   0.033   6.193  2.3202 -0.5229  1.2872
 2682SOL    HW219509   1.565   0.062   6.056  2.1732  1.6988 -1.9215
 2683SOL     OW19510   1.059   3.161   6.275 -0.1878 -0.4279 -0.9266
 2683SOL    HW119511   0.968   3.132   6.272  0.5223 -2.8567  0.4481
 2683SOL    HW219512   1.060   3.212   6.194  2.8933  2.3939  0.9204
 2684SOL     OW19513   4.340   1.630  17.230  0.1272 -0.1316  0.3567
 2684SOL    HW119514   4.274   1.700  17.226 -0.0679 -0.3916 -1.0712
 2684SOL    HW219515   4.288   1.560  17.188 -2.4967  1.4439  0.9975
 2685SOL     OW19516   0.388   3.016  17.589  0.3013  0.3455  0.0226
 2685SOL    HW119517   0.313   3.074  17.604 -1.3184 -1.7279 -0.0679
 2685SOL    HW219518   0.409   2.989  17.678 -0.9773  0.4425  0.3539
 2686SOL     OW19519   4.004   4.486  13.390  0.0704  0.4037 -0.2654
 2686SOL    HW119520   3.911   4.503  13.375 -0.1787  0.1396  1.0114
 2686SOL    HW219521   4.045   4.533  13.318  1.8606  1.3261  1.3889
 2687SOL     OW19522   4.597   2.737   6.999 -0.1665  0.2596  0.2253
 2687SOL    HW119523   4.549   2.815   7.025  1.3568  0.5737  2.1666
 2687SOL    HW219524   4.596   2.748   6.904  0.6623 -1.3272  0.0390
 2688SOL     OW19525   1.549   4.642   6.832 -0.5713  0.4032 -0.0935
 2688SOL    HW119526   1.504   4.710   6.881  0.4140 -0.3607  1.8714
 2688SOL    HW219527   1.628   4.639   6.887 -0.5367 -1.2966 -0.2236
 2689SOL     OW19528   4.669   0.463   4.394  0.1818  0.4782  0.1058
 2689SOL    HW119529   4.683   0.459   4.299 -0.1986 -1.5440  0.1449
 2689SOL    HW219530   4.679   0.371   4.420 -1.3387  0.5471  0.9460
 2690SOL     OW19531   1.165   4.249   5.620 -0.0678  0.2044  0.5463
 2690SOL    HW119532   1.221   4.269   5.545  0.3121  1.2915  1.1038
 2690SOL    HW219533   1.118   4.176   5.581 -1.5493  1.1580  0.5589
 2691SOL     OW19534   2.435   1.928   9.098  0.6455 -0.3158  0.0591
 2691SOL    HW119535   2.460   1.862   9.162 -1.9075  0.7929  2.1964
 2691SOL    HW219536   2.399   1.997   9.154  0.8199 -0.1270 -0.0574
 2692SOL     OW19537   3.990   3.177   0.411  0.1144 -0.0857 -0.0062
 2692SOL    HW119538   3.923   3.223   0.361  2.0830  0.4060 -2.1971
 2692SOL    HW219539   3.959   3.203   0.497 -1.7906 -1.8364 -0.1763
 2693SOL     OW19540   3.775   2.681   7.678 -0.1126  0.2291 -0.2262
 2693SOL    HW119541   3.811   2.675   7.590 -1.0837 -1.1201 -0.5325
 2693SOL    HW219542   3.695   2.632   7.658 -0.6519  0.4871  1.2778
 2694SOL     OW19543   0.085   2.649   3.740  0.7349 -0.1465  0.1957
 2694SOL    HW119544   0.110   2.603   3.659 -1.4654  0.4264 -0.7929
 2694SOL    HW219545   0.033   2.583   3.787 -2.3315  1.5395 -0.8736
 2695SOL     OW19546   4.407   4.204   5.940 -0.0522 -0.0458 -0.0619
 2695SOL    HW119547   4.358   4.177   6.018 -0.0999 -0.2192 -0.1503
 2695SOL    HW219548   4.498   4.187   5.962 -0.0282 -1.5005 -1.2910
 2696SOL     OW19549   2.087   1.913   8.329  0.2292  0.3588 -0.5879
 2696SOL    HW119550   2.123   1.825   8.337  0.8009  0.6842  0.4949
 2696SOL    HW219551   2.163   1.957   8.290  0.1413  1.4958  0.5095
 2697SOL     OW19552   0.518   2.124   5.795  0.6771  0.3361 -0.2996
 2697SOL    HW119553   0.537   2.218   5.790 -0.4444  0.6783  2.2131
 2697SOL    HW219554   0.435   2.127   5.747 -0.2640  1.6684  1.4403
 2698SOL     OW19555   2.895   2.166   5.095  0.0263 -0.1472 -0.1877
 2698SOL    HW119556   2.948   2.191   5.171  1.8003 -2.9822 -0.4806
 2698SOL    HW219557   2.823   2.111   5.127  1.3843 -0.6301  2.0833
 2699SOL     OW19558   3.628   4.242   1.494 -0.6493 -0.5080 -0.1965
 2699SOL    HW119559   3.532   4.240   1.491 -0.6426 -0.2243 -0.5605
 2699SOL    HW219560   3.654   4.150   1.499 -1.0662 -0.4644  3.3701
 2700SOL     OW19561   3.920   1.115  13.586  0.3012 -1.0694  0.3065
 2700SOL    HW119562   3.990   1.087  13.527  0.6917  0.6371 -0.0695
 2700SOL    HW219563   3.952   1.203  13.607  0.9524 -1.2429  0.0584
 2701SOL     OW19564   2.974   1.368   9.272 -0.6339 -0.3465 -0.2343
 2701SOL    HW119565   2.955   1.386   9.180  0.6391  0.9404 -0.2423
 2701SOL    HW219566   2.999   1.277   9.261 -1.7052 -0.6098 -0.4760
 2702SOL     OW19567   1.724   0.847  15.382 -0.3133  0.7203  0.3100
 2702SOL    HW119568   1.778   0.907  15.331 -1.5199  0.4757 -1.2526
 2702SOL    HW219569   1.777   0.768  15.397  0.4681  1.0829 -0.4991
 2703SOL     OW19570   2.585   1.731   3.446 -0.0145  0.4056 -0.4233
 2703SOL    HW119571   2.555   1.789   3.515  0.8839 -0.7327  0.9220
 2703SOL    HW219572   2.504   1.680   3.441 -0.0617  0.4818 -0.4309
 2704SOL     OW19573   3.806   3.905   0.807 -0.1135  0.3972  0.1599
 2704SOL    HW119574   3.863   3.882   0.880 -1.3810 -0.3222  0.9121
 2704SOL    HW219575   3.862   3.960   0.752 -0.8166  0.2462 -0.7229
 2705SOL     OW19576   1.703   4.428   4.952 -0.5513 -0.0552  0.0216
 2705SOL    HW119577   1.707   4.481   5.031 -1.3739 -0.8968  0.6189
 2705SOL    HW219578   1.796   4.420   4.932 -0.2773  2.0856  0.4615
 2706SOL     OW19579   3.208   0.461   5.082 -0.0870 -0.1722 -0.0417
 2706SOL    HW119580   3.117   0.483   5.062 -0.3887 -0.5612  0.9175
 2706SOL    HW219581   3.234   0.432   4.995  2.2723  2.5941 -0.2710
 2707SOL     OW19582   3.713   1.318   5.086  0.4060  0.0718  0.6036
 2707SOL    HW119583   3.687   1.376   5.015 -1.9245 -1.6752  0.0323
 2707SOL    HW219584   3.633   1.266   5.094 -0.1797  0.8489 -0.2913
 2708SOL     OW19585   4.375   2.243   2.388 -0.3620 -0.0968  0.0030
 2708SOL    HW119586   4.382   2.193   2.469 -1.7785  0.5916  0.5438
 2708SOL    HW219587   4.331   2.173   2.338 -0.3525  0.4352 -0.7504
 2709SOL     OW19588   2.307   4.265   3.725  0.4428  0.2728 -0.5796
 2709SOL    HW119589   2.250   4.228   3.793 -0.8341  0.7559 -1.3870
 2709SOL    HW219590   2.379   4.291   3.782 -0.0883  0.4766  0.0093
 2710SOL     OW19591   0.032   0.950   5.416 -0.2235  0.2553 -0.2511
 2710SOL    HW119592   4.709   0.868   5.397  0.5362  0.0499 -1.2144
 2710SOL    HW219593   0.000   0.975   5.503  1.2273 -0.1948  0.4077
 2711SOL     OW19594   2.191   2.988   2.314 -0.1023  0.4897 -0.6079
 2711SOL    HW119595   2.117   3.023   2.265  0.3198  0.0333 -1.5798
 2711SOL    HW219596   2.258   3.048   2.283  0.5500  1.8882  3.5031
 2712SOL     OW19597   1.468   1.204   2.704 -0.1789 -0.2797 -0.0912
 2712SOL    HW119598   1.458   1.156   2.786 -2.3020  0.5616  0.1485
 2712SOL    HW219599   1.415   1.283   2.717 -0.3180 -0.8120  2.5324
 2713SOL     OW19600   0.562   0.514   7.120  0.0848 -0.5431  0.2319
 2713SOL    HW119601   0.493   0.477   7.065  0.0830 -2.1576  1.3137
 2713SOL    HW219602   0.621   0.547   7.053 -0.6144 -0.3115 -0.2732
 2714SOL     OW19603   3.813   1.757  13.133  0.0224 -0.6656  0.0308
 2714SOL    HW119604   3.832   1.844  13.098  1.5722 -0.5559  1.1144
 2714SOL    HW219605   3.755   1.786  13.203 -1.1998 -1.9688 -0.4367
 2715SOL     OW19606   1.792   2.474   9.288 -0.0091 -0.2208 -0.2218
 2715SOL    HW119607   1.784   2.388   9.328 -2.4457  0.2226  0.2339
 2715SOL    HW219608   1.790   2.529   9.367  3.9029  0.7029 -0.7739
 2716SOL     OW19609   4.196   2.307   5.548  0.0423  0.3256  0.4230
 2716SOL    HW119610   4.190   2.355   5.465 -0.1412 -0.8385 -0.2385
 2716SOL    HW219611   4.221   2.377   5.609  2.0671 -1.1735  1.3135
 2717SOL     OW19612   0.695   3.259  14.975 -0.1888 -0.1339 -0.1281
 2717SOL    HW119613   0.644   3.178  14.974  1.3184 -1.1253  1.3666
 2717SOL    HW219614   0.681   3.296  15.062  0.4240  0.3171 -0.2191
 2718SOL     OW19615   4.681   2.796   6.743  0.0210  0.3456  0.1184
 2718SOL    HW119616   4.677   2.891   6.731 -2.0399  0.0303 -1.8338
 2718SOL    HW219617   4.673   2.773   6.650 -2.9701 -1.9170  0.9391
 2719SOL     OW19618   0.041   3.266  17.382 -0.1725  0.1708  0.3073
 2719SOL    HW119619   0.131   3.252  17.412 -0.2031 -0.1909  0.2263
 2719SOL    HW219620   4.708   3.196  17.414  1.2544 -0.6936  0.9381
 2720SOL     OW19621   2.109   1.831  10.184  0.1875  0.2698 -0.3300
 2720SOL    HW119622   2.051   1.809  10.257 -1.5125 -0.7741 -2.0163
 2720SOL    HW219623   2.092   1.925  10.179  0.4135  0.2159 -2.2340
 2721SOL     OW19624   4.646   2.807   4.367  0.0920 -0.3196  0.2844
 2721SOL    HW119625   4.686   2.845   4.446 -0.9057  0.4455  0.4166
 2721SOL    HW219626   4.695   2.726   4.354 -1.2680 -0.9295 -1.0363
 2722SOL     OW19627   3.153   1.831   6.235 -0.3274  0.0621 -0.1753
 2722SOL    HW119628   3.107   1.891   6.293 -0.1378 -0.1022  0.1473
 2722SOL    HW219629   3.075   1.785   6.205  1.1808 -2.2806 -0.5082
 2723SOL     OW19630   0.356   4.691   5.272  0.3938 -0.0772 -0.7002
 2723SOL    HW119631   0.352   0.044   5.213 -1.3245  0.1854 -0.2604
 2723SOL    HW219632   0.317   0.015   5.346  3.2928  1.2627 -0.0046
 2724SOL     OW19633   4.100   0.172  10.259 -0.0618  0.1186 -0.9464
 2724SOL    HW119634   4.188   0.144  10.284 -0.2108 -1.2250 -1.9908
 2724SOL    HW219635   4.070   0.209  10.343  0.2121 -1.0378 -0.3402
 2725SOL     OW19636   4.642   4.586   3.313 -0.1428 -0.2317 -0.6907
 2725SOL    HW119637   0.012   4.583   3.287  0.8922 -0.3668  3.1114
 2725SOL    HW219638   4.644   4.515   3.376  2.2526 -0.4994 -1.0577
 2726SOL     OW19639   1.418   2.600   2.954  0.0486 -0.4906 -0.0607
 2726SOL    HW119640   1.500   2.553   2.940  1.3532  2.1577 -1.2989
 2726SOL    HW219641   1.422   2.662   2.882 -2.8344  0.5106  0.6453
 2727SOL     OW19642   4.497   0.366   8.013 -0.1839  0.3022 -0.7408
 2727SOL    HW119643   4.548   0.285   8.009  0.5625  0.6687  1.4539
 2727SOL    HW219644   4.474   0.367   8.106  1.3339  1.6902 -0.3826
 2728SOL     OW19645   3.935   0.819   5.758 -0.5867 -0.2712  0.1610
 2728SOL    HW119646   3.841   0.808   5.773 -0.4874  0.3011  1.2162
 2728SOL    HW219647   3.979   0.745   5.799 -0.0686  0.5361  1.0642
 2729SOL     OW19648   0.100   0.425   2.921  0.0105  0.1629  0.1890
 2729SOL    HW119649   0.186   0.389   2.943 -0.1177  0.5733  1.3609
 2729SOL    HW219650   0.094   0.422   2.825  1.2815 -4.2052  0.2324
 2730SOL     OW19651   4.550   4.180  15.868 -0.1837  0.1815  0.1155
 2730SOL    HW119652   4.570   4.162  15.776 -0.6293 -0.1775  0.0922
 2730SOL    HW219653   4.565   4.275  15.869 -1.1407  0.3377 -0.3446
 2731SOL     OW19654   0.906   0.026   4.886  0.0974  0.1721 -0.4597
 2731SOL    HW119655   0.855   0.050   4.808 -0.7701  1.0743  0.3786
 2731SOL    HW219656   0.858   0.085   4.945 -0.7742  0.0881 -1.0816
 2732SOL     OW19657   3.859   4.529   9.591  0.1746 -0.4468  0.0801
 2732SOL    HW119658   3.855   4.476   9.671 -0.0936 -0.6403 -0.0619
 2732SOL    HW219659   3.953   4.541   9.583  0.1181 -0.6921 -0.9479
 2733SOL     OW19660   2.479   4.268  15.521  0.2032  0.7258 -0.0419
 2733SOL    HW119661   2.425   4.258  15.599  1.3087  2.2325  0.9354
 2733SOL    HW219662   2.498   4.362  15.518  1.0107  0.5696  0.0511
 2734SOL     OW19663   1.849   1.583   3.037  0.9410  0.1079  0.5883
 2734SOL    HW119664   1.829   1.675   3.053  3.2679  0.1808  3.1867
 2734SOL    HW219665   1.899   1.554   3.114  1.0491 -0.3339  0.3533
 2735SOL     OW19666   4.162   1.491   7.012 -0.0264 -0.5257  0.1403
 2735SOL    HW119667   4.184   1.541   7.090  1.4584 -0.9256 -0.0155
 2735SOL    HW219668   4.132   1.406   7.045 -0.7680 -0.9800 -1.6953
 2736SOL     OW19669   0.533   1.902   7.533 -0.1552 -0.0702  0.8203
 2736SOL    HW119670   0.582   1.962   7.588  0.9752 -0.8426  0.6627
 2736SOL    HW219671   0.560   1.817   7.569 -0.0434 -0.0442  0.7976
 2737SOL     OW19672   3.161   4.106   7.642  0.0892 -0.5830 -0.3620
 2737SOL    HW119673   3.237   4.164   7.641 -0.3658  0.0235  0.5397
 2737SOL    HW219674   3.120   4.115   7.556 -1.4734 -1.3686  0.2996
 2738SOL     OW19675   3.402   3.216   8.277  0.2223  0.1563  0.0352
 2738SOL    HW119676   3.415   3.150   8.209 -1.7872  0.1923 -0.3574
 2738SOL    HW219677   3.316   3.197   8.313  0.5560  2.2790  1.9799
 2739SOL     OW19678   4.642   3.487   2.790 -0.4321  0.3329 -0.1023
 2739SOL    HW119679   4.623   3.570   2.834 -0.0092  0.6884 -0.5901
 2739SOL    HW219680   0.008   3.476   2.821 -1.2693 -1.3765  1.6518
 2740SOL     OW19681   3.085   0.756   3.269  0.3675  0.1777  0.0171
 2740SOL    HW119682   2.999   0.723   3.295  0.4941  1.6092  2.2212
 2740SOL    HW219683   3.135   0.675   3.275 -2.5283 -1.6882 -0.7413
 2741SOL     OW19684   2.985   2.809   9.771  0.0035  0.2565  0.6539
 2741SOL    HW119685   2.971   2.715   9.782  0.7332  0.0507 -0.2019
 2741SOL    HW219686   3.014   2.826   9.861  0.3789  0.8595  0.4136
 2742SOL     OW19687   0.017   0.203   4.673 -0.5810  0.0847 -0.2699
 2742SOL    HW119688   0.087   0.263   4.699 -0.2454 -0.2873 -0.3227
 2742SOL    HW219689   0.041   0.193   4.581 -1.3469  3.7393 -0.8762
 2743SOL     OW19690   0.580   3.867   8.603  0.5854 -0.1503  0.3022
 2743SOL    HW119691   0.533   3.804   8.658 -0.4938  0.4291  0.0282
 2743SOL    HW219692   0.543   3.950   8.633  0.0136 -0.3639  0.1880
 2744SOL     OW19693   2.370   2.226   5.836 -0.3112 -0.0480 -0.0371
 2744SOL    HW119694   2.449   2.216   5.782  2.1328  1.4474  3.2619
 2744SOL    HW219695   2.346   2.135   5.852  0.8830  0.3838  4.0766
 2745SOL     OW19696   1.099   0.625   5.542 -0.3728 -0.4625  0.4744
 2745SOL    HW119697   1.190   0.598   5.555  0.4168  1.8970 -0.2877
 2745SOL    HW219698   1.092   0.613   5.448  1.6303 -0.2747  0.3038
 2746SOL     OW19699   1.262   2.187   6.546 -0.0785  0.4987  0.3366
 2746SOL    HW119700   1.177   2.152   6.521  0.6927 -0.0326 -1.5857
 2746SOL    HW219701   1.277   2.227   6.460  2.4115 -1.7415 -0.2870
 2747SOL     OW19702   1.241   1.023   2.316 -0.4585  0.0865  0.3336
 2747SOL    HW119703   1.293   1.102   2.328  1.9737 -1.2937 -1.2455
 2747SOL    HW219704   1.277   0.992   2.233  1.4206  1.1910  0.7302
 2748SOL     OW19705   0.808   4.135   3.560  0.4583 -0.1930 -0.1361
 2748SOL    HW119706   0.842   4.046   3.554 -2.6019 -1.3780  0.2627
 2748SOL    HW219707   0.762   4.151   3.477 -1.9521  2.3807  1.6968
 2749SOL     OW19708   4.164   4.575   6.738  0.3743 -0.5824 -0.6693
 2749SOL    HW119709   4.243   4.547   6.692  1.4687  0.7917  0.3355
 2749SOL    HW219710   4.118   4.499   6.774 -0.2936  1.2321  2.2803
 2750SOL     OW19711   1.552   2.157   6.588 -0.0128  0.0165 -0.8174
 2750SOL    HW119712   1.465   2.143   6.550 -1.8239 -0.1836  3.4704
 2750SOL    HW219713   1.536   2.210   6.666 -0.0625 -0.6984 -0.3421
 2751SOL     OW19714   2.820   3.476   2.368 -0.4450 -0.3848 -0.5062
 2751SOL    HW119715   2.784   3.468   2.457 -0.5782  3.7682 -0.2217
 2751SOL    HW219716   2.740   3.465   2.317  0.0208 -2.6436 -0.7535
 2752SOL     OW19717   3.173   2.194   6.657 -0.0999 -0.5505 -0.1710
 2752SOL    HW119718   3.205   2.267   6.710  0.5164 -0.5544 -0.5341
 2752SOL    HW219719   3.083   2.223   6.646 -0.2540  0.0034  2.5884
 2753SOL     OW19720   1.210   2.393   4.565 -0.3782  0.7546 -0.1106
 2753SOL    HW119721   1.172   2.324   4.511 -2.0425  1.0539  0.6741
 2753SOL    HW219722   1.299   2.404   4.532  0.2506 -2.9084  0.4384
 2754SOL     OW19723   0.451   3.967   9.413 -0.4446 -0.3903  0.8113
 2754SOL    HW119724   0.495   3.891   9.453  1.1336  1.1035  1.9051
 2754SOL    HW219725   0.468   4.029   9.484 -3.3280  0.7975  0.4547
 2755SOL     OW19726   0.958   3.483   3.676  0.1754 -0.1533 -0.2238
 2755SOL    HW119727   0.929   3.569   3.644 -1.0400 -1.0768 -1.6077
 2755SOL    HW219728   1.007   3.443   3.604  3.2162  1.8102  0.7389
 2756SOL     OW19729   4.255   3.407  14.837 -0.1888 -0.8628  0.1140
 2756SOL    HW119730   4.186   3.443  14.782 -0.6332  1.4328  2.1963
 2756SOL    HW219731   4.302   3.357  14.770  0.4207 -0.1716  0.0272
 2757SOL     OW19732   2.138   0.445   3.940 -0.1476  0.2596 -0.3980
 2757SOL    HW119733   2.127   0.435   3.845  2.1350 -0.1302 -0.6409
 2757SOL    HW219734   2.174   0.356   3.944 -0.4657  0.1668  0.4146
 2758SOL     OW19735   4.207   1.790  11.546  0.1157 -0.3782 -0.1404
 2758SOL    HW119736   4.204   1.848  11.623  1.2863 -1.8654  1.0204
 2758SOL    HW219737   4.126   1.817  11.503 -0.7508 -1.5379  0.7839
 2759SOL     OW19738   0.935   3.276   0.239 -0.4655 -0.2370 -0.3810
 2759SOL    HW119739   0.989   3.203   0.269 -2.2280 -0.9877  0.9977
 2759SOL    HW219740   0.993   3.349   0.261 -1.3235  0.4612 -0.3835
 2760SOL     OW19741   2.345   3.415   9.456  0.4820 -0.1752  0.0781
 2760SOL    HW119742   2.384   3.485   9.508 -1.7024  1.1936 -0.1344
 2760SOL    HW219743   2.309   3.469   9.385  0.5486 -1.1151 -0.6673
 2761SOL     OW19744   1.800   3.692   4.389 -0.0317  0.2537 -0.2047
 2761SOL    HW119745   1.788   3.752   4.462 -0.5322  0.4626 -0.4559
 2761SOL    HW219746   1.716   3.710   4.346 -0.8727  1.7699  2.0793
 2762SOL     OW19747   1.760   2.219   8.651  0.2832  0.3059  0.0573
 2762SOL    HW119748   1.680   2.171   8.629 -0.0213  0.4948  0.7457
 2762SOL    HW219749   1.822   2.155   8.686 -1.1958 -0.4916  1.2296
 2763SOL     OW19750   0.489   3.903   8.336 -0.3824 -0.5851  0.0615
 2763SOL    HW119751   0.423   3.966   8.307  1.4547  0.9832 -0.7710
 2763SOL    HW219752   0.450   3.860   8.412 -1.8297  0.0969 -0.2909
 2764SOL     OW19753   2.866   1.446   8.012 -0.5504  0.4726 -0.2822
 2764SOL    HW119754   2.940   1.419   8.066 -0.2318  2.1679  0.1382
 2764SOL    HW219755   2.864   1.541   8.027  1.4922  0.6266 -1.0226
 2765SOL     OW19756   2.226   0.354   8.947  0.4630  0.1990 -0.2788
 2765SOL    HW119757   2.321   0.357   8.939  0.4288  0.8416 -0.4194
 2765SOL    HW219758   2.209   0.275   8.998  2.4650  0.2840  0.5111
 2766SOL     OW19759   3.696   1.785   8.061 -0.0518  0.1546  0.3115
 2766SOL    HW119760   3.760   1.831   8.114 -0.2090  0.2998  0.3768
 2766SOL    HW219761   3.679   1.847   7.990 -0.2417  2.1730  2.1169
 2767SOL     OW19762   2.001   1.166   6.553 -0.2568 -0.1929  1.0825
 2767SOL    HW119763   2.080   1.132   6.511 -0.2312  1.5231 -0.3196
 2767SOL    HW219764   1.927   1.143   6.497 -0.2225  2.9296 -0.2432
 2768SOL     OW19765   4.570   1.298  15.654 -0.0786  0.0214  0.3273
 2768SOL    HW119766   4.528   1.365  15.600  0.5840  1.1424  1.2000
 2768SOL    HW219767   4.505   1.282  15.722 -1.2230  2.5022 -0.1982
 2769SOL     OW19768   0.237   4.555   7.471  0.3844  0.5261  0.6591
 2769SOL    HW119769   0.192   4.530   7.391  1.1680 -2.1906  1.0698
 2769SOL    HW219770   0.260   4.468   7.504 -0.1691 -0.0044 -0.3613
 2770SOL     OW19771   1.858   1.910  12.142 -0.2732  0.1032  0.2937
 2770SOL    HW119772   1.929   1.851  12.167 -1.4576 -1.9630 -1.2620
 2770SOL    HW219773   1.904   1.977  12.091 -1.3130 -1.3188 -2.4825
 2771SOL     OW19774   2.387   0.567  10.047  0.0440  0.2240 -0.8275
 2771SOL    HW119775   2.397   0.476  10.021 -1.1131 -0.5978  1.6447
 2771SOL    HW219776   2.344   0.542  10.129 -0.1756  0.7831 -0.7733
 2772SOL     OW19777   2.166   0.853   4.508 -0.5405  0.1457 -0.3069
 2772SOL    HW119778   2.186   0.924   4.569 -1.2752 -0.3140  0.4734
 2772SOL    HW219779   2.220   0.867   4.430 -1.4888 -0.1105 -1.0055
 2773SOL     OW19780   2.552   2.550   5.461  0.4188 -0.7539 -0.6278
 2773SOL    HW119781   2.626   2.575   5.407  0.1665 -1.1179 -1.1497
 2773SOL    HW219782   2.545   2.624   5.521 -0.4787  0.7865 -2.6238
 2774SOL     OW19783   4.313   2.344   7.337 -0.3930 -0.4117  0.1137
 2774SOL    HW119784   4.240   2.284   7.323  0.8841 -1.8603 -0.3255
 2774SOL    HW219785   4.366   2.295   7.400 -1.2801 -0.5541  0.7398
 2775SOL     OW19786   2.231   4.306   7.995  0.1064 -0.3585 -0.0050
 2775SOL    HW119787   2.317   4.268   7.977  0.3545  0.2116 -0.0408
 2775SOL    HW219788   2.257   4.382   8.047 -0.3453  1.6620 -2.7305
 2776SOL     OW19789   2.348   4.284  10.257  0.7403 -0.3204 -0.4735
 2776SOL    HW119790   2.389   4.212  10.210  0.5981 -0.5973 -0.1768
 2776SOL    HW219791   2.410   4.354  10.278 -0.8524  1.0489 -0.2510
 2777SOL     OW19792   1.674   2.877  13.505 -0.0891 -0.3052  0.2461
 2777SOL    HW119793   1.652   2.901  13.414 -1.9981 -0.5900  0.6335
 2777SOL    HW219794   1.586   2.866  13.540  0.3507 -0.6414  1.2326
 2778SOL     OW19795   0.754   1.379  13.210  0.2977 -0.6844 -0.0014
 2778SOL    HW119796   0.716   1.447  13.267  2.7585 -0.1042  0.9651
 2778SOL    HW219797   0.684   1.387  13.145  1.5153  1.0909 -1.1115
 2779SOL     OW19798   4.225   0.909   8.683 -0.4018  0.1817 -0.3839
 2779SOL    HW119799   4.289   0.886   8.750 -1.3045  1.1160  0.8027
 2779SOL    HW219800   4.156   0.950   8.735 -0.1523  0.9994 -0.6990
 2780SOL     OW19801   0.698   2.602  14.319 -0.5051  0.2517 -0.6341
 2780SOL    HW119802   0.704   2.556  14.235  1.8756 -0.5410 -0.0373
 2780SOL    HW219803   0.714   2.695  14.298 -2.6206  0.2975 -2.0285
 2781SOL     OW19804   2.066   0.450   6.609 -0.0049  0.2060  0.0057
 2781SOL    HW119805   2.092   0.522   6.666 -0.0815  0.6449 -0.5216
 2781SOL    HW219806   2.148   0.401   6.621 -0.5685 -0.4593  1.1204
 2782SOL     OW19807   2.772   1.876  13.514  0.2482  0.0466 -0.3356
 2782SOL    HW119808   2.794   1.954  13.464  0.5941  0.7824  0.9677
 2782SOL    HW219809   2.818   1.904  13.594  0.0683 -0.4265 -0.0610
 2783SOL     OW19810   3.300   3.857   8.663  0.1522 -0.3192 -0.2056
 2783SOL    HW119811   3.359   3.787   8.636  0.7335  0.6574 -1.4672
 2783SOL    HW219812   3.258   3.883   8.581  0.7176  0.0794 -0.3634
 2784SOL     OW19813   2.513   2.041   0.711  0.2284 -0.4873  0.0891
 2784SOL    HW119814   2.493   2.134   0.710  0.7900 -0.3771 -0.4565
 2784SOL    HW219815   2.485   2.008   0.626 -1.5722  0.5077  0.2944
 2785SOL     OW19816   3.634   2.327   7.274  0.1116 -0.4078  0.5063
 2785SOL    HW119817   3.605   2.235   7.270 -0.5132 -0.1922 -0.0142
 2785SOL    HW219818   3.699   2.311   7.342  0.8822 -0.8543 -0.3415
 2786SOL     OW19819   3.091   2.595   4.196 -0.7662  0.5384 -0.7299
 2786SOL    HW119820   3.035   2.647   4.254 -1.8948 -1.1936 -0.2748
 2786SOL    HW219821   3.090   2.650   4.117  1.0798 -2.0003 -2.4957
 2787SOL     OW19822   2.730   2.962   7.322 -0.4781  0.1667 -0.4081
 2787SOL    HW119823   2.747   2.945   7.229 -1.7784 -1.5657 -0.3216
 2787SOL    HW219824   2.653   3.017   7.307 -1.7608 -1.7930 -1.0524
 2788SOL     OW19825   3.259   2.834   5.732  0.1999 -0.2422  0.1424
 2788SOL    HW119826   3.166   2.837   5.754  0.9410 -0.4045  3.3881
 2788SOL    HW219827   3.288   2.754   5.777  0.2936 -0.2046  0.1489
 2789SOL     OW19828   3.417   3.799   3.036 -0.1793 -0.2032 -0.6438
 2789SOL    HW119829   3.346   3.750   3.078  0.3212 -2.0268 -1.9164
 2789SOL    HW219830   3.375   3.877   2.997 -1.9670 -0.5506  0.6192
 2790SOL     OW19831   4.385   1.877  16.775 -0.5746 -0.5308  0.5106
 2790SOL    HW119832   4.463   1.827  16.751  0.2315 -0.1006  2.2502
 2790SOL    HW219833   4.320   1.807  16.761  1.4949 -2.3084 -0.2637
 2791SOL     OW19834   2.592   2.496   2.701 -0.0861  0.4655  0.1471
 2791SOL    HW119835   2.513   2.444   2.683 -0.3513  2.3730 -4.1870
 2791SOL    HW219836   2.648   2.424   2.729  0.1238 -0.1621 -1.8156
 2792SOL     OW19837   0.465   1.364   5.150  0.1213  0.5230 -0.1119
 2792SOL    HW119838   0.433   1.438   5.201 -2.3824 -1.1254  0.7484
 2792SOL    HW219839   0.542   1.341   5.201 -0.1501  1.3629  0.6702
 2793SOL     OW19840   3.521   0.428   5.511  0.1927  0.7771  0.4885
 2793SOL    HW119841   3.497   0.345   5.552  0.8449  0.6739  0.6536
 2793SOL    HW219842   3.482   0.422   5.423 -2.3350 -0.0684  1.6729
 2794SOL     OW19843   2.179   2.369  11.430  0.3702 -0.1707  0.1681
 2794SOL    HW119844   2.241   2.440  11.415  1.4587 -1.2868 -0.5774
 2794SOL    HW219845   2.123   2.368  11.353  0.7888  0.3551 -0.1390
 2795SOL     OW19846   0.264   4.418   8.031  0.2351  0.0837 -0.3084
 2795SOL    HW119847   0.336   4.413   7.968 -0.2372  0.7179 -0.9040
 2795SOL    HW219848   0.212   4.483   7.982 -0.7435  0.7179  1.5914
 2796SOL     OW19849   3.023   0.237  15.533  0.0263  0.2247 -0.4961
 2796SOL    HW119850   3.039   0.268  15.444  0.1300  1.5589 -0.0095
 2796SOL    HW219851   3.056   0.317  15.574  0.8561  0.8601 -2.4059
 2797SOL     OW19852   4.529   0.705   5.460 -0.4028 -0.2614 -0.0472
 2797SOL    HW119853   4.572   0.674   5.380  1.6778 -0.2337  1.0648
 2797SOL    HW219854   4.451   0.744   5.421 -0.6798 -1.4441 -0.7018
 2798SOL     OW19855   2.394   1.630   8.141 -0.4590 -0.0255  0.5735
 2798SOL    HW119856   2.408   1.571   8.214 -0.2900  0.9501  1.3260
 2798SOL    HW219857   2.397   1.716   8.182  2.6062  0.2446 -0.1916
 2799SOL     OW19858   1.828   3.360  15.181 -0.2920  0.0759 -0.6582
 2799SOL    HW119859   1.806   3.282  15.232  2.1164 -0.3623 -0.2947
 2799SOL    HW219860   1.838   3.432  15.243  0.3799  0.4793 -1.2278
 2800SOL     OW19861   3.423   0.548   6.092  0.0201  0.0056 -1.0497
 2800SOL    HW119862   3.371   0.474   6.123  1.4984 -0.1443  1.0760
 2800SOL    HW219863   3.370   0.622   6.120 -0.6797 -0.8184 -0.2005
 2801SOL     OW19864   3.706   1.352  15.765  0.8242  0.5343  0.1651
 2801SOL    HW119865   3.749   1.415  15.823 -0.0479 -1.0001  2.4467
 2801SOL    HW219866   3.770   1.344  15.694  0.6115  1.1287 -0.0968
 2802SOL     OW19867   1.774   2.254   9.431 -0.2356  0.8068  0.6275
 2802SOL    HW119868   1.722   2.198   9.374 -0.5262  1.4378  0.2743
 2802SOL    HW219869   1.821   2.187   9.480  0.9138 -0.0968 -1.7106
 2803SOL     OW19870   3.387   4.105   2.125 -0.1584 -0.3955 -0.2551
 2803SOL    HW119871   3.379   4.073   2.215  1.6959  1.4706  0.5786
 2803SOL    HW219872   3.468   4.059   2.100  0.0027 -1.3577  2.0562
 2804SOL     OW19873   4.231   2.212   7.007  0.3659 -0.5607 -0.6486
 2804SOL    HW119874   4.272   2.292   7.042  2.8623 -1.7677 -0.8118
 2804SOL    HW219875   4.285   2.192   6.931  1.3461 -1.0712  0.1786
 2805SOL     OW19876   0.260   3.036   2.640 -0.3700  0.2649 -0.4386
 2805SOL    HW119877   0.307   2.977   2.698  0.6743 -1.4489 -3.0328
 2805SOL    HW219878   0.331   3.076   2.590  1.4227 -0.6480  1.3997
 2806SOL     OW19879   3.443   2.543   1.465  0.5237  0.5972  0.2944
 2806SOL    HW119880   3.479   2.570   1.380  1.5190  0.8711  0.8059
 2806SOL    HW219881   3.479   2.603   1.531  2.6358 -0.8784  0.4809
 2807SOL     OW19882   1.330   3.362   6.836  0.0795  0.1041  0.6116
 2807SOL    HW119883   1.372   3.383   6.920 -1.0920  3.2537  0.4170
 2807SOL    HW219884   1.393   3.410   6.782  2.3236 -2.9552  0.4958
 2808SOL     OW19885   1.401   1.772   5.089 -0.6948 -0.2481 -0.3606
 2808SOL    HW119886   1.412   1.719   5.168  4.1581  3.0759  1.1584
 2808SOL    HW219887   1.425   1.860   5.118 -2.5839  0.0457  0.2896
 2809SOL     OW19888   2.454   0.461   3.979 -0.5942  0.1788  0.2100
 2809SOL    HW119889   2.362   0.480   3.997 -0.5356  0.2634  0.4196
 2809SOL    HW219890   2.491   0.546   4.003 -1.4254  0.3655  0.8026
 2810SOL     OW19891   3.923   4.082   5.866  0.8979 -0.7238 -0.5039
 2810SOL    HW119892   3.829   4.077   5.852  0.7618 -1.8591  0.8132
 2810SOL    HW219893   3.946   4.151   5.805  1.0406  0.7076  1.1612
 2811SOL     OW19894   0.211   1.423  17.074 -0.3896  0.5469 -0.3209
 2811SOL    HW119895   0.118   1.430  17.098  0.1003 -1.0782  2.0487
 2811SOL    HW219896   0.232   1.516  17.071 -1.3851  0.6905 -2.9411
 2812SOL     OW19897   1.003   4.511   7.830  0.2262  0.3582 -0.2505
 2812SOL    HW119898   1.090   4.471   7.830 -0.3675 -0.9424  0.6508
 2812SOL    HW219899   0.973   4.518   7.739  0.9778 -0.4946 -0.5619
 2813SOL     OW19900   0.901   1.657   7.228 -0.2414  0.3656 -0.1269
 2813SOL    HW119901   0.806   1.657   7.234 -0.3811 -0.1387 -2.4080
 2813SOL    HW219902   0.925   1.747   7.252  1.7056 -0.5678  1.4223
 2814SOL     OW19903   0.413   0.780   4.228  0.2461  0.1477 -0.6057
 2814SOL    HW119904   0.461   0.792   4.146  2.6427  0.9402  0.9289
 2814SOL    HW219905   0.456   0.847   4.280  1.9380  1.3373 -3.5336
 2815SOL     OW19906   2.643   3.261   9.057 -0.3255 -0.2030  0.2116
 2815SOL    HW119907   2.669   3.169   9.071 -1.8042 -1.0844 -3.0290
 2815SOL    HW219908   2.616   3.278   9.147 -0.9034 -0.2426  0.0465
 2816SOL     OW19909   3.888   0.913   8.148  0.3751 -0.3828 -0.5188
 2816SOL    HW119910   3.891   0.834   8.095  0.8256 -0.0039 -1.0549
 2816SOL    HW219911   3.794   0.923   8.140  0.4621  1.2139  0.4709
 2817SOL     OW19912   2.083   0.344   9.659 -0.6898 -0.9484 -0.3529
 2817SOL    HW119913   2.013   0.371   9.600 -0.1241  2.6611  0.6390
 2817SOL    HW219914   2.028   0.333   9.736 -0.4427  1.4748  0.1619
 2818SOL     OW19915   3.658   2.659   4.740  0.0229 -0.5740  0.3855
 2818SOL    HW119916   3.725   2.594   4.720 -0.6779 -0.9423 -0.7557
 2818SOL    HW219917   3.581   2.629   4.691 -0.2844  0.1322  0.4386
 2819SOL     OW19918   2.761   0.182   8.107  0.3440  0.2349 -0.1439
 2819SOL    HW119919   2.810   0.261   8.128  1.3228 -0.2198 -0.7247
 2819SOL    HW219920   2.730   0.162   8.195 -1.8415  0.5354 -0.8224
 2820SOL     OW19921   1.292   3.923   5.536 -0.0331  0.0250 -0.1097
 2820SOL    HW119922   1.283   3.964   5.450  1.1257  0.7804  0.1461
 2820SOL    HW219923   1.367   3.864   5.524 -0.6102 -0.6483 -0.4597
 2821SOL     OW19924   0.245   3.981   7.281  0.0171  0.6561  0.0450
 2821SOL    HW119925   0.312   4.047   7.263  0.3767 -0.3577 -2.3584
 2821SOL    HW219926   0.177   4.001   7.217  0.8782  1.5310 -0.5984
 2822SOL     OW19927   2.885   1.354   9.763  0.2967 -0.6870 -0.6928
 2822SOL    HW119928   2.958   1.360   9.826  1.2890  0.2128 -1.9367
 2822SOL    HW219929   2.885   1.446   9.736 -1.9301 -0.8316 -1.1131
 2823SOL     OW19930   4.069   1.157  10.093 -0.0403 -0.7812 -0.2319
 2823SOL    HW119931   4.161   1.157  10.118 -0.5550 -1.5373  1.6234
 2823SOL    HW219932   4.076   1.175   9.999 -1.4367  3.1498  0.4087
 2824SOL     OW19933   0.119   3.133  15.545  0.3635  0.1588 -0.4600
 2824SOL    HW119934   0.113   3.212  15.490 -0.9572 -0.3534 -1.0734
 2824SOL    HW219935   0.101   3.064  15.481  0.0678  0.6985 -0.9685
 2825SOL     OW19936   4.304   0.141  16.930  0.1315  0.2722 -0.0676
 2825SOL    HW119937   4.254   0.174  17.005  0.0793 -1.2856  0.5875
 2825SOL    HW219938   4.248   0.066  16.911 -1.9511  1.3652  1.8035
 2826SOL     OW19939   0.252   4.113   2.190 -0.4074  0.6265  0.0237
 2826SOL    HW119940   0.263   4.116   2.285  3.0303 -2.2635 -0.3000
 2826SOL    HW219941   0.159   4.091   2.179  0.4330 -1.4399 -2.8306
 2827SOL     OW19942   2.130   3.337  15.336  0.0789 -0.1334 -0.4400
 2827SOL    HW119943   2.048   3.386  15.339 -0.5194 -1.0401 -1.8128
 2827SOL    HW219944   2.133   3.321  15.430  1.2791 -0.3687 -0.5209
 2828SOL     OW19945   0.697   0.717   9.159 -0.4021  0.6730 -0.3735
 2828SOL    HW119946   0.742   0.646   9.205 -0.9660 -0.7589 -2.0244
 2828SOL    HW219947   0.747   0.793   9.190  3.4452 -2.7764  1.9062
 2829SOL     OW19948   2.503   1.396   4.357 -0.0328 -0.8543  0.4232
 2829SOL    HW119949   2.444   1.450   4.409  0.0343 -0.4291  0.0645
 2829SOL    HW219950   2.507   1.451   4.279  1.1685 -0.7712  0.5422
 2830SOL     OW19951   2.635   4.676   6.965 -0.6833 -0.2739 -0.0371
 2830SOL    HW119952   2.603   4.593   7.000 -1.0447 -0.7055 -1.4142
 2830SOL    HW219953   2.690   4.710   7.036 -0.6812 -0.3749  0.0092
 2831SOL     OW19954   1.322   4.422  10.857  0.1207 -0.2020  0.3810
 2831SOL    HW119955   1.378   4.454  10.786 -0.8427  1.8503  0.5492
 2831SOL    HW219956   1.299   4.504  10.900  0.9253  0.0445  0.3484
 2832SOL     OW19957   3.528   1.401  11.151  0.1641  0.1780  0.3337
 2832SOL    HW119958   3.488   1.471  11.098  1.7889  0.3921 -0.6110
 2832SOL    HW219959   3.584   1.356  11.088 -0.6143 -0.8867  0.3889
 2833SOL     OW19960   1.958   4.526   7.996  1.0480 -0.5746 -0.2173
 2833SOL    HW119961   2.047   4.545   7.965 -0.2270  1.3389 -2.7606
 2833SOL    HW219962   1.907   4.549   7.918 -0.6295  2.2086  1.6903
 2834SOL     OW19963   1.287   3.987  16.204 -0.8927 -0.5252  0.6955
 2834SOL    HW119964   1.248   3.956  16.285  0.8289 -4.5998 -0.0458
 2834SOL    HW219965   1.235   3.938  16.140 -0.5230  1.4230 -1.1090
 2835SOL     OW19966   1.960   4.570  16.685 -0.3032  0.3450 -0.1094
 2835SOL    HW119967   1.982   4.530  16.770 -0.8841 -0.7186 -0.4616
 2835SOL    HW219968   1.948   4.661  16.714 -2.8714  0.3654 -1.2054
 2836SOL     OW19969   2.174   3.442  14.840 -0.6457 -0.4121  0.2539
 2836SOL    HW119970   2.162   3.362  14.788  0.0622 -1.1413  1.2023
 2836SOL    HW219971   2.137   3.419  14.926  0.7257  1.5839  1.3675
 2837SOL     OW19972   2.856   2.957  13.001 -0.0033  0.3744  0.8194
 2837SOL    HW119973   2.924   2.891  12.986 -0.2802  0.2250  0.2076
 2837SOL    HW219974   2.783   2.912  12.958  0.7405 -0.4431  0.4204
 2838SOL     OW19975   2.889   2.650   3.237  0.3855 -0.5050  0.0569
 2838SOL    HW119976   2.936   2.719   3.191 -0.1278  1.9939  3.3314
 2838SOL    HW219977   2.969   2.605   3.267  0.3417  0.2890  1.3559
 2839SOL     OW19978   1.979   0.735  12.864 -0.3236 -0.4600  0.1144
 2839SOL    HW119979   1.953   0.646  12.887 -2.2660 -0.9260 -3.9909
 2839SOL    HW219980   1.912   0.774  12.808 -1.3580 -3.3140 -0.6282
 2840SOL     OW19981   3.443   1.553   4.005 -0.2887  0.0678  0.1931
 2840SOL    HW119982   3.393   1.565   3.925 -0.3408 -0.4781  0.1423
 2840SOL    HW219983   3.402   1.474   4.041 -0.1014  0.1956  0.6803
 2841SOL     OW19984   4.291   2.588   6.513 -0.1566  0.2452 -0.0854
 2841SOL    HW119985   4.209   2.621   6.550  0.8959  0.7963  1.7057
 2841SOL    HW219986   4.298   2.508   6.565 -0.2577 -0.3612 -0.9966
 2842SOL     OW19987   4.194   2.880   2.466 -0.2465  0.1298 -0.0789
 2842SOL    HW119988   4.189   2.820   2.540 -0.3233 -0.0883 -0.2617
 2842SOL    HW219989   4.106   2.875   2.429 -0.5570 -0.3651  0.7374
 2843SOL     OW19990   2.586   3.538   2.182 -0.2280 -0.7151  0.1495
 2843SOL    HW119991   2.568   3.626   2.215  1.1298  0.0365 -1.0869
 2843SOL    HW219992   2.550   3.481   2.251  0.5865 -2.7517 -1.1019
 2844SOL     OW19993   0.198   1.858   5.909 -0.1871  0.0429 -0.3968
 2844SOL    HW119994   0.283   1.814   5.911  1.3265  2.9741 -0.6298
 2844SOL    HW219995   0.215   1.921   5.979  0.9202  1.2255 -1.7351
 2845SOL     OW19996   0.908   0.716   2.663 -0.6501 -0.6404 -0.1808
 2845SOL    HW119997   0.959   0.767   2.600 -1.0497  0.0869  0.0805
 2845SOL    HW219998   0.867   0.790   2.709 -0.1995  0.5165 -1.6239
 2846SOL     OW19999   3.851   2.448   0.271 -0.1308 -0.4154 -0.2830
 2846SOL    HW120000   3.942   2.419   0.271  0.0162  0.0469 -0.5325
 2846SOL    HW220001   3.811   2.362   0.284 -2.8064  0.5033 -2.4179
 2847SOL     OW20002   4.197   0.324  13.308 -0.4178 -0.3369 -0.7583
 2847SOL    HW120003   4.229   0.361  13.390 -1.5178  0.6857 -0.7989
 2847SOL    HW220004   4.120   0.275  13.336 -1.6103  1.5983 -0.6444
 2848SOL     OW20005   1.129   4.679  14.670 -0.0215  0.2911  0.0795
 2848SOL    HW120006   1.111   4.607  14.609  0.2439 -1.4550  2.0507
 2848SOL    HW220007   1.159   0.023  14.608  0.1270 -1.9975 -2.3420
 2849SOL     OW20008   2.158   2.206   4.499  0.4262  0.6088 -0.5627
 2849SOL    HW120009   2.063   2.209   4.491  0.4694  1.2195 -0.8199
 2849SOL    HW220010   2.189   2.248   4.419  2.2667  2.4730  1.1383
 2850SOL     OW20011   0.563   3.390   2.687 -0.0482  0.1782  0.2644
 2850SOL    HW120012   0.538   3.348   2.605  2.7427  0.5341 -0.7599
 2850SOL    HW220013   0.592   3.323   2.748 -0.8456  0.3204  0.7972
 2851SOL     OW20014   0.160   1.581  16.594  0.3634 -0.4208  0.4397
 2851SOL    HW120015   0.198   1.506  16.640 -1.0690 -2.2202 -1.2892
 2851SOL    HW220016   0.176   1.661  16.644  1.1256 -0.5977  0.4741
 2852SOL     OW20017   2.185   1.731  10.502 -0.2222 -0.0992  0.0644
 2852SOL    HW120018   2.092   1.743  10.483 -0.3462 -0.0234  0.7436
 2852SOL    HW220019   2.218   1.752  10.414 -1.9337 -0.4345 -0.6592
 2853SOL     OW20020   1.536   3.653   6.409  0.1699  0.5268  0.2763
 2853SOL    HW120021   1.549   3.747   6.422  2.7077  0.5035 -2.1389
 2853SOL    HW220022   1.443   3.638   6.426 -0.2271  2.8365  0.0987
 2854SOL     OW20023   0.753   0.089   3.107  0.7362 -0.0958  0.0928
 2854SOL    HW120024   0.809   0.038   3.167  0.7888 -0.4276 -0.2391
 2854SOL    HW220025   0.818   0.119   3.044  0.5038  2.1310  0.9096
 2855SOL     OW20026   3.874   1.767   6.013 -0.0465 -0.0493 -0.2019
 2855SOL    HW120027   3.902   1.825   6.083 -1.1909  0.6540 -0.3241
 2855SOL    HW220028   3.853   1.684   6.054  0.9574  0.4140  1.2416
 2856SOL     OW20029   2.618   2.431  10.496  0.7377  0.2046 -0.0011
 2856SOL    HW120030   2.635   2.427  10.590  0.4494 -1.3509 -0.0150
 2856SOL    HW220031   2.670   2.508  10.473  1.1136  0.9994  3.5801
 2857SOL     OW20032   2.254   2.169  15.591 -0.7917 -0.1796 -0.0467
 2857SOL    HW120033   2.160   2.150  15.593 -0.9513  0.7540  1.8382
 2857SOL    HW220034   2.260   2.126  15.506  1.4856  1.2644 -0.6102
 2858SOL     OW20035   0.805   0.270   2.824 -0.1804  0.0390  0.0873
 2858SOL    HW120036   0.888   0.222   2.821  1.0471  2.1731 -0.1807
 2858SOL    HW220037   0.840   0.359   2.829  1.2659 -0.4308 -1.6053
 2859SOL     OW20038   4.181   3.519   1.190 -0.3900 -0.3722  0.3393
 2859SOL    HW120039   4.221   3.570   1.119  1.6900 -0.6724  1.2904
 2859SOL    HW220040   4.105   3.576   1.198  0.6580  1.4098 -2.3297
 2860SOL     OW20041   2.776   1.653  16.768  0.3704 -0.1631  0.1543
 2860SOL    HW120042   2.800   1.722  16.706 -1.2592 -0.1874 -0.4974
 2860SOL    HW220043   2.735   1.697  16.843 -0.6335 -1.2633  0.2554
 2861SOL     OW20044   2.336   4.720   0.788  0.1822  0.5276 -0.8048
 2861SOL    HW120045   2.390   4.661   0.735 -0.6206 -1.6627  0.7702
 2861SOL    HW220046   2.251   4.685   0.762  0.3308  1.0468 -1.9483
 2862SOL     OW20047   4.232   2.200  10.454  0.9317 -0.5442 -0.2248
 2862SOL    HW120048   4.237   2.169  10.544 -0.1839  1.2331  0.4489
 2862SOL    HW220049   4.240   2.294  10.467  2.4484 -0.2451 -3.3266
 2863SOL     OW20050   4.405   1.206   6.039 -0.6574 -0.3343 -0.0893
 2863SOL    HW120051   4.352   1.255   5.975  1.4985  1.7392 -0.3116
 2863SOL    HW220052   4.383   1.118   6.011 -1.0666 -0.6012  1.0972
 2864SOL     OW20053   0.017   2.019  15.673 -0.3144 -0.5756  0.3678
 2864SOL    HW120054   4.670   1.984  15.618 -2.7170  0.0101  3.0429
 2864SOL    HW220055   4.685   2.076  15.726 -0.1964  1.7216 -1.9676
 2865SOL     OW20056   3.565   1.773   8.312  0.0919  0.1393 -0.1077
 2865SOL    HW120057   3.584   1.805   8.224  2.5385 -1.6306 -0.1992
 2865SOL    HW220058   3.646   1.807   8.349  0.7556 -3.1341  1.4411
 2866SOL     OW20059   2.834   3.858   6.054 -0.1722 -0.6563 -0.1429
 2866SOL    HW120060   2.808   3.782   6.105  0.5422 -0.4434  0.5383
 2866SOL    HW220061   2.810   3.830   5.965  0.0884 -1.2426 -0.0289
 2867SOL     OW20062   3.340   2.603   5.851 -0.2671  0.2194 -0.5054
 2867SOL    HW120063   3.271   2.547   5.887  0.0350  0.1572 -0.0256
 2867SOL    HW220064   3.373   2.647   5.929 -2.9720 -1.5432  1.6566
 2868SOL     OW20065   4.707   2.113   1.942 -0.6820 -0.2689  1.0810
 2868SOL    HW120066   0.071   2.143   1.917 -0.7853  0.5279  1.6754
 2868SOL    HW220067   0.004   2.095   2.033  1.0450 -0.3484  0.6879
 2869SOL     OW20068   1.270   2.526   4.252 -0.1026  0.1892 -0.0543
 2869SOL    HW120069   1.285   2.583   4.177 -2.2252  1.9848  0.8862
 2869SOL    HW220070   1.217   2.587   4.302  0.6932  2.0405 -1.4778
 2870SOL     OW20071   4.297   0.854   5.075 -0.5401 -0.2884 -0.0478
 2870SOL    HW120072   4.232   0.918   5.046 -2.5171 -1.0681  2.7194
 2870SOL    HW220073   4.285   0.787   5.007  0.6736  0.9235 -1.4587
 2871SOL     OW20074   2.284   3.562  16.348  0.1044 -0.1247  0.2123
 2871SOL    HW120075   2.369   3.570  16.305 -0.3154  0.5152 -0.4939
 2871SOL    HW220076   2.283   3.631  16.414 -0.8725 -1.6787  1.8433
 2872SOL     OW20077   2.310   4.693   7.354 -0.2330 -0.0437  0.2921
 2872SOL    HW120078   2.344   4.662   7.438 -0.7961 -0.1882  0.4671
 2872SOL    HW220079   2.332   4.619   7.297  1.4439  2.3960 -2.2322
 2873SOL     OW20080   3.417   4.590   5.315  0.6093  0.0207 -0.3084
 2873SOL    HW120081   3.445   4.599   5.406 -2.7097  0.4312  0.6662
 2873SOL    HW220082   3.360   4.666   5.306  2.4557  1.3052 -1.3159
 2874SOL     OW20083   2.306   3.632   8.792  0.4197 -0.2699 -0.2502
 2874SOL    HW120084   2.321   3.540   8.811  0.5375  0.3030  2.5005
 2874SOL    HW220085   2.220   3.625   8.750  0.2964  0.3263 -0.1027
 2875SOL     OW20086   2.608   0.795   7.849  0.5786  0.1454  0.1997
 2875SOL    HW120087   2.591   0.733   7.919  1.2993 -2.4360 -1.8980
 2875SOL    HW220088   2.598   0.744   7.769 -1.1977  0.5111  0.1695
 2876SOL     OW20089   4.490   4.099   6.843  0.0270 -0.0947 -0.5258
 2876SOL    HW120090   4.518   4.144   6.763 -0.7093 -0.7604 -1.1515
 2876SOL    HW220091   4.437   4.033   6.798 -0.4492 -0.8608  1.1531
 2877SOL     OW20092   2.285   0.893   7.634  0.4339  0.0851 -0.2329
 2877SOL    HW120093   2.216   0.928   7.577  0.9021 -0.6564 -1.2412
 2877SOL    HW220094   2.322   0.838   7.565  4.2006  0.2451  1.6530
 2878SOL     OW20095   3.131   2.295   9.305 -0.2214  0.8100  0.0067
 2878SOL    HW120096   3.147   2.304   9.399 -1.5266 -1.4932  0.4426
 2878SOL    HW220097   3.039   2.321   9.295 -0.2203  0.9410  0.3561
 2879SOL     OW20098   4.467   3.602   0.189 -0.7352  0.1778 -0.0461
 2879SOL    HW120099   4.558   3.583   0.211 -0.9174  0.8927  1.3322
 2879SOL    HW220100   4.414   3.586   0.268  0.1845  1.9953  0.9242
 2880SOL     OW20101   0.820   1.022   7.154 -0.3334 -0.1497  0.0611
 2880SOL    HW120102   0.815   1.118   7.153 -0.6813 -0.1686 -0.0431
 2880SOL    HW220103   0.914   1.007   7.147 -0.3895  0.0980 -1.2592
 2881SOL     OW20104   1.921   1.980  11.750  0.3084 -1.0923 -1.0919
 2881SOL    HW120105   1.982   2.022  11.689  0.2516  0.6182  0.0473
 2881SOL    HW220106   1.841   2.024  11.722  0.4563 -1.5786 -2.2963
 2882SOL     OW20107   3.854   0.227   0.049  0.1075  0.2163  0.3397
 2882SOL    HW120108   3.937   0.198   0.088 -0.3335  0.5314  1.5066
 2882SOL    HW220109   3.785   0.187   0.101 -1.2385 -0.1819 -1.7363
 2883SOL     OW20110   0.667   2.087   2.644 -0.3003 -0.5472  0.3842
 2883SOL    HW120111   0.728   2.140   2.695 -0.6816  0.2376  0.0210
 2883SOL    HW220112   0.584   2.129   2.665 -0.3470 -2.1313  3.4120
 2884SOL     OW20113   4.523   0.734   5.857 -0.0862 -0.9200  0.0099
 2884SOL    HW120114   4.580   0.799   5.897 -0.6767 -0.0361 -0.5822
 2884SOL    HW220115   4.575   0.728   5.777  1.9545 -0.8499  1.3332
 2885SOL     OW20116   4.092   0.983   8.455 -0.3950  0.2653 -0.0156
 2885SOL    HW120117   4.009   0.938   8.473  0.5634 -1.7806 -0.7649
 2885SOL    HW220118   4.141   0.964   8.534  0.8680  2.7955 -0.1967
 2886SOL     OW20119   3.772   3.051  16.779  0.0006  0.4695 -0.5182
 2886SOL    HW120120   3.824   3.114  16.730  1.3941 -1.5892 -1.6864
 2886SOL    HW220121   3.713   3.039  16.705  0.8833 -2.1610 -0.8011
 2887SOL     OW20122   1.005   4.225   2.822  0.0875  0.5752  0.1412
 2887SOL    HW120123   1.007   4.132   2.801 -0.2142  1.0337 -1.8716
 2887SOL    HW220124   0.975   4.221   2.913 -0.3281 -0.5519 -0.0557
 2888SOL     OW20125   3.843   4.620   3.719 -0.5129  0.1817  0.4273
 2888SOL    HW120126   3.781   4.687   3.748 -2.0995 -0.8441 -0.6174
 2888SOL    HW220127   3.812   4.602   3.630 -1.2916 -1.8342  1.0924
 2889SOL     OW20128   2.225   0.140   2.972  0.7703 -0.8234 -0.0162
 2889SOL    HW120129   2.244   0.136   2.878 -2.6288  0.4677 -0.7719
 2889SOL    HW220130   2.160   0.072   2.990 -0.3385  0.2464  0.0708
 2890SOL     OW20131   2.649   0.088   8.336 -0.0927 -0.0201 -0.3685
 2890SOL    HW120132   2.717   0.112   8.398 -1.3575 -0.1276  1.0595
 2890SOL    HW220133   2.577   0.097   8.398  0.6283 -0.3185  0.4984
 2891SOL     OW20134   4.597   1.114   3.997 -0.9573  0.0480  0.3006
 2891SOL    HW120135   4.685   1.113   3.960 -1.5339 -1.5246 -1.0299
 2891SOL    HW220136   4.581   1.026   4.033 -0.0729 -0.4435 -0.4979
 2892SOL     OW20137   4.682   3.844  11.702  0.5068 -0.1350 -0.2442
 2892SOL    HW120138   0.017   3.903  11.749  2.2174 -1.4397 -0.6824
 2892SOL    HW220139   4.703   3.762  11.747  0.9617 -0.1180 -0.4299
 2893SOL     OW20140   2.734   3.141   4.196  0.1416 -0.2294  0.3677
 2893SOL    HW120141   2.676   3.214   4.217  0.1171 -0.3918  0.8547
 2893SOL    HW220142   2.712   3.083   4.268 -1.5032  0.1608  0.1854
 2894SOL     OW20143   1.053   0.321   3.028 -0.5896 -0.3034 -0.9762
 2894SOL    HW120144   1.036   0.384   2.958  3.2469 -1.5459 -2.9959
 2894SOL    HW220145   1.148   0.326   3.031 -0.5951 -0.6733 -0.2713
 2895SOL     OW20146   3.279   3.460   8.152  0.1319  0.0456  0.4354
 2895SOL    HW120147   3.249   3.376   8.185 -1.5165  1.2179  1.9092
 2895SOL    HW220148   3.371   3.451   8.179 -0.2795  0.1621  1.8726
 2896SOL     OW20149   3.610   0.779   3.050  0.1144  0.0766 -0.3071
 2896SOL    HW120150   3.675   0.823   3.105 -0.6840  0.8277  0.0361
 2896SOL    HW220151   3.553   0.849   3.018  1.4044  1.8230  1.2330
 2897SOL     OW20152   1.603   2.457   3.865 -0.4880 -0.3816  1.0125
 2897SOL    HW120153   1.671   2.401   3.903 -1.1377 -3.2822 -2.0665
 2897SOL    HW220154   1.525   2.403   3.877  0.4942 -2.6722 -2.9812
 2898SOL     OW20155   3.368   0.330  15.693 -0.0608  0.3365 -0.4617
 2898SOL    HW120156   3.333   0.334  15.782  0.1241 -0.4353 -0.3572
 2898SOL    HW220157   3.419   0.250  15.699 -3.6784 -1.9567 -0.2181
 2899SOL     OW20158   2.963   0.908  13.156  0.7105 -0.7757 -0.2286
 2899SOL    HW120159   2.986   0.957  13.234 -0.6320 -1.5943  0.6765
 2899SOL    HW220160   3.039   0.850  13.153  1.0289 -0.4127  1.0443
 2900SOL     OW20161   3.948   3.039   7.605 -0.5282 -0.0782 -0.4433
 2900SOL    HW120162   3.999   2.958   7.612 -0.8384 -0.2531 -0.2425
 2900SOL    HW220163   4.025   3.093   7.586 -1.9584  1.4168 -1.9608
 2901SOL     OW20164   2.453   2.438   8.972 -0.2372 -0.2464  0.4688
 2901SOL    HW120165   2.395   2.375   9.015 -0.1007 -0.9266 -0.3499
 2901SOL    HW220166   2.396   2.515   8.978  0.5650  0.1500  3.2446
 2902SOL     OW20167   1.072   0.950  16.489 -0.3482  0.6136 -0.5047
 2902SOL    HW120168   1.140   1.009  16.456  0.1854 -0.0501 -0.5804
 2902SOL    HW220169   0.999   1.010  16.474 -1.8333 -1.1801 -0.4904
 2903SOL     OW20170   1.149   3.996   4.638 -0.3175 -0.3639  0.0028
 2903SOL    HW120171   1.224   4.053   4.620 -0.6621  0.0682 -0.0859
 2903SOL    HW220172   1.108   4.047   4.708 -0.5797 -1.1894  0.4498
 2904SOL     OW20173   4.217   2.275   8.669  0.1460  0.1358 -0.6780
 2904SOL    HW120174   4.158   2.323   8.611 -2.3201  0.1793  1.8651
 2904SOL    HW220175   4.164   2.199   8.694 -0.9527  1.5554  1.3476
 2905SOL     OW20176   2.898   3.664  12.577  0.2760  0.0812 -0.1875
 2905SOL    HW120177   2.980   3.615  12.568  0.4562  0.8190 -2.4297
 2905SOL    HW220178   2.856   3.666  12.491 -0.5681  0.5829  0.2281
 2906SOL     OW20179   0.689   4.336   0.215 -0.0162 -0.1115  0.5389
 2906SOL    HW120180   0.657   4.403   0.275 -2.0300 -0.9157  0.3535
 2906SOL    HW220181   0.623   4.266   0.211 -0.5445  0.2387  3.3859
 2907SOL     OW20182   3.946   0.531   8.483 -0.8403  0.3885  0.0666
 2907SOL    HW120183   3.964   0.557   8.573 -1.0310 -0.3203  0.3123
 2907SOL    HW220184   4.004   0.591   8.437 -1.1385  3.0515  3.1536
 2908SOL     OW20185   0.402   3.085   7.364 -0.6595  0.3915  0.4060
 2908SOL    HW120186   0.405   3.003   7.314  0.0104  0.4755  0.3050
 2908SOL    HW220187   0.340   3.061   7.433  0.4002 -0.7293  0.9735
 2909SOL     OW20188   3.031   3.309   2.941 -0.3450 -0.6049  0.2447
 2909SOL    HW120189   2.966   3.240   2.948  0.5717 -1.6035 -1.1326
 2909SOL    HW220190   3.099   3.269   2.995 -1.2427 -0.7852  1.2348
 2910SOL     OW20191   3.815   1.746   9.166 -0.1973 -0.0857  0.0624
 2910SOL    HW120192   3.734   1.775   9.125  0.0036  1.5824  0.8145
 2910SOL    HW220193   3.876   1.815   9.138 -1.3883  1.1859  0.6393
 2911SOL     OW20194   0.161   3.439  14.484 -0.1769 -0.0964 -0.3695
 2911SOL    HW120195   0.213   3.509  14.522  1.9954 -1.3837 -0.9350
 2911SOL    HW220196   0.141   3.481  14.400 -1.4674  0.5306  0.2715
 2912SOL     OW20197   1.532   2.840   1.095  0.2491  0.5163  0.4325
 2912SOL    HW120198   1.511   2.822   1.186 -1.6345  0.0474 -0.0759
 2912SOL    HW220199   1.538   2.749   1.065  1.6203 -0.1313  2.6829
 2913SOL     OW20200   1.514   0.114   9.129  0.7762  0.0889  0.1134
 2913SOL    HW120201   1.544   0.028   9.100  2.2250  1.3886 -2.2489
 2913SOL    HW220202   1.587   0.159   9.172  1.7121 -0.9894 -0.3469
 2914SOL     OW20203   2.794   4.594   3.918  0.7064 -0.0607  0.0027
 2914SOL    HW120204   2.812   4.677   3.961  1.2465  0.2881 -0.9006
 2914SOL    HW220205   2.883   4.563   3.933 -0.8548 -4.1797  0.7876
 2915SOL     OW20206   4.548   1.106  14.831  0.6422  0.0018 -0.0672
 2915SOL    HW120207   4.463   1.146  14.848  0.9683  1.0340 -0.8490
 2915SOL    HW220208   4.551   1.105  14.735 -0.3517 -2.6893 -0.0529
 2916SOL     OW20209   3.136   3.226   8.192 -0.0854 -0.1008  0.0154
 2916SOL    HW120210   3.074   3.229   8.119  1.4689 -0.7113 -1.3003
 2916SOL    HW220211   3.144   3.136   8.224 -0.5826 -0.4662 -0.8992
 2917SOL     OW20212   4.387   0.533   4.370  0.2584 -0.0141 -0.0893
 2917SOL    HW120213   4.481   0.549   4.365  0.7859 -3.3647 -1.0092
 2917SOL    HW220214   4.367   0.553   4.461 -0.6255 -0.0916 -0.2647
 2918SOL     OW20215   3.369   2.216  10.008  0.1568  0.1385  0.8543
 2918SOL    HW120216   3.307   2.221  10.081 -0.7735 -0.4463  0.1064
 2918SOL    HW220217   3.356   2.125   9.984  1.1788 -0.1518  1.3890
 2919SOL     OW20218   4.115   1.714   3.344  0.8047 -0.4227  0.4715
 2919SOL    HW120219   4.067   1.713   3.261  1.2160 -1.7132  0.2496
 2919SOL    HW220220   4.174   1.640   3.329  1.7528  0.0817  1.7008
 2920SOL     OW20221   3.101   3.055   7.103  0.5465 -0.2443  0.0636
 2920SOL    HW120222   3.164   2.999   7.058  1.1938  1.3836 -1.0252
 2920SOL    HW220223   3.063   3.101   7.029  0.4303  1.4184  1.1464
 2921SOL     OW20224   2.106   0.904  13.031  0.5846 -0.1154  0.2798
 2921SOL    HW120225   2.080   0.830  12.976 -0.8785  0.3719  0.3203
 2921SOL    HW220226   2.091   0.974  12.968  4.0716  1.6084  1.3638
 2922SOL     OW20227   2.260   1.916   2.217  0.2053 -0.0024 -0.8654
 2922SOL    HW120228   2.295   1.826   2.219 -0.1312 -0.1163 -0.2847
 2922SOL    HW220229   2.226   1.931   2.305 -2.0501  0.6659 -1.8667
 2923SOL     OW20230   1.431   2.290   5.823 -0.1954  0.0290 -0.0411
 2923SOL    HW120231   1.492   2.250   5.761  0.6714 -1.4538  1.8021
 2923SOL    HW220232   1.405   2.217   5.879  2.1470 -0.8946 -0.1773
 2924SOL     OW20233   0.625   0.970  11.207 -0.9975  0.1637  0.3581
 2924SOL    HW120234   0.598   0.897  11.263 -0.7931 -1.0459 -1.1110
 2924SOL    HW220235   0.591   1.050  11.246  1.4624  0.8832  1.0252
 2925SOL     OW20236   2.169   4.322   9.141  0.1510 -0.4361 -0.3656
 2925SOL    HW120237   2.074   4.318   9.134  0.0753  0.0804  0.4407
 2925SOL    HW220238   2.194   4.280   9.058  0.1079 -0.2105 -0.4924
 2926SOL     OW20239   0.810   4.597  16.984  0.0390  0.1221 -0.6418
 2926SOL    HW120240   0.899   4.580  16.952 -0.1540 -0.1581 -1.0389
 2926SOL    HW220241   0.846   4.627  17.067 -2.5078  2.1017 -0.2583
 2927SOL     OW20242   0.950   2.038   5.643 -0.2477  0.3699  0.1391
 2927SOL    HW120243   0.930   2.131   5.650  1.2784  0.8680 -2.0807
 2927SOL    HW220244   0.890   2.013   5.572 -1.4152  3.4912  0.0599
 2928SOL     OW20245   0.215   0.830   4.436  0.0310  0.2067 -0.8535
 2928SOL    HW120246   0.264   0.823   4.354 -0.1017  0.5878 -0.9682
 2928SOL    HW220247   0.285   0.815   4.499 -2.0764  0.8614  1.6224
 2929SOL     OW20248   4.655   2.779  12.000 -0.1718 -0.1296  0.2880
 2929SOL    HW120249   4.633   2.708  12.061  0.4291 -0.4026  0.1885
 2929SOL    HW220250   0.023   2.748  11.993 -0.5610 -1.1086 -0.3718
 2930SOL     OW20251   2.034   2.832   4.749 -0.6001  0.0787 -0.5616
 2930SOL    HW120252   1.961   2.779   4.718 -1.2978 -0.4723  2.1004
 2930SOL    HW220253   1.988   2.913   4.772 -0.1341  0.2157 -0.1119
 2931SOL     OW20254   3.722   2.634   2.614  0.2210 -0.1033 -0.2726
 2931SOL    HW120255   3.815   2.619   2.631 -0.3100 -1.5608  1.4729
 2931SOL    HW220256   3.700   2.557   2.561 -0.9658  0.1640 -0.1821
 2932SOL     OW20257   3.682   4.500   8.490  0.4295  0.5187 -0.4741
 2932SOL    HW120258   3.691   4.590   8.458 -1.3464  1.5954  2.1067
 2932SOL    HW220259   3.689   4.452   8.408 -1.2394 -1.1562  0.3742
 2933SOL     OW20260   3.685   1.712   5.785 -0.0047 -0.5691  0.1138
 2933SOL    HW120261   3.596   1.677   5.789 -0.0239 -0.9272 -2.9884
 2933SOL    HW220262   3.721   1.688   5.870 -1.0010 -2.5748 -0.0188
 2934SOL     OW20263   1.220   3.283   6.463 -0.1852 -0.2636  0.0669
 2934SOL    HW120264   1.157   3.249   6.399  0.8260  0.7231 -1.4620
 2934SOL    HW220265   1.172   3.352   6.509 -2.6151 -0.8696 -1.5261
 2935SOL     OW20266   0.904   3.560  10.961  0.1587  1.0630 -0.1696
 2935SOL    HW120267   0.850   3.526  10.890  2.2262 -0.8324 -0.8336
 2935SOL    HW220268   0.967   3.620  10.921  1.4922 -0.2887 -0.0986
 2936SOL     OW20269   3.961   3.409   5.853  0.3247 -0.4803  0.4599
 2936SOL    HW120270   3.879   3.457   5.838 -0.5106 -1.3162  2.3114
 2936SOL    HW220271   3.936   3.330   5.806 -0.9308 -0.6158  1.3496
 2937SOL     OW20272   0.626   4.612   5.252  0.0475 -0.3172  0.7880
 2937SOL    HW120273   0.532   4.629   5.256 -0.0283 -1.1236  2.2578
 2937SOL    HW220274   0.650   4.643   5.339  0.5800 -0.2743  0.6245
 2938SOL     OW20275   1.512   4.336   3.010 -0.2821 -0.0009 -0.8931
 2938SOL    HW120276   1.594   4.386   3.019 -0.0470 -0.9042  1.9779
 2938SOL    HW220277   1.462   4.350   3.090 -2.3953 -1.1518 -2.0187
 2939SOL     OW20278   1.616   3.505   3.244 -0.0353  0.5340 -0.9802
 2939SOL    HW120279   1.632   3.504   3.149  0.8674 -0.9083 -0.8241
 2939SOL    HW220280   1.707   3.494   3.273 -0.6040 -1.4372  0.0918
 2940SOL     OW20281   2.231   0.194   3.859 -0.6218  0.4915 -0.6064
 2940SOL    HW120282   2.198   0.104   3.857 -1.2434  0.6602  1.8733
 2940SOL    HW220283   2.321   0.179   3.830 -0.7854  2.8992 -2.3710
 2941SOL     OW20284   3.240   3.297  13.833  0.5094 -0.1139 -0.1538
 2941SOL    HW120285   3.304   3.281  13.902 -0.9386 -0.7356  1.0251
 2941SOL    HW220286   3.185   3.352  13.889  2.0190  1.3493 -0.0994
 2942SOL     OW20287   2.162   1.578  14.103 -0.0297  0.0333 -0.3440
 2942SOL    HW120288   2.145   1.493  14.063  0.4386 -0.1724 -0.1077
 2942SOL    HW220289   2.233   1.612  14.048 -2.7168  1.8188 -2.7249
 2943SOL     OW20290   2.363   0.442   0.669  0.4915 -0.5359  0.0353
 2943SOL    HW120291   2.330   0.522   0.712  2.8993 -0.6504  2.1029
 2943SOL    HW220292   2.388   0.400   0.751  0.2804  1.5615  1.1807
 2944SOL     OW20293   1.228   2.638   6.574  0.2129 -0.0900 -0.0410
 2944SOL    HW120294   1.314   2.600   6.586 -0.3173 -1.2190  0.2092
 2944SOL    HW220295   1.233   2.723   6.529 -3.9284 -1.7127 -3.5675
 2945SOL     OW20296   1.337   3.917  14.431 -0.4030  0.2089 -0.2295
 2945SOL    HW120297   1.333   3.830  14.389 -2.9184  0.0873  0.2666
 2945SOL    HW220298   1.244   3.939  14.429 -0.1937  1.1831  0.7744
 2946SOL     OW20299   4.484   1.553  15.012 -0.1037  0.1931  0.4997
 2946SOL    HW120300   4.465   1.570  14.919 -1.4052 -0.5805  0.6246
 2946SOL    HW220301   4.580   1.557  15.020  0.0020  0.2718 -0.8199
 2947SOL     OW20302   1.850   2.626   4.819  0.2282  0.1558  0.5471
 2947SOL    HW120303   1.795   2.547   4.826 -0.1996  0.4392  0.3721
 2947SOL    HW220304   1.938   2.591   4.832  0.0045 -1.1888 -1.4338
 2948SOL     OW20305   0.932   2.415   3.519 -0.2038 -0.1611  0.7137
 2948SOL    HW120306   0.926   2.470   3.441 -1.2878 -0.7415  0.3903
 2948SOL    HW220307   0.961   2.480   3.583 -2.8700  1.6642  0.0988
 2949SOL     OW20308   0.013   0.118   5.532  0.4978 -0.5783 -0.4076
 2949SOL    HW120309   4.699   0.169   5.604  1.3031  2.2476 -1.9923
 2949SOL    HW220310   0.105   0.130   5.557  0.1121  2.2228 -0.3372
 2950SOL     OW20311   3.034   2.518   0.604 -0.9317  0.0058  0.2646
 2950SOL    HW120312   3.038   2.521   0.508  1.7555  0.7441  0.4052
 2950SOL    HW220313   2.976   2.444   0.622 -1.1218 -0.7927 -3.5630
 2951SOL     OW20314   1.942   2.407  11.302  0.5320  0.0309 -0.3792
 2951SOL    HW120315   1.919   2.493  11.336  1.1408 -0.1687  0.5437
 2951SOL    HW220316   1.927   2.417  11.208 -1.4707 -0.8186 -0.1544
 2952SOL     OW20317   4.398   0.592  11.796  0.4444  0.2842 -0.4104
 2952SOL    HW120318   4.393   0.532  11.721 -1.8619  0.9579 -0.7795
 2952SOL    HW220319   4.358   0.674  11.767  0.2547 -0.5606 -2.5629
 2953SOL     OW20320   3.321   4.580  17.062  0.0359  0.4108 -0.0389
 2953SOL    HW120321   3.361   4.664  17.087  1.6424  0.0622 -1.4453
 2953SOL    HW220322   3.382   4.523  17.108 -1.5168  0.5101  2.1178
 2954SOL     OW20323   1.521   0.648   6.365  0.0426  0.1627 -0.8291
 2954SOL    HW120324   1.540   0.554   6.372 -0.0384  0.2604  0.6598
 2954SOL    HW220325   1.425   0.647   6.360  0.0245  3.6486 -0.9404
 2955SOL     OW20326   4.244   4.140   2.629  0.4060 -0.3423 -0.2943
 2955SOL    HW120327   4.161   4.147   2.581 -0.6891 -0.0460  1.6353
 2955SOL    HW220328   4.292   4.219   2.605  0.6668 -0.0166  1.2833
 2956SOL     OW20329   3.325   0.283   5.692 -0.3339 -0.8619  0.1375
 2956SOL    HW120330   3.244   0.331   5.677  1.5956  2.1062 -1.0480
 2956SOL    HW220331   3.293   0.224   5.759 -1.9264 -0.3977 -0.2131
 2957SOL     OW20332   3.800   3.602   0.969 -0.0054  0.0101  0.3228
 2957SOL    HW120333   3.847   3.602   1.052  0.1885  0.4334  0.2171
 2957SOL    HW220334   3.870   3.579   0.907  1.0323  0.7675  1.2193
 2958SOL     OW20335   1.789   1.384   3.965  0.3412  0.5451 -0.1380
 2958SOL    HW120336   1.759   1.349   4.049 -0.1881 -0.9149 -0.9391
 2958SOL    HW220337   1.873   1.338   3.970  0.4235  0.8189  1.0872
 2959SOL     OW20338   1.911   0.524   3.464  0.2640  0.3256  0.1548
 2959SOL    HW120339   1.854   0.522   3.387  2.5758 -0.5095 -1.5209
 2959SOL    HW220340   1.848   0.567   3.521 -0.5038  1.4977 -1.5887
 2960SOL     OW20341   1.492   4.500   5.624  0.4889  0.2350 -0.3350
 2960SOL    HW120342   1.540   4.573   5.584  1.7080 -0.6742 -0.5258
 2960SOL    HW220343   1.402   4.521   5.600  0.5223 -1.5627 -2.0254
 2961SOL     OW20344   4.421   3.515   3.672 -0.1921 -0.4227 -0.6877
 2961SOL    HW120345   4.499   3.470   3.639  0.0179 -2.2277  2.1987
 2961SOL    HW220346   4.397   3.466   3.751 -2.2791 -0.4907 -1.3726
 2962SOL     OW20347   3.576   4.126  11.146 -0.8299 -0.3164  0.1839
 2962SOL    HW120348   3.583   4.160  11.057 -1.3011 -1.6183 -0.3560
 2962SOL    HW220349   3.615   4.043  11.117  1.9485  1.3170 -0.7191
 2963SOL     OW20350   3.068   2.468  10.667 -0.0943  0.1864  0.3853
 2963SOL    HW120351   3.048   2.400  10.731  0.7432  1.1033  1.6195
 2963SOL    HW220352   2.999   2.460  10.601  0.7879 -2.3814 -0.2222
 2964SOL     OW20353   2.303   2.516  15.176  0.1138 -0.0600 -0.4930
 2964SOL    HW120354   2.353   2.598  15.177 -1.1937  0.7040  0.8496
 2964SOL    HW220355   2.338   2.482  15.093 -0.9559 -1.6111 -0.3120
 2965SOL     OW20356   3.163   2.211  14.032  0.0102 -0.2963  0.0727
 2965SOL    HW120357   3.225   2.268  14.077  0.6828 -0.8203 -0.2051
 2965SOL    HW220358   3.094   2.187  14.095 -0.3076  0.2738 -0.0572
 2966SOL     OW20359   1.513   2.035   8.649 -0.0874 -0.6954 -0.0228
 2966SOL    HW120360   1.508   1.989   8.565  1.7677  0.5135 -0.7915
 2966SOL    HW220361   1.534   1.960   8.705 -0.5958 -0.1873  0.8519
 2967SOL     OW20362   1.449   3.847   6.765  0.2591  0.3128  0.8480
 2967SOL    HW120363   1.381   3.826   6.829 -0.9309 -1.1040 -0.9004
 2967SOL    HW220364   1.518   3.787   6.796  0.7151 -0.1608 -1.0818
 2968SOL     OW20365   1.586   4.374   6.642 -0.4031  0.1055  0.0305
 2968SOL    HW120366   1.510   4.318   6.657  1.0289 -1.7701  0.3270
 2968SOL    HW220367   1.567   4.446   6.703  0.4217  1.0260 -0.8029
 2969SOL     OW20368   3.923   2.226  17.495  0.2926  0.4963  0.5421
 2969SOL    HW120369   3.916   2.276  17.414  3.1899 -2.3419 -1.4414
 2969SOL    HW220370   3.899   2.300  17.552 -0.2748  0.9883 -0.3393
 2970SOL     OW20371   0.139   4.184   2.621  0.2104  0.1398 -0.4315
 2970SOL    HW120372   0.172   4.108   2.573  0.2047 -0.0924 -0.0690
 2970SOL    HW220373   0.185   4.261   2.587  1.1031 -1.2766 -2.3872
 2971SOL     OW20374   0.681   0.161  15.076  0.3445 -0.5589  0.4973
 2971SOL    HW120375   0.717   0.139  14.991 -1.0591  0.1828 -0.2801
 2971SOL    HW220376   0.596   0.118  15.080  0.4421 -0.8378 -0.4823
 2972SOL     OW20377   3.117   4.307   3.793  0.3574 -0.0515  0.0807
 2972SOL    HW120378   3.062   4.353   3.856 -1.2405 -1.7062 -0.1303
 2972SOL    HW220379   3.163   4.386   3.763 -1.2518  0.6756 -0.4624
 2973SOL     OW20380   2.806   0.324   3.923 -0.8710  0.5337  0.0922
 2973SOL    HW120381   2.833   0.364   3.840 -2.8205 -1.2501 -1.3932
 2973SOL    HW220382   2.738   0.265   3.892  1.5425 -1.4744 -1.3795
 2974SOL     OW20383   1.904   1.432   7.042 -0.4613 -0.2454  0.2415
 2974SOL    HW120384   1.990   1.457   7.076 -0.6559  3.0545 -1.6700
 2974SOL    HW220385   1.892   1.491   6.968 -2.2527 -0.8082  0.0796
 2975SOL     OW20386   1.815   3.608   0.104 -0.0644  0.0943 -0.2479
 2975SOL    HW120387   1.754   3.609   0.030 -1.4442  1.7643  0.9001
 2975SOL    HW220388   1.762   3.654   0.169  0.1394  1.3096 -0.9449
 2976SOL     OW20389   4.311   3.879   5.540 -0.2020  0.4334 -0.1783
 2976SOL    HW120390   4.315   3.914   5.629 -3.2757 -0.5164  0.3487
 2976SOL    HW220391   4.215   3.881   5.532 -0.0836 -0.1240 -1.6878
 2977SOL     OW20392   1.729   0.441   4.763  0.3027 -0.5565  0.0878
 2977SOL    HW120393   1.726   0.490   4.845  1.4937 -1.6836  0.8133
 2977SOL    HW220394   1.817   0.469   4.736  0.2572 -0.6688 -0.1781
 2978SOL     OW20395   2.639   0.526  17.006 -0.0432 -0.6796  0.0012
 2978SOL    HW120396   2.707   0.562  16.948 -1.6340  0.6742 -1.0278
 2978SOL    HW220397   2.662   0.434  17.000  1.5929 -0.2463 -0.3118
 2979SOL     OW20398   2.598   2.398  12.934 -0.1156 -0.1616 -0.3609
 2979SOL    HW120399   2.587   2.312  12.893  0.9756 -0.1097 -0.7570
 2979SOL    HW220400   2.692   2.400  12.948 -0.2708 -0.3927  0.7292
 2980SOL     OW20401   3.966   3.216  12.355 -0.1579  0.5019 -0.8559
 2980SOL    HW120402   3.930   3.295  12.315 -1.0694 -0.6926 -2.4063
 2980SOL    HW220403   4.038   3.210  12.292  1.1437 -1.4548  0.7873
 2981SOL     OW20404   2.287   3.819  13.769 -0.4172  0.0893 -0.7374
 2981SOL    HW120405   2.328   3.900  13.800  0.7162 -1.6018  2.2351
 2981SOL    HW220406   2.332   3.752  13.821  1.2417  0.5902 -1.5344
 2982SOL     OW20407   4.238   1.866   2.774 -0.1491  0.1275 -0.3501
 2982SOL    HW120408   4.266   1.796   2.715  2.5226 -1.3770  2.6895
 2982SOL    HW220409   4.145   1.868   2.754 -0.3103  1.7624  0.5547
 2983SOL     OW20410   4.579   4.407  12.221  0.1215  0.0954  0.6641
 2983SOL    HW120411   4.524   4.331  12.243  2.2868 -1.5327  0.4646
 2983SOL    HW220412   4.661   4.393  12.268  1.5160  1.2625 -1.4260
 2984SOL     OW20413   1.902   2.008   6.336 -0.6093  0.4830  0.1014
 2984SOL    HW120414   1.865   2.021   6.248 -0.5791 -0.4324 -0.0395
 2984SOL    HW220415   1.884   2.093   6.376  1.3444 -0.4984  3.0722
 2985SOL     OW20416   1.543   0.994   5.431  0.0254 -0.0581 -0.0235
 2985SOL    HW120417   1.592   0.916   5.456  1.7463  1.3119  0.8460
 2985SOL    HW220418   1.454   0.968   5.453 -0.7222  0.6848 -2.1509
 2986SOL     OW20419   1.699   0.707   1.321 -0.0608 -0.3889  0.5720
 2986SOL    HW120420   1.618   0.717   1.271  1.2617  1.5650 -1.2075
 2986SOL    HW220421   1.679   0.773   1.388 -0.3782 -0.8519  0.9354
 2987SOL     OW20422   0.574   0.523   4.530  0.2287  0.3503  0.6603
 2987SOL    HW120423   0.525   0.441   4.527  1.3589 -0.2991 -0.1075
 2987SOL    HW220424   0.631   0.507   4.454 -0.1065 -1.0141  0.7030
 2988SOL     OW20425   0.672   0.141   3.751  0.3802 -0.1829 -0.6398
 2988SOL    HW120426   0.682   0.078   3.680  0.3907  0.1869 -0.9699
 2988SOL    HW220427   0.659   0.225   3.707 -0.9639  1.0276  2.0680
 2989SOL     OW20428   1.279   3.270  13.214  0.4568 -0.4062 -0.3934
 2989SOL    HW120429   1.322   3.352  13.187 -2.9139  0.8753 -1.8580
 2989SOL    HW220430   1.187   3.296  13.209  1.0675  2.1056  0.9428
 2990SOL     OW20431   0.376   1.619   7.327  0.6686  0.4018 -0.0830
 2990SOL    HW120432   0.472   1.619   7.334  0.4700 -0.6031  2.7273
 2990SOL    HW220433   0.353   1.540   7.375  0.4191  0.4531 -0.1181
 2991SOL     OW20434   1.485   1.899   8.402  0.3832  0.0154 -0.3806
 2991SOL    HW120435   1.475   1.933   8.313 -2.2753  0.4995  0.0949
 2991SOL    HW220436   1.558   1.839   8.390  0.6417  0.4196 -0.8343
 2992SOL     OW20437   1.234   3.097  10.568  0.4110 -0.4107  0.0692
 2992SOL    HW120438   1.162   3.101  10.631  0.2450 -2.9742  0.0290
 2992SOL    HW220439   1.265   3.187  10.561 -0.0036 -0.3884 -1.5301
 2993SOL     OW20440   3.529   3.119  11.056 -0.4587 -0.4877  0.2730
 2993SOL    HW120441   3.524   3.214  11.058  0.6039 -0.4774  2.5827
 2993SOL    HW220442   3.547   3.091  11.146 -0.3540 -2.7645 -0.4503
 2994SOL     OW20443   3.702   1.233   4.064  0.7414  0.2173  0.1262
 2994SOL    HW120444   3.628   1.242   4.005 -0.2443 -0.1009  1.3070
 2994SOL    HW220445   3.685   1.305   4.124 -2.6813  0.7875 -1.5411
 2995SOL     OW20446   1.852   0.164   9.819  0.4795 -0.0409 -0.0463
 2995SOL    HW120447   1.810   0.198   9.740  2.0668  0.4929 -0.6540
 2995SOL    HW220448   1.842   0.071   9.801  1.0431  0.3050 -2.1678
 2996SOL     OW20449   1.056   0.559   7.378  0.2208  0.5693  0.8471
 2996SOL    HW120450   1.129   0.503   7.351 -0.3434 -1.1567  2.8367
 2996SOL    HW220451   1.087   0.619   7.445  1.7322 -1.1643  1.7097
 2997SOL     OW20452   3.482   4.461  12.560 -0.3808 -0.0137 -0.0476
 2997SOL    HW120453   3.392   4.476  12.530 -0.3268  0.5860  0.0969
 2997SOL    HW220454   3.502   4.551  12.586  1.5044 -0.2090 -0.8376
 2998SOL     OW20455   3.683   2.947   7.503 -0.5318  0.1617  0.1015
 2998SOL    HW120456   3.777   2.946   7.488 -0.3200  1.0110  1.3559
 2998SOL    HW220457   3.670   3.041   7.491  1.6081  0.4681  0.1802
 2999SOL     OW20458   1.701   2.690  11.810  0.3013 -0.0457 -0.0362
 2999SOL    HW120459   1.704   2.596  11.794 -0.1737 -0.3636  1.7407
 2999SOL    HW220460   1.711   2.722  11.721  1.2806 -3.3443 -1.1091
 3000SOL     OW20461   1.998   4.722   2.990  0.4375  0.1266  0.2402
 3000SOL    HW120462   1.907   0.028   2.997  1.2313  2.4494  0.8242
 3000SOL    HW220463   1.981   4.630   3.007  0.9543 -0.2525 -1.2742
 3001SOL     OW20464   1.638   4.026   6.454 -0.2886  0.1445  0.3902
 3001SOL    HW120465   1.624   4.080   6.376 -0.9129 -0.0392  0.3756
 3001SOL    HW220466   1.554   3.984   6.467 -1.3714  2.3898  0.6712
 3002SOL     OW20467   0.886   1.271   5.975  0.6283 -0.4962 -0.3432
 3002SOL    HW120468   0.896   1.276   6.070  1.8340 -0.7123 -0.4613
 3002SOL    HW220469   0.831   1.347   5.960 -0.8243 -1.3520  0.6084
 3003SOL     OW20470   2.770   0.106  15.594  0.5753 -0.0149 -0.0376
 3003SOL    HW120471   2.865   0.119  15.587  0.2147  2.3089 -0.7290
 3003SOL    HW220472   2.748   0.039  15.531  1.5550 -1.7179  1.4200
 3004SOL     OW20473   4.650   1.127  10.358  0.2136 -0.0224  0.2566
 3004SOL    HW120474   4.706   1.195  10.396 -1.8258  1.7247  0.1262
 3004SOL    HW220475   4.668   1.053  10.416 -0.4992 -0.8495 -0.5757
 3005SOL     OW20476   4.562   0.483   3.502 -0.2811 -0.0092  0.1246
 3005SOL    HW120477   4.509   0.408   3.530  0.8939 -1.2117 -0.8271
 3005SOL    HW220478   4.558   0.537   3.581 -0.5653  1.8538 -1.1882
 3006SOL     OW20479   2.208   2.471   3.219  0.8634 -0.0495  0.1007
 3006SOL    HW120480   2.177   2.477   3.129  0.2590  1.2418  0.3966
 3006SOL    HW220481   2.249   2.555   3.239 -1.8275  1.0035  1.2265
 3007SOL     OW20482   3.996   4.599  14.733 -0.2907 -0.9671 -0.3111
 3007SOL    HW120483   4.007   4.682  14.779 -0.5703  0.0596 -2.0966
 3007SOL    HW220484   3.997   4.638  14.645  3.9022 -1.0737 -0.2946
 3008SOL     OW20485   2.584   2.128  15.951  0.0598 -0.2105  0.2224
 3008SOL    HW120486   2.596   2.059  16.016  1.3008 -0.3868 -0.1818
 3008SOL    HW220487   2.520   2.178  16.000  0.1606 -1.7199  1.9249
 3009SOL     OW20488   2.741   3.112   2.431  0.5663  0.5898  0.3411
 3009SOL    HW120489   2.708   3.046   2.492  0.0259 -0.4574 -1.0796
 3009SOL    HW220490   2.691   3.092   2.352  0.5676  2.8324 -0.2294
 3010SOL     OW20491   1.325   2.349   6.946  0.0562 -0.0330 -0.0636
 3010SOL    HW120492   1.285   2.263   6.931  0.6960 -0.2334 -0.6261
 3010SOL    HW220493   1.415   2.329   6.920  0.2081 -1.8987  1.9153
 3011SOL     OW20494   1.056   0.472   3.384  0.0686 -0.0446  0.2340
 3011SOL    HW120495   1.050   0.437   3.473 -0.0203  0.5688  0.4738
 3011SOL    HW220496   0.994   0.417   3.338  2.1187 -0.3822 -2.1385
 3012SOL     OW20497   1.498   3.795   2.653  0.6603  0.2996 -0.3553
 3012SOL    HW120498   1.501   3.785   2.557  0.5995  1.1634 -0.4510
 3012SOL    HW220499   1.473   3.888   2.657 -0.2522 -0.0439  1.6859
 3013SOL     OW20500   1.806   1.635  16.677  0.5150 -0.7115  0.0733
 3013SOL    HW120501   1.745   1.686  16.624 -0.1751 -3.5982 -1.8810
 3013SOL    HW220502   1.809   1.695  16.752  0.2065 -0.0613 -0.4318
 3014SOL     OW20503   3.258   4.393   5.234 -0.2479  0.2137 -0.1332
 3014SOL    HW120504   3.315   4.469   5.244 -4.2475  3.1917 -0.2482
 3014SOL    HW220505   3.320   4.320   5.228 -0.7736 -0.1431 -1.1665
 3015SOL     OW20506   4.217   1.938   6.005 -0.2059 -0.5764  0.3720
 3015SOL    HW120507   4.232   1.844   6.005 -0.6190 -0.6489 -0.7318
 3015SOL    HW220508   4.300   1.985   6.005 -0.5774  0.0918 -0.8212
 3016SOL     OW20509   3.314   3.630  12.843  0.3697  0.3805 -0.6188
 3016SOL    HW120510   3.328   3.576  12.921 -1.2896 -0.3073 -0.8019
 3016SOL    HW220511   3.279   3.711  12.882  0.4024  0.2268 -0.2721
 3017SOL     OW20512   0.610   3.855   3.275  0.0268  0.0569  0.8822
 3017SOL    HW120513   0.699   3.882   3.250  0.1518 -0.0876  1.1730
 3017SOL    HW220514   0.611   3.760   3.283  0.5041 -0.3830 -4.1303
 3018SOL     OW20515   4.141   1.305   8.189  0.0407  0.4336  0.3675
 3018SOL    HW120516   4.174   1.379   8.240 -0.7383  0.5503  0.7097
 3018SOL    HW220517   4.049   1.329   8.179  0.6572  1.7450 -2.0657
 3019SOL     OW20518   4.021   1.561   8.720 -0.5617 -0.0173  0.3393
 3019SOL    HW120519   4.003   1.646   8.759  0.3674  0.1233  0.4486
 3019SOL    HW220520   4.001   1.512   8.799 -1.6683 -1.1579 -0.6477
 3020SOL     OW20521   3.238   3.160   9.039 -0.4476 -0.4668 -0.0574
 3020SOL    HW120522   3.247   3.147   9.134  0.9703  1.4583  0.0785
 3020SOL    HW220523   3.163   3.219   9.031  0.8389  1.3868  1.4002
 3021SOL     OW20524   3.906   4.713   4.277 -0.4466 -0.6129 -0.3244
 3021SOL    HW120525   3.964   4.663   4.334 -0.5318 -0.2845  0.0505
 3021SOL    HW220526   3.927   0.079   4.307 -0.4101 -0.7698  0.1150
 3022SOL     OW20527   2.017   0.498  16.764  0.1469 -0.4208  0.0197
 3022SOL    HW120528   2.061   0.450  16.835  0.9213  1.2287  0.6509
 3022SOL    HW220529   1.960   0.556  16.814  0.8440 -0.1344  0.4937
 3023SOL     OW20530   0.373   1.344   4.698  0.3873  0.2940  0.9568
 3023SOL    HW120531   0.381   1.387   4.783  1.7201  1.6386  0.1322
 3023SOL    HW220532   0.437   1.272   4.706 -0.9089 -1.0186 -0.4706
 3024SOL     OW20533   0.451   1.683   3.968  0.1778  0.0820 -0.0552
 3024SOL    HW120534   0.449   1.708   3.876  1.0287  1.1545  0.2273
 3024SOL    HW220535   0.530   1.727   3.998 -0.2020  0.8326 -0.1685
 3025SOL     OW20536   1.514   0.668  15.378 -0.1362 -0.1320  0.2266
 3025SOL    HW120537   1.464   0.709  15.448 -0.1124 -1.2113  0.8751
 3025SOL    HW220538   1.596   0.717  15.383  0.4895 -1.5359  4.1613
 3026SOL     OW20539   4.529   1.336  14.160  0.3262  0.3957 -0.0446
 3026SOL    HW120540   4.466   1.272  14.127  0.3990  1.3363 -1.9676
 3026SOL    HW220541   4.479   1.418  14.161 -2.2777 -1.1851  1.4296
 3027SOL     OW20542   3.943   2.416  10.738  0.0656  0.3471 -0.5456
 3027SOL    HW120543   3.944   2.389  10.829 -1.7425 -1.3771 -1.0370
 3027SOL    HW220544   3.849   2.415  10.719 -0.2971  2.2370  1.1639
 3028SOL     OW20545   4.123   0.871   1.704 -0.0809  0.1296  0.1575
 3028SOL    HW120546   4.052   0.923   1.667  0.6638  0.7315 -0.4052
 3028SOL    HW220547   4.098   0.860   1.796  1.9431  0.6564  0.7811
 3029SOL     OW20548   1.325   1.245   0.795  0.3664  0.1470 -0.6597
 3029SOL    HW120549   1.268   1.314   0.829  0.4352  1.1656 -2.6748
 3029SOL    HW220550   1.265   1.197   0.738 -0.4203 -2.3193  2.2087
 3030SOL     OW20551   0.245   1.902   3.856  0.3222 -0.1815 -0.0189
 3030SOL    HW120552   0.179   1.888   3.924  1.6572  1.3432  1.5860
 3030SOL    HW220553   0.231   1.829   3.796  2.1132 -1.5891  1.2530
 3031SOL     OW20554   0.842   0.431  12.600 -0.4034  0.1755 -0.2866
 3031SOL    HW120555   0.793   0.350  12.612  0.3018 -0.5482 -2.3991
 3031SOL    HW220556   0.920   0.389  12.564  0.3775  0.1412  1.4567
 3032SOL     OW20557   0.495   1.573  16.683 -0.2144 -0.1570 -0.6425
 3032SOL    HW120558   0.412   1.622  16.685 -0.0691  0.1210 -1.3122
 3032SOL    HW220559   0.523   1.610  16.600  0.6999  1.0200  0.1904
 3033SOL     OW20560   4.617   4.487   1.959 -0.9123 -0.3398  0.7677
 3033SOL    HW120561   4.569   4.407   1.981  1.5113 -1.7122  1.1271
 3033SOL    HW220562   4.656   4.457   1.876 -3.2508 -1.0307 -0.0820
 3034SOL     OW20563   2.018   2.853   2.978  0.3181 -0.2394 -0.3463
 3034SOL    HW120564   1.973   2.925   2.935 -1.6776 -0.4507  1.3737
 3034SOL    HW220565   2.099   2.842   2.929 -0.0105  0.7794 -1.1331
 3035SOL     OW20566   0.260   3.244   1.654 -0.2970  0.0610  0.1955
 3035SOL    HW120567   0.223   3.315   1.708 -0.3480  0.0223  0.2115
 3035SOL    HW220568   0.203   3.223   1.580  1.7336  0.2087 -1.4032
 3036SOL     OW20569   4.450   1.630   1.307 -0.2301 -0.1201  0.3561
 3036SOL    HW120570   4.460   1.718   1.344  0.1276 -0.2959  0.6640
 3036SOL    HW220571   4.535   1.633   1.263 -0.7536 -0.7313 -0.6958
 3037SOL     OW20572   3.401   0.039  16.322 -0.5160 -0.2495  0.5045
 3037SOL    HW120573   3.331   0.091  16.360 -2.6037 -0.7684 -2.6778
 3037SOL    HW220574   3.394   4.680  16.372 -1.4333  0.0092  0.8017
 3038SOL     OW20575   2.508   1.049   4.197 -0.1558 -0.9174  0.3496
 3038SOL    HW120576   2.587   1.062   4.250 -0.0372 -1.5879  0.3354
 3038SOL    HW220577   2.547   0.995   4.129  3.0760  2.7469 -0.7468
 3039SOL     OW20578   0.662   4.547   4.205 -0.4270  0.5928 -0.0380
 3039SOL    HW120579   0.703   4.461   4.192 -2.3397 -0.2277 -0.5577
 3039SOL    HW220580   0.716   4.608   4.155  0.7654 -0.3375  0.1096
 3040SOL     OW20581   0.891   2.587   5.883 -0.1466 -0.2602  0.4387
 3040SOL    HW120582   0.964   2.553   5.832 -0.2346 -1.4460  1.1019
 3040SOL    HW220583   0.880   2.518   5.948 -1.5926 -2.1318 -1.7811
 3041SOL     OW20584   0.226   4.206   5.996 -0.0958 -0.3452 -0.1332
 3041SOL    HW120585   0.132   4.202   6.013 -0.0739  0.6871  0.2671
 3041SOL    HW220586   0.212   4.217   5.902  0.4908 -2.8028 -0.5123
 3042SOL     OW20587   0.328   2.974   3.338  0.3002  0.2931 -0.2610
 3042SOL    HW120588   0.353   2.978   3.430 -0.1136  1.7909 -0.2182
 3042SOL    HW220589   0.361   2.888   3.310  0.2151  0.3328 -0.4858
 3043SOL     OW20590   3.801   2.510   6.163 -0.5074 -0.3315  0.1233
 3043SOL    HW120591   3.846   2.493   6.080  1.1604 -0.5331  1.0861
 3043SOL    HW220592   3.770   2.422   6.182 -1.7605  0.1365  0.2762
 3044SOL     OW20593   0.032   4.340  12.502  0.3883  0.0109  0.5059
 3044SOL    HW120594   4.714   4.319  12.586  0.3054  0.1648  0.5043
 3044SOL    HW220595   0.124   4.361  12.518  0.0695  0.7512  1.3762
 3045SOL     OW20596   3.007   4.048   6.106  0.4655  0.1243  0.3194
 3045SOL    HW120597   3.010   4.038   6.201 -2.1623 -0.5352  0.3219
 3045SOL    HW220598   2.942   3.983   6.081 -0.4654  1.1622 -0.0009
 3046SOL     OW20599   3.587   0.148   3.169 -0.5372 -0.0892  0.2927
 3046SOL    HW120600   3.658   0.211   3.182 -0.5822  0.2016 -0.8284
 3046SOL    HW220601   3.589   0.122   3.077 -1.8066 -0.9020  0.4984
 3047SOL     OW20602   2.711   4.567   8.592  0.0601  0.3721  0.0518
 3047SOL    HW120603   2.740   4.658   8.581 -0.3980  0.4891 -0.2247
 3047SOL    HW220604   2.618   4.582   8.610  0.2436  1.5711  0.0146
 3048SOL     OW20605   2.646   4.331  15.238  0.1552 -0.0347  0.4334
 3048SOL    HW120606   2.630   4.397  15.170 -3.0160 -2.3594 -1.0917
 3048SOL    HW220607   2.575   4.267  15.229  2.2874 -2.4635  0.9243
 3049SOL     OW20608   0.471   3.671  13.346 -0.2681 -0.0292 -0.1452
 3049SOL    HW120609   0.448   3.661  13.439  0.0306 -1.6107 -0.2545
 3049SOL    HW220610   0.512   3.758  13.349 -0.0296 -0.0711 -2.6659
 3050SOL     OW20611   1.178   3.895  16.629  0.2131  0.2963 -0.5676
 3050SOL    HW120612   1.188   3.807  16.595 -0.0347 -0.6307  1.7787
 3050SOL    HW220613   1.262   3.921  16.667 -0.6565 -1.0062  2.2251
 3051SOL     OW20614   0.820   0.938   3.982 -0.5313 -0.2282 -0.2205
 3051SOL    HW120615   0.738   0.986   3.994  0.2442  0.8640  0.6914
 3051SOL    HW220616   0.865   0.963   4.063  0.9493 -1.6728 -0.5949
 3052SOL     OW20617   0.507   0.055  10.337 -0.2683 -0.3214 -0.3849
 3052SOL    HW120618   0.544   0.044  10.250  1.0953 -1.6899  0.3786
 3052SOL    HW220619   0.417   0.069  10.309  0.1156  0.4989 -1.2305
 3053SOL     OW20620   2.989   2.311  16.845 -0.1709 -0.2690  0.7457
 3053SOL    HW120621   3.042   2.375  16.892  0.8154 -0.6439  0.1447
 3053SOL    HW220622   3.019   2.326  16.755  0.6708  0.9552  1.2340
 3054SOL     OW20623   2.595   3.883  14.150 -0.3489 -0.8762  0.0478
 3054SOL    HW120624   2.611   3.831  14.229  0.6934 -2.4494 -1.2010
 3054SOL    HW220625   2.681   3.906  14.115 -0.3073  0.2720  0.8827
 3055SOL     OW20626   1.875   2.407  15.514  0.4816 -0.3887 -0.1150
 3055SOL    HW120627   1.926   2.455  15.449 -0.7294 -1.2634 -1.7112
 3055SOL    HW220628   1.850   2.475  15.576  0.7364 -2.2839  2.0494
 3056SOL     OW20629   4.518   3.093  10.374 -0.4966  0.1250 -0.1989
 3056SOL    HW120630   4.487   3.133  10.292 -0.9690  0.8694  0.3523
 3056SOL    HW220631   4.542   3.005  10.345 -0.2010 -0.5053  1.9626
 3057SOL     OW20632   3.761   1.469   2.523 -0.3228 -0.4256 -0.1959
 3057SOL    HW120633   3.708   1.542   2.555  2.0387  0.8032  0.9184
 3057SOL    HW220634   3.756   1.486   2.429  0.5445  1.1587  0.0306
 3058SOL     OW20635   2.748   1.749  12.856 -0.3272 -1.1393  0.6172
 3058SOL    HW120636   2.807   1.723  12.926  0.5261  1.9551  1.0472
 3058SOL    HW220637   2.801   1.821  12.820 -0.4638 -0.6445  1.3979
 3059SOL     OW20638   3.479   0.166   7.237 -0.4689 -0.1769 -0.0637
 3059SOL    HW120639   3.498   0.156   7.330 -2.4240 -0.2065  0.3420
 3059SOL    HW220640   3.384   0.156   7.238 -0.5520  0.7331  1.5949
 3060SOL     OW20641   2.114   4.144   3.894 -0.2611 -0.0623  0.4563
 3060SOL    HW120642   2.056   4.080   3.934 -0.8402  0.7281  0.8838
 3060SOL    HW220643   2.056   4.210   3.857  0.3586 -0.4376 -1.1788
 3061SOL     OW20644   4.235   2.454   4.024  0.4794  0.3127 -0.2286
 3061SOL    HW120645   4.148   2.414   4.027 -0.6807  2.8128 -0.2161
 3061SOL    HW220646   4.214   2.542   3.991  1.1648  0.4168 -0.3759
 3062SOL     OW20647   0.741   0.202   5.770  0.0263 -0.1275 -0.1406
 3062SOL    HW120648   0.699   0.271   5.821  1.4109 -0.3390  1.2658
 3062SOL    HW220649   0.759   0.132   5.833 -0.6401 -2.6572 -2.7102
 3063SOL     OW20650   4.621   1.615   4.860 -0.1949  0.1005  0.0216
 3063SOL    HW120651   4.611   1.540   4.919  2.2934 -0.3461 -0.1181
 3063SOL    HW220652   4.625   1.687   4.923 -2.1982  1.4189 -1.3460
 3064SOL     OW20653   1.133   3.789   8.275  0.5219  0.6282 -0.4874
 3064SOL    HW120654   1.059   3.740   8.240  1.2451 -2.1040  1.7913
 3064SOL    HW220655   1.088   3.822   8.353  0.6906 -1.0117  0.3165
 3065SOL     OW20656   3.288   3.462   2.186  0.1252 -0.6127  0.0566
 3065SOL    HW120657   3.257   3.422   2.268  1.7475 -1.4169  0.2865
 3065SOL    HW220658   3.371   3.502   2.211  0.5304  0.3007 -2.7872
 3066SOL     OW20659   3.697   0.758   2.686 -0.0313 -0.0641 -0.4110
 3066SOL    HW120660   3.663   0.784   2.600 -0.9128 -0.1180 -0.0821
 3066SOL    HW220661   3.791   0.754   2.667 -0.1927 -1.7342 -0.8379
 3067SOL     OW20662   2.333   2.131   2.068 -0.0325 -0.3747  0.3924
 3067SOL    HW120663   2.308   2.062   2.129  1.3708 -0.6628  0.6528
 3067SOL    HW220664   2.301   2.104   1.982 -4.1979 -0.2285  1.9218
 3068SOL     OW20665   3.749   3.380  15.468 -0.7343 -0.7609 -0.2495
 3068SOL    HW120666   3.707   3.328  15.399  2.1532 -0.9707 -1.8269
 3068SOL    HW220667   3.806   3.316  15.510 -0.8482 -1.3882 -1.0484
 3069SOL     OW20668   4.043   2.684  16.191  0.4254  0.8138 -0.0119
 3069SOL    HW120669   3.981   2.611  16.200  1.4847 -0.1090 -0.2032
 3069SOL    HW220670   4.065   2.683  16.284  1.0416  1.3107 -0.1555
 3070SOL     OW20671   3.697   0.635   9.456 -0.3617 -0.1964 -0.4800
 3070SOL    HW120672   3.670   0.726   9.450 -1.4593 -0.3186  2.5422
 3070SOL    HW220673   3.730   0.631   9.546  1.7926 -2.3985 -1.3586
 3071SOL     OW20674   1.411   0.142   4.332 -0.0754  0.4359  0.3798
 3071SOL    HW120675   1.361   0.217   4.302  0.5722  0.6231 -0.2559
 3071SOL    HW220676   1.358   0.072   4.294 -0.6272  0.6412  0.7874
 3072SOL     OW20677   3.711   3.269  16.279  0.1525 -0.0953  0.1677
 3072SOL    HW120678   3.782   3.236  16.224  1.9339  1.7308  1.3398
 3072SOL    HW220679   3.644   3.241  16.216 -1.6493 -1.1381  2.5870
 3073SOL     OW20680   3.328   4.483   9.113  0.5898  0.1533 -0.0210
 3073SOL    HW120681   3.238   4.510   9.094  1.0836  1.8803  0.0726
 3073SOL    HW220682   3.373   4.471   9.029 -0.1481  0.4494 -0.4587
 3074SOL     OW20683   4.670   2.507  15.701 -0.5718 -0.7434  0.1501
 3074SOL    HW120684   0.009   2.482  15.633 -1.1614 -1.8219  0.0111
 3074SOL    HW220685   0.000   2.515  15.781  1.4515 -1.5868 -1.1214
 3075SOL     OW20686   4.285   1.719   5.766 -0.8559  0.0326  0.3478
 3075SOL    HW120687   4.371   1.754   5.746 -2.2745  2.9459 -0.5689
 3075SOL    HW220688   4.287   1.635   5.720 -0.6770  0.1203  0.1945
 3076SOL     OW20689   2.670   0.557   6.256  0.0282 -0.1466 -0.0216
 3076SOL    HW120690   2.660   0.546   6.351 -1.0975  0.2076 -0.0989
 3076SOL    HW220691   2.757   0.517   6.252  0.2557  0.2483  0.9401
 3077SOL     OW20692   0.975   1.900  11.596 -0.3402 -0.4881  0.1263
 3077SOL    HW120693   0.962   1.856  11.511  0.8456  1.5949 -1.1445
 3077SOL    HW220694   0.888   1.938  11.606 -0.5215 -0.9329  0.2231
 3078SOL     OW20695   1.204   0.056   3.703  0.3109 -0.4300  0.3739
 3078SOL    HW120696   1.218   0.057   3.608  1.3662 -0.5446  0.5265
 3078SOL    HW220697   1.126   0.112   3.704  0.7077  0.0855  1.5418
 3079SOL     OW20698   4.639   2.377  14.566  0.0875  0.1701 -0.3231
 3079SOL    HW120699   4.616   2.417  14.482 -1.6058 -0.8172 -0.3045
 3079SOL    HW220700   4.555   2.370  14.612 -0.7637 -0.4962 -2.0176
 3080SOL     OW20701   4.717   4.497   4.935  0.3533 -0.0483 -0.5251
 3080SOL    HW120702   0.065   4.560   4.951  0.4026 -0.8780  2.4269
 3080SOL    HW220703   4.647   4.532   4.880 -1.7085 -2.3571  0.6329
 3081SOL     OW20704   0.938   1.365   7.298  0.1081 -0.2278 -0.7081
 3081SOL    HW120705   0.918   1.458   7.309 -1.0318 -0.5943  0.3092
 3081SOL    HW220706   0.987   1.374   7.216 -1.0625  3.3420 -1.0479
 3082SOL     OW20707   2.169   3.949   6.957 -0.1607  0.0145 -0.0605
 3082SOL    HW120708   2.141   3.871   7.005  0.7829 -0.8478 -0.9034
 3082SOL    HW220709   2.217   4.000   7.023  1.1856 -2.7600  1.1207
 3083SOL     OW20710   0.323   1.941   2.730 -0.1531 -0.3010 -0.0389
 3083SOL    HW120711   0.279   1.905   2.807  0.2355 -0.2899  0.1885
 3083SOL    HW220712   0.409   1.898   2.734  0.1491  0.0197 -2.8253
 3084SOL     OW20713   1.608   3.109   7.415  0.1780 -0.2996  0.0610
 3084SOL    HW120714   1.579   3.033   7.466 -1.9534  0.2184 -0.3552
 3084SOL    HW220715   1.637   3.169   7.484  0.2375  0.4763 -0.6289
 3085SOL     OW20716   3.087   4.156   3.998 -0.4358 -0.4252 -0.4618
 3085SOL    HW120717   3.110   4.196   3.913 -1.9227 -1.5925 -1.4122
 3085SOL    HW220718   3.092   4.234   4.053 -0.5242 -1.1459  0.5541
 3086SOL     OW20719   3.048   1.107  17.110  0.3856 -0.3044  0.1563
 3086SOL    HW120720   3.014   1.047  17.177  1.5055 -0.4461  0.5851
 3086SOL    HW220721   3.129   1.064  17.084 -0.1854  0.7381 -3.4063
 3087SOL     OW20722   0.057   4.527   0.631 -0.1973 -0.1654  0.0387
 3087SOL    HW120723   0.011   4.521   0.715 -0.8789 -0.5085 -0.3544
 3087SOL    HW220724   0.012   4.599   0.585 -0.5697  0.6003  1.5941
 3088SOL     OW20725   1.569   2.821  12.583  0.3433 -0.1808  0.2736
 3088SOL    HW120726   1.505   2.861  12.641  0.8173  0.7585  0.1573
 3088SOL    HW220727   1.592   2.737  12.622 -0.5607 -1.3027 -1.6060
 3089SOL     OW20728   2.668   2.809  14.856 -0.1566 -0.2525  0.3524
 3089SOL    HW120729   2.690   2.883  14.912  0.8094  0.2177 -0.6365
 3089SOL    HW220730   2.589   2.834  14.808 -0.7659 -1.3178  0.7993
 3090SOL     OW20731   1.548   2.421  15.041  0.2030 -0.4206 -0.5877
 3090SOL    HW120732   1.621   2.430  15.101  0.3725 -0.0017 -0.8619
 3090SOL    HW220733   1.593   2.396  14.960  4.2291  0.7702  1.3001
 3091SOL     OW20734   1.706   2.312  11.114 -0.3101 -0.1750 -0.0526
 3091SOL    HW120735   1.729   2.224  11.084  2.1418  0.4491  0.0257
 3091SOL    HW220736   1.695   2.355  11.029 -1.1841 -1.5432 -0.6401
 3092SOL     OW20737   2.969   0.058   5.455 -0.2128  0.6819 -0.4848
 3092SOL    HW120738   3.050   0.061   5.506 -1.0515 -0.6015  0.9571
 3092SOL    HW220739   2.918   4.717   5.506  3.4422 -0.9041  1.2042
 3093SOL     OW20740   1.214   1.454   5.313  0.5803 -0.5382  0.0221
 3093SOL    HW120741   1.290   1.512   5.305  0.0454  0.0834 -0.4820
 3093SOL    HW220742   1.143   1.513   5.289  1.1819 -0.3783 -1.3871
 3094SOL     OW20743   1.498   1.693   1.304  0.3256 -0.8264 -0.5418
 3094SOL    HW120744   1.587   1.717   1.330 -0.1701  1.0857 -0.6183
 3094SOL    HW220745   1.447   1.739   1.371  0.3422  0.5752 -1.5009
 3095SOL     OW20746   4.021   3.878  11.053 -0.2364 -0.0064 -0.6413
 3095SOL    HW120747   3.999   3.786  11.037 -0.8570  0.1070 -0.4648
 3095SOL    HW220748   3.942   3.916  11.091 -1.4173 -1.0306 -2.0470
 3096SOL     OW20749   4.597   3.881   4.545  0.4358 -0.1748  0.4309
 3096SOL    HW120750   4.619   3.812   4.608 -0.9329  2.7782  4.1407
 3096SOL    HW220751   4.678   3.930   4.560  0.0491 -0.0918  2.1824
 3097SOL     OW20752   2.933   4.391   4.406  0.0620  0.0165  0.0832
 3097SOL    HW120753   2.849   4.431   4.427 -0.9524 -1.9518 -0.2534
 3097SOL    HW220754   2.984   4.419   4.482  0.5004  0.2975 -0.3067
 3098SOL     OW20755   3.533   2.221   1.122 -0.2791 -0.5268  0.6166
 3098SOL    HW120756   3.481   2.142   1.110  0.2703 -0.8925  0.6516
 3098SOL    HW220757   3.501   2.253   1.206  1.6184  0.8212  0.8085
 3099SOL     OW20758   4.635   4.413   5.783 -0.6773  0.1715 -0.2521
 3099SOL    HW120759   4.606   4.489   5.733  0.5492  1.4041  0.9127
 3099SOL    HW220760   4.609   4.444   5.870  2.9045  1.5850  0.2958
 3100SOL     OW20761   0.578   2.780   3.208  0.1336 -0.1905 -0.4288
 3100SOL    HW120762   0.635   2.735   3.270  0.2853  1.6583  0.7814
 3100SOL    HW220763   0.643   2.837   3.168 -1.6786  1.6339 -0.7884
 3101SOL     OW20764   0.702   3.764   2.490  0.1039  0.3022 -0.3773
 3101SOL    HW120765   0.728   3.770   2.398  0.8966  2.4110 -0.0133
 3101SOL    HW220766   0.784   3.760   2.538  0.0711 -1.2208 -0.4534
 3102SOL     OW20767   0.161   4.653   9.695 -0.0148 -0.3002  0.1388
 3102SOL    HW120768   0.238   4.674   9.749  1.1528  1.3409 -2.2121
 3102SOL    HW220769   0.183   4.561   9.681  1.8499  0.2864 -0.7650
 3103SOL     OW20770   4.120   3.888  12.088  0.6552  0.4118  0.4516
 3103SOL    HW120771   4.046   3.827  12.083  0.0872  1.1297  0.1245
 3103SOL    HW220772   4.149   3.885  11.997 -0.5792  0.2912  0.0544
 3104SOL     OW20773   4.475   1.204   8.144 -0.7739  0.3243  0.8295
 3104SOL    HW120774   4.398   1.156   8.175  0.6433 -2.2461  0.3998
 3104SOL    HW220775   4.538   1.181   8.212 -0.7350 -0.6403  0.4677
 3105SOL     OW20776   4.036   3.819   7.412  0.4143 -0.0431  0.0958
 3105SOL    HW120777   4.000   3.898   7.374 -1.3315  0.0803  1.9675
 3105SOL    HW220778   4.000   3.818   7.501  1.1882  0.9758  0.4244
 3106SOL     OW20779   4.321   1.005   2.800 -0.7115 -0.2360  0.5934
 3106SOL    HW120780   4.282   1.019   2.887 -1.8942 -1.6493  0.3019
 3106SOL    HW220781   4.356   0.916   2.804 -0.9163 -0.2169  2.9159
 3107SOL     OW20782   4.102   1.485   0.604  0.4335  0.8617 -0.3569
 3107SOL    HW120783   4.166   1.473   0.674  1.6646 -1.0548 -1.8276
 3107SOL    HW220784   4.136   1.566   0.566 -0.3222  2.2777  1.9866
 3108SOL     OW20785   3.147   0.676   1.332  0.1303 -0.0813  0.1572
 3108SOL    HW120786   3.181   0.587   1.333  2.0514  0.6420 -0.5145
 3108SOL    HW220787   3.096   0.673   1.251 -1.7575  0.1637  1.3156
 3109SOL     OW20788   4.173   2.577   4.944 -0.5102  0.5236 -0.0025
 3109SOL    HW120789   4.080   2.563   4.926 -0.4673 -0.2353  0.3517
 3109SOL    HW220790   4.169   2.672   4.938  0.2778  0.6217  1.0481
 3110SOL     OW20791   3.678   1.289   5.506 -0.3887  0.0242 -0.1080
 3110SOL    HW120792   3.710   1.204   5.536  1.9499  1.2987  0.9928
 3110SOL    HW220793   3.595   1.263   5.467  0.4861 -1.7200 -0.7967
 3111SOL     OW20794   2.743   2.386   9.040  0.0979  0.0952 -0.3012
 3111SOL    HW120795   2.747   2.467   8.988  1.4872  0.3263  0.1682
 3111SOL    HW220796   2.649   2.375   9.028  0.0791  1.7557 -1.6162
 3112SOL     OW20797   3.140   4.182  10.870  0.1471 -0.3457 -0.0137
 3112SOL    HW120798   3.162   4.261  10.820 -0.3659 -0.0295  0.2658
 3112SOL    HW220799   3.153   4.118  10.800  0.2957  1.2546 -1.4462
 3113SOL     OW20800   2.616   2.019   1.814  0.3325  0.2349 -0.0327
 3113SOL    HW120801   2.633   1.926   1.830 -0.8385  0.2175  1.1254
 3113SOL    HW220802   2.644   2.030   1.723  0.6974 -1.2477 -0.0880
 3114SOL     OW20803   3.856   3.131  15.325 -0.3233  0.3462  0.0579
 3114SOL    HW120804   3.906   3.092  15.253 -0.7134  2.9898 -1.6123
 3114SOL    HW220805   3.764   3.125  15.301 -0.3508  2.5061 -0.3732
 3115SOL     OW20806   1.957   4.095  15.087 -0.0152 -0.3583  0.2002
 3115SOL    HW120807   1.865   4.117  15.103 -0.3589 -1.3228 -0.4081
 3115SOL    HW220808   1.957   4.080  14.992 -0.5826  0.4590  0.0692
 3116SOL     OW20809   2.830   3.933   9.334  0.4202  0.2077 -0.1008
 3116SOL    HW120810   2.755   3.954   9.390  0.7780  4.3324 -1.1756
 3116SOL    HW220811   2.811   3.843   9.306  1.1347 -0.1656  0.6343
 3117SOL     OW20812   3.848   2.917   6.856 -0.1865  0.2840  0.5756
 3117SOL    HW120813   3.899   2.917   6.936 -0.6032  0.3993  0.8412
 3117SOL    HW220814   3.907   2.856   6.811 -0.5266 -0.0486  0.5742
 3118SOL     OW20815   2.137   1.210  13.586  0.1874  0.4066 -0.8889
 3118SOL    HW120816   2.067   1.256  13.631 -0.3161  0.1187 -1.3871
 3118SOL    HW220817   2.215   1.241  13.633 -0.8589  0.4346  0.8352
 3119SOL     OW20818   1.820   1.889   7.255  0.1324  0.0118  0.9383
 3119SOL    HW120819   1.914   1.870   7.259 -0.0585 -0.8361  1.3825
 3119SOL    HW220820   1.805   1.936   7.174  1.7894  0.3518  0.8364
 3120SOL     OW20821   0.445   1.495   3.226  0.4923 -0.8957 -0.4020
 3120SOL    HW120822   0.419   1.436   3.297  0.0723 -0.6684 -0.3654
 3120SOL    HW220823   0.425   1.454   3.141 -1.4589 -1.9472  0.5686
 3121SOL     OW20824   4.200   0.199   6.129  0.2491 -0.3884  0.2160
 3121SOL    HW120825   4.202   0.281   6.080 -0.2516 -0.0005  0.8362
 3121SOL    HW220826   4.272   0.154   6.085 -0.8018 -0.4704 -1.4025
 3122SOL     OW20827   1.275   1.659   2.406  0.0463  0.3072 -0.0108
 3122SOL    HW120828   1.363   1.628   2.383  0.0434 -0.2825  0.7850
 3122SOL    HW220829   1.251   1.718   2.335 -1.6641 -1.5363 -0.9739
 3123SOL     OW20830   4.025   3.394  15.707 -0.2277  0.2281  0.5748
 3123SOL    HW120831   4.043   3.478  15.748  0.2645  0.2890  0.2288
 3123SOL    HW220832   4.088   3.338  15.753  0.5751 -1.3516 -2.4186
 3124SOL     OW20833   4.195   0.686  12.694 -0.2940 -0.6605 -0.4743
 3124SOL    HW120834   4.222   0.605  12.650 -1.6724  0.2672 -3.0492
 3124SOL    HW220835   4.265   0.744  12.664 -2.1490  0.9992 -1.6163
 3125SOL     OW20836   4.050   2.505   3.090 -0.3081  0.2511 -0.7970
 3125SOL    HW120837   4.064   2.552   3.172  0.0846 -0.3025 -0.5483
 3125SOL    HW220838   3.978   2.443   3.106  1.4531 -1.4757  0.4777
 3126SOL     OW20839   3.211   2.916   1.855 -0.8518  0.2901  0.3339
 3126SOL    HW120840   3.270   2.938   1.783  0.0415 -3.0514  0.0843
 3126SOL    HW220841   3.228   2.998   1.903  0.0142  0.3073 -0.0038
 3127SOL     OW20842   4.088   3.614   3.774 -0.2196  0.2656 -0.2266
 3127SOL    HW120843   4.090   3.687   3.835  2.1340 -0.2709  0.3470
 3127SOL    HW220844   4.158   3.633   3.712 -0.2675  2.3259  0.3369
 3128SOL     OW20845   3.799   4.638   5.720  0.1019 -0.3409  0.5349
 3128SOL    HW120846   3.885   4.605   5.692 -0.2309 -0.4472 -0.3569
 3128SOL    HW220847   3.824   4.691   5.795 -1.1204  0.6945  0.2162
 3129SOL     OW20848   2.123   4.301   8.273 -0.6336 -0.3914 -0.0740
 3129SOL    HW120849   2.185   4.355   8.224 -1.4364 -0.6492 -1.3863
 3129SOL    HW220850   2.069   4.275   8.198  0.0138  0.5524 -0.8680
 3130SOL     OW20851   3.033   2.316   2.362  0.3743 -0.1638  0.6590
 3130SOL    HW120852   3.014   2.364   2.281  0.0390 -2.1922 -0.4685
 3130SOL    HW220853   3.019   2.224   2.336  0.7055 -0.3061  0.9921
 3131SOL     OW20854   4.228   3.218   7.026 -0.5544 -0.0886 -0.0468
 3131SOL    HW120855   4.243   3.209   6.932 -2.3675 -0.1475 -0.3344
 3131SOL    HW220856   4.320   3.214   7.051 -0.7218  0.9395  0.7427
 3132SOL     OW20857   2.701   1.486   9.353  0.8956  0.3836 -0.0073
 3132SOL    HW120858   2.638   1.518   9.418  0.5041  1.5755 -0.9645
 3132SOL    HW220859   2.784   1.483   9.400  0.0866  0.1193  1.4168
 3133SOL     OW20860   3.447   1.136   8.568  0.1200  0.1623 -0.0722
 3133SOL    HW120861   3.378   1.085   8.611 -2.0311  2.5753 -0.6713
 3133SOL    HW220862   3.398   1.213   8.543 -1.7048 -1.2058 -0.6852
 3134SOL     OW20863   3.146   3.803  17.426 -0.8003  1.0083  0.4767
 3134SOL    HW120864   3.223   3.849  17.459  0.2841 -1.3224  1.1634
 3134SOL    HW220865   3.130   3.837  17.338  0.1920  0.8445  0.2272
 3135SOL     OW20866   0.033   0.049   1.413  0.2857  0.1930 -0.4071
 3135SOL    HW120867   4.661   0.046   1.422  0.1418  0.3704 -1.8126
 3135SOL    HW220868   0.029   0.088   1.325 -0.3729  0.7581 -0.1252
 3136SOL     OW20869   4.319   3.538   8.425 -0.0305  0.5082 -0.1844
 3136SOL    HW120870   4.384   3.505   8.486  0.7319 -0.9087 -1.7840
 3136SOL    HW220871   4.317   3.630   8.453  1.0546 -0.0491  1.7109
 3137SOL     OW20872   3.205   0.191   3.521 -0.9667 -0.1489 -0.4750
 3137SOL    HW120873   3.273   0.150   3.574 -0.7958  1.3531  0.4881
 3137SOL    HW220874   3.248   0.200   3.436  1.0266  1.1662  0.6758
 3138SOL     OW20875   3.837   2.631  15.082  0.1409 -0.0989 -1.1839
 3138SOL    HW120876   3.773   2.680  15.134 -0.2501 -1.1944 -0.6173
 3138SOL    HW220877   3.787   2.604  15.005 -2.0766 -0.4403  0.3707
 3139SOL     OW20878   1.355   3.778   1.586 -0.8833  0.1446 -0.1408
 3139SOL    HW120879   1.372   3.696   1.540 -1.2541 -1.1252  1.9616
 3139SOL    HW220880   1.436   3.780   1.637 -0.7464 -0.1685 -0.3460
 3140SOL     OW20881   3.598   4.114   7.162  0.1166 -0.6260 -0.7007
 3140SOL    HW120882   3.625   4.117   7.071  0.1000 -1.2090 -0.7214
 3140SOL    HW220883   3.686   4.121   7.198 -0.2766 -1.7061  0.4831
 3141SOL     OW20884   0.615   0.995   4.341 -0.3685 -0.5144 -0.1145
 3141SOL    HW120885   0.592   1.061   4.406 -0.0877 -0.1613 -0.3717
 3141SOL    HW220886   0.707   0.982   4.364 -0.3493 -1.0723 -0.5013
 3142SOL     OW20887   3.440   2.711   0.371  0.1581 -0.1777 -0.4362
 3142SOL    HW120888   3.528   2.681   0.346  0.4179  0.2424 -0.0354
 3142SOL    HW220889   3.422   2.646   0.439  0.2621 -0.0561 -0.2903
 3143SOL     OW20890   4.655   2.916   5.920 -0.3795 -0.0355  0.2252
 3143SOL    HW120891   4.683   3.008   5.916 -0.2887 -0.0582  0.3356
 3143SOL    HW220892   4.565   2.931   5.892 -0.2427  1.7644  0.7263
 3144SOL     OW20893   0.120   0.564   3.173 -0.2146 -0.6967  0.7269
 3144SOL    HW120894   0.130   0.545   3.080 -1.1645 -0.2732  0.5325
 3144SOL    HW220895   0.150   0.655   3.177  0.9074 -1.1125  1.6358
 3145SOL     OW20896   0.426   4.444   6.382  0.2591  0.5845 -0.0941
 3145SOL    HW120897   0.430   4.478   6.471  4.4434 -2.0786  0.7346
 3145SOL    HW220898   0.370   4.505   6.333  0.8447  0.2990 -1.1205
 3146SOL     OW20899   4.412   0.365   0.181  0.0819 -0.3690 -0.2625
 3146SOL    HW120900   4.463   0.439   0.149  0.9306 -1.7559 -2.1275
 3146SOL    HW220901   4.371   0.333   0.100 -0.1355  2.0448 -1.0898
 3147SOL     OW20902   3.548   1.818   6.595 -0.3543  0.1017  0.9128
 3147SOL    HW120903   3.642   1.802   6.588 -0.3024  0.8435 -0.0570
 3147SOL    HW220904   3.537   1.894   6.538  0.7826 -0.6542 -0.3188
 3148SOL     OW20905   3.892   1.497  16.554 -0.1207  0.5457  0.1981
 3148SOL    HW120906   3.970   1.545  16.527 -0.9073  1.4701 -0.4584
 3148SOL    HW220907   3.886   1.435  16.482  0.0820  1.2470 -0.4266
 3149SOL     OW20908   3.240   4.327   2.973 -0.0693 -0.7242 -0.1735
 3149SOL    HW120909   3.325   4.370   2.969  1.3242 -3.2567  2.3534
 3149SOL    HW220910   3.199   4.382   3.040  2.4349 -0.1371  0.8831
 3150SOL     OW20911   3.411   1.377  12.875 -0.6870  0.2716  0.4885
 3150SOL    HW120912   3.343   1.313  12.860 -0.3714 -0.3149  1.5319
 3150SOL    HW220913   3.409   1.420  12.790 -1.7709 -0.6658  0.0436
 3151SOL     OW20914   3.296   3.886  10.110  0.0905  0.3852 -0.0301
 3151SOL    HW120915   3.229   3.948  10.137  0.7725  2.2837 -2.7669
 3151SOL    HW220916   3.244   3.805  10.110 -0.4640  0.7243  1.3717
 3152SOL     OW20917   2.954   1.146  13.002  0.0957  0.4152  0.0432
 3152SOL    HW120918   2.994   1.083  13.061 -0.4324  1.0876  1.1258
 3152SOL    HW220919   2.870   1.102  12.991  1.1506 -1.4382 -0.4963
 3153SOL     OW20920   0.453   2.626  14.473 -0.0223 -0.0022  0.0968
 3153SOL    HW120921   0.447   2.718  14.501 -0.4458 -0.0725  0.2318
 3153SOL    HW220922   0.534   2.627  14.421 -0.5486 -0.1822 -0.7264
 3154SOL     OW20923   1.480   1.271   6.536  0.0810  0.2028  0.1260
 3154SOL    HW120924   1.442   1.332   6.473  1.5001 -0.0597 -0.9872
 3154SOL    HW220925   1.497   1.325   6.613  0.1737 -3.1582  2.4984
 3155SOL     OW20926   2.988   0.183   6.125 -0.1592 -0.0405 -0.5253
 3155SOL    HW120927   3.026   0.101   6.094  1.4785  0.5162  0.0322
 3155SOL    HW220928   2.894   0.164   6.133  0.0208 -0.5805  0.2987
 3156SOL     OW20929   0.233   2.334   7.636  0.4255  0.2623 -0.3154
 3156SOL    HW120930   0.272   2.412   7.676 -1.2867  0.0624  1.7194
 3156SOL    HW220931   0.277   2.258   7.674 -0.8907 -0.3789 -0.0722
 3157SOL     OW20932   1.682   4.714   5.536 -0.1951 -0.7411  0.2660
 3157SOL    HW120933   1.594   0.029   5.538  0.0442 -0.0423 -2.2505
 3157SOL    HW220934   1.717   0.012   5.449 -1.2734 -3.2599 -0.7662
 3158SOL     OW20935   1.031   3.311   1.777  0.5119 -0.2872 -0.1060
 3158SOL    HW120936   1.029   3.221   1.743 -0.4763  0.5351 -2.2418
 3158SOL    HW220937   1.121   3.341   1.766  0.7223 -0.5757  0.8614
 3159SOL     OW20938   3.866   0.418   6.877 -0.0870  0.0681 -0.0871
 3159SOL    HW120939   3.949   0.459   6.852 -0.1875  0.1309 -0.3122
 3159SOL    HW220940   3.817   0.496   6.903 -0.7142 -0.7720  1.2497
 3160SOL     OW20941   0.576   1.497   3.563  0.6852 -0.2376  0.2431
 3160SOL    HW120942   0.644   1.445   3.521 -0.5465 -0.0537 -1.9837
 3160SOL    HW220943   0.497   1.469   3.516  0.4549  0.0950  0.4319
 3161SOL     OW20944   3.993   3.354   7.741 -0.3895  0.0943  0.6293
 3161SOL    HW120945   3.973   3.274   7.692  0.6375  0.2065  0.0366
 3161SOL    HW220946   4.025   3.309   7.820 -1.4086  0.5855  1.3286
 3162SOL     OW20947   0.493   3.940  13.399 -0.6734 -0.4330 -0.4762
 3162SOL    HW120948   0.412   3.990  13.406 -0.1239  0.3568  0.2159
 3162SOL    HW220949   0.534   3.998  13.335 -0.0420 -0.0322  0.2841
 3163SOL     OW20950   3.776   2.423   0.005 -0.4504 -0.3795 -0.1817
 3163SOL    HW120951   3.684   2.413  17.676 -0.5051 -1.4755  0.5570
 3163SOL    HW220952   3.775   2.449   0.097  1.0344 -0.8376 -0.0367
 3164SOL     OW20953   1.573   0.855   6.101 -0.0402  0.6467 -0.3891
 3164SOL    HW120954   1.610   0.841   6.188  0.6126 -0.7330 -0.8872
 3164SOL    HW220955   1.650   0.842   6.046  0.6067 -0.3403  0.7472
 3165SOL     OW20956   0.200   3.170   6.943  0.1121  0.5367 -0.3811
 3165SOL    HW120957   0.290   3.190   6.969 -0.7984  0.9744  2.4276
 3165SOL    HW220958   0.154   3.246   6.979  0.7688  0.6693  0.1743
 3166SOL     OW20959   3.030   4.251  13.305 -0.2667  0.4462  0.3404
 3166SOL    HW120960   2.995   4.304  13.233 -3.5120 -2.7350 -0.4019
 3166SOL    HW220961   2.966   4.257  13.377 -0.5094 -0.2132  0.1731
 3167SOL     OW20962   2.053   2.373   8.250  0.3813  0.5730 -0.4445
 3167SOL    HW120963   1.991   2.445   8.241  0.4343  0.4484 -1.9008
 3167SOL    HW220964   2.117   2.408   8.311  0.1439  0.8701 -0.3654
 3168SOL     OW20965   1.225   3.513   7.553 -0.5597 -0.3040  0.7971
 3168SOL    HW120966   1.304   3.460   7.546 -0.5563 -0.4251  1.8002
 3168SOL    HW220967   1.157   3.446   7.552 -0.9654  0.1325 -0.8767
 3169SOL     OW20968   3.082   0.730   6.178  0.4695 -0.3004 -0.4270
 3169SOL    HW120969   3.048   0.653   6.133 -0.6250 -0.8887  1.3790
 3169SOL    HW220970   3.018   0.798   6.156  1.2974  0.4391 -0.5479
 3170SOL     OW20971   2.246   1.649  11.928  0.2951  0.3090 -0.6967
 3170SOL    HW120972   2.174   1.713  11.926 -0.5167 -0.6177 -0.8642
 3170SOL    HW220973   2.319   1.696  11.969  0.6888 -2.3196  1.6518
 3171SOL     OW20974   1.068   4.480   3.627 -0.1979  0.5798  0.2342
 3171SOL    HW120975   1.072   4.417   3.556 -0.2513  1.3909 -0.4835
 3171SOL    HW220976   1.149   4.461   3.674 -0.3867 -0.7415  0.0218
 3172SOL     OW20977   1.588   1.125   3.097 -0.2290  0.1333  0.5988
 3172SOL    HW120978   1.609   1.073   3.020  1.1684  0.0760  1.0086
 3172SOL    HW220979   1.669   1.121   3.147  0.5320  1.6810 -0.4846
 3173SOL     OW20980   2.061   3.790  10.750  0.3278 -0.1628 -0.3604
 3173SOL    HW120981   2.098   3.831  10.672  3.3058  0.5334  1.4356
 3173SOL    HW220982   2.046   3.865  10.808 -3.0140 -2.2457  1.4746
 3174SOL     OW20983   2.917   0.106   4.048 -0.3000 -0.1854 -0.0587
 3174SOL    HW120984   3.012   0.116   4.057 -0.1972 -0.3774 -0.9596
 3174SOL    HW220985   2.891   0.178   3.991  2.4301 -0.2382 -1.3708
 3175SOL     OW20986   1.158   2.371  10.069  0.2491  0.5675 -0.6458
 3175SOL    HW120987   1.173   2.284  10.032 -0.9318 -1.0397  2.6776
 3175SOL    HW220988   1.173   2.354  10.162 -1.4751 -0.1257 -0.5072
 3176SOL     OW20989   0.791   4.665   6.285 -0.1740 -0.1752  0.5596
 3176SOL    HW120990   0.773   4.572   6.275  0.0658 -0.0777 -0.7254
 3176SOL    HW220991   0.786   4.669   6.381  0.4594 -0.2388  0.5957
 3177SOL     OW20992   2.884   2.585   7.688  0.7139  0.6769 -0.2648
 3177SOL    HW120993   2.889   2.544   7.601 -2.9034  0.0680 -0.1803
 3177SOL    HW220994   2.862   2.675   7.666 -1.5966  0.2776  0.3651
 3178SOL     OW20995   1.599   2.084  14.689  0.2190  0.0890 -0.2611
 3178SOL    HW120996   1.563   2.154  14.635  3.0275  1.8236  0.0781
 3178SOL    HW220997   1.653   2.041  14.622  1.0641 -0.1932  0.5918
 3179SOL     OW20998   1.142   4.639   0.495  0.4036 -0.2068 -0.4441
 3179SOL    HW120999   1.111   0.006   0.489  0.5982 -0.1204 -0.1733
 3179SOL    HW221000   1.232   4.658   0.469  0.9408  1.3565  2.5282
 3180SOL     OW21001   2.450   1.577   7.307  0.3337 -0.2686  0.2912
 3180SOL    HW121002   2.407   1.543   7.385 -0.4064  0.6987  0.3010
 3180SOL    HW221003   2.527   1.520   7.306 -0.6392 -1.5814  0.4101
 3181SOL     OW21004   2.239   4.010  15.699  0.0782 -0.2453 -0.2478
 3181SOL    HW121005   2.285   4.084  15.739  2.5629 -2.1295  0.3557
 3181SOL    HW221006   2.217   3.958  15.776 -0.6016  1.2346  0.5492
 3182SOL     OW21007   0.333   0.437   5.220  0.2905 -0.2205 -0.1746
 3182SOL    HW121008   0.326   0.531   5.209 -1.9482 -0.3772 -0.1926
 3182SOL    HW221009   0.241   0.409   5.212 -0.1710  0.6775  1.8735
 3183SOL     OW21010   2.624   0.311   9.431  0.4650  0.5216 -0.9134
 3183SOL    HW121011   2.627   0.355   9.516  2.9236 -0.0652 -0.7015
 3183SOL    HW221012   2.576   0.228   9.436  0.3388  0.7021  0.8147
 3184SOL     OW21013   4.027   1.267  13.358  0.1723 -0.1459 -0.0906
 3184SOL    HW121014   4.030   1.232  13.269 -2.4581  0.7025 -0.5169
 3184SOL    HW221015   4.003   1.356  13.330 -0.6744 -0.7847 -1.4034
 3185SOL     OW21016   4.398   4.353   8.665  0.1415  0.0760  0.7851
 3185SOL    HW121017   4.448   4.432   8.684 -1.1309  1.6308 -2.1853
 3185SOL    HW221018   4.412   4.296   8.740 -0.0282  1.8263  2.1398
 3186SOL     OW21019   3.537   0.894   9.953  0.1560 -0.0836  0.5136
 3186SOL    HW121020   3.452   0.924   9.984 -0.3691  0.0746 -1.0779
 3186SOL    HW221021   3.593   0.955  10.003 -2.4212  0.7215  2.4031
 3187SOL     OW21022   2.929   2.068  13.081 -0.3247  0.6231  0.2133
 3187SOL    HW121023   2.894   2.143  13.033  0.6133  0.8041 -0.1851
 3187SOL    HW221024   3.023   2.071  13.063 -0.4241 -1.0299 -0.6187
 3188SOL     OW21025   3.217   4.521  12.470 -0.0425  0.4396  0.0171
 3188SOL    HW121026   3.137   4.540  12.519  0.5089 -0.6983  1.3798
 3188SOL    HW221027   3.204   4.434  12.433 -1.9077  0.8180 -0.2043
 3189SOL     OW21028   4.161   0.619   5.332 -0.2413  0.5525 -0.7629
 3189SOL    HW121029   4.136   0.533   5.365 -0.0604  0.4320 -0.9451
 3189SOL    HW221030   4.117   0.672   5.399  2.2712  2.1829 -0.4023
 3190SOL     OW21031   4.225   3.938   0.808 -0.2253  1.0172  0.0467
 3190SOL    HW121032   4.282   3.944   0.731 -0.8123 -0.3021 -0.4919
 3190SOL    HW221033   4.290   3.932   0.879  0.3250  1.2710 -0.4385
 3191SOL     OW21034   3.786   0.000   8.408 -0.0776  0.4380 -0.3146
 3191SOL    HW121035   3.861   4.710   8.350 -0.1454 -3.1842  0.4399
 3191SOL    HW221036   3.828   0.012   8.494  0.1273 -1.1029 -0.1985
 3192SOL     OW21037   0.704   2.809   4.017  0.6973  0.0571  0.0254
 3192SOL    HW121038   0.680   2.784   3.927  1.6034 -1.4467  0.1972
 3192SOL    HW221039   0.792   2.771   4.021  0.6904  0.0711  0.3176
 3193SOL     OW21040   3.228   3.408   6.727 -0.0825  0.3085 -0.2660
 3193SOL    HW121041   3.237   3.319   6.759  2.1093  0.2527 -1.0190
 3193SOL    HW221042   3.301   3.458   6.764  0.2993  0.4365 -1.1729
 3194SOL     OW21043   0.374   2.353   8.214  0.5087  0.0884 -0.5806
 3194SOL    HW121044   0.323   2.382   8.289  2.2099 -1.7092  1.2508
 3194SOL    HW221045   0.453   2.331   8.264 -1.0123 -1.5166  1.1120
 3195SOL     OW21046   2.566   1.423   5.820 -0.0131  0.1274 -0.5063
 3195SOL    HW121047   2.479   1.463   5.825 -0.4511 -0.9342  0.5122
 3195SOL    HW221048   2.617   1.503   5.809  0.4889 -0.1021  0.1954
 3196SOL     OW21049   3.978   1.787   3.116 -0.2984  0.0633 -0.5111
 3196SOL    HW121050   4.036   1.862   3.124  0.9861 -1.1676  1.6117
 3196SOL    HW221051   3.889   1.814   3.090 -1.0523 -1.5669  0.3654
 3197SOL     OW21052   2.101   1.113  13.309 -0.0213  0.5228 -0.2403
 3197SOL    HW121053   2.139   1.028  13.286  1.8634  0.8521  1.5939
 3197SOL    HW221054   2.133   1.116  13.399  1.4199  0.2366 -0.7386
 3198SOL     OW21055   3.813   3.345  17.127 -0.0215 -0.1732  0.3945
 3198SOL    HW121056   3.777   3.346  17.216  0.5067 -0.0690  0.6095
 3198SOL    HW221057   3.734   3.342  17.073  2.2679  0.9305 -2.9743
 3199SOL     OW21058   2.588   3.184  16.678  0.2757  0.3168  0.1283
 3199SOL    HW121059   2.548   3.267  16.702 -0.3731  0.1179 -0.2685
 3199SOL    HW221060   2.576   3.134  16.759 -1.7780  1.6699  0.6490
 3200SOL     OW21061   4.081   1.303  10.938 -0.4989 -0.2950 -0.3065
 3200SOL    HW121062   4.151   1.359  10.972 -0.8376 -1.4525  2.3019
 3200SOL    HW221063   4.116   1.277  10.852 -1.8129 -0.6757 -0.7281
 3201SOL     OW21064   0.650   0.198   5.319 -0.4108  0.1885 -0.4216
 3201SOL    HW121065   0.559   0.211   5.347 -1.0105 -1.9739 -1.2887
 3201SOL    HW221066   0.677   0.118   5.365  0.2496  1.0040  0.5902
 3202SOL     OW21067   3.617   0.784  10.605 -0.3053  0.3238 -0.9252
 3202SOL    HW121068   3.709   0.788  10.582 -0.0178 -0.8538 -0.0048
 3202SOL    HW221069   3.630   0.697  10.644  1.2822  0.4112 -1.2555
 3203SOL     OW21070   0.122   3.411   8.647  0.0735  0.4086 -0.1191
 3203SOL    HW121071   0.126   3.479   8.579  1.1609  1.7207  1.2618
 3203SOL    HW221072   0.064   3.344   8.611 -0.5840  1.4823 -1.0574
 3204SOL     OW21073   1.429   0.522  16.228 -0.3844 -0.5384 -0.0330
 3204SOL    HW121074   1.361   0.562  16.283  2.3822  1.0400  2.2441
 3204SOL    HW221075   1.465   0.604  16.196  0.2349 -1.3693 -1.4429
 3205SOL     OW21076   2.460   0.459   7.553 -0.1725 -0.5244  0.7722
 3205SOL    HW121077   2.544   0.477   7.595  0.4403 -1.4017 -0.0729
 3205SOL    HW221078   2.471   0.366   7.533 -3.2993 -0.0449 -2.9989
 3206SOL     OW21079   0.164   3.073   5.600  0.4988 -0.1970  0.3668
 3206SOL    HW121080   0.256   3.050   5.585  0.2699 -0.2556 -1.0190
 3206SOL    HW221081   0.122   3.002   5.647  1.6623 -0.7492  0.5801
 3207SOL     OW21082   1.360   3.949   8.162  0.1226  0.1920  0.4004
 3207SOL    HW121083   1.277   3.908   8.184  0.8226 -1.0033  0.8443
 3207SOL    HW221084   1.349   4.029   8.213  1.4480  1.7051 -1.6494
 3208SOL     OW21085   3.257   4.432  14.738 -0.1448 -0.0969 -0.3075
 3208SOL    HW121086   3.344   4.434  14.697  0.6773  3.5289  1.6320
 3208SOL    HW221087   3.219   4.514  14.707  1.3237  0.5273 -0.4683
 3209SOL     OW21088   2.466   0.370   5.882 -0.3371  0.0855 -0.0474
 3209SOL    HW121089   2.371   0.366   5.872 -0.6746  4.6632  1.2891
 3209SOL    HW221090   2.479   0.407   5.969  0.1879 -1.6434  0.5994
 3210SOL     OW21091   1.201   4.208  14.656 -0.4036  0.2929 -0.5687
 3210SOL    HW121092   1.276   4.230  14.602  0.3336  0.0115  0.3359
 3210SOL    HW221093   1.228   4.123  14.691 -0.0421  1.1474  1.2679
 3211SOL     OW21094   0.651   2.305   6.710  0.1333 -0.6180  0.1733
 3211SOL    HW121095   0.640   2.225   6.762  1.0575 -0.4256  0.6511
 3211SOL    HW221096   0.617   2.279   6.624  0.1918  0.0373 -0.0467
 3212SOL     OW21097   0.025   1.812   2.710  0.2025 -0.4498 -0.1019
 3212SOL    HW121098   4.682   1.743   2.717  2.5870 -2.5012  1.9996
 3212SOL    HW221099   0.088   1.792   2.779 -0.3054  1.0707  0.8140
 3213SOL     OW21100   1.096   0.453   9.917  0.3097 -0.6383  0.2038
 3213SOL    HW121101   1.052   0.530   9.953  3.2859  0.1288  2.1530
 3213SOL    HW221102   1.083   0.474   9.824  0.3275  0.5655  0.4744
 3214SOL     OW21103   1.491   3.705   2.904 -0.7069  0.1852  0.3497
 3214SOL    HW121104   1.485   3.725   2.811  1.5556  1.6727  0.5164
 3214SOL    HW221105   1.400   3.679   2.917 -0.5379 -0.5733  0.0483
 3215SOL     OW21106   3.393   2.414   5.674 -0.3464  0.0579 -0.0154
 3215SOL    HW121107   3.403   2.377   5.762 -3.0048 -0.6417 -0.0063
 3215SOL    HW221108   3.371   2.505   5.695  0.1859 -0.1315  1.4005
 3216SOL     OW21109   0.253   2.252   5.090 -0.1311  0.0629 -0.5318
 3216SOL    HW121110   0.336   2.250   5.043  0.3596  0.7589  0.3026
 3216SOL    HW221111   0.226   2.344   5.079 -0.6097 -0.0455 -0.2604
 3217SOL     OW21112   0.464   2.438   3.198  0.2131 -0.1134 -0.1804
 3217SOL    HW121113   0.556   2.465   3.197  0.2845 -0.3531 -0.3286
 3217SOL    HW221114   0.463   2.352   3.240 -0.5119 -1.0904 -2.2084
 3218SOL     OW21115   1.233   2.576   8.862 -0.2785 -0.1963 -0.2407
 3218SOL    HW121116   1.276   2.523   8.795  1.1970 -1.2552  1.5589
 3218SOL    HW221117   1.249   2.529   8.944 -0.0892 -1.2154 -0.8650
 3219SOL     OW21118   4.497   4.550  10.123 -0.1441 -0.1644 -0.1827
 3219SOL    HW121119   4.416   4.516  10.086 -0.5553 -0.3847  0.9279
 3219SOL    HW221120   4.515   4.488  10.194 -1.4387 -0.5918 -0.2420
 3220SOL     OW21121   0.497   2.321  16.191  0.2764  0.0882 -0.0419
 3220SOL    HW121122   0.568   2.283  16.139  0.3142  0.3586 -0.1844
 3220SOL    HW221123   0.423   2.308  16.132  0.5820 -0.3131 -0.3437
 3221SOL     OW21124   3.331   2.942  17.688 -0.0369 -0.0577 -0.4581
 3221SOL    HW121125   3.328   3.008   0.064 -0.5841 -0.4330 -0.1259
 3221SOL    HW221126   3.305   2.863   0.041 -0.7110 -0.7203 -1.9682
 3222SOL     OW21127   1.975   2.346   2.148 -0.3955 -0.0184  0.1975
 3222SOL    HW121128   1.979   2.392   2.064  0.8526  1.5751  1.1479
 3222SOL    HW221129   1.892   2.382   2.179  0.6731  2.3543  0.2611
 3223SOL     OW21130   1.255   2.519   9.201  0.1652 -0.4823 -0.0182
 3223SOL    HW121131   1.286   2.606   9.173 -0.0262 -0.2290  0.5690
 3223SOL    HW221132   1.308   2.465   9.142  1.3888  0.3444  0.3367
 3224SOL     OW21133   2.278   3.212   4.072 -0.0431 -0.0745  0.5731
 3224SOL    HW121134   2.347   3.278   4.063 -1.2420  0.8865 -1.6039
 3224SOL    HW221135   2.248   3.240   4.158  1.4369  0.3288  0.9713
 3225SOL     OW21136   2.403   1.655   0.376  0.3751  0.5486  0.5599
 3225SOL    HW121137   2.449   1.668   0.294  1.0191  2.1865  1.1946
 3225SOL    HW221138   2.332   1.594   0.354 -0.2248  2.0534 -1.6036
 3226SOL     OW21139   3.812   2.021   3.771 -0.2689 -0.3116  0.4906
 3226SOL    HW121140   3.753   2.074   3.825 -1.1773  0.1282 -0.9285
 3226SOL    HW221141   3.753   1.948   3.753  0.9945 -1.3113  0.3893
 3227SOL     OW21142   4.006   1.841   3.572 -0.2097  0.2448 -0.1186
 3227SOL    HW121143   4.039   1.814   3.486  1.1209 -1.2326  0.8423
 3227SOL    HW221144   3.938   1.775   3.582  0.4053 -0.3560  0.1438
 3228SOL     OW21145   2.076   3.702   1.318  0.5603 -0.0528  0.2121
 3228SOL    HW121146   2.119   3.713   1.233  2.2415 -1.2106  0.9238
 3228SOL    HW221147   2.007   3.641   1.291  1.2449  0.1774 -2.0386
 3229SOL     OW21148   4.356   2.465   4.273 -0.0333 -0.1663  0.1601
 3229SOL    HW121149   4.448   2.450   4.253 -0.6679 -2.4681 -0.9813
 3229SOL    HW221150   4.326   2.458   4.182  1.5760  0.5601 -0.4328
 3230SOL     OW21151   2.514   1.204   5.491 -0.2090 -0.2474  0.1576
 3230SOL    HW121152   2.569   1.184   5.415 -1.1947 -0.2468 -0.5530
 3230SOL    HW221153   2.574   1.253   5.548  0.6358 -0.4687 -0.5353
 3231SOL     OW21154   3.973   4.695  14.454  0.4269  0.2536 -0.4387
 3231SOL    HW121155   4.057   4.695  14.410  2.0144 -2.0601  2.6310
 3231SOL    HW221156   3.945   0.064  14.451  1.0512  0.3646 -2.6674
 3232SOL     OW21157   3.022   3.436   6.971 -0.0286 -0.1994 -0.1455
 3232SOL    HW121158   3.026   3.498   6.898  0.4155  0.6378  0.5831
 3232SOL    HW221159   3.090   3.475   7.025 -1.8134  1.9823  0.5265
 3233SOL     OW21160   2.300   3.737  16.545  0.4666  0.1114 -0.5567
 3233SOL    HW121161   2.252   3.700  16.619 -0.6791  2.3447 -0.2053
 3233SOL    HW221162   2.388   3.750  16.579  0.8860 -0.1278 -1.5407
 3234SOL     OW21163   1.904   1.259  12.710 -0.5903  0.2036  0.2689
 3234SOL    HW121164   1.921   1.353  12.704 -1.7928  0.3385 -0.8234
 3234SOL    HW221165   1.821   1.260  12.757 -0.5119  0.0669  0.4110
 3235SOL     OW21166   4.375   2.944   8.806 -0.5916  0.5023 -0.3040
 3235SOL    HW121167   4.374   3.028   8.852  0.0299 -0.0948  0.8015
 3235SOL    HW221168   4.469   2.935   8.794 -0.9325 -1.5379 -1.4886
 3236SOL     OW21169   2.181   4.199   2.733  0.1324  0.1944  0.5096
 3236SOL    HW121170   2.132   4.275   2.704  0.5854  0.2403 -0.1361
 3236SOL    HW221171   2.247   4.194   2.664 -0.4149 -2.3555  0.1469
 3237SOL     OW21172   0.490   0.257   3.978  0.1825 -0.8402  0.1352
 3237SOL    HW121173   0.527   0.335   4.019 -0.6648 -0.9145  1.0286
 3237SOL    HW221174   0.559   0.245   3.913 -0.5010  0.5904 -0.8614
 3238SOL     OW21175   4.216   2.697   2.689  0.1381  0.1839 -0.5838
 3238SOL    HW121176   4.222   2.773   2.748  0.0315  0.9509 -1.5482
 3238SOL    HW221177   4.301   2.662   2.714 -0.3553 -0.0398  0.7880
 3239SOL     OW21178   3.365   3.380  17.627 -0.5428 -0.1906 -0.2189
 3239SOL    HW121179   3.292   3.434  17.599 -2.9927 -3.1922  0.3860
 3239SOL    HW221180   3.380   3.333  17.545 -0.9109 -0.1743 -0.2919
 3240SOL     OW21181   3.360   0.856   9.460  0.2853  0.2006 -0.2073
 3240SOL    HW121182   3.265   0.862   9.450  0.3289 -0.1161 -0.8248
 3240SOL    HW221183   3.368   0.824   9.550 -2.4731  0.4811  0.1224
 3241SOL     OW21184   2.844   2.840   8.784 -0.3518  0.3015  0.7504
 3241SOL    HW121185   2.806   2.754   8.804 -0.7999  0.1914 -0.5869
 3241SOL    HW221186   2.765   2.893   8.778  0.0834  0.5861 -2.5474
 3242SOL     OW21187   3.150   4.230   8.679  0.1198  0.2872 -0.5656
 3242SOL    HW121188   3.102   4.154   8.712 -0.9818  1.4666  0.5269
 3242SOL    HW221189   3.088   4.267   8.617  0.9746  0.1876 -1.4891
 3243SOL     OW21190   3.013   2.628   5.653  0.3459  0.1224  0.1342
 3243SOL    HW121191   2.987   2.719   5.661 -1.1523 -0.4933  2.2444
 3243SOL    HW221192   3.006   2.604   5.746 -3.4869  2.4483  0.4337
 3244SOL     OW21193   1.686   4.041   5.246  0.5271 -0.5958 -0.5548
 3244SOL    HW121194   1.770   4.020   5.287  0.4891 -1.2048 -0.7948
 3244SOL    HW221195   1.701   4.053   5.153 -1.2011  3.5672 -0.2794
 3245SOL     OW21196   2.201   0.056  16.953  0.0410 -0.1182 -0.1168
 3245SOL    HW121197   2.272   0.052  17.017  0.3760 -0.0065 -0.4771
 3245SOL    HW221198   2.159   4.695  16.971 -0.5679  0.2043 -0.0632
 3246SOL     OW21199   1.201   4.586   7.660  0.1627 -1.4194 -0.6853
 3246SOL    HW121200   1.209   4.504   7.612  0.7189 -1.4870 -0.4744
 3246SOL    HW221201   1.111   4.607   7.634  0.2934  0.6688  0.5651
 3247SOL     OW21202   2.642   4.218  10.286 -0.4472  0.2094  0.2180
 3247SOL    HW121203   2.650   4.312  10.301  0.5634  0.2036 -0.2886
 3247SOL    HW221204   2.696   4.208  10.208 -0.0181  3.5063  0.1024
 3248SOL     OW21205   0.432   4.283   6.876 -0.1883  0.3750 -0.5396
 3248SOL    HW121206   0.445   4.366   6.922  2.5634 -0.6951  0.6066
 3248SOL    HW221207   0.385   4.319   6.801  1.1550  0.3400 -1.4094
 3249SOL     OW21208   2.688   1.509   6.600 -1.1377  0.2913  0.4144
 3249SOL    HW121209   2.728   1.569   6.663 -0.2770  0.9994 -0.8097
 3249SOL    HW221210   2.746   1.496   6.525  0.6879  2.3694  1.4864
 3250SOL     OW21211   4.460   2.338   2.926  0.2938 -0.2891 -0.1620
 3250SOL    HW121212   4.519   2.356   2.853  0.6523 -0.2758  0.1313
 3250SOL    HW221213   4.416   2.257   2.898  1.2660 -0.1662 -2.0406
 3251SOL     OW21214   1.330   0.075  11.332 -0.1899  0.3452  0.0018
 3251SOL    HW121215   1.295   4.715  11.300  0.7452  0.3151 -0.9485
 3251SOL    HW221216   1.417   0.082  11.294 -0.0308 -1.0904  0.1061
 3252SOL     OW21217   1.924   0.189  16.532  0.3432 -0.0607 -0.6732
 3252SOL    HW121218   1.956   0.174  16.621 -2.4121 -2.7043 -0.1303
 3252SOL    HW221219   1.854   0.123  16.538  0.7924 -0.3790  1.2451
 3253SOL     OW21220   0.142   2.265   4.354 -0.4895  0.9111 -0.1034
 3253SOL    HW121221   0.119   2.226   4.439 -0.7053  0.4637 -0.3709
 3253SOL    HW221222   0.238   2.257   4.357 -0.5505  0.3341  0.3018
 3254SOL     OW21223   1.414   2.839   8.331 -0.1509  0.2323 -0.5504
 3254SOL    HW121224   1.381   2.785   8.259  1.3675  1.3320 -2.0791
 3254SOL    HW221225   1.329   2.860   8.369  0.7330  2.0196  0.4110
 3255SOL     OW21226   2.173   1.912   7.746  0.1694 -0.4145 -0.3146
 3255SOL    HW121227   2.240   1.972   7.714 -0.8184  0.7507 -0.2162
 3255SOL    HW221228   2.225   1.832   7.752 -1.1836 -1.4067 -1.8003
 3256SOL     OW21229   0.605   2.552   6.471 -0.2387 -0.5241 -0.2740
 3256SOL    HW121230   0.634   2.569   6.560 -0.2216  2.3828 -0.8273
 3256SOL    HW221231   0.509   2.555   6.477 -0.1908  1.7640 -0.7863
 3257SOL     OW21232   1.271   2.192   2.637  0.0011 -0.5459  0.6359
 3257SOL    HW121233   1.360   2.158   2.630  1.0814  2.4376 -0.2078
 3257SOL    HW221234   1.249   2.199   2.544 -1.2541 -0.6600  0.9260
 3258SOL     OW21235   0.902   2.310   5.643  0.3995  0.0117 -0.6687
 3258SOL    HW121236   0.914   2.357   5.560  1.3498 -0.8646 -1.0211
 3258SOL    HW221237   0.989   2.310   5.683  0.2147 -0.1066 -0.2737
 3259SOL     OW21238   3.653   0.430   7.481 -0.2269 -0.4144 -0.3140
 3259SOL    HW121239   3.715   0.373   7.525 -0.9239 -1.5428 -0.8021
 3259SOL    HW221240   3.695   0.450   7.398 -0.6010  1.3282 -0.0929
 3260SOL     OW21241   0.023   3.271  15.080  0.4047  0.0783  0.5924
 3260SOL    HW121242   4.675   3.329  15.053  0.2495 -1.2673 -1.8709
 3260SOL    HW221243   0.065   3.248  14.997  0.1346  0.7720  0.2657
 3261SOL     OW21244   4.184   0.461   3.692  0.3613  0.6422  0.2019
 3261SOL    HW121245   4.132   0.420   3.623 -1.6866 -2.6689  3.6923
 3261SOL    HW221246   4.215   0.538   3.645  0.3581  0.3120 -0.3415
 3262SOL     OW21247   2.557   3.696   3.010  0.2123 -0.3333  0.4778
 3262SOL    HW121248   2.539   3.614   3.057  1.0526  0.2280  1.7873
 3262SOL    HW221249   2.520   3.760   3.072  1.2327  0.9599 -0.2647
 3263SOL     OW21250   2.079   3.339  15.068  0.5371  0.2872  0.0737
 3263SOL    HW121251   1.987   3.348  15.091  0.5760  0.8637  0.0056
 3263SOL    HW221252   2.128   3.328  15.150 -0.1396 -0.5947  0.3590
 3264SOL     OW21253   1.670   1.830   0.849  0.1477 -0.4023  0.3689
 3264SOL    HW121254   1.626   1.791   0.924 -2.0762  1.3086 -0.0474
 3264SOL    HW221255   1.761   1.814   0.873  0.5289  2.1897  0.7223
 3265SOL     OW21256   0.662   4.227   3.358 -0.0221  0.2499 -0.1764
 3265SOL    HW121257   0.571   4.244   3.336  0.3322  0.4147 -1.5461
 3265SOL    HW221258   0.690   4.190   3.274  1.4358  1.3355 -0.1802
 3266SOL     OW21259   3.374   2.306   4.369  0.2293  0.2083 -0.1383
 3266SOL    HW121260   3.327   2.388   4.354 -0.0548 -0.4237 -2.6187
 3266SOL    HW221261   3.308   2.273   4.431 -0.0296  0.6013 -0.2100
 3267SOL     OW21262   0.073   3.354  11.538  0.2972 -0.2453 -0.1606
 3267SOL    HW121263   0.152   3.307  11.564  0.1295 -0.6165 -0.3200
 3267SOL    HW221264   0.014   3.318  11.604 -0.5331 -0.0603 -0.8110
 3268SOL     OW21265   4.197   1.171  13.123  0.1786  0.2903  0.3339
 3268SOL    HW121266   4.269   1.220  13.083  1.2388 -1.0216  0.6626
 3268SOL    HW221267   4.249   1.122  13.187  0.4677 -1.4872 -1.2627
 3269SOL     OW21268   4.108   2.049   5.546  0.0086  0.0537  0.0948
 3269SOL    HW121269   4.164   2.127   5.547  0.4503 -0.2643  0.1143
 3269SOL    HW221270   4.141   1.991   5.615  2.7146  0.1332 -1.0961
 3270SOL     OW21271   4.363   2.583   1.304 -0.2138 -0.6266 -0.7695
 3270SOL    HW121272   4.422   2.657   1.290  2.4216 -2.1697  2.2333
 3270SOL    HW221273   4.359   2.538   1.219  0.8427 -2.0022 -0.0955
 3271SOL     OW21274   0.703   0.172   3.449 -0.2143  0.2258 -1.1833
 3271SOL    HW121275   0.788   0.138   3.420 -0.2780  0.0384 -1.1550
 3271SOL    HW221276   0.677   0.213   3.367 -0.6337 -2.0174 -2.1831
 3272SOL     OW21277   4.008   0.527   8.771 -1.1058 -0.2853  1.0937
 3272SOL    HW121278   4.019   0.540   8.866  0.0100  1.3461  0.7529
 3272SOL    HW221279   3.976   0.437   8.767 -1.0319 -0.3258  1.3771
 3273SOL     OW21280   0.880   3.638  12.481  0.4569 -0.1846  0.3091
 3273SOL    HW121281   0.803   3.671  12.528  0.9508  0.8015  0.4322
 3273SOL    HW221282   0.884   3.551  12.520  0.6503 -0.5534 -0.5261
 3274SOL     OW21283   0.187   3.765   2.882  0.7014  0.2347  0.2628
 3274SOL    HW121284   0.128   3.795   2.813 -1.1324 -1.0804  1.2710
 3274SOL    HW221285   0.162   3.832   2.946  2.4453  2.2463 -1.1482
 3275SOL     OW21286   4.073   0.866  12.953 -0.4426 -0.5831  0.1059
 3275SOL    HW121287   4.092   0.791  13.010  2.4517 -0.1518 -0.2741
 3275SOL    HW221288   4.142   0.852  12.888  0.1532  0.5349  0.4958
 3276SOL     OW21289   0.123   2.669  15.297  0.0064 -0.4240 -0.2574
 3276SOL    HW121290   0.114   2.575  15.283  1.8377 -0.7987  1.1252
 3276SOL    HW221291   0.070   2.688  15.375 -0.0609  1.0242 -0.6468
 3277SOL     OW21292   1.559   3.907   5.858 -0.4370 -0.6459  0.0593
 3277SOL    HW121293   1.635   3.885   5.802 -0.8721 -0.4571 -0.6060
 3277SOL    HW221294   1.596   3.976   5.912 -1.1608  0.5788 -1.0018
 3278SOL     OW21295   0.015   3.988   2.219 -0.3746 -0.4276 -0.6832
 3278SOL    HW121296   4.686   4.064   2.194  1.2496 -0.6130 -4.6025
 3278SOL    HW221297   4.679   3.933   2.270  0.9972 -0.9472  0.3225
 3279SOL     OW21298   0.018   3.015  11.881  0.1197  0.0436  0.1303
 3279SOL    HW121299   4.696   2.945  11.928  0.4352 -1.6927 -2.1905
 3279SOL    HW221300   0.055   3.074  11.948  0.5631 -1.0528  0.8557
 3280SOL     OW21301   0.914   4.053  12.316  0.4113 -0.1084 -0.6547
 3280SOL    HW121302   0.914   3.961  12.287  0.7072 -0.0113 -0.9567
 3280SOL    HW221303   0.855   4.085  12.247 -0.5709  0.8951  0.6489
 3281SOL     OW21304   0.425   2.926   2.871  0.0854  0.2315 -0.1701
 3281SOL    HW121305   0.435   2.995   2.936  0.5779 -1.1497  1.2042
 3281SOL    HW221306   0.517   2.909   2.850 -0.0151  0.4177 -0.7735
 3282SOL     OW21307   4.448   3.077   9.483 -0.2469  0.3182  0.9024
 3282SOL    HW121308   4.524   3.127   9.511  0.2063  0.5011 -0.6506
 3282SOL    HW221309   4.481   2.988   9.489  0.4106  0.5063  0.0454
 3283SOL     OW21310   4.602   2.599   5.877  0.2710  0.2531  0.0851
 3283SOL    HW121311   4.627   2.548   5.954  2.5591 -1.1825 -1.6145
 3283SOL    HW221312   4.545   2.667   5.913  0.8497  0.9499 -0.3389
 3284SOL     OW21313   0.652   1.784  15.848 -0.4274 -0.4793  0.1305
 3284SOL    HW121314   0.561   1.755  15.844 -0.6713  0.3421 -0.1335
 3284SOL    HW221315   0.649   1.872  15.811  0.4742 -0.3133  0.4580
 3285SOL     OW21316   1.427   0.372   1.869  0.4602 -0.0074 -0.1818
 3285SOL    HW121317   1.346   0.324   1.853  1.2628 -1.3555 -0.1824
 3285SOL    HW221318   1.447   0.415   1.785 -0.7040  0.0631 -0.4309
 3286SOL     OW21319   3.079   0.489   3.008  0.6256  0.0115 -0.4533
 3286SOL    HW121320   3.123   0.487   2.923  0.7611 -2.8059 -0.2956
 3286SOL    HW221321   3.163   0.490   3.055 -0.9071  0.5667  2.2764
 3287SOL     OW21322   0.692   2.689   1.613  0.3619  0.4547  1.0831
 3287SOL    HW121323   0.665   2.601   1.642  1.2217 -0.3065 -0.4195
 3287SOL    HW221324   0.785   2.676   1.597 -0.1833 -1.7625 -0.3681
 3288SOL     OW21325   3.510   1.579  11.416  0.1302  0.4778  0.0332
 3288SOL    HW121326   3.430   1.597  11.464  0.5490 -0.5782  1.1499
 3288SOL    HW221327   3.480   1.596  11.326  0.3684 -0.1551 -0.1708
 3289SOL     OW21328   0.370   3.054   4.084 -0.2123  0.0961 -0.4676
 3289SOL    HW121329   0.402   2.966   4.064  2.5587  0.3303  2.9269
 3289SOL    HW221330   0.321   3.037   4.165 -0.8930  0.0245 -0.8938
 3290SOL     OW21331   2.316   2.087   8.890 -0.2320  0.0514  0.1215
 3290SOL    HW121332   2.242   2.031   8.917 -1.4526  2.1882  1.2451
 3290SOL    HW221333   2.369   2.083   8.970  1.1778  1.0773 -0.7842
 3291SOL     OW21334   1.738   3.574   2.370  0.1564 -0.1824 -0.1721
 3291SOL    HW121335   1.694   3.659   2.372 -0.0318 -0.3148  1.1740
 3291SOL    HW221336   1.809   3.591   2.431 -0.6490  1.4254  0.3038
 3292SOL     OW21337   4.016   1.376   3.187 -0.0657 -0.0563  1.0599
 3292SOL    HW121338   4.073   1.430   3.132  1.6655 -0.9576  1.9969
 3292SOL    HW221339   4.078   1.307   3.206 -0.4272 -0.6500  0.0802
 3293SOL     OW21340   4.398   0.312   5.047  0.5500 -0.4050  0.4534
 3293SOL    HW121341   4.442   0.385   5.090  0.5192  0.9998 -1.9101
 3293SOL    HW221342   4.329   0.352   4.995  0.6871  0.5422  1.0059
 3294SOL     OW21343   3.445   0.948   6.992 -0.1495  0.2923  0.4232
 3294SOL    HW121344   3.384   1.017   7.019 -0.6631  0.9829 -2.4668
 3294SOL    HW221345   3.400   0.902   6.921  1.8118 -0.1174 -0.5655
 3295SOL     OW21346   0.346   2.432   3.670  0.3191 -0.3256 -0.2053
 3295SOL    HW121347   0.268   2.383   3.693  0.0795  0.9610  1.7606
 3295SOL    HW221348   0.406   2.372   3.626 -1.4628 -3.2265  1.3830
 3296SOL     OW21349   0.118   3.136   5.123  0.1076 -0.5240  0.0738
 3296SOL    HW121350   0.088   3.087   5.047  1.8167 -0.7446 -0.4552
 3296SOL    HW221351   0.054   3.092   5.180 -1.9786 -0.4608 -2.2250
 3297SOL     OW21352   0.910   2.342   6.741  0.0248  0.2704 -0.4434
 3297SOL    HW121353   0.814   2.347   6.744  0.1254  0.5697  2.0277
 3297SOL    HW221354   0.942   2.411   6.683  2.1423 -1.4511 -1.2927
 3298SOL     OW21355   3.475   1.686   2.326 -0.0083 -0.0076  0.3361
 3298SOL    HW121356   3.410   1.721   2.386  0.2926  0.4188  0.4143
 3298SOL    HW221357   3.471   1.761   2.267  0.1380 -0.2626  0.0013
 3299SOL     OW21358   3.957   3.758   5.308  0.3038  0.0647  0.1552
 3299SOL    HW121359   3.982   3.802   5.389  1.0334 -0.0027 -0.0366
 3299SOL    HW221360   3.955   3.665   5.331 -3.4578 -0.5399 -2.5269
 3300SOL     OW21361   2.281   1.990  12.713  0.0272  0.3995 -0.0135
 3300SOL    HW121362   2.309   2.069  12.667  0.8300 -0.2873 -0.6952
 3300SOL    HW221363   2.352   1.974  12.775  0.9388  1.9862 -0.6680
 3301SOL     OW21364   2.349   2.366   8.120 -0.2968 -0.2585  0.3835
 3301SOL    HW121365   2.404   2.310   8.064 -0.0684  0.9063 -0.5602
 3301SOL    HW221366   2.376   2.319   8.199  1.4160  0.8600  0.4638
 3302SOL     OW21367   2.622   1.614  10.741 -0.0638  0.1352  0.4460
 3302SOL    HW121368   2.681   1.548  10.705 -0.5807 -0.6770  1.1084
 3302SOL    HW221369   2.536   1.574  10.729  0.2560 -0.7803  1.2176
 3303SOL     OW21370   0.978   0.594   4.440  0.1107 -0.1514  0.1963
 3303SOL    HW121371   1.035   0.646   4.384  0.9285 -2.1885 -0.8786
 3303SOL    HW221372   1.041   0.539   4.486  0.9714  0.9914  0.3659
 3304SOL     OW21373   0.631   1.353  11.994 -0.3906 -0.5365  0.1000
 3304SOL    HW121374   0.688   1.397  11.932  0.2374 -3.8381 -1.6870
 3304SOL    HW221375   0.694   1.337  12.065 -0.2419  1.2347  0.3663
 3305SOL     OW21376   3.498   0.699   6.470 -0.3940 -0.3364  0.2211
 3305SOL    HW121377   3.441   0.719   6.396 -0.3441 -2.3694 -0.3464
 3305SOL    HW221378   3.533   0.788   6.483 -3.2512  0.9846 -1.1473
 3306SOL     OW21379   0.833   4.374   6.835 -0.0791  0.3539  0.4602
 3306SOL    HW121380   0.825   4.278   6.840  0.6582  0.2083 -1.3641
 3306SOL    HW221381   0.819   4.394   6.743  2.7786  0.7470  0.1164
 3307SOL     OW21382   2.586   4.044   4.172  0.2910  0.5260  0.1315
 3307SOL    HW121383   2.571   4.138   4.178 -0.3507  0.6244 -2.8317
 3307SOL    HW221384   2.662   4.033   4.229  0.0283 -0.0213  0.3789
 3308SOL     OW21385   4.693   3.887   5.147  0.2372 -0.0660 -0.0200
 3308SOL    HW121386   4.629   3.897   5.218 -0.9836  0.1263 -1.1459
 3308SOL    HW221387   4.679   3.792   5.138  0.6200 -0.2958  1.7810
 3309SOL     OW21388   2.004   0.610   4.145  0.4657  0.2613  0.1024
 3309SOL    HW121389   1.945   0.549   4.190  1.1669  0.8751  1.8656
 3309SOL    HW221390   2.036   0.555   4.073 -0.5742 -0.1203 -0.0600
 3310SOL     OW21391   2.897   3.743   2.181  0.1583 -0.3049 -0.4955
 3310SOL    HW121392   2.979   3.717   2.139  1.5337  2.4546  0.4961
 3310SOL    HW221393   2.901   3.698   2.265  1.1136 -2.0718 -1.4865
 3311SOL     OW21394   1.599   2.342  15.473 -0.0746 -0.2189 -0.1501
 3311SOL    HW121395   1.689   2.351  15.443  0.3034 -0.6179  0.8720
 3311SOL    HW221396   1.552   2.404  15.418 -1.4241 -0.4019  0.7914
 3312SOL     OW21397   3.219   3.154   3.102  0.7125 -0.2719  0.4261
 3312SOL    HW121398   3.217   3.080   3.042 -1.3486  1.1018 -1.2127
 3312SOL    HW221399   3.182   3.122   3.184 -1.0367 -1.1432 -0.7148
 3313SOL     OW21400   2.863   4.076   7.013 -0.2750  0.9071 -0.3961
 3313SOL    HW121401   2.801   4.031   6.956 -1.1305  0.6321  0.7410
 3313SOL    HW221402   2.827   4.047   7.097  3.3686  0.3706  0.9581
 3314SOL     OW21403   3.943   1.351   6.575  0.1866  0.4617 -0.1632
 3314SOL    HW121404   3.952   1.274   6.518  0.8527  0.2152  0.2671
 3314SOL    HW221405   4.034   1.354   6.607  0.1546 -0.5242  0.0257
 3315SOL     OW21406   1.132   1.128  13.004 -0.1917  0.3606  0.2670
 3315SOL    HW121407   1.052   1.115  12.954  0.8976  0.0073 -1.4011
 3315SOL    HW221408   1.098   1.159  13.088 -1.7039  0.6919 -0.4682
 3316SOL     OW21409   3.996   3.086   7.932 -0.2223 -0.0631 -0.0305
 3316SOL    HW121410   3.908   3.078   7.970 -0.8652  1.1853 -1.2331
 3316SOL    HW221411   4.002   2.993   7.912 -1.4863 -0.5646  1.9056
 3317SOL     OW21412   3.920   0.766   2.335  0.1229  0.2580  0.2825
 3317SOL    HW121413   3.896   0.824   2.407  1.8000 -0.4536  1.4136
 3317SOL    HW221414   3.861   0.693   2.354  1.2111 -0.5605  0.5386
 3318SOL     OW21415   1.496   1.427   0.655 -0.7702 -0.4378  0.4136
 3318SOL    HW121416   1.486   1.396   0.565  0.7691  0.7267 -0.1640
 3318SOL    HW221417   1.432   1.372   0.698 -0.7545 -0.5291  0.3199
 3319SOL     OW21418   1.720   0.691  15.080  0.6198 -0.0955 -0.3705
 3319SOL    HW121419   1.754   0.780  15.090  3.8048 -1.3391 -0.1222
 3319SOL    HW221420   1.736   0.691  14.986  0.3477  1.4080 -0.4115
 3320SOL     OW21421   1.274   3.882   2.343 -0.0301  0.3773  0.5077
 3320SOL    HW121422   1.307   3.927   2.266  2.3498  0.4545  1.5461
 3320SOL    HW221423   1.281   3.793   2.308 -0.7376  0.2897  0.5892
 3321SOL     OW21424   3.509   4.047  12.450  0.0791 -0.5188 -0.4178
 3321SOL    HW121425   3.416   4.065  12.434  0.7029  2.8151 -0.2930
 3321SOL    HW221426   3.542   4.136  12.437  2.0492 -1.3753 -1.1105
 3322SOL     OW21427   1.499   4.218   7.866 -0.0566  0.4836 -0.1433
 3322SOL    HW121428   1.513   4.181   7.953  0.4561  1.6574  0.2739
 3322SOL    HW221429   1.494   4.312   7.882  0.8603  0.1570  2.1839
 3323SOL     OW21430   3.909   0.944   3.887 -0.1249  0.1223  0.4937
 3323SOL    HW121431   3.962   1.023   3.898 -0.5146  0.5651 -0.8919
 3323SOL    HW221432   3.969   0.874   3.915  3.5574  2.2849 -2.0123
 3324SOL     OW21433   2.068   4.595   3.610  0.2014  0.0325 -0.4562
 3324SOL    HW121434   2.045   4.652   3.537  0.9609 -1.0991 -1.5845
 3324SOL    HW221435   2.143   4.548   3.573  0.5799  1.4172 -1.4258
 3325SOL     OW21436   0.578   1.343   8.432 -0.1581  0.1331 -0.2721
 3325SOL    HW121437   0.623   1.262   8.455  0.8280  0.8473  0.3088
 3325SOL    HW221438   0.488   1.323   8.459  1.3609 -0.2175  4.4318
 3326SOL     OW21439   3.221   4.269  12.657 -0.1090 -0.3729  0.2348
 3326SOL    HW121440   3.240   4.291  12.566 -1.8181 -1.3639 -0.3550
 3326SOL    HW221441   3.143   4.215  12.650 -0.6373  0.1398  2.2415
 3327SOL     OW21442   1.959   4.358   4.903  0.0415  0.2751  0.0619
 3327SOL    HW121443   2.019   4.363   4.977  0.2826 -0.2205 -0.1017
 3327SOL    HW221444   2.016   4.334   4.830 -0.3117  1.3256 -0.5622
 3328SOL     OW21445   2.895   2.334   6.306  0.3529  0.0939  0.4260
 3328SOL    HW121446   2.928   2.408   6.255  0.4390 -0.6313 -0.5670
 3328SOL    HW221447   2.859   2.278   6.237  1.4697 -0.7252  0.5063
 3329SOL     OW21448   3.063   1.968   5.313 -0.0620  0.5638  0.4421
 3329SOL    HW121449   3.113   1.969   5.231 -0.2592 -1.5453  0.3064
 3329SOL    HW221450   2.987   1.915   5.290  0.0021  1.1100 -1.0618
 3330SOL     OW21451   2.614   0.818   6.559 -0.3722  0.1315 -0.1321
 3330SOL    HW121452   2.535   0.764   6.562 -0.5997  0.5098  0.5449
 3330SOL    HW221453   2.606   0.854   6.647 -2.0963 -0.4421 -0.0515
 3331SOL     OW21454   0.512   3.895  16.452  0.6893 -0.1709  0.0794
 3331SOL    HW121455   0.579   3.886  16.521 -0.3722 -0.5494  1.0588
 3331SOL    HW221456   0.474   3.978  16.479  1.5099 -0.2002  1.3441
 3332SOL     OW21457   2.160   3.841   7.665  0.1300  0.3165 -0.1440
 3332SOL    HW121458   2.150   3.858   7.758  1.8682  0.0764  0.0897
 3332SOL    HW221459   2.087   3.893   7.631  0.2861  1.1318  0.7670
 3333SOL     OW21460   0.466   1.542  12.145 -0.5618  0.0309 -0.2195
 3333SOL    HW121461   0.528   1.479  12.109 -0.9265  0.6542 -1.9053
 3333SOL    HW221462   0.473   1.539  12.241  0.6322 -0.8363 -0.3427
 3334SOL     OW21463   0.213   2.729   5.879 -0.1098  0.1210  0.3972
 3334SOL    HW121464   0.248   2.777   5.955 -2.3567 -0.2316  1.6356
 3334SOL    HW221465   0.203   2.641   5.916 -0.4862  0.1852  0.4430
 3335SOL     OW21466   1.258   4.413   3.795 -0.3070 -0.0758 -0.0080
 3335SOL    HW121467   1.280   4.493   3.841  2.2948  0.0898 -1.5114
 3335SOL    HW221468   1.217   4.356   3.860  1.8766 -0.6537  0.8627
 3336SOL     OW21469   1.645   3.114  15.145 -0.4485 -0.4077  0.0921
 3336SOL    HW121470   1.577   3.054  15.114 -3.0463  1.7658  1.5866
 3336SOL    HW221471   1.616   3.204  15.128 -2.7007 -1.1377  0.1499
 3337SOL     OW21472   0.259   0.819   3.183  0.2619 -0.1045  0.0332
 3337SOL    HW121473   0.297   0.873   3.253  0.2785  1.4443 -1.1880
 3337SOL    HW221474   0.206   0.885   3.140  0.8456  0.7513  0.6187
 3338SOL     OW21475   2.413   2.069   5.242  0.1115 -0.9273 -0.3006
 3338SOL    HW121476   2.422   2.092   5.149  0.7245  1.7929  0.4347
 3338SOL    HW221477   2.410   2.155   5.285 -1.2623 -1.2136  0.1858
 3339SOL     OW21478   3.929   0.691   7.997  0.4153  0.1291 -0.1150
 3339SOL    HW121479   3.863   0.648   7.943  1.2363 -1.5126  0.1942
 3339SOL    HW221480   4.000   0.628   7.989  0.3199  0.2516 -1.8630
 3340SOL     OW21481   3.402   1.468  13.138 -1.1867 -0.0332 -0.1099
 3340SOL    HW121482   3.432   1.433  13.054 -2.2896  0.3346 -0.6650
 3340SOL    HW221483   3.474   1.433  13.190 -0.9111  0.9976  0.2048
 3341SOL     OW21484   0.875   0.644  13.401  0.3591 -0.0170 -0.2078
 3341SOL    HW121485   0.788   0.659  13.438 -0.0593  0.5964 -1.4483
 3341SOL    HW221486   0.935   0.660  13.474  0.5917  0.7459 -0.5730
 3342SOL     OW21487   3.222   3.944   4.114 -0.4066  0.1076  0.9056
 3342SOL    HW121488   3.186   4.027   4.082  0.6780  0.9467  1.8826
 3342SOL    HW221489   3.141   3.916   4.157  0.0499 -0.6086  1.2973
 3343SOL     OW21490   3.833   2.320  17.034  0.5475 -0.3499  0.1760
 3343SOL    HW121491   3.883   2.238  17.027 -1.3586 -1.4470 -0.5042
 3343SOL    HW221492   3.758   2.302  16.978 -0.7920  3.2316  0.8450
 3344SOL     OW21493   0.487   2.851   1.620  0.0262 -0.1780  0.7662
 3344SOL    HW121494   0.481   2.822   1.529 -0.1357  1.5951  0.2110
 3344SOL    HW221495   0.542   2.781   1.655 -1.2649 -2.7356 -2.3795
 3345SOL     OW21496   3.495   4.450   4.683  0.7743 -0.0981 -0.4986
 3345SOL    HW121497   3.549   4.376   4.712  0.3907  0.1668  0.9020
 3345SOL    HW221498   3.520   4.472   4.594  1.2766 -2.0694 -0.8440
 3346SOL     OW21499   0.503   4.423   7.874 -0.3699 -0.1148  0.6763
 3346SOL    HW121500   0.585   4.445   7.920 -0.8430  1.3437  0.8365
 3346SOL    HW221501   0.532   4.443   7.785 -1.4116  0.9241  0.5723
 3347SOL     OW21502   0.619   2.304   6.184 -0.8287  0.0503 -0.1322
 3347SOL    HW121503   0.698   2.249   6.192 -0.3202  1.3881  4.0034
 3347SOL    HW221504   0.567   2.267   6.256  0.4260 -0.3018  0.5972
 3348SOL     OW21505   2.033   3.792   6.690  0.6547 -0.0366  0.0149
 3348SOL    HW121506   2.004   3.820   6.603 -2.6428  2.2568  1.8455
 3348SOL    HW221507   2.112   3.843   6.708  0.1760  0.4109  0.8513
 3349SOL     OW21508   1.984   0.904   2.458 -0.2412  0.0079  0.2637
 3349SOL    HW121509   2.013   0.821   2.419 -0.8408 -1.0735  2.1276
 3349SOL    HW221510   2.023   0.903   2.545  0.4585 -1.3975 -0.0710
 3350SOL     OW21511   0.556   0.297   6.467  0.7114 -0.4989  0.0181
 3350SOL    HW121512   0.639   0.277   6.424  1.1016 -1.2686  1.1346
 3350SOL    HW221513   0.591   0.353   6.536 -0.1792  2.0683 -1.6256
 3351SOL     OW21514   2.663   1.964   4.213 -0.6974  0.0285 -0.2251
 3351SOL    HW121515   2.744   1.983   4.166  1.5396  0.9715  3.9442
 3351SOL    HW221516   2.681   1.872   4.237  0.2372  0.6521  1.4976
 3352SOL     OW21517   0.166   0.117   6.125 -0.4874 -0.0750  0.5345
 3352SOL    HW121518   0.211   0.044   6.083  1.4139  0.8553  0.9296
 3352SOL    HW221519   0.079   0.080   6.135 -2.2659  4.2657  1.1804
 3353SOL     OW21520   4.622   1.143   8.385 -0.4198 -0.3370  0.2812
 3353SOL    HW121521   4.533   1.149   8.419 -0.9424 -2.8010 -0.6491
 3353SOL    HW221522   4.678   1.211   8.422 -2.4484  2.7433 -2.2172
 3354SOL     OW21523   1.715   4.336   2.502 -0.5422 -0.5105 -0.5641
 3354SOL    HW121524   1.645   4.307   2.560 -1.3842  0.1435 -1.2480
 3354SOL    HW221525   1.679   4.413   2.458 -2.5293 -1.8747 -1.3489
 3355SOL     OW21526   3.712   4.376   2.703 -0.1719 -0.5040 -0.1214
 3355SOL    HW121527   3.674   4.300   2.658  1.0509 -1.3250  0.2252
 3355SOL    HW221528   3.676   4.444   2.645 -2.3069 -1.5804 -0.0772
 3356SOL     OW21529   1.394   2.462  11.662 -0.0387  0.5415 -0.2166
 3356SOL    HW121530   1.482   2.456  11.700 -0.3183 -1.5344  0.0921
 3356SOL    HW221531   1.366   2.540  11.711  1.0112  0.2329  0.8664
 3357SOL     OW21532   0.427   1.585  17.211 -0.0745 -0.0124 -0.1383
 3357SOL    HW121533   0.508   1.610  17.257 -1.2937  0.4897  1.7459
 3357SOL    HW221534   0.410   1.501  17.254 -2.3440  1.2290  1.3747
 3358SOL     OW21535   1.608   2.082   0.820  0.1683 -0.1969 -0.3117
 3358SOL    HW121536   1.640   2.078   0.729 -1.6610  0.1915 -0.9738
 3358SOL    HW221537   1.660   2.009   0.853 -0.6705 -0.6674 -0.0356
 3359SOL     OW21538   1.206   4.640   8.802  0.8541  0.0819  0.2640
 3359SOL    HW121539   1.121   4.603   8.777 -0.2865  2.4086  0.6600
 3359SOL    HW221540   1.208   4.703   8.729  1.8314 -0.3067 -0.0453
 3360SOL     OW21541   3.503   4.515   3.357 -0.0708  0.5067 -0.4907
 3360SOL    HW121542   3.547   4.463   3.290 -0.1554 -0.6498  0.3572
 3360SOL    HW221543   3.411   4.493   3.339  0.3682 -2.8613  1.3756
 3361SOL     OW21544   0.923   0.037   3.331  0.1705  0.0067  0.2926
 3361SOL    HW121545   0.908   4.665   3.322  0.2839  0.1346 -1.2091
 3361SOL    HW221546   1.007   0.039   3.286  0.0196 -0.2206  0.0005
 3362SOL     OW21547   3.253   0.256   9.569 -1.0951 -0.1195 -0.2327
 3362SOL    HW121548   3.281   0.243   9.660 -0.2037  2.4417 -0.1486
 3362SOL    HW221549   3.164   0.221   9.578 -0.2258 -1.6497  2.4932
 3363SOL     OW21550   0.052   1.045   4.496 -0.0655  0.0788 -0.3749
 3363SOL    HW121551   0.102   0.977   4.452  1.7317  1.2011 -0.0299
 3363SOL    HW221552   0.025   1.003   4.578 -2.0246 -0.0199 -1.0578
 3364SOL     OW21553   3.238   0.441   8.356  0.5960 -0.0228  0.2274
 3364SOL    HW121554   3.228   0.481   8.270 -0.7141  1.6749  1.1677
 3364SOL    HW221555   3.277   0.521   8.392 -1.2838  0.5475  1.0160
 3365SOL     OW21556   0.163   2.611   4.340  0.3245 -0.2290  0.2847
 3365SOL    HW121557   0.255   2.625   4.363  0.3236  0.0049  0.1452
 3365SOL    HW221558   0.124   2.583   4.423  1.2844  2.2511  1.5509
 3366SOL     OW21559   3.011   0.445   7.593  0.4266  0.0892  0.0750
 3366SOL    HW121560   3.068   0.390   7.539 -0.9670 -0.3057 -0.9846
 3366SOL    HW221561   3.001   0.387   7.668  0.0256  0.6510  0.4506
 3367SOL     OW21562   2.600   2.569   1.110 -0.6070  0.1506 -0.0830
 3367SOL    HW121563   2.674   2.626   1.132  0.3378 -1.0507 -0.1529
 3367SOL    HW221564   2.568   2.614   1.032 -2.0383 -0.5002  0.1278
 3368SOL     OW21565   3.720   1.525   3.048 -0.4967 -0.5494  0.2686
 3368SOL    HW121566   3.767   1.486   2.974 -2.1821 -0.7222 -0.7106
 3368SOL    HW221567   3.632   1.538   3.013 -1.2802  0.8664  2.7519
 3369SOL     OW21568   1.537   2.833   6.380  0.8587 -0.2712 -0.2908
 3369SOL    HW121569   1.515   2.921   6.412 -0.6870 -1.0703  0.7904
 3369SOL    HW221570   1.455   2.804   6.340  0.7688  1.5303 -1.4305
 3370SOL     OW21571   3.320   1.016  15.843  0.4907  1.1254 -0.5332
 3370SOL    HW121572   3.383   1.087  15.852  1.7795  0.0941 -1.3816
 3370SOL    HW221573   3.302   0.990  15.933  4.0400  1.0548  0.1667
 3371SOL     OW21574   3.832   0.007   5.106  0.4971  0.2370 -0.8395
 3371SOL    HW121575   3.804   4.695   5.191 -2.8622  0.9561 -1.6610
 3371SOL    HW221576   3.753   0.054   5.081  0.1705  0.8311  1.3084
 3372SOL     OW21577   2.846   2.288   5.649 -0.2800  0.3218 -0.3196
 3372SOL    HW121578   2.754   2.310   5.660 -0.0240  1.2779 -0.1450
 3372SOL    HW221579   2.855   2.314   5.557  1.5636  0.9683  0.0479
 3373SOL     OW21580   1.859   1.055   1.364  0.5334  0.0196 -0.4503
 3373SOL    HW121581   1.853   1.051   1.269 -0.0024 -1.7730 -0.3355
 3373SOL    HW221582   1.779   1.006   1.386  1.3028 -1.6671 -1.4230
 3374SOL     OW21583   2.205   1.278   7.392 -0.3591  0.1764  0.1324
 3374SOL    HW121584   2.292   1.249   7.367 -0.2964 -0.3997  1.0461
 3374SOL    HW221585   2.219   1.330   7.471  3.2896 -0.0479 -0.3673
 3375SOL     OW21586   1.868   1.299  11.756  0.6544 -0.4389  0.9596
 3375SOL    HW121587   1.924   1.372  11.731  1.4677 -1.0987  0.8626
 3375SOL    HW221588   1.933   1.240  11.795 -1.1729 -3.4881 -0.6122
 3376SOL     OW21589   1.489   3.359   6.441 -0.7150 -0.0857 -0.1226
 3376SOL    HW121590   1.401   3.329   6.421  0.2014 -0.5873 -3.4092
 3376SOL    HW221591   1.465   3.451   6.446  0.2391  0.2306 -1.2064
 3377SOL     OW21592   4.101   3.999   6.610 -0.0518  0.6466 -0.1435
 3377SOL    HW121593   4.018   3.991   6.659 -1.4679 -1.1260 -2.8596
 3377SOL    HW221594   4.159   4.033   6.678  0.2287 -1.4227  0.6364
 3378SOL     OW21595   2.863   2.152   7.224  0.2570  0.4021  0.5761
 3378SOL    HW121596   2.947   2.198   7.226 -1.0131  2.9360 -2.6329
 3378SOL    HW221597   2.807   2.229   7.211  1.3178  1.7816  4.4093
 3379SOL     OW21598   0.012   2.123   6.555 -0.0764  0.3043 -0.1113
 3379SOL    HW121599   0.034   2.160   6.640  0.1550 -0.2336  0.0671
 3379SOL    HW221600   4.688   2.045   6.585 -1.3560  0.9455 -0.4408
 3380SOL     OW21601   4.636   2.906   8.818 -0.8730  0.4869  0.6979
 3380SOL    HW121602   4.676   2.831   8.775  0.4611  0.9078  1.2153
 3380SOL    HW221603   4.689   2.984   8.801 -1.2535  0.6503  0.2476
 3381SOL     OW21604   2.303   4.292  15.738 -0.2122 -0.1581 -0.3895
 3381SOL    HW121605   2.384   4.297  15.789  1.0255  1.6135 -2.4759
 3381SOL    HW221606   2.236   4.255  15.794  0.0576 -1.8588 -1.1982
 3382SOL     OW21607   2.981   3.184   7.955 -0.6247 -0.0515  0.1948
 3382SOL    HW121608   2.957   3.245   7.886 -2.7595 -1.1288 -0.0028
 3382SOL    HW221609   2.965   3.099   7.915  1.5455 -1.3955  2.1801
 3383SOL     OW21610   4.287   0.256  15.994 -0.0425 -0.1340 -0.3279
 3383SOL    HW121611   4.228   0.233  15.922  0.0563 -1.1291 -0.0974
 3383SOL    HW221612   4.257   0.197  16.063  1.9882 -0.3571  0.3817
 3384SOL     OW21613   3.147   2.540   3.334  0.0084 -0.6619  0.2950
 3384SOL    HW121614   3.206   2.486   3.282  0.3627 -0.7381  0.7693
 3384SOL    HW221615   3.210   2.594   3.381  0.9118  0.1221 -1.8336
 3385SOL     OW21616   0.267   2.847   5.338  0.4757  0.2541 -0.3428
 3385SOL    HW121617   0.347   2.821   5.293 -0.6826 -0.5715 -1.9119
 3385SOL    HW221618   0.293   2.831   5.428  0.0348  0.8208 -0.1092
 3386SOL     OW21619   0.119   3.362   3.618  0.0447  0.1446  0.3386
 3386SOL    HW121620   0.119   3.293   3.684  0.3179  0.3550  0.5608
 3386SOL    HW221621   0.031   3.342   3.586  0.3413 -1.4040  0.5191
 3387SOL     OW21622   3.361   3.843  13.314  0.6260 -0.2011 -0.5195
 3387SOL    HW121623   3.303   3.919  13.321  3.0403  1.3747  2.0845
 3387SOL    HW221624   3.340   3.791  13.391 -0.2608  0.5626 -0.2450
 3388SOL     OW21625   2.358   0.298  11.779  0.3411  0.2294 -0.2589
 3388SOL    HW121626   2.432   0.343  11.738 -0.4692 -0.6012 -2.6013
 3388SOL    HW221627   2.402   0.268  11.859  0.0561 -1.3355 -0.6967
 3389SOL     OW21628   0.040   0.641   2.400 -0.0201  0.7539  0.4407
 3389SOL    HW121629   0.091   0.709   2.445 -0.4858  0.6469  1.1338
 3389SOL    HW221630   0.108   0.582   2.367 -0.5077 -0.7654  2.0999
 3390SOL     OW21631   2.771   1.799  15.471 -0.1705  0.1168 -0.0811
 3390SOL    HW121632   2.733   1.715  15.495  0.3476  0.2187  1.1135
 3390SOL    HW221633   2.854   1.793  15.518 -0.4215  1.5046  0.5294
 3391SOL     OW21634   4.111   2.189   6.263 -0.0677  0.7536 -0.0628
 3391SOL    HW121635   4.073   2.218   6.346 -1.5335  1.7003 -1.0377
 3391SOL    HW221636   4.060   2.109   6.250  0.4204  0.3655  0.4524
 3392SOL     OW21637   2.703   4.597   4.451  0.0603 -0.1064  0.1004
 3392SOL    HW121638   2.733   4.635   4.368 -3.4096  0.1700 -1.0333
 3392SOL    HW221639   2.706   4.676   4.504 -0.7953  1.8581 -2.7517
 3393SOL     OW21640   4.669   1.517   3.135 -0.6320 -0.1586  0.7309
 3393SOL    HW121641   4.691   1.610   3.138 -1.3479  0.0402 -0.4334
 3393SOL    HW221642   4.573   1.521   3.130 -0.3640  3.0849 -1.9150
 3394SOL     OW21643   0.020   3.595   0.528  0.6147  0.0520  0.1017
 3394SOL    HW121644   4.709   3.527   0.587 -3.1006  1.0796 -0.8823
 3394SOL    HW221645   4.703   3.672   0.568 -0.7837 -1.5546  1.8325
 3395SOL     OW21646   1.345   4.547   2.959  0.1859 -0.0638 -0.1657
 3395SOL    HW121647   1.414   4.494   2.921 -0.5555 -0.8395 -0.4349
 3395SOL    HW221648   1.273   4.498   2.920 -0.3233  0.1157  0.5477
 3396SOL     OW21649   4.354   4.300   9.161 -0.2054 -1.0602  0.4217
 3396SOL    HW121650   4.440   4.303   9.119 -0.9424 -0.1531 -1.0282
 3396SOL    HW221651   4.343   4.205   9.158 -1.1189 -0.9271 -0.2911
 3397SOL     OW21652   2.928   2.599   8.347 -0.5824  0.2833  1.0093
 3397SOL    HW121653   2.944   2.647   8.429  1.5406  0.8199  0.2767
 3397SOL    HW221654   2.840   2.571   8.372 -0.3455 -0.4745  1.0014
 3398SOL     OW21655   3.556   0.024   7.860 -0.9178  0.4074  0.5641
 3398SOL    HW121656   3.462   0.034   7.845 -0.5187  0.5711 -1.9156
 3398SOL    HW221657   3.576   0.080   7.935  0.2190 -1.3029  1.5219
 3399SOL     OW21658   4.164   2.637  16.444 -0.4306  0.3800 -0.2343
 3399SOL    HW121659   4.256   2.611  16.442 -0.3069  0.7619  0.5878
 3399SOL    HW221660   4.163   2.687  16.525 -2.0505  1.5825 -0.9761
 3400SOL     OW21661   1.661   2.724  12.098 -0.7832 -0.3014 -0.5826
 3400SOL    HW121662   1.636   2.632  12.101  0.7458 -0.6782  0.9397
 3400SOL    HW221663   1.680   2.739  12.005 -1.2763 -1.0048 -0.7974
 3401SOL     OW21664   0.765   4.477   7.970 -0.0854  0.1555 -0.2215
 3401SOL    HW121665   0.775   4.487   8.064  2.9158  0.9742 -0.6279
 3401SOL    HW221666   0.856   4.495   7.944  0.7473 -1.4562  1.5736
 3402SOL     OW21667   2.223   1.097   3.787  0.3456 -0.5417 -0.4167
 3402SOL    HW121668   2.292   1.113   3.723  0.6537 -1.0060 -0.1959
 3402SOL    HW221669   2.270   1.032   3.838  0.7303  0.5481  0.6239
 3403SOL     OW21670   3.681   2.449  10.707 -0.1517 -0.2614 -0.2128
 3403SOL    HW121671   3.644   2.444  10.619 -0.2998 -0.8547 -0.1144
 3403SOL    HW221672   3.605   2.410  10.750 -0.0401  0.9757  1.1109
 3404SOL     OW21673   0.953   4.627   7.294 -0.5173  0.1280  0.1994
 3404SOL    HW121674   0.898   4.670   7.229 -2.0338 -0.6209  1.0063
 3404SOL    HW221675   0.903   4.546   7.296 -0.1448 -0.1267 -0.9177
 3405SOL     OW21676   3.029   0.215  16.996 -0.2401  0.5552  0.2209
 3405SOL    HW121677   3.093   0.285  17.002 -0.8226  1.1354 -0.4253
 3405SOL    HW221678   3.069   0.162  16.926 -1.4344 -0.0371 -0.0207
 3406SOL     OW21679   0.114   2.405  15.483  0.5318 -0.3100 -0.0507
 3406SOL    HW121680   0.190   2.402  15.541  0.8087  0.0532 -0.3939
 3406SOL    HW221681   0.123   2.325  15.432 -0.0009 -1.0034  0.9532
 3407SOL     OW21682   0.024   3.783  10.466  0.4872  0.6286 -0.5123
 3407SOL    HW121683   4.720   3.704  10.512  0.5182 -0.0552 -1.6660
 3407SOL    HW221684   4.676   3.842  10.492  0.7659  1.8674 -2.4900
 3408SOL     OW21685   3.124   1.404   8.161 -0.9112  0.1770 -0.1035
 3408SOL    HW121686   3.204   1.443   8.196 -1.4338 -0.5445  1.9223
 3408SOL    HW221687   3.077   1.368   8.236  0.1802 -0.2160  0.3899
 3409SOL     OW21688   3.626   0.457   8.837  0.1483  0.5241  0.0633
 3409SOL    HW121689   3.562   0.528   8.825  2.4153  1.9785 -3.1563
 3409SOL    HW221690   3.671   0.503   8.908  1.6869 -2.5167  1.0617
 3410SOL     OW21691   2.164   2.475  16.247  0.1551  0.0930 -0.0711
 3410SOL    HW121692   2.258   2.459  16.257  0.2562 -0.3307 -1.7233
 3410SOL    HW221693   2.161   2.544  16.180  0.0869  1.6223  1.5167
 3411SOL     OW21694   0.617   2.000   3.000  0.3182 -0.4641 -0.3269
 3411SOL    HW121695   0.636   2.031   3.089 -0.4860  1.1703 -0.7413
 3411SOL    HW221696   0.540   2.047   2.969  0.4099 -1.3197 -1.8879
 3412SOL     OW21697   2.225   4.614  10.476  0.0755 -0.1086  0.1664
 3412SOL    HW121698   2.294   4.595  10.413  0.6506  1.6686  0.2453
 3412SOL    HW221699   2.223   4.710  10.471  2.4720 -0.1341 -1.3256
 3413SOL     OW21700   1.061   1.768   7.602 -0.1424 -0.4214  0.3058
 3413SOL    HW121701   1.012   1.849   7.592  0.6035 -0.0475 -0.2961
 3413SOL    HW221702   1.105   1.761   7.518 -0.9966 -1.9212 -0.0223
 3414SOL     OW21703   0.282   0.939   8.790  0.0999 -0.3613 -0.0940
 3414SOL    HW121704   0.243   0.852   8.792  0.9347 -0.7712 -1.1216
 3414SOL    HW221705   0.257   0.963   8.700 -1.0144  1.8463  0.8009
 3415SOL     OW21706   1.753   2.134  16.481 -0.0819  0.4528  0.1247
 3415SOL    HW121707   1.822   2.197  16.459 -0.2152 -0.3927 -2.7993
 3415SOL    HW221708   1.681   2.195  16.466  0.3397  0.9239  0.0386
 3416SOL     OW21709   3.544   4.192  15.624  0.1239  0.2844 -0.1474
 3416SOL    HW121710   3.487   4.188  15.701  0.5863 -1.0760  0.1199
 3416SOL    HW221711   3.491   4.173  15.546  1.4573  1.4011 -1.3382
 3417SOL     OW21712   2.590   1.077   5.821 -0.2293 -0.4022 -0.2806
 3417SOL    HW121713   2.654   1.141   5.852 -1.7503  2.1758 -2.4238
 3417SOL    HW221714   2.524   1.093   5.888  1.2459  0.5365  0.9393
 3418SOL     OW21715   4.468   3.040   7.451 -0.8711  0.5834  0.7260
 3418SOL    HW121716   4.530   2.970   7.471  2.8892  3.8603  0.6061
 3418SOL    HW221717   4.525   3.115   7.432 -0.4518 -0.4748 -2.2104
 3419SOL     OW21718   3.479   0.779   7.903  0.0056  0.0750  0.6277
 3419SOL    HW121719   3.514   0.692   7.882 -0.5731 -0.4064  1.6360
 3419SOL    HW221720   3.394   0.771   7.859 -0.5251  0.4788  1.5748
 3420SOL     OW21721   0.690   2.631  16.872 -0.3246  0.0175  0.3496
 3420SOL    HW121722   0.600   2.663  16.864 -0.1337  0.5767  0.4857
 3420SOL    HW221723   0.731   2.655  16.789  0.9473 -0.8475  0.7201
 3421SOL     OW21724   4.629   1.218   6.201 -0.2056  0.0571 -0.0340
 3421SOL    HW121725   4.562   1.197   6.136 -0.5216  1.3663 -0.1200
 3421SOL    HW221726   4.668   1.130   6.204 -0.4023 -0.1003 -1.7009
 3422SOL     OW21727   4.257   2.596   6.253 -0.1497  0.0342 -0.3604
 3422SOL    HW121728   4.293   2.589   6.341 -1.1275  0.2571  0.0515
 3422SOL    HW221729   4.169   2.629   6.270  1.6939  3.6860  2.2725
 3423SOL     OW21730   1.342   4.371   2.716  0.1679  0.1282  0.0869
 3423SOL    HW121731   1.301   4.455   2.694  0.9864  0.7232  0.8213
 3423SOL    HW221732   1.265   4.314   2.707 -1.2399  1.7612  1.6582
 3424SOL     OW21733   0.081   4.055  14.738  0.6896  0.2791 -0.2147
 3424SOL    HW121734   0.026   4.043  14.815  0.0766  1.1160 -0.5289
 3424SOL    HW221735   0.086   3.969  14.696  1.2170 -0.9407  2.3172
 3425SOL     OW21736   1.028   2.313   9.787 -0.4738  0.1290  0.0850
 3425SOL    HW121737   1.063   2.378   9.848 -3.0286 -0.8350  2.5737
 3425SOL    HW221738   1.035   2.229   9.831  1.4414  0.7800  1.0106
 3426SOL     OW21739   1.774   0.292  16.310  0.1617 -0.3409 -0.4870
 3426SOL    HW121740   1.719   0.244  16.372  0.2886  0.3284  0.1516
 3426SOL    HW221741   1.761   0.240  16.232 -0.2135  1.8495 -1.8847
 3427SOL     OW21742   3.625   3.737   8.851  0.0187 -0.3934  0.4205
 3427SOL    HW121743   3.676   3.657   8.839  0.7537 -0.0644  1.3407
 3427SOL    HW221744   3.596   3.727   8.942 -1.8341 -0.5125 -0.2017
 3428SOL     OW21745   2.823   0.702   3.947  0.1648 -0.5798 -0.4902
 3428SOL    HW121746   2.869   0.705   3.863  0.9426  0.6705 -0.0205
 3428SOL    HW221747   2.763   0.774   3.929  1.9791  1.2174  0.6829
 3429SOL     OW21748   1.587   4.063   7.653  0.0944  0.2632 -0.1138
 3429SOL    HW121749   1.523   4.111   7.705  0.7295  1.4641 -0.4407
 3429SOL    HW221750   1.655   4.027   7.710 -0.6931  0.6463  1.0714
 3430SOL     OW21751   0.556   3.519   1.719  0.5869 -0.1022 -0.1798
 3430SOL    HW121752   0.610   3.442   1.700  0.5613 -0.1052 -0.2408
 3430SOL    HW221753   0.622   3.587   1.733 -0.5892  1.1687 -0.8922
 3431SOL     OW21754   1.389   0.736  13.269 -0.1950 -0.2816 -0.0979
 3431SOL    HW121755   1.480   0.757  13.248 -0.5587  1.3405 -0.0913
 3431SOL    HW221756   1.351   0.792  13.201 -0.6496  1.7423  1.8154
 3432SOL     OW21757   3.641   4.410   5.965  0.3899  0.0236 -0.3340
 3432SOL    HW121758   3.672   4.364   5.887 -0.3487  0.3175 -0.7992
 3432SOL    HW221759   3.717   4.455   6.001  1.8976 -0.7910 -2.4954
 3433SOL     OW21760   4.580   3.221   1.005  0.3433 -0.3637 -0.0496
 3433SOL    HW121761   4.672   3.246   1.009  0.5339 -1.0333 -0.3364
 3433SOL    HW221762   4.570   3.173   0.923  0.3811 -0.3841 -0.0420
 3434SOL     OW21763   4.055   4.241  15.827 -0.0120  0.4409  0.1199
 3434SOL    HW121764   3.987   4.244  15.760  0.5433 -1.8536 -0.5204
 3434SOL    HW221765   4.000   4.212  15.900 -1.0130 -1.0338 -1.2467
 3435SOL     OW21766   0.515   1.336  16.501  0.0076  0.1661  0.0087
 3435SOL    HW121767   0.523   1.381  16.585  1.4977 -1.8006  0.9251
 3435SOL    HW221768   0.466   1.259  16.528 -1.6591  1.4530  0.6403
 3436SOL     OW21769   3.538   2.759   6.521  0.9048 -0.2284 -0.1173
 3436SOL    HW121770   3.531   2.666   6.501 -0.7444  0.0361 -0.7845
 3436SOL    HW221771   3.534   2.793   6.432 -0.0622  2.9732  1.1416
 3437SOL     OW21772   2.196   0.183   6.277  0.2011 -0.4026 -0.0035
 3437SOL    HW121773   2.176   0.277   6.272  0.0621 -0.3733  1.1647
 3437SOL    HW221774   2.132   0.157   6.210 -0.2775  0.0706  0.2726
 3438SOL     OW21775   1.315   4.709  16.267 -0.1414  0.0403 -0.1370
 3438SOL    HW121776   1.252   0.023  16.204  0.2468  1.4475  0.2961
 3438SOL    HW221777   1.346   0.074  16.291 -0.7050 -0.0953  1.0810
 3439SOL     OW21778   0.099   2.497   3.526 -0.5014  0.0617 -0.0181
 3439SOL    HW121779   0.127   2.489   3.435  1.3577 -0.2697  0.5697
 3439SOL    HW221780   0.024   2.437   3.524 -0.9901  0.7143 -1.0080
 3440SOL     OW21781   3.332   4.365   7.522 -0.5454  0.1518 -0.4079
 3440SOL    HW121782   3.341   4.460   7.522  0.1165  0.0904  0.8166
 3440SOL    HW221783   3.328   4.330   7.433  2.2277  0.1533 -0.5032
 3441SOL     OW21784   0.869   0.387   4.790 -0.1321 -0.2277 -0.4701
 3441SOL    HW121785   0.854   0.451   4.720  0.2859 -0.2961 -0.6200
 3441SOL    HW221786   0.919   0.318   4.747  3.0959  0.9258  1.4398
 3442SOL     OW21787   1.378   1.298   9.680 -0.2942  0.6892  0.1445
 3442SOL    HW121788   1.331   1.265   9.603 -1.8748  0.8689  1.0239
 3442SOL    HW221789   1.305   1.323   9.737 -2.4051 -0.6559 -1.9467
 3443SOL     OW21790   3.319   2.953   4.282  0.9790 -0.4582  0.4281
 3443SOL    HW121791   3.314   2.981   4.191  1.1062  0.2916  0.6486
 3443SOL    HW221792   3.274   3.026   4.326 -0.7945 -0.7918 -0.8345
 3444SOL     OW21793   2.979   4.506   8.751  0.5735  0.4225 -0.0397
 3444SOL    HW121794   2.929   4.456   8.686  0.7931 -0.2686  0.3253
 3444SOL    HW221795   3.068   4.473   8.743 -0.2937 -1.7081 -0.7615
 3445SOL     OW21796   0.187   3.491   2.905  0.4584  0.4709 -0.1312
 3445SOL    HW121797   0.239   3.422   2.864  0.4387 -0.3529  1.2099
 3445SOL    HW221798   0.251   3.560   2.890 -0.0538  0.9723  0.0102
 3446SOL     OW21799   1.442   2.823   8.759 -0.2721  0.0450  0.1989
 3446SOL    HW121800   1.395   2.752   8.802 -1.2531  1.4732  1.4621
 3446SOL    HW221801   1.379   2.894   8.767  1.1033  1.1129  1.5543
 3447SOL     OW21802   1.946   2.791   8.494  0.3312  0.7383 -0.5663
 3447SOL    HW121803   1.866   2.804   8.443  0.2729 -0.8160 -0.8871
 3447SOL    HW221804   2.020   2.834   8.451  0.4296 -0.1571 -1.2884
 3448SOL     OW21805   4.259   3.099  14.501  0.3079  0.0518  0.2178
 3448SOL    HW121806   4.195   3.166  14.474 -2.2560 -0.9759  3.7020
 3448SOL    HW221807   4.278   3.049  14.422  2.2627  0.6009  0.3481
 3449SOL     OW21808   1.367   0.926   4.295 -0.1020 -0.7224 -0.3029
 3449SOL    HW121809   1.429   0.962   4.231 -1.8782 -1.1581 -2.2755
 3449SOL    HW221810   1.351   1.000   4.354  0.5125 -1.0013  0.2085
 3450SOL     OW21811   1.942   0.078  16.792 -0.2290 -0.4669  0.1735
 3450SOL    HW121812   2.025   0.064  16.838  0.4733  0.0981 -0.9321
 3450SOL    HW221813   1.893   0.131  16.855  0.4414  0.2112  0.1328
 3451SOL     OW21814   1.739   1.636   9.365 -0.4816 -0.3553  0.0073
 3451SOL    HW121815   1.713   1.653   9.456 -1.9165  0.0965 -0.4933
 3451SOL    HW221816   1.729   1.720   9.320 -0.1936 -0.8703 -1.0210
 3452SOL     OW21817   3.661   4.646  16.560 -0.3140  0.2224 -0.5254
 3452SOL    HW121818   3.657   4.571  16.620 -0.5424 -0.7856 -1.7893
 3452SOL    HW221819   3.607   4.715  16.599 -1.5240 -0.9825 -0.0715
 3453SOL     OW21820   0.574   2.663   0.286  0.3826  0.7338 -0.2336
 3453SOL    HW121821   0.640   2.595   0.273  0.6084  1.0688 -0.8086
 3453SOL    HW221822   0.540   2.670   0.198  0.0822  0.9501 -0.0992
 3454SOL     OW21823   2.935   4.168   0.298  0.2274 -0.5769  0.2071
 3454SOL    HW121824   3.011   4.110   0.288  1.7624  1.2688  1.3071
 3454SOL    HW221825   2.855   4.117   0.288 -1.1545  1.6164  0.2862
 3455SOL     OW21826   3.956   1.120   1.487  0.0164  0.1584  0.4871
 3455SOL    HW121827   3.896   1.194   1.473 -0.3538 -0.3276 -0.5195
 3455SOL    HW221828   3.962   1.113   1.582 -1.6367  0.6856  0.6360
 3456SOL     OW21829   3.725   2.605   4.287 -0.0368 -0.6213  0.1040
 3456SOL    HW121830   3.784   2.651   4.227  1.0816 -2.3524 -0.1180
 3456SOL    HW221831   3.652   2.667   4.279 -0.3370 -1.2521 -2.0876
 3457SOL     OW21832   0.075   1.346   4.690 -0.1118  0.8176  0.1536
 3457SOL    HW121833   0.160   1.362   4.650 -0.2943  2.4367  0.4440
 3457SOL    HW221834   0.034   1.431   4.705 -2.3985 -0.1858 -0.2503
 3458SOL     OW21835   2.518   0.651   5.477 -0.1965  0.4417  0.0824
 3458SOL    HW121836   2.446   0.593   5.451  0.1127  0.5040 -0.9323
 3458SOL    HW221837   2.475   0.736   5.486 -1.4304 -0.2000  0.2760
 3459SOL     OW21838   4.627   2.406   8.708 -0.3759  0.3863  0.2112
 3459SOL    HW121839   4.599   2.407   8.617 -1.8249 -3.8012  0.6377
 3459SOL    HW221840   4.570   2.342   8.750 -0.8282  0.3608 -0.4364
 3460SOL     OW21841   0.774   3.894   6.916  0.1043 -0.9859  0.2968
 3460SOL    HW121842   0.820   3.827   6.965  0.9348 -0.5692  0.0942
 3460SOL    HW221843   0.780   3.871   6.823  0.0911 -1.1525  0.3375
 3461SOL     OW21844   0.417   1.659  15.842 -0.0091 -0.2298 -0.2552
 3461SOL    HW121845   0.327   1.685  15.864  0.8676  1.4168  1.4098
 3461SOL    HW221846   0.404   1.654  15.748 -2.1383 -1.7999  0.1223
 3462SOL     OW21847   4.223   2.333  14.353  0.3283  0.1574  0.1233
 3462SOL    HW121848   4.194   2.411  14.305  1.1182  0.9800  0.9743
 3462SOL    HW221849   4.152   2.271  14.335  0.8964  0.2479 -2.4499
 3463SOL     OW21850   3.727   3.816   5.986  0.0976  0.4760  0.7378
 3463SOL    HW121851   3.666   3.768   6.042  0.1411 -1.7478 -1.1695
 3463SOL    HW221852   3.791   3.845   6.052  0.6588 -0.2585  0.5109
 3464SOL     OW21853   0.847   2.782   5.655 -0.5618 -0.2119  0.2704
 3464SOL    HW121854   0.943   2.784   5.656 -0.5905  1.7336 -0.3498
 3464SOL    HW221855   0.833   2.717   5.724  0.0608  0.5147  1.0852
 3465SOL     OW21856   1.812   0.835   3.045  0.9078  0.4096  0.3406
 3465SOL    HW121857   1.743   0.815   3.108 -0.5922  0.1969 -1.3633
 3465SOL    HW221858   1.768   0.897   2.987  1.3048  0.7548  0.4108
 3466SOL     OW21859   2.583   2.075   1.265 -0.0571 -0.3694 -0.0158
 3466SOL    HW121860   2.527   2.024   1.207  1.4890  1.6398 -3.2825
 3466SOL    HW221861   2.568   2.162   1.227 -1.5104 -0.3621  0.5705
 3467SOL     OW21862   0.235   0.287  11.979 -0.1334 -0.1415 -0.6603
 3467SOL    HW121863   0.327   0.288  12.004 -0.1224  0.8169 -0.7603
 3467SOL    HW221864   0.205   0.208  12.024 -1.9190  1.4055  0.8389
 3468SOL     OW21865   3.878   1.477   9.191  0.4527 -0.1075 -0.4230
 3468SOL    HW121866   3.867   1.569   9.166 -0.1574 -0.6513 -2.1695
 3468SOL    HW221867   3.963   1.490   9.232 -0.3423  0.2901  1.1113
 3469SOL     OW21868   3.572   2.185   3.563  0.1263 -0.1712  0.3674
 3469SOL    HW121869   3.547   2.094   3.578 -2.8768  0.5746 -0.2581
 3469SOL    HW221870   3.488   2.228   3.550  0.2713 -0.1253 -0.4100
 3470SOL     OW21871   4.627   1.946   7.121  0.1876  0.2146 -0.2471
 3470SOL    HW121872   4.664   1.861   7.148 -1.3518 -0.5329 -0.4978
 3470SOL    HW221873   4.609   1.997   7.200  2.9289  1.6536 -0.5465
 3471SOL     OW21874   2.864   1.983   8.821  0.1442 -0.0726 -0.3292
 3471SOL    HW121875   2.901   2.048   8.881  0.6529  0.5517 -1.3137
 3471SOL    HW221876   2.780   1.968   8.864 -0.5052 -0.7881 -1.8475
 3472SOL     OW21877   0.508   4.301  15.451  0.1531 -0.3788  0.9534
 3472SOL    HW121878   0.471   4.234  15.509 -0.2694 -1.5166 -0.6152
 3472SOL    HW221879   0.560   4.358  15.507 -1.7785  0.0987  2.2240
 3473SOL     OW21880   3.180   2.034  12.123 -0.1234 -0.0045  0.0911
 3473SOL    HW121881   3.185   2.127  12.101  1.3074 -0.5170 -1.7154
 3473SOL    HW221882   3.086   2.015  12.115  0.1060 -0.2966 -1.9352
 3474SOL     OW21883   3.280   2.093   9.674 -0.5514 -0.8281  0.1064
 3474SOL    HW121884   3.284   2.189   9.680  0.9825 -1.0367  2.1954
 3474SOL    HW221885   3.276   2.068   9.766 -0.2600  2.1277  0.9287
 3475SOL     OW21886   2.983   2.425  16.332 -0.4382  0.1727  0.1771
 3475SOL    HW121887   2.905   2.462  16.373 -0.7761  0.4129 -0.6808
 3475SOL    HW221888   2.954   2.348  16.283  0.6450 -0.1240  0.0011
 3476SOL     OW21889   2.519   1.212   1.998 -0.1376  0.2323 -0.2322
 3476SOL    HW121890   2.571   1.241   1.924  2.4761 -0.8854  1.1761
 3476SOL    HW221891   2.460   1.287   1.998  0.1143  0.4261 -0.5733
 3477SOL     OW21892   0.601   2.471  10.850 -0.0499  0.0732 -0.0921
 3477SOL    HW121893   0.604   2.565  10.835 -0.6725  0.2004  0.5683
 3477SOL    HW221894   0.605   2.473  10.945  0.6408 -0.0696 -0.1228
 3478SOL     OW21895   2.785   3.532   2.002  0.1335  0.2259 -0.3207
 3478SOL    HW121896   2.810   3.622   2.023 -0.0961  0.8037 -2.4627
 3478SOL    HW221897   2.702   3.512   2.044  1.1462  0.1293  1.6093
 3479SOL     OW21898   3.842   0.009   9.879 -0.2043 -0.0581 -0.5484
 3479SOL    HW121899   3.884   4.700   9.799  0.1473  0.7289 -0.6794
 3479SOL    HW221900   3.764   0.050   9.842 -1.2483 -0.6129  1.0631
 3480SOL     OW21901   1.260   0.906   2.844 -0.2378 -0.5719  0.2590
 3480SOL    HW121902   1.344   0.880   2.808  0.6439 -0.2239  2.0654
 3480SOL    HW221903   1.277   0.905   2.938  0.4517 -2.5789  0.1128
 3481SOL     OW21904   1.233   0.894   6.887 -0.0359 -0.7046  0.4188
 3481SOL    HW121905   1.257   0.899   6.980 -1.0960  2.8729  0.5411
 3481SOL    HW221906   1.305   0.853   6.840  0.7299  1.4549 -0.2997
 3482SOL     OW21907   3.804   4.092   8.727 -0.1290  0.2952 -0.2337
 3482SOL    HW121908   3.734   4.138   8.680 -1.4405 -0.7921  0.6763
 3482SOL    HW221909   3.889   4.135   8.714  1.7751 -3.5412 -0.7133
 3483SOL     OW21910   0.192   2.058   9.012  0.3688 -0.1436  0.2301
 3483SOL    HW121911   0.152   1.971   9.010  1.0960 -0.5133  1.4107
 3483SOL    HW221912   0.144   2.117   8.954 -0.0368 -1.4226 -0.7308
 3484SOL     OW21913   2.784   0.468  15.878  0.2936 -0.2155  0.4318
 3484SOL    HW121914   2.770   0.448  15.785  0.7723  0.2092  0.2733
 3484SOL    HW221915   2.783   0.563  15.871 -0.5820 -0.2613 -0.1336
 3485SOL     OW21916   1.253   4.113   1.380 -0.1088 -0.0446  0.1016
 3485SOL    HW121917   1.305   4.140   1.456  2.1504 -0.5154 -1.2791
 3485SOL    HW221918   1.314   4.054   1.336  0.2132  1.5357 -1.6109
 3486SOL     OW21919   4.211   4.048   3.197 -0.0176  0.2313  0.4176
 3486SOL    HW121920   4.187   4.105   3.269 -1.2000  0.1597  0.0801
 3486SOL    HW221921   4.195   4.106   3.122  3.3036  0.7219  0.0999
 3487SOL     OW21922   3.173   3.456   4.413  0.2607  0.3081  0.3103
 3487SOL    HW121923   3.175   3.459   4.317 -3.0958 -2.1978  0.1631
 3487SOL    HW221924   3.084   3.489   4.425  0.2858 -0.0572  1.5232
 3488SOL     OW21925   2.020   4.019   4.290 -0.4597  0.5012  0.2999
 3488SOL    HW121926   1.938   3.989   4.251 -1.1225  1.7359  0.7455
 3488SOL    HW221927   2.075   3.941   4.289 -0.3449  0.5555  2.0107
 3489SOL     OW21928   0.504   3.186  14.359 -0.4951  0.3719 -0.0835
 3489SOL    HW121929   0.526   3.193  14.452  0.4447  0.8318 -0.3398
 3489SOL    HW221930   0.588   3.218  14.326 -1.4793 -0.0510 -2.9876
 3490SOL     OW21931   2.364   0.788  11.245  0.1444 -0.0497 -1.1718
 3490SOL    HW121932   2.304   0.848  11.290 -0.3825  1.7819 -4.3604
 3490SOL    HW221933   2.444   0.806  11.295 -0.1154  0.3348 -0.8850
 3491SOL     OW21934   4.379   4.517  17.276 -0.0759  0.7900  0.1290
 3491SOL    HW121935   4.329   4.479  17.204  0.1159  0.1367  0.3424
 3491SOL    HW221936   4.322   4.489  17.347 -0.0015 -0.7846 -0.4373
 3492SOL     OW21937   0.943   1.478   4.384  0.4783  0.5729 -0.0374
 3492SOL    HW121938   1.005   1.406   4.396  0.1428  0.6321  2.2070
 3492SOL    HW221939   0.893   1.481   4.466 -2.6478  1.4970 -2.0207
 3493SOL     OW21940   4.106   1.217   9.324 -0.1390 -0.0041  0.9318
 3493SOL    HW121941   4.168   1.290   9.314 -0.2718 -0.0059  0.1028
 3493SOL    HW221942   4.127   1.150   9.260 -1.1194  0.3099  0.2915
 3494SOL     OW21943   3.127   0.522   9.859  0.7535  0.5602 -0.0759
 3494SOL    HW121944   3.088   0.473   9.931  2.4032  0.9226  1.0559
 3494SOL    HW221945   3.051   0.528   9.800  1.1467 -0.0229 -0.6414
 3495SOL     OW21946   0.050   4.323  11.891 -0.0169 -0.1209  0.0088
 3495SOL    HW121947   0.069   4.293  11.980  1.0933  2.0699  0.5108
 3495SOL    HW221948   4.697   4.382  11.892  0.0156 -0.1154  1.4910
 3496SOL     OW21949   0.815   4.309   8.281  0.0898  0.3067 -0.3443
 3496SOL    HW121950   0.850   4.393   8.250 -3.5100  2.4421  1.4293
 3496SOL    HW221951   0.780   4.330   8.367 -1.6513 -1.0201 -0.7416
 3497SOL     OW21952   4.402   3.909   6.635 -0.4003 -0.0583 -0.1399
 3497SOL    HW121953   4.333   3.857   6.676 -0.8003  0.2619 -0.4087
 3497SOL    HW221954   4.408   3.867   6.549 -0.9783 -2.4942  0.9876
 3498SOL     OW21955   1.008   2.258  13.650 -0.1160  0.0074 -0.0755
 3498SOL    HW121956   0.915   2.275  13.634 -0.3366  0.6834  1.9937
 3498SOL    HW221957   0.998   2.197  13.723 -2.7031 -1.2297 -1.4565
 3499SOL     OW21958   4.173   1.929   6.953 -0.1338  0.2148  0.1200
 3499SOL    HW121959   4.252   1.983   6.961  2.9861 -4.4050  1.0920
 3499SOL    HW221960   4.179   1.900   6.862 -0.6949  1.4549 -0.3010
 3500SOL     OW21961   2.788   1.354   8.654 -0.1782  0.2259  0.0341
 3500SOL    HW121962   2.758   1.297   8.583 -0.2110  0.9231 -0.5156
 3500SOL    HW221963   2.717   1.346   8.718 -1.0016 -1.1218 -1.0540
 3501SOL     OW21964   3.428   3.468   3.792  0.2357  0.0583 -0.3808
 3501SOL    HW121965   3.508   3.425   3.821 -0.3034 -0.4375  0.3939
 3501SOL    HW221966   3.440   3.558   3.822  1.3908 -0.5250  0.9025
 3502SOL     OW21967   3.007   2.425   4.490 -0.5288  0.1484  0.0036
 3502SOL    HW121968   2.915   2.401   4.504 -0.7648 -0.4754 -2.6407
 3502SOL    HW221969   3.023   2.391   4.402 -1.8479  1.4031 -0.7174
 3503SOL     OW21970   1.967   3.022   5.730  0.2137  0.0437 -0.2393
 3503SOL    HW121971   2.045   3.046   5.680  0.6379  2.1361  1.4247
 3503SOL    HW221972   1.947   3.102   5.779  0.1176  1.2436 -2.2461
 3504SOL     OW21973   0.972   0.913   3.720 -0.3328  0.0513  0.6234
 3504SOL    HW121974   1.000   0.997   3.755 -0.8784  0.6252 -0.3265
 3504SOL    HW221975   0.887   0.900   3.762 -0.1520 -1.4629  0.5162
 3505SOL     OW21976   2.218   4.563   2.784 -0.3885  0.5024 -0.7023
 3505SOL    HW121977   2.279   4.533   2.716  0.7571  1.1535  0.0207
 3505SOL    HW221978   2.154   4.618   2.739 -0.0026  1.5247  0.0004
 3506SOL     OW21979   4.527   2.591   0.223 -0.7870 -0.0369 -0.0952
 3506SOL    HW121980   4.431   2.595   0.220 -0.8933 -0.9904  2.2080
 3506SOL    HW221981   4.545   2.666   0.167  0.7577  0.6894  1.3844
 3507SOL     OW21982   2.219   2.537   4.509 -0.2287  0.2191 -0.5608
 3507SOL    HW121983   2.129   2.528   4.479 -0.0424  0.0772 -1.0851
 3507SOL    HW221984   2.263   2.481   4.445 -0.0883  0.7147 -0.8970
 3508SOL     OW21985   2.320   1.342  13.964  0.0113  0.6944  1.0186
 3508SOL    HW121986   2.411   1.344  13.994  0.0701 -0.8220  0.9336
 3508SOL    HW221987   2.334   1.319  13.872  2.8151  1.0947  1.3354
 3509SOL     OW21988   2.315   3.470  11.492  0.3678  0.0935  0.3599
 3509SOL    HW121989   2.319   3.565  11.502  3.9907  0.0886 -1.1156
 3509SOL    HW221990   2.403   3.444  11.521  0.9393  2.7039  0.9795
 3510SOL     OW21991   0.652   0.110  16.243  0.0774 -0.0411 -0.7542
 3510SOL    HW121992   0.623   0.190  16.199  0.0941  0.4384  0.1178
 3510SOL    HW221993   0.741   0.093  16.211  0.5206 -1.8947  1.4903
 3511SOL     OW21994   1.178   1.273  16.541  0.1686 -0.0597 -0.5819
 3511SOL    HW121995   1.095   1.236  16.571 -0.5984  1.6581 -0.6105
 3511SOL    HW221996   1.188   1.344  16.604  0.1989 -2.0363  1.6315
 3512SOL     OW21997   1.172   2.606   9.863 -0.2928 -0.1760 -0.0908
 3512SOL    HW121998   1.095   2.611   9.806 -0.7495 -2.2758  0.3520
 3512SOL    HW221999   1.227   2.558   9.801 -0.8803 -0.5061 -0.3590
 3513SOL     OW22000   2.149   4.717   5.608 -0.1529 -0.5605 -0.2394
 3513SOL    HW122001   2.064   0.027   5.638  0.7490  2.3707 -0.9420
 3513SOL    HW222002   2.122   4.626   5.595  0.3603 -0.7702  0.1789
 3514SOL     OW22003   4.697   2.535   4.518 -0.5414 -0.3385  0.0192
 3514SOL    HW122004   4.674   2.599   4.585 -0.8566  0.8016 -1.1750
 3514SOL    HW222005   4.633   2.465   4.534  0.8805 -2.3378 -3.0052
 3515SOL     OW22006   3.801   1.249  16.393  0.1679  0.0922  0.4936
 3515SOL    HW122007   3.779   1.302  16.316  1.2691 -0.7992 -0.4376
 3515SOL    HW222008   3.724   1.255  16.449 -0.2714 -1.4041  0.0596
 3516SOL     OW22009   0.515   2.299   5.022  1.5210 -0.5693  0.4516
 3516SOL    HW122010   0.555   2.364   5.080  0.6340 -0.2389  0.6987
 3516SOL    HW222011   0.588   2.279   4.964 -1.2327  0.5587 -3.4574
 3517SOL     OW22012   1.083   4.096   3.713 -0.2240  0.2698  0.2160
 3517SOL    HW122013   1.094   4.153   3.790 -0.4945 -1.5771  1.6331
 3517SOL    HW222014   1.046   4.016   3.752 -0.9725 -0.1554 -1.3774
 3518SOL     OW22015   4.198   1.693   0.411 -0.3099 -0.5490  0.4976
 3518SOL    HW122016   4.146   1.771   0.389  0.9597  0.7494  2.0740
 3518SOL    HW222017   4.276   1.741   0.439 -0.4237  0.9330 -1.7171
 3519SOL     OW22018   3.226   2.101   2.063  0.5101 -0.7720 -0.4110
 3519SOL    HW122019   3.252   2.126   1.974  1.2824 -0.0577  0.0097
 3519SOL    HW222020   3.286   2.155   2.115  0.1759  1.0258 -1.8686
 3520SOL     OW22021   4.673   3.562  15.940 -0.3508 -0.2524  0.4382
 3520SOL    HW122022   4.590   3.526  15.910 -0.8805  1.6093 -0.3565
 3520SOL    HW222023   4.675   3.639  15.883  1.3421 -1.7087 -1.4954
 3521SOL     OW22024   3.068   3.036  10.949  0.0641 -0.1307 -0.3335
 3521SOL    HW122025   3.043   2.964  10.890  0.0138  0.0400 -0.5198
 3521SOL    HW222026   3.074   2.980  11.026 -2.3256 -2.2328 -1.6544
 3522SOL     OW22027   0.264   1.173  12.362  0.1848  0.6501  0.0920
 3522SOL    HW122028   0.279   1.134  12.448 -2.4243 -0.1346  0.2047
 3522SOL    HW222029   0.353   1.171  12.327  0.0018 -0.9872 -0.3091
 3523SOL     OW22030   0.462   1.537  15.582  0.6161 -0.0215  0.0033
 3523SOL    HW122031   0.392   1.525  15.517 -0.0445 -1.0651  0.9231
 3523SOL    HW222032   0.483   1.630  15.573  2.0797 -0.2511  1.0656
 3524SOL     OW22033   0.423   1.079   3.081 -0.3749 -0.1942  0.0168
 3524SOL    HW122034   0.350   1.093   3.140 -1.0175  0.1897 -0.8708
 3524SOL    HW222035   0.501   1.080   3.136 -0.7598  2.7705  0.4840
 3525SOL     OW22036   3.549   1.124   1.429 -0.2264  1.2853 -0.2201
 3525SOL    HW122037   3.516   1.088   1.346 -1.8419 -0.1713  1.0504
 3525SOL    HW222038   3.468   1.129   1.479 -0.2814  0.3765 -0.2009
 3526SOL     OW22039   2.355   1.238   3.393  0.1673  0.3724  0.5014
 3526SOL    HW122040   2.301   1.311   3.423 -1.3308 -1.3098  1.8927
 3526SOL    HW222041   2.291   1.176   3.357  1.6204  0.6052 -2.4837
 3527SOL     OW22042   3.291   3.155   3.563 -0.1549  0.6379  0.0767
 3527SOL    HW122043   3.275   3.066   3.595  0.2331  0.0693 -1.3300
 3527SOL    HW222044   3.384   3.162   3.584 -0.4862  2.0970  1.0931
 3528SOL     OW22045   3.980   1.964   9.093 -0.3319  0.0684 -0.3186
 3528SOL    HW122046   4.038   2.033   9.063  1.5535 -1.8480 -1.0882
 3528SOL    HW222047   3.911   2.014   9.137  2.2809  1.4605  2.1586
 3529SOL     OW22048   2.148   4.187  15.940 -0.5183  0.4734 -0.1176
 3529SOL    HW122049   2.142   4.109  15.995  1.4205 -0.5118 -1.3125
 3529SOL    HW222050   2.068   4.176  15.889 -0.0090 -0.7861 -0.6560
 3530SOL     OW22051   0.589   3.626   7.299 -0.2461 -0.4179  0.5057
 3530SOL    HW122052   0.516   3.595   7.354  0.3190 -0.2879  1.3247
 3530SOL    HW222053   0.528   3.670   7.239  0.0249  1.1798  1.3784
 3531SOL     OW22054   2.652   1.048  12.255  0.2042 -0.5049 -0.0722
 3531SOL    HW122055   2.678   1.011  12.171  0.5591  1.4846 -0.8489
 3531SOL    HW222056   2.568   1.010  12.279  0.2625  0.4238  1.6336
 3532SOL     OW22057   0.334   3.833   9.997 -0.6832 -0.4837  0.6298
 3532SOL    HW122058   0.355   3.914  10.043 -1.6743 -0.8701  1.7950
 3532SOL    HW222059   0.290   3.774  10.059 -0.8335  0.8411  1.7816
 3533SOL     OW22060   1.656   3.074   6.650 -0.3680  0.2461  0.1355
 3533SOL    HW122061   1.691   3.069   6.739  0.9934  0.6655 -0.3843
 3533SOL    HW222062   1.574   3.026   6.664  0.2038 -0.9362 -0.5860
 3534SOL     OW22063   1.124   1.553   3.569  0.2870  0.0827  0.9574
 3534SOL    HW122064   1.108   1.482   3.507 -0.2101  1.6339 -0.6867
 3534SOL    HW222065   1.049   1.604   3.540  1.6636  1.7136  0.2694
 3535SOL     OW22066   0.232   3.403  10.742 -0.6377  0.2928 -0.5205
 3535SOL    HW122067   0.300   3.453  10.787 -0.9588 -1.2095  1.6391
 3535SOL    HW222068   0.203   3.344  10.812 -1.4353 -0.6249 -1.6284
 3536SOL     OW22069   1.257   2.247  10.310 -0.2874  0.2240 -0.4916
 3536SOL    HW122070   1.230   2.318  10.368  1.9983  2.2716 -1.9300
 3536SOL    HW222071   1.345   2.238  10.347 -0.2825  0.2626 -0.4943
 3537SOL     OW22072   0.319   1.896   1.885 -0.1525  0.6306  0.7549
 3537SOL    HW122073   0.384   1.931   1.946 -0.0775  0.7717  0.5925
 3537SOL    HW222074   0.297   1.808   1.916 -3.6600  0.6283 -1.7771
 3538SOL     OW22075   0.032   3.696   8.573 -0.9138 -0.5579 -0.5714
 3538SOL    HW122076   0.039   3.788   8.599  1.4544 -0.0651 -2.9538
 3538SOL    HW222077   0.005   3.658   8.656 -1.1564  0.2241 -0.2899
 3539SOL     OW22078   0.763   0.568   3.321  0.4754 -0.1346 -0.4331
 3539SOL    HW122079   0.718   0.508   3.381  0.7316  1.9034  1.7796
 3539SOL    HW222080   0.766   0.515   3.241 -1.3364 -2.2978  0.9395
 3540SOL     OW22081   1.884   1.677  13.040 -0.4202 -0.1047 -0.0117
 3540SOL    HW122082   1.877   1.582  13.026 -0.9919 -0.1305  0.4446
 3540SOL    HW222083   1.790   1.692  13.053 -0.2177 -0.3721  1.7609
 3541SOL     OW22084   2.643   0.400   4.949  0.5980  0.0583 -0.2578
 3541SOL    HW122085   2.635   0.492   4.976 -2.2961 -0.3974  0.5288
 3541SOL    HW222086   2.736   0.397   4.930  1.0163 -2.8574  2.3092
 3542SOL     OW22087   3.085   2.981   5.360 -0.5075  0.0568  0.1951
 3542SOL    HW122088   3.109   2.893   5.390  2.0021  0.2948 -1.1132
 3542SOL    HW222089   3.120   3.028   5.436 -1.8232  1.3229  0.0021
 3543SOL     OW22090   3.710   2.868   4.411 -0.4746 -0.3336  0.3147
 3543SOL    HW122091   3.784   2.817   4.445  1.7946  2.7927  0.0688
 3543SOL    HW222092   3.743   2.882   4.323  0.7594 -4.3717  0.1424
 3544SOL     OW22093   2.149   1.056   9.132  0.3119 -0.3459  0.1815
 3544SOL    HW122094   2.073   1.113   9.140  0.9556  0.9877 -3.0103
 3544SOL    HW222095   2.112   0.968   9.143 -0.9999  0.4344  1.7775
 3545SOL     OW22096   0.068   1.482   8.046  0.3315 -0.2616  0.4170
 3545SOL    HW122097   0.112   1.465   8.130  1.0206 -2.5286 -0.3931
 3545SOL    HW222098   0.132   1.536   7.998 -0.1087  1.7564  2.1123
 3546SOL     OW22099   1.699   0.285   5.723  0.2812 -0.1611 -0.8340
 3546SOL    HW122100   1.624   0.229   5.745 -1.6143  1.1113 -4.1120
 3546SOL    HW222101   1.736   0.283   5.812  0.9789  0.8595 -1.1073
 3547SOL     OW22102   2.187   4.430  13.296 -0.0985 -0.4514  0.6637
 3547SOL    HW122103   2.190   4.343  13.335 -0.8543 -0.5488  0.5133
 3547SOL    HW222104   2.135   4.474  13.364 -3.4319 -1.5296 -1.1565
 3548SOL     OW22105   2.504   1.475  17.605  0.1520  0.1997 -0.4753
 3548SOL    HW122106   2.429   1.509  17.654  0.6962 -0.3742  0.7518
 3548SOL    HW222107   2.581   1.497  17.658 -0.0315  1.6588 -0.8085
 3549SOL     OW22108   4.358   1.351  12.987 -0.0030 -0.0285  1.2144
 3549SOL    HW122109   4.336   1.323  12.898  0.7229  2.0671  0.3762
 3549SOL    HW222110   4.427   1.412  12.961 -0.6236  0.3705  0.4897
 3550SOL     OW22111   1.725   0.455  10.704 -0.0374 -0.1179  0.1622
 3550SOL    HW122112   1.663   0.389  10.734 -0.5597 -0.1357 -0.9960
 3550SOL    HW222113   1.766   0.398  10.639  0.3955  1.1086 -0.6365
 3551SOL     OW22114   1.488   3.567   0.156  0.0205 -0.2049 -0.4499
 3551SOL    HW122115   1.398   3.600   0.164  0.3171  0.4612  0.1594
 3551SOL    HW222116   1.489   3.506   0.230 -1.8235 -0.1186 -0.3438
 3552SOL     OW22117   1.979   1.308   5.233  0.1371 -0.0071 -0.0036
 3552SOL    HW122118   2.013   1.244   5.296  0.5528 -0.1680 -0.3919
 3552SOL    HW222119   1.900   1.263   5.204  0.4268 -0.8611  0.5023
 3553SOL     OW22120   3.303   4.204  11.802 -0.1017 -0.1730  0.7433
 3553SOL    HW122121   3.302   4.258  11.881  0.1987 -0.5205  0.9878
 3553SOL    HW222122   3.398   4.194  11.792 -0.4618 -2.4131 -0.5202
 3554SOL     OW22123   0.625   0.481   4.043  0.1650  0.4331  0.1326
 3554SOL    HW122124   0.713   0.478   4.006  0.4236  2.3511  0.6012
 3554SOL    HW222125   0.637   0.503   4.135  0.2412  0.5242  0.1007
 3555SOL     OW22126   1.391   4.174  14.452  0.3798 -0.1327 -0.1355
 3555SOL    HW122127   1.471   4.174  14.504 -0.1664 -1.0115  0.6927
 3555SOL    HW222128   1.377   4.080  14.441  1.2087 -0.3955  1.0717
 3556SOL     OW22129   0.806   1.711   6.761  0.0805  0.2983  0.0026
 3556SOL    HW122130   0.779   1.630   6.804  1.5754  0.2723  0.8786
 3556SOL    HW222131   0.798   1.762   6.842 -1.5044 -1.1553  0.7718
 3557SOL     OW22132   3.530   3.539   6.360 -0.3121  0.0821 -0.0039
 3557SOL    HW122133   3.553   3.458   6.406  1.1748 -1.0651 -2.7697
 3557SOL    HW222134   3.441   3.545   6.395 -0.5017  1.0575 -0.6554
 3558SOL     OW22135   1.781   3.542   7.431  0.0102 -0.1703  0.2917
 3558SOL    HW122136   1.710   3.519   7.491 -0.2373 -2.1788 -0.7808
 3558SOL    HW222137   1.767   3.636   7.422  0.0435 -0.4495 -2.6129
 3559SOL     OW22138   4.478   3.321   0.444  0.0916  0.1238 -0.0536
 3559SOL    HW122139   4.383   3.330   0.457  0.1154 -1.3879  1.0990
 3559SOL    HW222140   4.485   3.244   0.389  1.4164 -0.5687  1.0975
 3560SOL     OW22141   0.465   2.717   4.602 -0.2154  0.0850  0.4274
 3560SOL    HW122142   0.545   2.769   4.586 -1.7018  1.8936 -1.1611
 3560SOL    HW222143   0.437   2.716   4.510  2.1264 -0.5945 -0.2876
 3561SOL     OW22144   2.879   0.001  16.340  0.0799 -0.7300 -0.5977
 3561SOL    HW122145   2.789   4.693  16.331 -0.1824  0.1717 -1.1020
 3561SOL    HW222146   2.875   0.036  16.251  1.7968 -1.4031 -0.9429
 3562SOL     OW22147   3.533   3.391   0.166 -0.2113  0.5075 -0.3996
 3562SOL    HW122148   3.489   3.350   0.091  1.5348 -2.1887  0.0512
 3562SOL    HW222149   3.486   3.342   0.234 -0.5385  1.0271 -0.2505
 3563SOL     OW22150   3.523   3.334   2.919  0.0987  1.0152 -0.1514
 3563SOL    HW122151   3.524   3.240   2.935 -0.8303  0.6120 -2.4564
 3563SOL    HW222152   3.433   3.356   2.943  0.4502  0.1668  1.9478
 3564SOL     OW22153   2.360   0.060   0.013  0.1038 -0.1282  0.7253
 3564SOL    HW122154   2.390   0.125  17.643 -1.1171  1.6645  2.0065
 3564SOL    HW222155   2.441   0.009   0.019  0.6147  0.5349 -0.7103
 3565SOL     OW22156   1.842   2.647  17.417  0.2775 -0.4811 -0.1056
 3565SOL    HW122157   1.893   2.590  17.359  1.4839 -2.1938  2.6041
 3565SOL    HW222158   1.815   2.721  17.363 -1.3932  1.6626  3.6780
 3566SOL     OW22159   0.906   2.364   7.242  0.4180  0.1668  0.1074
 3566SOL    HW122160   0.980   2.342   7.297  1.8069 -0.3976 -1.9901
 3566SOL    HW222161   0.950   2.392   7.162 -1.3977 -1.6015 -1.4943
 3567SOL     OW22162   4.526   4.606   2.432  0.3594 -0.5069 -0.4899
 3567SOL    HW122163   4.563   4.684   2.392  0.1594  0.3552  1.0056
 3567SOL    HW222164   4.436   4.638   2.437  0.1365 -1.0653 -0.8023
 3568SOL     OW22165   1.756   0.061   4.268 -0.2328  0.2673 -0.5508
 3568SOL    HW122166   1.692   0.023   4.208 -2.6172  0.8914  1.6011
 3568SOL    HW222167   1.824   0.079   4.203  1.7601 -2.0568  0.9052
 3569SOL     OW22168   3.768   1.585   6.170  0.2416  0.2153  0.7078
 3569SOL    HW122169   3.801   1.636   6.244 -0.6706  2.7770 -0.6302
 3569SOL    HW222170   3.802   1.496   6.169  1.1181  0.5426  1.1451
 3570SOL     OW22171   4.069   4.428   9.167 -0.2312  0.3439 -0.2312
 3570SOL    HW122172   4.150   4.378   9.162 -0.7628 -0.5555  0.1245
 3570SOL    HW222173   4.035   4.420   9.078 -1.4067  2.3201  0.0432
 3571SOL     OW22174   0.126   4.580   2.077 -0.0688  0.2826  0.1710
 3571SOL    HW122175   0.173   4.511   2.030 -0.5389  1.4428 -2.0172
 3571SOL    HW222176   0.038   4.544   2.082 -0.7835  2.0449  0.5401
 3572SOL     OW22177   4.302   2.775   1.756  0.2541  0.1189 -0.2635
 3572SOL    HW122178   4.301   2.804   1.665  2.9389  0.1942 -0.2518
 3572SOL    HW222179   4.220   2.726   1.755 -0.4370  1.2394  0.9529
 3573SOL     OW22180   1.300   1.018   2.053 -0.1514 -0.0316  0.0744
 3573SOL    HW122181   1.369   0.998   1.990  0.6955  1.5229  0.5207
 3573SOL    HW222182   1.228   1.056   2.003 -0.8362  0.6117  1.5371
 3574SOL     OW22183   1.995   0.554   6.357  0.3833  0.8653  0.4097
 3574SOL    HW122184   2.003   0.496   6.433  0.3754  1.2684  0.7218
 3574SOL    HW222185   2.011   0.636   6.405  0.2760  0.5671  0.9545
 3575SOL     OW22186   4.573   1.820   2.156 -0.3371 -0.7249 -0.5283
 3575SOL    HW122187   4.616   1.786   2.078  1.7005  3.1603 -1.0796
 3575SOL    HW222188   4.644   1.855   2.209  0.0026 -1.5186 -0.4562
 3576SOL     OW22189   0.003   1.460  11.453  0.1508 -0.3435  0.2215
 3576SOL    HW122190   0.025   1.471  11.361 -0.6683 -1.2872 -0.0862
 3576SOL    HW222191   0.089   1.439  11.489  0.6159  1.1076 -0.0388
 3577SOL     OW22192   4.209   0.035  14.342  0.5153 -0.4777 -0.0413
 3577SOL    HW122193   4.261   4.722  14.270  0.7629  1.3559 -0.7773
 3577SOL    HW222194   4.260   0.114  14.363  3.1166 -2.3542  0.6684
 3578SOL     OW22195   3.373   2.060   7.153  0.1804  0.7873  0.0086
 3578SOL    HW122196   3.372   2.037   7.060 -2.0052  0.0157  0.2304
 3578SOL    HW222197   3.465   2.085   7.162  0.5098 -0.5516  0.4242
 3579SOL     OW22198   3.740   1.425   1.145  0.2227 -0.3079 -0.1821
 3579SOL    HW122199   3.744   1.439   1.051 -1.0458  1.4120  0.0207
 3579SOL    HW222200   3.816   1.474   1.176 -0.6690  1.0876 -0.1974
 3580SOL     OW22201   1.175   3.681  12.485  0.0143  0.6247 -0.3748
 3580SOL    HW122202   1.237   3.613  12.457 -1.7566 -0.7405 -0.9992
 3580SOL    HW222203   1.092   3.633  12.491 -0.6260  1.7784 -0.1945
 3581SOL     OW22204   1.623   0.269   8.258 -0.1668 -0.0077  0.3887
 3581SOL    HW122205   1.554   0.256   8.322 -0.1412 -2.5578 -0.0969
 3581SOL    HW222206   1.589   0.335   8.197 -2.1923 -0.1415  1.3849
 3582SOL     OW22207   3.291   0.743   4.899  0.7081  0.2963  0.2341
 3582SOL    HW122208   3.267   0.761   4.808  1.7816 -3.0926 -0.7264
 3582SOL    HW222209   3.212   0.698   4.928  1.9737 -0.1233  3.0157
 3583SOL     OW22210   2.956   0.940  16.874 -0.2278  0.1541 -0.1910
 3583SOL    HW122211   2.943   1.015  16.930  2.0260  0.1996  0.2911
 3583SOL    HW222212   2.944   0.985  16.790 -1.6579 -1.4838 -0.8753
 3584SOL     OW22213   3.754   0.822  13.881  0.3264 -0.1693  0.2182
 3584SOL    HW122214   3.661   0.822  13.859 -0.0852 -0.1340  1.9168
 3584SOL    HW222215   3.728   0.838  13.972  0.2853 -0.0932  0.1929
 3585SOL     OW22216   4.531   2.608   7.758 -0.1671 -0.4948  0.3476
 3585SOL    HW122217   4.526   2.676   7.825  1.5604  1.1380 -1.2133
 3585SOL    HW222218   4.615   2.634   7.722 -0.8512  0.5039 -0.5419
 3586SOL     OW22219   1.305   3.321   1.397  0.4349 -0.5269  0.0386
 3586SOL    HW122220   1.329   3.269   1.320  0.3458  0.4492 -0.6527
 3586SOL    HW222221   1.210   3.308   1.398  0.6467 -2.0418  0.0613
 3587SOL     OW22222   1.011   3.436   5.586  0.1996  0.3928 -0.1582
 3587SOL    HW122223   1.072   3.367   5.616 -0.0899 -0.3365 -1.2548
 3587SOL    HW222224   1.062   3.517   5.580  0.2171  0.2599 -1.8117
 3588SOL     OW22225   3.607   3.231   7.406 -0.0438 -0.2543  0.2571
 3588SOL    HW122226   3.681   3.291   7.406 -0.7119  0.5806 -3.8230
 3588SOL    HW222227   3.562   3.255   7.487 -2.6238  1.4445 -1.6938
 3589SOL     OW22228   3.176   1.532   9.343  0.5267  0.3565  0.4791
 3589SOL    HW122229   3.155   1.607   9.289  1.0333  0.7325  0.8035
 3589SOL    HW222230   3.098   1.477   9.339 -0.2038  1.3957  0.5500
 3590SOL     OW22231   0.127   0.996  10.754 -0.1180  0.4386  0.2701
 3590SOL    HW122232   0.098   0.977  10.665 -1.1829 -1.0330  0.9349
 3590SOL    HW222233   0.045   1.028  10.791 -1.3750 -3.0675  0.4500
 3591SOL     OW22234   1.333   0.336   2.930 -0.2652 -0.4855  0.2221
 3591SOL    HW122235   1.418   0.352   2.889 -0.2138 -4.4926 -1.2383
 3591SOL    HW222236   1.346   0.244   2.953 -0.5987 -0.1557  1.7327
 3592SOL     OW22237   3.035   3.292  10.932  0.0210  0.1842 -0.4865
 3592SOL    HW122238   2.966   3.323  10.991 -1.0464 -1.4411 -0.8814
 3592SOL    HW222239   3.043   3.201  10.958 -0.9846  0.0977 -0.4489
 3593SOL     OW22240   0.510   1.577   2.656 -0.2031  0.2576 -0.1058
 3593SOL    HW122241   0.517   1.654   2.711  1.6453 -1.4001  2.0199
 3593SOL    HW222242   0.438   1.602   2.598 -1.3560 -1.0991  0.7411
 3594SOL     OW22243   3.318   4.483   7.954 -0.3762  0.1546 -0.0622
 3594SOL    HW122244   3.396   4.493   8.009 -0.0022 -1.0676 -0.3652
 3594SOL    HW222245   3.342   4.404   7.904 -0.1119 -0.1593  0.5537
 3595SOL     OW22246   2.587   3.020   4.658 -0.0862 -0.3258 -0.2607
 3595SOL    HW122247   2.553   3.046   4.743  0.8092 -1.6989  0.5089
 3595SOL    HW222248   2.614   2.932   4.681  1.0668 -0.0568 -0.5764
 3596SOL     OW22249   1.836   3.211   7.847  0.3217  0.1411 -0.6017
 3596SOL    HW122250   1.856   3.172   7.932 -0.3235  0.0577 -0.4836
 3596SOL    HW222251   1.909   3.170   7.801  1.5585  1.9753 -0.2767
 3597SOL     OW22252   1.100   3.038   4.380 -0.0700 -0.2056  0.1795
 3597SOL    HW122253   1.086   3.070   4.291  1.9949  1.3306  0.4027
 3597SOL    HW222254   1.090   3.119   4.430 -0.5706  1.3458 -2.4725
 3598SOL     OW22255   1.943   1.803   0.939 -0.5649 -0.5112  0.3623
 3598SOL    HW122256   2.018   1.748   0.965 -0.2729 -0.0715  0.4432
 3598SOL    HW222257   1.905   1.819   1.025 -1.4594  0.6035 -0.2416
 3599SOL     OW22258   3.345   2.250   5.912 -0.1854  0.4764  0.2767
 3599SOL    HW122259   3.262   2.210   5.938 -0.3492 -0.3280 -1.4954
 3599SOL    HW222260   3.412   2.182   5.904 -1.7147 -1.1166  1.0605
 3600SOL     OW22261   1.391   0.233   6.549 -0.2093 -0.0279  0.5242
 3600SOL    HW122262   1.406   0.139   6.548 -0.9695 -0.1478 -0.0067
 3600SOL    HW222263   1.392   0.248   6.643  1.4169 -0.1155  0.5108
 3601SOL     OW22264   0.419   4.365  10.078  0.0345  0.1000  0.0748
 3601SOL    HW122265   0.417   4.458  10.055 -0.3743 -0.4151 -2.0213
 3601SOL    HW222266   0.425   4.383  10.172  0.3528  2.2390 -0.3376
 3602SOL     OW22267   0.356   4.378   3.800 -0.0510  0.4588  0.1711
 3602SOL    HW122268   0.288   4.428   3.755  0.4033  0.1181 -0.8968
 3602SOL    HW222269   0.296   4.318   3.845 -1.2370  2.3327  1.0947
 3603SOL     OW22270   2.007   0.016   3.380 -0.1754  0.2112 -0.7725
 3603SOL    HW122271   2.061   4.686   3.323  3.2270  0.9573  1.7356
 3603SOL    HW222272   1.947   0.043   3.311  0.2658 -0.4635 -1.4127
 3604SOL     OW22273   3.181   2.754   5.457  0.1128 -0.0701 -0.5726
 3604SOL    HW122274   3.124   2.701   5.512  1.0234 -0.7020 -0.2447
 3604SOL    HW222275   3.255   2.772   5.516  1.4347 -0.7897 -2.0116
 3605SOL     OW22276   0.328   1.361   7.443 -0.2991  0.4770 -0.3819
 3605SOL    HW122277   0.359   1.295   7.381  0.7089 -0.5100  1.1710
 3605SOL    HW222278   0.235   1.340   7.438 -0.4024  0.2364  2.6049
 3606SOL     OW22279   0.257   0.750   5.908 -0.4061 -0.7912 -0.7365
 3606SOL    HW122280   0.302   0.671   5.938  1.8780  0.0593 -1.9385
 3606SOL    HW222281   0.175   0.732   5.955  0.2092  2.3860  1.5452
 3607SOL     OW22282   1.896   4.424  10.604  0.2393 -0.4788  0.9366
 3607SOL    HW122283   1.941   4.415  10.687 -0.1856  0.7835  1.3084
 3607SOL    HW222284   1.965   4.415  10.538 -2.0464  3.9202 -2.1032
 3608SOL     OW22285   2.724   1.026   3.152  0.7454  0.2453 -0.0397
 3608SOL    HW122286   2.801   1.028   3.095  0.8362 -0.3737  0.0641
 3608SOL    HW222287   2.662   1.091   3.118  0.5750  0.0080 -0.1805
 3609SOL     OW22288   4.622   0.197   2.596 -0.1489  0.4415 -0.0300
 3609SOL    HW122289   4.656   0.262   2.658 -0.6275 -0.2637  0.9869
 3609SOL    HW222290   4.608   0.120   2.651  1.2015  0.0628 -0.2094
 3610SOL     OW22291   4.150   1.062   3.001  0.2555  0.2865  0.4567
 3610SOL    HW122292   4.058   1.086   2.997  0.1553 -0.4765 -2.0237
 3610SOL    HW222293   4.142   0.993   3.067  1.3029  0.5891  0.8976
 3611SOL     OW22294   4.146   3.883   7.050 -0.2358 -0.0199 -0.2555
 3611SOL    HW122295   4.083   3.832   6.998 -0.2382  1.3402 -1.6026
 3611SOL    HW222296   4.167   3.817   7.116 -0.6898  0.3514  0.2539
 3612SOL     OW22297   1.170   3.492  16.719  0.3371  0.8820  0.1578
 3612SOL    HW122298   1.234   3.553  16.684  0.6870  1.4797  1.8659
 3612SOL    HW222299   1.223   3.441  16.780 -0.3685 -0.2439 -0.1634
 3613SOL     OW22300   1.062   1.282  11.878 -0.3526 -0.7197 -0.0950
 3613SOL    HW122301   1.134   1.314  11.933 -1.3169  0.1474  0.6740
 3613SOL    HW222302   1.058   1.189  11.901  2.3625 -0.5599  1.0383
 3614SOL     OW22303   1.119   0.370   8.631  0.3807 -0.0039 -0.3308
 3614SOL    HW122304   1.053   0.396   8.696 -0.3352 -0.4526 -0.8766
 3614SOL    HW222305   1.181   0.330   8.692 -1.0761 -0.4120  0.8848
 3615SOL     OW22306   2.727   1.346   9.009  0.2716 -0.2232  0.2631
 3615SOL    HW122307   2.655   1.409   9.019 -0.9642 -1.7989  1.2962
 3615SOL    HW222308   2.808   1.397   9.003 -0.5129  1.3854  3.4507
 3616SOL     OW22309   2.287   1.719  10.015 -0.0790 -0.5619  0.2847
 3616SOL    HW122310   2.228   1.759  10.079 -1.0355  1.3388 -1.7566
 3616SOL    HW222311   2.343   1.796  10.005  2.6130 -2.8637 -2.1612
 3617SOL     OW22312   2.625   3.638  12.754  0.0924 -0.2758  0.7018
 3617SOL    HW122313   2.696   3.576  12.772  1.8336  2.1546  2.2736
 3617SOL    HW222314   2.623   3.642  12.659 -0.5241 -0.2772  0.7133
 3618SOL     OW22315   0.092   3.055   6.698 -0.8469  0.5525  0.4405
 3618SOL    HW122316   0.165   2.997   6.674  0.3920  1.6114  1.6472
 3618SOL    HW222317   0.128   3.107   6.769  2.5855  0.1214 -0.9584
 3619SOL     OW22318   4.216   3.160   4.825  0.0791  0.5169  0.7496
 3619SOL    HW122319   4.151   3.113   4.774  1.3436  0.2479 -0.6129
 3619SOL    HW222320   4.174   3.169   4.910 -1.6372 -0.7421  0.0268
 3620SOL     OW22321   0.514   0.898   5.594  0.2079 -0.4721 -0.2690
 3620SOL    HW122322   0.551   0.858   5.515 -0.2907 -3.2521  0.9157
 3620SOL    HW222323   0.420   0.881   5.587 -0.0302  0.6968  0.1903
 3621SOL     OW22324   3.249   1.931   9.469  0.5369  0.6738  0.8691
 3621SOL    HW122325   3.331   1.908   9.426 -1.2079 -1.3107 -1.3800
 3621SOL    HW222326   3.278   1.986   9.543  0.8666  2.0835 -0.3070
 3622SOL     OW22327   1.600   2.901   3.533 -0.3230 -0.4911 -0.4860
 3622SOL    HW122328   1.584   2.819   3.485 -1.3098 -0.4297 -0.2677
 3622SOL    HW222329   1.636   2.865   3.614  0.4529  2.9165  0.6678
 3623SOL     OW22330   0.541   0.315  16.108 -0.2347  0.4617 -0.4327
 3623SOL    HW122331   0.485   0.256  16.057 -1.9588  0.1692  1.7973
 3623SOL    HW222332   0.546   0.392  16.051 -0.8547 -0.1573 -1.3204
 3624SOL     OW22333   0.079   4.186   3.082 -0.1251  0.2337  0.8731
 3624SOL    HW122334   0.051   4.190   3.173 -0.1832  1.8263  0.7944
 3624SOL    HW222335   0.005   4.141   3.043  0.2346  0.5809 -0.2177
 3625SOL     OW22336   1.758   1.424   4.605 -0.7980  0.2742 -0.2925
 3625SOL    HW122337   1.801   1.346   4.569 -0.0245  0.4635  0.2023
 3625SOL    HW222338   1.791   1.502   4.561 -0.7649 -0.3719 -1.3952
 3626SOL     OW22339   2.319   4.554   7.593  0.5080 -0.2282  0.4693
 3626SOL    HW122340   2.318   4.462   7.570 -2.2883  0.1725 -0.9754
 3626SOL    HW222341   2.393   4.561   7.654  0.5999 -0.4715  0.3857
 3627SOL     OW22342   1.208   2.252  11.364  0.0413 -0.9785  0.4997
 3627SOL    HW122343   1.255   2.327  11.328  0.3435 -2.1060 -1.4906
 3627SOL    HW222344   1.276   2.220  11.423 -0.3289 -1.6551  0.5554
 3628SOL     OW22345   2.112   4.553   9.584 -0.2792  0.0804  0.4060
 3628SOL    HW122346   2.120   4.460   9.565 -1.6933 -0.3329  1.9431
 3628SOL    HW222347   2.046   4.582   9.521  0.6707  1.5413  0.0768
 3629SOL     OW22348   3.056   3.623   0.046  0.5498 -0.0306  0.1476
 3629SOL    HW122349   3.127   3.622  17.675 -1.5026 -1.0315 -2.1046
 3629SOL    HW222350   3.072   3.535   0.079  0.0111 -0.9359 -1.9392
 3630SOL     OW22351   3.891   3.217   3.005  0.8231 -0.2519  0.8166
 3630SOL    HW122352   3.810   3.215   3.055 -1.6222 -2.1211 -3.2404
 3630SOL    HW222353   3.925   3.306   3.002  0.1146 -0.0288 -0.6674
 3631SOL     OW22354   2.532   4.333   7.986 -0.3444 -0.2223  0.3026
 3631SOL    HW122355   2.552   4.352   8.077 -0.0048  1.3649 -0.1085
 3631SOL    HW222356   2.577   4.249   7.976  1.0745  0.7671 -1.8442
 3632SOL     OW22357   1.890   1.216   4.371 -0.0908  0.0506  0.7271
 3632SOL    HW122358   1.899   1.126   4.340 -2.5846 -0.4840  1.5137
 3632SOL    HW222359   1.836   1.250   4.300 -0.3289 -0.0480  0.8595
 3633SOL     OW22360   2.366   4.476  17.112 -0.1832 -0.3856 -0.3398
 3633SOL    HW122361   2.369   4.552  17.054  2.0421 -0.0708  0.1824
 3633SOL    HW222362   2.446   4.440  17.074  2.5141  3.5922  1.5711
 3634SOL     OW22363   1.265   3.512  13.036 -0.1199  0.8784 -0.1560
 3634SOL    HW122364   1.246   3.566  13.112  0.7379  3.2635 -1.6482
 3634SOL    HW222365   1.254   3.575  12.965 -1.5690  1.8166  0.9204
 3635SOL     OW22366   4.040   2.887  15.474  0.1252  0.3172  0.2945
 3635SOL    HW122367   4.043   2.948  15.548  0.4426 -1.4123  1.6993
 3635SOL    HW222368   4.132   2.861  15.470 -0.1255  0.0992 -4.1714
 3636SOL     OW22369   0.559   0.945   7.262 -0.4890 -0.1481 -0.0340
 3636SOL    HW122370   0.639   0.977   7.221  0.6790 -1.7752  0.9717
 3636SOL    HW222371   0.512   0.926   7.181 -0.7716  2.2816 -0.4314
 3637SOL     OW22372   0.101   3.358   7.083  0.3820 -0.0649  0.4785
 3637SOL    HW122373   0.103   3.445   7.122  0.9195 -0.8353  2.1597
 3637SOL    HW222374   0.087   3.317   7.168 -0.9334  3.0543  1.7349
 3638SOL     OW22375   4.108   1.707  17.102  0.0232 -0.0358 -0.0159
 3638SOL    HW122376   4.042   1.769  17.133  0.3487  2.1076 -3.5784
 3638SOL    HW222377   4.059   1.667  17.030 -0.0552  1.0749 -0.5752
 3639SOL     OW22378   0.392   0.276   5.409  0.2347 -0.0264  0.1697
 3639SOL    HW122379   0.427   0.317   5.488  0.8075  0.6812 -0.4632
 3639SOL    HW222380   0.376   0.348   5.349  2.5795 -0.4324 -0.9492
 3640SOL     OW22381   3.602   1.277  16.593  0.0310 -0.3836 -0.2772
 3640SOL    HW122382   3.616   1.285  16.687  0.3346  3.2908 -0.6366
 3640SOL    HW222383   3.544   1.347  16.563  1.1430  0.7665  0.2339
 3641SOL     OW22384   0.099   2.870  16.802  0.1801  0.2203  0.2120
 3641SOL    HW122385   0.023   2.928  16.798 -0.5820 -0.8197 -0.1906
 3641SOL    HW222386   0.145   2.889  16.720 -0.3677 -0.7028 -0.3032
 3642SOL     OW22387   0.148   4.326   8.263 -0.5753  0.4228 -0.0101
 3642SOL    HW122388   0.128   4.232   8.259 -2.3076  0.7070  1.6080
 3642SOL    HW222389   0.171   4.337   8.170 -0.4331 -0.1560 -0.0418
 3643SOL     OW22390   3.650   1.100   4.512  0.2355  0.1857  1.0442
 3643SOL    HW122391   3.637   1.062   4.425 -1.7190  0.4761  1.1945
 3643SOL    HW222392   3.704   1.036   4.558 -1.2171 -1.4474  0.5009
 3644SOL     OW22393   0.681   0.292   2.551 -0.3695  0.1130 -0.4250
 3644SOL    HW122394   0.746   0.294   2.481 -0.4201 -0.0633 -0.4773
 3644SOL    HW222395   0.724   0.238   2.618 -2.9458  1.9519  2.7249
 3645SOL     OW22396   1.437   1.700   9.263 -0.1688 -0.4477 -0.1419
 3645SOL    HW122397   1.435   1.708   9.359 -1.3350 -0.4213 -0.1634
 3645SOL    HW222398   1.369   1.634   9.247 -0.8116  0.1645  0.0854
 3646SOL     OW22399   0.001   3.606  14.891 -0.0295 -0.5530 -0.4627
 3646SOL    HW122400   4.629   3.620  14.889  0.0150  0.1460  2.1005
 3646SOL    HW222401   0.012   3.526  14.841 -1.8800 -1.6993  0.9708
 3647SOL     OW22402   4.216   4.447  17.062 -0.0024  0.2252  0.1452
 3647SOL    HW122403   4.223   4.455  16.967  1.3289  0.5162  0.2790
 3647SOL    HW222404   4.229   4.352  17.063  0.7702  0.3171 -0.9481
 3648SOL     OW22405   3.054   3.698   5.501 -0.0878 -0.3944 -0.3794
 3648SOL    HW122406   3.031   3.697   5.594  0.2330 -2.1756 -0.3289
 3648SOL    HW222407   2.972   3.715   5.454  0.8745 -1.7965 -2.5400
 3649SOL     OW22408   1.443   2.648  11.020  0.8479 -0.4790 -0.3306
 3649SOL    HW122409   1.463   2.742  11.025  0.2863 -0.4644  1.5861
 3649SOL    HW222410   1.501   2.613  11.088 -0.9510 -1.7231  0.5487
 3650SOL     OW22411   2.472   2.137   6.318 -0.0615  0.3263 -0.2942
 3650SOL    HW122412   2.466   2.214   6.261  0.8027  1.1585  0.7279
 3650SOL    HW222413   2.453   2.060   6.264  0.9609  0.0803 -0.2879
 3651SOL     OW22414   0.216   0.107   3.270 -0.0071  0.5635 -0.3980
 3651SOL    HW122415   0.292   0.131   3.218 -0.1871 -0.4600 -1.1564
 3651SOL    HW222416   0.145   0.166   3.243  0.6822  1.5688  0.0235
 3652SOL     OW22417   1.727   1.949   5.074  0.2420 -0.4790 -0.4438
 3652SOL    HW122418   1.636   1.976   5.088  0.4974 -1.2368  2.6801
 3652SOL    HW222419   1.751   2.019   5.013 -1.3526 -0.7445 -1.3877
 3653SOL     OW22420   0.840   0.398   5.357  0.1390  0.0729 -0.2209
 3653SOL    HW122421   0.928   0.370   5.332  0.2519  2.5515 -2.6421
 3653SOL    HW222422   0.789   0.319   5.339 -1.7452  1.1435  0.3441
 3654SOL     OW22423   2.618   2.143   6.563 -0.0751 -0.2131 -0.1130
 3654SOL    HW122424   2.568   2.219   6.592 -0.4056 -1.2429  1.9746
 3654SOL    HW222425   2.563   2.125   6.487 -0.2891 -0.9144  0.2040
 3655SOL     OW22426   1.178   1.991   3.579 -0.0640 -0.3835  0.0216
 3655SOL    HW122427   1.144   1.903   3.562  0.9450 -0.5621 -1.0225
 3655SOL    HW222428   1.104   2.034   3.536 -0.2026 -1.0845 -0.4558
 3656SOL     OW22429   4.598   4.544   7.504 -0.2386 -0.3289  0.2517
 3656SOL    HW122430   4.610   4.480   7.574  0.1782 -1.5527 -0.9573
 3656SOL    HW222431   4.656   4.512   7.436  1.4430 -0.1178  1.5977
 3657SOL     OW22432   0.495   0.303  12.080 -0.1183 -0.3239  0.4526
 3657SOL    HW122433   0.490   0.275  12.171  1.6644  0.4940  0.8029
 3657SOL    HW222434   0.481   0.397  12.093  0.9218 -0.1409  0.2561
 3658SOL     OW22435   2.842   1.814   5.212  0.5837 -0.4409  0.3598
 3658SOL    HW122436   2.829   1.719   5.211 -2.4539 -0.0453  1.7600
 3658SOL    HW222437   2.754   1.851   5.210  0.8464  0.1138 -0.5297
 3659SOL     OW22438   2.771   0.341   7.459 -0.1733 -0.7483  0.1362
 3659SOL    HW122439   2.807   0.252   7.453 -1.3432 -1.0452 -2.9981
 3659SOL    HW222440   2.845   0.399   7.475  0.5056 -1.3008 -0.9768
 3660SOL     OW22441   4.351   0.487  12.302 -0.4070 -0.3590 -0.2975
 3660SOL    HW122442   4.433   0.514  12.342 -1.4082  2.6653 -0.2624
 3660SOL    HW222443   4.367   0.483  12.208  0.0913  2.0885 -0.3206
 3661SOL     OW22444   2.000   0.730   1.377  0.0924  0.5831 -0.5383
 3661SOL    HW122445   1.913   0.698   1.357 -0.1573  1.2850 -0.5769
 3661SOL    HW222446   2.046   0.646   1.374 -0.9578 -0.1116  3.5633
 3662SOL     OW22447   4.627   0.546   5.652  0.0072 -0.0208 -0.1818
 3662SOL    HW122448   4.688   0.541   5.578 -1.5982 -1.2575 -1.4143
 3662SOL    HW222449   4.566   0.601   5.603 -0.9955 -1.8394 -0.9581
 3663SOL     OW22450   1.414   1.240   3.957 -0.1514  0.5256 -0.0970
 3663SOL    HW122451   1.442   1.238   3.866 -3.3396  1.8569 -1.0925
 3663SOL    HW222452   1.331   1.286   3.958  0.2989  1.3553 -0.8692
 3664SOL     OW22453   3.325   3.120   1.988 -0.1865 -0.8974  0.0910
 3664SOL    HW122454   3.418   3.134   2.005 -0.2870  2.4044 -1.9350
 3664SOL    HW222455   3.287   3.122   2.076  0.3255  0.3573  0.2816
 3665SOL     OW22456   2.377   4.273   5.261 -0.4950 -0.1159 -0.0274
 3665SOL    HW122457   2.336   4.221   5.330  0.0217 -1.1385 -0.4950
 3665SOL    HW222458   2.300   4.315   5.224 -1.4416 -2.2984 -0.5233
 3666SOL     OW22459   1.035   3.242   5.123 -0.1874 -0.1462  0.0056
 3666SOL    HW122460   1.125   3.208   5.120  1.2598  3.7944 -1.3073
 3666SOL    HW222461   1.033   3.337   5.132  0.1707 -0.1548  0.1518
 3667SOL     OW22462   1.219   0.140  13.159 -0.2283  0.2238  0.1947
 3667SOL    HW122463   1.243   0.126  13.251  0.1472  1.2827  0.2624
 3667SOL    HW222464   1.307   0.130  13.122 -0.6345 -0.5987 -0.5321
 3668SOL     OW22465   3.484   2.797   5.534 -0.1251 -0.0546 -0.0965
 3668SOL    HW122466   3.500   2.765   5.446  0.0491  0.2997 -0.1934
 3668SOL    HW222467   3.515   2.722   5.585  0.2170 -0.3449 -0.7319
 3669SOL     OW22468   3.983   3.719   1.176 -0.3291 -0.3614 -0.1142
 3669SOL    HW122469   3.935   3.776   1.237  3.3295  2.6509 -0.0824
 3669SOL    HW222470   3.982   3.779   1.102 -3.5806 -2.1915 -1.5362
 3670SOL     OW22471   3.225   2.340  17.291 -0.1142 -0.1100 -0.3754
 3670SOL    HW122472   3.187   2.406  17.233  0.3624  1.0813  0.6673
 3670SOL    HW222473   3.312   2.377  17.309 -0.6661  0.5731  0.9091
 3671SOL     OW22474   2.740   1.380  15.480 -0.0358 -0.5029 -0.2591
 3671SOL    HW122475   2.713   1.314  15.544  2.0149  1.1865  2.3365
 3671SOL    HW222476   2.764   1.327  15.404  0.8399 -0.4916  0.0174
 3672SOL     OW22477   0.673   2.926  15.519 -0.6734  0.7146 -0.2049
 3672SOL    HW122478   0.620   2.913  15.440  0.3877 -0.7373 -0.6764
 3672SOL    HW222479   0.720   3.000  15.482 -0.0122  0.5771  0.3609
 3673SOL     OW22480   0.356   3.331   7.432 -0.2709  0.3792 -0.5949
 3673SOL    HW122481   0.376   3.241   7.407  3.1078  0.6893  0.9361
 3673SOL    HW222482   0.345   3.316   7.526 -0.2343 -0.9651 -0.8054
 3674SOL     OW22483   0.955   4.216   8.039  0.9251  0.1583  0.4023
 3674SOL    HW122484   0.906   4.137   8.063  0.1704  1.1117  1.9791
 3674SOL    HW222485   0.924   4.272   8.110 -1.5288 -0.4708 -0.1713
 3675SOL     OW22486   3.614   3.088  11.317 -0.2242 -1.2064 -0.3353
 3675SOL    HW122487   3.593   3.089  11.410  1.9341 -3.7547  0.1679
 3675SOL    HW222488   3.709   3.072  11.319 -0.3111 -1.6446  0.2091
 3676SOL     OW22489   3.702   0.091   8.857  0.8293  0.3064 -0.5344
 3676SOL    HW122490   3.696   0.009   8.907  0.1799  0.0836 -0.9827
 3676SOL    HW222491   3.656   0.144   8.921  1.3599 -0.7469  0.7166
 3677SOL     OW22492   4.662   2.491   7.075  0.2734 -0.2893  0.5273
 3677SOL    HW122493   0.035   2.484   7.075  0.3075  0.3654 -0.7496
 3677SOL    HW222494   4.638   2.582   7.058 -1.3579 -0.0275  4.0760
 3678SOL     OW22495   2.072   4.696   7.013  0.1358 -0.1636  0.2822
 3678SOL    HW122496   1.994   0.025   7.028  0.4753  1.0293 -2.0496
 3678SOL    HW222497   2.042   4.607   7.033 -0.3699 -0.0435  0.0491
 3679SOL     OW22498   3.880   1.553  15.574 -0.0888  0.2371  0.0524
 3679SOL    HW122499   3.796   1.596  15.592  0.7039  1.5679  0.5915
 3679SOL    HW222500   3.923   1.617  15.517  0.4049 -0.7983 -0.7397
 3680SOL     OW22501   3.462   1.525   8.623 -0.5800  0.0493 -0.4332
 3680SOL    HW122502   3.429   1.481   8.701 -2.0229 -0.6645 -1.4542
 3680SOL    HW222503   3.404   1.601   8.621  1.5160  1.6923  0.2822
 3681SOL     OW22504   1.100   2.718   2.495  0.9609  0.2318 -0.0906
 3681SOL    HW122505   1.047   2.745   2.420 -1.0489 -0.0842  1.2101
 3681SOL    HW222506   1.174   2.774   2.471  1.8376 -1.9438 -2.4307
 3682SOL     OW22507   0.600   3.775   9.547 -0.1546  0.0083  0.0790
 3682SOL    HW122508   0.577   3.700   9.603  1.0068 -0.0188  0.5235
 3682SOL    HW222509   0.646   3.722   9.482  0.0052 -0.3947  0.5140
 3683SOL     OW22510   1.690   0.485  12.583 -0.3316  0.5951 -0.2481
 3683SOL    HW122511   1.629   0.425  12.538 -1.3792  1.0107  0.6335
 3683SOL    HW222512   1.631   0.553  12.613 -1.3914 -0.5194  0.1915
 3684SOL     OW22513   3.055   2.389  16.592 -0.0079  0.5855  0.4947
 3684SOL    HW122514   3.030   2.403  16.500 -1.0283  1.8131  0.9597
 3684SOL    HW222515   3.137   2.437  16.601  1.2880 -0.9935 -2.7014
 3685SOL     OW22516   1.338   3.840   2.028  0.4523 -0.3309  0.3805
 3685SOL    HW122517   1.267   3.788   2.066  1.1893 -1.6741 -0.0717
 3685SOL    HW222518   1.300   3.926   2.012  0.4159 -0.2484  0.9129
 3686SOL     OW22519   2.919   0.736   6.725 -0.0590  0.0525  0.3643
 3686SOL    HW122520   2.953   0.683   6.653  0.5459  3.3845 -1.8167
 3686SOL    HW222521   2.946   0.821   6.690 -1.0941 -0.0739 -0.7321
 3687SOL     OW22522   4.349   1.819   5.130 -0.3803 -0.3111  0.4116
 3687SOL    HW122523   4.308   1.869   5.200  0.2918 -2.0625  2.0608
 3687SOL    HW222524   4.442   1.829   5.148 -0.4920 -0.5989  1.1328
 3688SOL     OW22525   2.534   2.779  11.391 -0.3054 -0.5160 -0.3017
 3688SOL    HW122526   2.569   2.851  11.339 -2.3979  0.7226  0.0168
 3688SOL    HW222527   2.473   2.827  11.447  2.9112  2.1612  0.8867
 3689SOL     OW22528   2.635   1.581   5.217  0.6316  0.8336 -0.4020
 3689SOL    HW122529   2.649   1.560   5.309  2.1390  1.5929 -0.4766
 3689SOL    HW222530   2.567   1.648   5.223 -0.0445  0.1457 -0.3258
 3690SOL     OW22531   2.936   1.795   5.827 -0.0042  0.8287  0.2521
 3690SOL    HW122532   2.988   1.806   5.747  0.2678  1.8143  0.5583
 3690SOL    HW222533   3.000   1.760   5.888 -1.5340 -0.8180  0.9067
 3691SOL     OW22534   3.024   3.881   0.558 -0.6058  0.3715 -0.1729
 3691SOL    HW122535   3.001   3.968   0.590 -1.2065  1.3598 -3.2473
 3691SOL    HW222536   2.956   3.836   0.608 -0.2639  0.8206  0.7001
 3692SOL     OW22537   3.703   4.331   1.792  0.4430  0.0175 -0.3066
 3692SOL    HW122538   3.655   4.248   1.793 -0.6798  0.6615 -0.2374
 3692SOL    HW222539   3.689   4.348   1.885 -0.5971 -1.0794 -0.2661
 3693SOL     OW22540   3.757   3.960   5.548 -0.2356  0.0909  0.3082
 3693SOL    HW122541   3.733   3.991   5.636  2.3695 -2.2835  1.8656
 3693SOL    HW222542   3.674   3.955   5.502 -0.2930  2.1236  0.2063
 3694SOL     OW22543   1.785   1.000  16.698  0.0116  0.4050  0.0411
 3694SOL    HW122544   1.704   1.045  16.674 -0.3051 -1.5373 -2.5227
 3694SOL    HW222545   1.828   1.075  16.737 -0.1769  0.9302 -0.7690
 3695SOL     OW22546   1.797   1.708   4.971  0.1613 -0.5561  0.4190
 3695SOL    HW122547   1.769   1.778   5.030 -1.8413 -0.1453 -1.0148
 3695SOL    HW222548   1.715   1.659   4.971  0.5809 -1.2597  0.1664
 3696SOL     OW22549   3.258   2.480   2.101 -0.1558  0.3051 -0.0422
 3696SOL    HW122550   3.237   2.571   2.120  1.4906  0.4872  0.9035
 3696SOL    HW222551   3.222   2.480   2.013  1.2519 -3.1538 -0.6514
 3697SOL     OW22552   0.601   0.830   3.107  0.4582  0.2630 -0.0559
 3697SOL    HW122553   0.549   0.750   3.103  1.4183 -0.3150 -1.0147
 3697SOL    HW222554   0.533   0.891   3.135 -0.0341 -0.4439  0.2964
 3698SOL     OW22555   0.796   0.361   8.965  0.6030  0.1179  0.2643
 3698SOL    HW122556   0.730   0.427   8.941  0.8764  0.6796  1.0472
 3698SOL    HW222557   0.876   0.411   8.949  1.7244 -2.0132 -0.6137
 3699SOL     OW22558   1.523   2.613   5.883 -0.1059  0.5340  0.1115
 3699SOL    HW122559   1.428   2.618   5.884 -0.1246 -0.4912  2.1942
 3699SOL    HW222560   1.558   2.702   5.873 -1.0760  0.5581 -3.0277
 3700SOL     OW22561   2.051   0.659   5.073 -0.0097  0.2589  0.1069
 3700SOL    HW122562   2.140   0.686   5.052 -0.2631  0.5002 -0.6740
 3700SOL    HW222563   2.036   0.576   5.027 -0.6634 -0.6980  2.0541
 3701SOL     OW22564   0.940   4.695  12.516  0.1959 -0.3614  0.4933
 3701SOL    HW122565   0.871   4.630  12.528  0.4316 -0.8769 -0.8890
 3701SOL    HW222566   0.997   4.636  12.567 -1.0669 -2.8501 -0.9730
 3702SOL     OW22567   2.539   1.153   2.951  0.0566  0.4287  0.2290
 3702SOL    HW122568   2.568   1.212   2.882 -2.8132  0.7927 -0.6655
 3702SOL    HW222569   2.485   1.219   2.996  0.2020  0.3960  0.4548
 3703SOL     OW22570   4.467   1.307   9.038 -0.1305  0.0761 -0.4150
 3703SOL    HW122571   4.429   1.322   9.125 -2.4060  0.6367 -1.4935
 3703SOL    HW222572   4.411   1.350   8.973 -0.5095  0.9704  0.5092
 3704SOL     OW22573   3.336   2.431  12.653 -0.0455  0.3277  0.0141
 3704SOL    HW122574   3.280   2.459  12.581 -0.0448  0.8245  0.2083
 3704SOL    HW222575   3.417   2.445  12.605 -0.3784  0.2800 -0.5689
 3705SOL     OW22576   0.744   2.110   0.848  0.0705 -0.1951 -0.5862
 3705SOL    HW122577   0.818   2.135   0.904  0.6935  1.8741 -2.3399
 3705SOL    HW222578   0.765   2.019   0.829 -1.6923 -0.0538 -3.1484
 3706SOL     OW22579   0.121   0.420   2.664  0.4852 -0.4903  0.4393
 3706SOL    HW122580   0.148   0.511   2.661 -1.2539 -0.0340 -1.1098
 3706SOL    HW222581   0.157   0.385   2.582 -1.2575 -1.8157  0.2447
 3707SOL     OW22582   4.473   4.113  10.297  0.7133  0.1925  0.1287
 3707SOL    HW122583   4.482   4.081  10.387  0.3467  2.5536  1.0203
 3707SOL    HW222584   4.543   4.065  10.253  1.5035  1.1540  0.3252
 3708SOL     OW22585   4.068   3.828   5.830  0.1172  0.1161  0.0972
 3708SOL    HW122586   4.073   3.924   5.837 -0.8064  0.1196  0.7052
 3708SOL    HW222587   3.983   3.808   5.868 -0.4936  2.0213 -0.2594
 3709SOL     OW22588   0.421   3.347  15.982 -0.2832  0.3699 -0.5291
 3709SOL    HW122589   0.404   3.442  15.980  0.1918  0.5007  1.6085
 3709SOL    HW222590   0.465   3.343  16.067  0.7627 -1.2565 -1.1678
 3710SOL     OW22591   3.156   2.186   7.233 -0.3496  0.7026  0.2536
 3710SOL    HW122592   3.206   2.255   7.275 -0.1937  0.3976  0.5683
 3710SOL    HW222593   3.230   2.141   7.191 -1.3822 -1.2001  0.4535
 3711SOL     OW22594   2.283   1.650   3.777 -0.1198  0.1526  0.3160
 3711SOL    HW122595   2.352   1.617   3.835  0.9563  0.5742 -0.7320
 3711SOL    HW222596   2.207   1.645   3.836  0.6035 -0.7406  1.1788
 3712SOL     OW22597   2.217   3.571   9.263 -0.1299 -0.4833  0.1127
 3712SOL    HW122598   2.126   3.591   9.243 -0.3233 -1.7788 -0.2295
 3712SOL    HW222599   2.243   3.661   9.286  2.2689 -1.8862  2.8513
 3713SOL     OW22600   2.548   4.591   7.885 -0.6592  0.2148  0.1556
 3713SOL    HW122601   2.555   4.497   7.903 -1.8130 -0.3523 -2.4376
 3713SOL    HW222602   2.550   4.616   7.978 -0.5911 -0.0858  0.2374
 3714SOL     OW22603   2.568   4.113   4.493 -0.0754 -0.1547 -0.3222
 3714SOL    HW122604   2.583   4.188   4.550  0.7856 -0.0858 -0.6455
 3714SOL    HW222605   2.657   4.112   4.458 -0.0691 -0.5601 -0.2909
 3715SOL     OW22606   4.508   1.642   8.906 -0.3972  0.3474 -0.4063
 3715SOL    HW122607   4.549   1.646   8.820 -1.6204  0.3830 -0.9815
 3715SOL    HW222608   4.564   1.574   8.943  0.2012  0.7538 -0.5528
 3716SOL     OW22609   0.544   3.749   5.980  0.3786 -0.1090 -0.0730
 3716SOL    HW122610   0.483   3.792   6.040 -1.9453 -0.4480 -2.2472
 3716SOL    HW222611   0.484   3.684   5.945  0.6056  0.7721 -2.0697
 3717SOL     OW22612   2.635   0.566  10.814  0.1788 -0.0268 -0.2632
 3717SOL    HW122613   2.706   0.630  10.809 -0.1607  0.3462 -0.3639
 3717SOL    HW222614   2.587   0.592  10.893  2.5406  2.4169  0.3875
 3718SOL     OW22615   3.878   3.148   5.792  0.4214 -0.0736 -0.0616
 3718SOL    HW122616   3.860   3.055   5.809 -0.0096  0.2239  1.1277
 3718SOL    HW222617   3.793   3.185   5.768  0.1728  0.4069  1.5467
 3719SOL     OW22618   0.288   2.078   8.333  0.1716  0.2333 -0.7481
 3719SOL    HW122619   0.204   2.089   8.378 -0.7581 -1.4207 -2.0645
 3719SOL    HW222620   0.284   2.150   8.270  0.9668  3.1184  2.4803
 3720SOL     OW22621   2.422   0.204  17.500 -0.1368  0.7533  0.3936
 3720SOL    HW122622   2.493   0.269  17.506  1.1876 -0.5119 -1.5735
 3720SOL    HW222623   2.369   0.228  17.424 -1.1744  2.1195  1.5476
 3721SOL     OW22624   3.786   0.725  13.630 -0.1966  0.3671  0.2524
 3721SOL    HW122625   3.773   0.783  13.705  2.4755 -1.5275  2.1651
 3721SOL    HW222626   3.816   0.646  13.674  3.0847  0.7841 -1.2049
 3722SOL     OW22627   4.403   2.599   3.365  0.7970  0.1575 -0.4805
 3722SOL    HW122628   4.483   2.649   3.344 -0.1173  1.5183 -0.7294
 3722SOL    HW222629   4.378   2.570   3.277 -1.1612 -2.3427  0.9409
 3723SOL     OW22630   2.409   1.688   5.668 -0.1904 -0.2082  0.6922
 3723SOL    HW122631   2.351   1.741   5.614  0.1266  1.5090  2.0401
 3723SOL    HW222632   2.487   1.678   5.614 -0.1921 -1.2189  0.8687
 3724SOL     OW22633   3.792   0.521   4.416 -0.0943 -0.2568  0.2435
 3724SOL    HW122634   3.754   0.455   4.358  2.3705  0.9381 -2.7165
 3724SOL    HW222635   3.734   0.588   4.382  0.6804  0.3103  0.0329
 3725SOL     OW22636   2.738   2.415   5.932 -0.6174 -0.3822 -0.0338
 3725SOL    HW122637   2.775   2.381   5.851 -0.6192  0.3668 -0.3517
 3725SOL    HW222638   2.741   2.334   5.982  3.5469 -0.0538  0.2988
 3726SOL     OW22639   0.210   3.528   1.431  1.6463 -0.1796 -0.4918
 3726SOL    HW122640   0.252   3.545   1.515  1.7414  0.8048 -0.7416
 3726SOL    HW222641   0.245   3.440   1.416 -1.6161 -1.5787  0.0174
 3727SOL     OW22642   4.400   3.484   4.856 -0.0610  0.0090 -0.4856
 3727SOL    HW122643   4.365   3.440   4.779 -0.5694  0.6494 -0.6193
 3727SOL    HW222644   4.333   3.487   4.925 -1.1499  1.8535 -1.6336
 3728SOL     OW22645   3.756   3.441   7.853 -0.2686 -0.0050 -0.3664
 3728SOL    HW122646   3.818   3.479   7.915 -0.4359 -0.1830 -0.0881
 3728SOL    HW222647   3.810   3.420   7.777  2.5218  0.4052  1.4781
 3729SOL     OW22648   2.545   3.881   6.225 -0.2666 -0.0499 -0.0908
 3729SOL    HW122649   2.624   3.841   6.189 -1.5898 -1.2415 -1.6705
 3729SOL    HW222650   2.571   3.953   6.283 -1.6116  0.1307  0.3056
 3730SOL     OW22651   2.222   0.142  13.654  0.3755 -0.0541 -0.4992
 3730SOL    HW122652   2.131   0.172  13.650  0.5245  0.7375  2.0279
 3730SOL    HW222653   2.225   0.090  13.574  2.9276 -1.1880  0.3257
 3731SOL     OW22654   2.182   4.151   3.008 -0.2914 -0.2624  0.1775
 3731SOL    HW122655   2.123   4.213   3.052  2.7190  2.4277  0.4747
 3731SOL    HW222656   2.179   4.182   2.918  1.1488 -1.9698 -0.4457
 3732SOL     OW22657   3.985   0.574   5.031  0.6512  0.0233  0.2646
 3732SOL    HW122658   4.005   0.668   5.040  4.8587 -0.9669  1.3274
 3732SOL    HW222659   3.995   0.546   5.122  0.2299  0.9449  0.5942
 3733SOL     OW22660   3.144   4.024  13.349  0.0791  0.2793  0.0263
 3733SOL    HW122661   3.071   3.986  13.397  0.2583 -1.5650 -1.1417
 3733SOL    HW222662   3.095   4.105  13.332  1.6362  1.9823  3.7378
 3734SOL     OW22663   4.337   1.538   5.562  0.1293 -0.2426 -0.9000
 3734SOL    HW122664   4.342   1.452   5.521 -1.9547 -0.4125 -0.8371
 3734SOL    HW222665   4.431   1.555   5.559  0.5050 -2.1188  0.0314
 3735SOL     OW22666   4.464   0.623   0.100 -0.1274 -0.1922  0.2260
 3735SOL    HW122667   4.420   0.660   0.024  2.6729  0.5558 -1.0229
 3735SOL    HW222668   4.554   0.654   0.098 -0.6942  1.2633 -3.7806
 3736SOL     OW22669   3.920   4.430  10.579 -0.0099  0.2946 -0.0572
 3736SOL    HW122670   3.896   4.358  10.637 -1.6087 -0.7424 -2.0319
 3736SOL    HW222671   3.868   4.500  10.619 -1.8822  0.7328 -3.2379
 3737SOL     OW22672   1.797   4.343  10.255 -0.0279  0.2383 -0.0209
 3737SOL    HW122673   1.890   4.350  10.276 -0.0821  0.6725  0.0682
 3737SOL    HW222674   1.781   4.437  10.246 -0.8846  0.2122  1.2842
 3738SOL     OW22675   3.740   4.515   8.996  0.4093 -0.0039 -0.2902
 3738SOL    HW122676   3.810   4.460   8.959 -1.7266 -1.8641 -1.5262
 3738SOL    HW222677   3.766   4.503   9.088 -1.7084 -1.1738  0.1430
 3739SOL     OW22678   4.687   1.156  10.015 -0.5931  0.4324  0.4016
 3739SOL    HW122679   4.703   1.140   9.922  0.0596 -0.8340  0.7439
 3739SOL    HW222680   4.592   1.145  10.008 -0.3854 -0.0268 -1.7039
 3740SOL     OW22681   2.433   2.398   7.554 -0.5861  0.0651  0.6517
 3740SOL    HW122682   2.519   2.361   7.537 -0.5497 -0.0537  1.0948
 3740SOL    HW222683   2.434   2.463   7.484 -1.6215  2.3083  2.7263
 3741SOL     OW22684   0.009   0.308   5.336 -0.1453  0.1160  0.4459
 3741SOL    HW122685   4.696   0.254   5.266  0.1202  1.6982 -0.9134
 3741SOL    HW222686   0.050   0.239   5.388 -1.5997 -1.0108  0.0887
 3742SOL     OW22687   0.557   2.599   3.482 -0.8871 -0.0817  0.3451
 3742SOL    HW122688   0.464   2.583   3.469 -1.1788  1.4756  0.5187
 3742SOL    HW222689   0.555   2.662   3.554 -0.1012 -0.1885  0.4661
 3743SOL     OW22690   1.170   3.864  12.833  0.0854  0.4430  0.0529
 3743SOL    HW122691   1.096   3.877  12.774 -0.6267 -0.6809  0.7039
 3743SOL    HW222692   1.174   3.769  12.847  0.2972  0.2044 -1.6893
 3744SOL     OW22693   3.009   2.588   3.883  0.6554  0.4540  0.3740
 3744SOL    HW122694   3.018   2.494   3.868 -0.4233  0.4678 -0.3431
 3744SOL    HW222695   3.097   2.615   3.858  0.3973 -1.2116 -2.2804
 3745SOL     OW22696   1.716   2.256   5.151  0.5330 -0.3659  0.1277
 3745SOL    HW122697   1.721   2.352   5.158  0.3278 -0.2101 -1.8554
 3745SOL    HW222698   1.746   2.244   5.061 -1.7872 -1.1814 -0.5269
 3746SOL     OW22699   3.247   3.598   5.124  0.2793  0.1196 -0.2570
 3746SOL    HW122700   3.334   3.582   5.087 -0.5651  0.4374 -2.3779
 3746SOL    HW222701   3.274   3.678   5.168  0.4091  0.3697 -0.7857
 3747SOL     OW22702   2.707   0.826   5.896 -0.1559  0.1542  0.0351
 3747SOL    HW122703   2.671   0.751   5.849  2.0986 -0.6102 -0.4324
 3747SOL    HW222704   2.648   0.892   5.858 -2.4296 -1.6792  0.3599
 3748SOL     OW22705   3.646   2.828  11.263 -0.3775  0.4400  0.4152
 3748SOL    HW122706   3.621   2.920  11.249 -2.1210 -0.3683 -1.8094
 3748SOL    HW222707   3.578   2.805  11.326  0.8257 -0.8822  1.2329
 3749SOL     OW22708   0.712   3.397   6.139  0.3625 -0.4576 -0.0477
 3749SOL    HW122709   0.740   3.481   6.175  1.9091 -0.4694 -1.2064
 3749SOL    HW222710   0.620   3.399   6.164  0.4006  0.6511  0.0077
 3750SOL     OW22711   2.276   4.124   7.118 -0.5396 -0.2409  0.3780
 3750SOL    HW122712   2.280   4.209   7.076 -0.7872 -0.2293  0.3781
 3750SOL    HW222713   2.224   4.152   7.194 -1.3692 -0.0014 -0.2806
 3751SOL     OW22714   2.664   3.847   0.825 -0.0036  0.4206  0.1390
 3751SOL    HW122715   2.750   3.824   0.791 -0.8348 -1.2464 -0.8740
 3751SOL    HW222716   2.681   3.939   0.842 -3.0113  1.2416 -1.2775
 3752SOL     OW22717   4.142   3.355   5.519  0.0280  0.0157 -0.4749
 3752SOL    HW122718   4.184   3.438   5.497 -0.5879  0.3140 -0.5251
 3752SOL    HW222719   4.060   3.370   5.472  0.9705  1.4506 -1.6472
 3753SOL     OW22720   3.634   3.904   6.698 -0.4457 -0.2506 -0.4608
 3753SOL    HW122721   3.653   3.818   6.660 -0.5748 -0.4474 -0.0788
 3753SOL    HW222722   3.724   3.936   6.697 -0.9210  1.0807 -0.5195
 3754SOL     OW22723   4.004   1.578   3.889 -0.1094 -0.4622 -0.1683
 3754SOL    HW122724   3.977   1.638   3.959  0.5903 -0.3456  0.0018
 3754SOL    HW222725   3.945   1.503   3.896 -0.0604 -0.5185 -0.3742
 3755SOL     OW22726   0.291   0.582   8.072  0.2435 -0.4305  0.3774
 3755SOL    HW122727   0.249   0.591   7.987 -1.7563  1.0116  1.5008
 3755SOL    HW222728   0.223   0.535   8.122  0.5392  0.1219  1.3024
 3756SOL     OW22729   3.291   1.046  13.365  0.6159 -0.0565 -0.2869
 3756SOL    HW122730   3.275   1.110  13.296  0.3470  1.5147  1.2147
 3756SOL    HW222731   3.379   1.015  13.342  0.3829  0.1949 -1.4789
 3757SOL     OW22732   1.884   3.347   0.634 -0.1521  0.3459  0.1421
 3757SOL    HW122733   1.798   3.386   0.629 -0.6396 -1.2120 -3.6577
 3757SOL    HW222734   1.873   3.324   0.726 -1.8531 -0.6948 -0.3216
 3758SOL     OW22735   2.821   2.755   3.602  0.0353 -0.2992  0.0241
 3758SOL    HW122736   2.884   2.827   3.596  0.1330 -0.5331 -1.9629
 3758SOL    HW222737   2.873   2.676   3.616  0.0817 -0.2834 -0.0569
 3759SOL     OW22738   0.814   1.398  11.023  0.1167 -0.8892 -0.1480
 3759SOL    HW122739   0.748   1.360  11.081 -1.4720  1.4481 -0.3878
 3759SOL    HW222740   0.780   1.356  10.944 -0.7042  0.1686 -0.3670
 3760SOL     OW22741   2.855   3.957   1.455  0.1351 -0.7407  0.3613
 3760SOL    HW122742   2.840   3.969   1.549  1.8680 -1.3342  0.7136
 3760SOL    HW222743   2.899   3.872   1.459 -0.8591 -1.3214 -0.6930
 3761SOL     OW22744   2.471   2.684  17.644  0.0681 -0.1395  0.2023
 3761SOL    HW122745   2.459   2.673  17.549  1.5748 -0.0653 -0.0063
 3761SOL    HW222746   2.554   2.637  17.653  0.5466  0.4459 -1.1022
 3762SOL     OW22747   3.617   4.674   2.574  0.2856  0.0754  0.9379
 3762SOL    HW122748   3.625   4.705   2.664  1.1559 -1.7924  1.5137
 3762SOL    HW222749   3.586   0.025   2.522  1.3868 -2.0230 -2.6867
 3763SOL     OW22750   0.307   0.364   4.458  0.2593 -0.3628  0.5223
 3763SOL    HW122751   0.288   0.271   4.469 -0.5138 -0.4434 -1.5327
 3763SOL    HW222752   0.356   0.346   4.378 -0.7979 -0.9903  0.0271
 3764SOL     OW22753   3.251   3.280  16.199 -0.0622  0.1022  0.6890
 3764SOL    HW122754   3.277   3.228  16.122  1.2733  4.1863 -1.6490
 3764SOL    HW222755   3.212   3.360  16.165 -1.5835 -0.5194  1.0000
 3765SOL     OW22756   2.685   0.409  10.074 -0.0639  0.2645 -0.4029
 3765SOL    HW122757   2.648   0.424  10.162 -2.4721 -0.0914 -1.3439
 3765SOL    HW222758   2.604   0.388  10.028  0.3246 -0.0537 -0.9351
 3766SOL     OW22759   3.332   0.388  11.088  0.1658 -0.2563  0.4505
 3766SOL    HW122760   3.381   0.466  11.062 -0.8505  0.3641  0.3807
 3766SOL    HW222761   3.379   0.368  11.169  0.9396 -2.4077 -0.5469
 3767SOL     OW22762   1.623   1.247   2.147  0.0112  0.5135  0.2635
 3767SOL    HW122763   1.580   1.202   2.219  0.4441  1.5722  1.1789
 3767SOL    HW222764   1.548   1.248   2.087  0.7061 -1.4652 -0.6400
 3768SOL     OW22765   1.901   1.040   7.745 -0.1395 -0.2284 -0.0924
 3768SOL    HW122766   1.913   1.120   7.796  0.5405  0.3663 -1.2003
 3768SOL    HW222767   1.958   0.976   7.789 -0.8211 -1.0028 -0.3305
 3769SOL     OW22768   2.064   2.169  11.588 -0.2946 -0.2759  0.0603
 3769SOL    HW122769   2.111   2.238  11.542  0.1198 -0.4244  0.2616
 3769SOL    HW222770   1.987   2.150  11.535 -1.0499 -1.1045  1.4359
 3770SOL     OW22771   1.120   1.276   0.154  0.2220 -0.3515 -0.3116
 3770SOL    HW122772   1.125   1.186   0.125  0.3937  0.4715 -2.8081
 3770SOL    HW222773   1.065   1.248   0.228  0.2822 -1.2473 -0.6112
 3771SOL     OW22774   0.120   2.535   2.905 -0.3842  0.4098 -0.0838
 3771SOL    HW122775   0.037   2.581   2.914 -0.8688 -0.0514 -2.2796
 3771SOL    HW222776   0.161   2.615   2.871 -0.6169  0.6653  0.2398
 3772SOL     OW22777   3.605   2.872   6.284 -0.3228 -0.0456 -0.6085
 3772SOL    HW122778   3.654   2.834   6.212  0.6613 -0.7776  0.4492
 3772SOL    HW222779   3.554   2.935   6.233  0.2181  2.1796  1.6175
 3773SOL     OW22780   0.508   1.755   3.315 -0.2090  0.3792 -0.1665
 3773SOL    HW122781   0.429   1.806   3.333 -0.0414 -0.0627  1.8126
 3773SOL    HW222782   0.481   1.669   3.285 -0.4717  1.4708 -3.1450
 3774SOL     OW22783   3.688   3.148   4.416  0.1523  0.5510 -0.2231
 3774SOL    HW122784   3.729   3.062   4.405  2.8276  2.0131 -1.6138
 3774SOL    HW222785   3.618   3.121   4.475 -1.0395 -0.8641 -2.2545
 3775SOL     OW22786   3.320   2.783   8.464 -0.3790  0.3761  0.1288
 3775SOL    HW122787   3.408   2.782   8.501 -0.2123 -1.9156 -0.3525
 3775SOL    HW222788   3.274   2.785   8.548  0.8081  0.5566  0.7669
 3776SOL     OW22789   2.913   0.645   7.770 -0.1835  0.9380  0.2798
 3776SOL    HW122790   2.944   0.598   7.693  0.5021  0.7776  0.6541
 3776SOL    HW222791   2.864   0.717   7.732 -2.3766  0.4450  2.1930
 3777SOL     OW22792   0.864   3.037   5.110  0.3078  0.5530  0.3270
 3777SOL    HW122793   0.923   3.110   5.130 -0.1060  0.0022  3.5129
 3777SOL    HW222794   0.876   3.018   5.017 -0.8658  1.7336 -0.0737
 3778SOL     OW22795   1.069   0.173   7.883 -0.6089  0.1563  0.1443
 3778SOL    HW122796   1.035   0.236   7.946 -1.8711 -0.5392  0.1719
 3778SOL    HW222797   1.051   0.207   7.795 -2.4413 -0.5609  0.2352
 3779SOL     OW22798   2.738   4.539   6.082  0.4218  0.0808  0.4601
 3779SOL    HW122799   2.663   4.512   6.029  1.0095  0.6753 -0.6797
 3779SOL    HW222800   2.800   4.468   6.063 -0.9241 -1.0100  0.1276
 3780SOL     OW22801   3.955   1.890  11.436  0.2278 -0.1014 -0.0402
 3780SOL    HW122802   3.881   1.841  11.400  0.4787 -0.8902  0.5212
 3780SOL    HW222803   3.916   1.937  11.510  0.7615 -0.4602  0.4651
 3781SOL     OW22804   3.847   1.687  13.444  0.0574  0.5594  0.4908
 3781SOL    HW122805   3.883   1.611  13.398  1.1306  1.5848 -0.3759
 3781SOL    HW222806   3.922   1.745  13.426 -0.2512  1.4040  1.9917
 3782SOL     OW22807   0.808   3.434   3.001 -0.6485  0.5800 -0.1837
 3782SOL    HW122808   0.882   3.437   3.061 -1.5814 -3.1956  1.1293
 3782SOL    HW222809   0.833   3.514   2.954 -2.6181  1.6051  0.5087
 3783SOL     OW22810   3.751   1.821   9.676  0.2107 -0.0453  0.3907
 3783SOL    HW122811   3.835   1.785   9.704  0.1598 -1.5602 -1.4264
 3783SOL    HW222812   3.733   1.775   9.594  0.6465 -0.8826  0.7736
 3784SOL     OW22813   4.325   3.288   9.347  0.7382  0.2398 -0.1890
 3784SOL    HW122814   4.366   3.219   9.399 -0.0302  0.1623  0.3130
 3784SOL    HW222815   4.338   3.353   9.417  0.5519  1.7449 -1.5561
 3785SOL     OW22816   0.956   3.211  11.294 -0.0369  0.0982  0.5270
 3785SOL    HW122817   0.962   3.189  11.387 -0.5006 -0.1711  0.4944
 3785SOL    HW222818   1.014   3.287  11.295  1.3805 -0.9851  0.7270
 3786SOL     OW22819   1.416   4.290   4.894  0.2553 -0.0264  1.0920
 3786SOL    HW122820   1.401   4.378   4.859  0.0061 -1.4914 -2.4593
 3786SOL    HW222821   1.512   4.299   4.894  0.0241  2.4414  1.1330
 3787SOL     OW22822   2.919   3.187   9.298  0.3793 -0.1577  0.3749
 3787SOL    HW122823   2.863   3.127   9.345  0.8997  1.0026  2.4592
 3787SOL    HW222824   2.972   3.228   9.367  0.0329 -0.3251  0.7368
 3788SOL     OW22825   0.767   0.733   8.336  0.3536  0.2147 -0.4938
 3788SOL    HW122826   0.691   0.722   8.394  1.4820 -0.8797  0.7613
 3788SOL    HW222827   0.744   0.806   8.278  1.7557  0.8783 -0.2101
 3789SOL     OW22828   4.151   3.133   5.705  0.1919  0.2786 -0.4984
 3789SOL    HW122829   4.057   3.138   5.724  0.7806 -0.0218  2.5523
 3789SOL    HW222830   4.171   3.223   5.681 -2.6662  1.0388  0.0099
 3790SOL     OW22831   2.547   3.259   7.563 -0.6637 -0.1006  0.7051
 3790SOL    HW122832   2.550   3.348   7.529 -1.5372 -1.5060 -2.9709
 3790SOL    HW222833   2.614   3.276   7.629  0.8224  1.0200 -1.1134
 3791SOL     OW22834   0.487   2.361  16.466 -0.3648 -0.5871 -0.0944
 3791SOL    HW122835   0.464   2.369  16.374 -0.8232 -0.6038  0.0193
 3791SOL    HW222836   0.542   2.439  16.481 -0.6415 -0.1740 -1.2789
 3792SOL     OW22837   3.733   2.081   7.014 -0.0618 -0.5870  0.3574
 3792SOL    HW122838   3.709   2.083   6.921  0.5988 -0.3366  0.1902
 3792SOL    HW222839   3.756   2.170   7.039  4.4157 -1.9647  1.2192
 3793SOL     OW22840   0.792   3.360   1.663  0.0292  0.1809  0.0160
 3793SOL    HW122841   0.867   3.360   1.722  0.9904 -1.8507 -1.1831
 3793SOL    HW222842   0.830   3.422   1.600 -0.8793  1.7088  0.9802
 3794SOL     OW22843   2.516   3.490   7.450  0.0746 -0.2985  0.3864
 3794SOL    HW122844   2.574   3.561   7.479 -0.2837  0.3547 -0.4960
 3794SOL    HW222845   2.491   3.524   7.364  2.0802 -0.3839 -0.2301
 3795SOL     OW22846   0.600   4.029  12.876 -0.0165  0.5093  0.5166
 3795SOL    HW122847   0.534   3.989  12.932  1.5743 -1.1147  1.2673
 3795SOL    HW222848   0.628   4.106  12.926  3.2639  1.7845 -3.2450
 3796SOL     OW22849   1.668   0.904   1.486 -0.4347 -0.1161  0.0799
 3796SOL    HW122850   1.595   0.962   1.506  0.5521  0.6720  1.4417
 3796SOL    HW222851   1.691   0.871   1.574  1.7345 -0.3776 -0.5732
 3797SOL     OW22852   2.276   2.384  16.757 -0.8740 -0.2758  0.0679
 3797SOL    HW122853   2.252   2.476  16.753 -0.4710 -0.1326  0.8423
 3797SOL    HW222854   2.248   2.352  16.672  0.2167 -0.8334 -0.0808
 3798SOL     OW22855   1.636   4.413   3.996 -0.5661 -0.5242 -0.3192
 3798SOL    HW122856   1.588   4.475   3.941 -0.4138  0.9790  1.2467
 3798SOL    HW222857   1.722   4.453   4.009 -0.5830  0.1228 -2.3793
 3799SOL     OW22858   3.087   3.877   1.559  0.1754 -0.1118  0.3878
 3799SOL    HW122859   3.128   3.950   1.511  1.7845  0.4313  2.5835
 3799SOL    HW222860   3.113   3.800   1.509  3.0354  0.4222  1.0836
 3800SOL     OW22861   4.442   2.241   7.851  0.0812 -0.0826  0.0788
 3800SOL    HW122862   4.519   2.216   7.800  0.5904  1.8506 -0.0966
 3800SOL    HW222863   4.474   2.308   7.911  0.4775 -0.7430  0.6082
 3801SOL     OW22864   3.259   2.460  15.627 -0.0425  0.7000  0.2746
 3801SOL    HW122865   3.206   2.534  15.596 -1.9052 -0.7338  0.0515
 3801SOL    HW222866   3.210   2.426  15.702  0.4333 -1.3880 -0.3559
 3802SOL     OW22867   1.080   3.628  14.792 -0.3121 -0.2440 -0.5676
 3802SOL    HW122868   1.052   3.542  14.763  0.9323 -0.2009 -1.9332
 3802SOL    HW222869   1.039   3.628  14.878  0.4540  3.5312 -0.1823
 3803SOL     OW22870   4.559   4.429   5.265  0.1515 -0.0238 -0.3495
 3803SOL    HW122871   4.495   4.449   5.197 -1.1797 -1.9753  0.3161
 3803SOL    HW222872   4.587   4.516   5.294 -2.7897  1.0889 -0.8514
 3804SOL     OW22873   3.672   1.353  11.383  0.4011  0.1272 -0.1936
 3804SOL    HW122874   3.644   1.440  11.409 -0.0728  0.2016 -0.9422
 3804SOL    HW222875   3.629   1.352  11.297  0.1076 -0.7795 -0.0360
 3805SOL     OW22876   3.095   3.346  10.667 -0.2411  0.3976  0.3434
 3805SOL    HW122877   3.071   3.285  10.598  1.8905  1.0575 -1.0056
 3805SOL    HW222878   3.114   3.292  10.743 -0.8344 -1.4532 -0.8371
 3806SOL     OW22879   2.346   1.729   7.896 -0.8318  0.0884  0.2100
 3806SOL    HW122880   2.354   1.682   7.979 -0.6177  0.0705  0.1802
 3806SOL    HW222881   2.395   1.808   7.916 -1.5970  0.1197  1.9082
 3807SOL     OW22882   0.805   3.280   4.843 -0.0166 -0.3163  0.3033
 3807SOL    HW122883   0.796   3.306   4.752 -1.8607  0.0777  0.5922
 3807SOL    HW222884   0.801   3.365   4.887  0.5006 -0.5083  0.7286
 3808SOL     OW22885   0.417   4.171   7.920  0.6636  0.1123 -0.1343
 3808SOL    HW122886   0.455   4.256   7.941 -1.0528  0.8937 -0.1459
 3808SOL    HW222887   0.453   4.146   7.834  0.7496 -0.7020  0.1374
 3809SOL     OW22888   3.092   3.987   5.520  0.6785 -0.4458 -0.4580
 3809SOL    HW122889   3.113   3.933   5.596 -0.0880  0.3893  0.3515
 3809SOL    HW222890   3.148   4.063   5.535 -0.0843 -0.1262  0.7836
 3810SOL     OW22891   3.601   0.506   2.230 -0.1296 -0.1454 -0.4059
 3810SOL    HW122892   3.677   0.453   2.255  0.8764  1.2684 -0.4634
 3810SOL    HW222893   3.598   0.478   2.139 -0.6002  0.6825 -0.6356
 3811SOL     OW22894   0.943   2.901   2.948  0.2334 -0.4042 -0.1810
 3811SOL    HW122895   0.950   2.833   3.015 -1.0480 -1.3140 -0.9808
 3811SOL    HW222896   1.036   2.912   2.926  0.2165  0.1309  0.0123
 3812SOL     OW22897   0.164   4.108   8.479  0.1157 -0.3709 -0.3013
 3812SOL    HW122898   0.195   4.087   8.391  1.1509 -0.7023  0.1418
 3812SOL    HW222899   0.221   4.181   8.504 -2.1347  1.1464  0.4748
 3813SOL     OW22900   3.517   1.065   0.894  0.0561 -0.6315  0.1674
 3813SOL    HW122901   3.498   0.975   0.867  2.3101 -0.8010 -0.8531
 3813SOL    HW222902   3.514   1.110   0.810  1.2748  2.1926  1.6587
 3814SOL     OW22903   1.611   4.302   5.850  0.4501  0.0516 -0.6412
 3814SOL    HW122904   1.581   4.265   5.767  0.8287 -2.0108  0.1356
 3814SOL    HW222905   1.639   4.388   5.820 -1.9819  1.2898  0.6617
 3815SOL     OW22906   3.028   3.022   5.987 -0.3966 -0.2843 -0.0018
 3815SOL    HW122907   3.101   3.081   5.965 -0.2431  0.2108  1.8197
 3815SOL    HW222908   3.004   2.990   5.901 -0.0694  1.0046 -0.5769
 3816SOL     OW22909   2.268   2.264  12.625  0.0622 -0.0831 -0.1295
 3816SOL    HW122910   2.257   2.345  12.576 -0.6825  0.0350  0.2229
 3816SOL    HW222911   2.361   2.274  12.645 -0.1543  1.4990  0.0840
 3817SOL     OW22912   1.935   3.241   2.515  0.0868 -0.2958 -0.1197
 3817SOL    HW122913   1.985   3.160   2.524  0.0442 -0.0515  2.5269
 3817SOL    HW222914   1.895   3.215   2.433 -0.2047  1.2731 -0.4635
 3818SOL     OW22915   3.833   1.666  14.999 -0.7468  0.0319 -0.4575
 3818SOL    HW122916   3.896   1.616  15.052  0.0442  0.3984 -1.0547
 3818SOL    HW222917   3.862   1.757  14.997 -1.5465  0.3517  3.2502
 3819SOL     OW22918   3.266   4.202   1.912 -0.0067  0.0598  0.3081
 3819SOL    HW122919   3.203   4.132   1.895 -0.1724  0.3548 -0.2888
 3819SOL    HW222920   3.286   4.192   2.006 -1.0594 -0.0001  0.5226
 3820SOL     OW22921   3.978   2.174  11.757  0.3318 -0.0922 -0.5483
 3820SOL    HW122922   3.900   2.142  11.711 -0.6251 -1.2342  1.8860
 3820SOL    HW222923   4.030   2.094  11.748 -0.1686 -0.4240 -0.5260
 3821SOL     OW22924   1.387   0.356  12.714 -0.0875  0.0133  0.1101
 3821SOL    HW122925   1.369   0.383  12.804 -1.9885  1.9766 -0.8565
 3821SOL    HW222926   1.442   0.280  12.735  1.4595  1.2902  0.6125
 3822SOL     OW22927   0.232   4.246   8.827  0.0350  0.3518  0.1426
 3822SOL    HW122928   0.238   4.196   8.909  0.2832 -2.9140 -1.8997
 3822SOL    HW222929   0.258   4.334   8.853  1.2096 -0.1620  0.7139
 3823SOL     OW22930   3.572   0.424   3.754 -0.0461 -0.9119  0.6081
 3823SOL    HW122931   3.630   0.389   3.822  0.2997  1.2570  1.4163
 3823SOL    HW222932   3.511   0.482   3.800 -0.3638 -1.8381  1.3638
 3824SOL     OW22933   1.483   1.446   7.686  0.5969  0.0504  0.1513
 3824SOL    HW122934   1.435   1.453   7.768 -2.5325 -2.0648 -1.5271
 3824SOL    HW222935   1.447   1.365   7.652  0.3379 -0.1667  0.9549
 3825SOL     OW22936   0.616   2.861   5.152 -0.0529 -0.0506  0.7189
 3825SOL    HW122937   0.642   2.953   5.148 -1.2170  0.0518 -4.3586
 3825SOL    HW222938   0.662   2.833   5.231  3.1317  0.3823 -0.9524
 3826SOL     OW22939   4.675   3.971  14.039  0.0991 -0.4040  0.2997
 3826SOL    HW122940   4.707   3.896  13.989  0.2094 -0.4116  0.3800
 3826SOL    HW222941   4.722   4.043  13.996 -1.7955  0.4240 -0.3646
 3827SOL     OW22942   1.745   2.457   8.812 -0.1314  0.4074 -1.2371
 3827SOL    HW122943   1.755   2.378   8.760 -0.8957 -0.3805 -0.1725
 3827SOL    HW222944   1.808   2.512   8.765  0.8889 -0.6029 -1.0318
 3828SOL     OW22945   3.071   4.688  11.579  0.2071 -0.0289  0.1456
 3828SOL    HW122946   3.163   4.706  11.600 -0.1525  0.9687  0.8423
 3828SOL    HW222947   3.057   0.011  11.496 -0.2083  1.7367  1.1960
 3829SOL     OW22948   3.574   2.170   2.543  0.5668  0.8726  0.5001
 3829SOL    HW122949   3.542   2.172   2.632 -3.3383 -1.1136 -0.8793
 3829SOL    HW222950   3.494   2.163   2.491  0.8882 -0.3856  0.1794
 3830SOL     OW22951   0.913   2.950   6.456  0.2073  0.3278 -0.2163
 3830SOL    HW122952   0.917   3.036   6.498 -0.5927  0.7727 -1.0484
 3830SOL    HW222953   0.820   2.934   6.441  0.9501 -3.2124 -1.2122
 3831SOL     OW22954   3.815   3.710   1.818 -0.6344 -0.1872  0.5776
 3831SOL    HW122955   3.799   3.685   1.909 -1.2340  1.6317  0.9718
 3831SOL    HW222956   3.732   3.681   1.779 -0.3730  0.3266 -0.3539
 3832SOL     OW22957   4.615   0.028  10.273 -0.0529 -0.0424 -0.0507
 3832SOL    HW122958   4.577   4.680  10.221  1.4581 -0.9013  0.0161
 3832SOL    HW222959   4.697   4.714  10.308 -1.2048 -1.9385  0.6346
 3833SOL     OW22960   1.168   3.859   6.292  0.3527 -0.2423  0.5602
 3833SOL    HW122961   1.230   3.883   6.360 -0.0362  0.4189  0.6840
 3833SOL    HW222962   1.187   3.765   6.289  0.9921 -0.0404 -2.2642
 3834SOL     OW22963   1.260   0.608   6.304 -0.4266 -0.5190 -0.1074
 3834SOL    HW122964   1.235   0.523   6.342 -3.1523  0.4050  0.1663
 3834SOL    HW222965   1.295   0.581   6.219  1.6628 -0.6076  0.7801
 3835SOL     OW22966   3.684   1.505   9.807  0.2334 -0.4960 -0.0632
 3835SOL    HW122967   3.691   1.578   9.869 -3.5783  1.1521 -1.5806
 3835SOL    HW222968   3.607   1.537   9.761 -0.2247 -3.5238 -1.3923
 3836SOL     OW22969   1.641   1.419   3.239 -0.2903  0.3460  0.4437
 3836SOL    HW122970   1.675   1.330   3.247 -0.1407  0.4879  1.4371
 3836SOL    HW222971   1.606   1.418   3.150  1.0885  0.7000 -0.1061
 3837SOL     OW22972   3.820   3.933   3.210  0.0845  0.5523 -0.5857
 3837SOL    HW122973   3.870   3.922   3.291  0.0003 -0.6565 -0.6960
 3837SOL    HW222974   3.775   3.850   3.199  0.4498  0.1152  1.1893
 3838SOL     OW22975   2.482   2.749   0.944  0.4514 -0.3813 -0.3215
 3838SOL    HW122976   2.516   2.833   0.915 -0.7443  0.4909  0.8148
 3838SOL    HW222977   2.392   2.776   0.962  0.4310 -1.1974  0.7657
 3839SOL     OW22978   1.859   0.138   6.471 -0.6128 -0.2625 -0.6036
 3839SOL    HW122979   1.877   0.179   6.386 -0.0160  3.1038  1.1458
 3839SOL    HW222980   1.833   0.215   6.523  0.3500 -0.5783  0.3384
 3840SOL     OW22981   2.281   2.370  11.946 -0.5233 -0.2225  0.0408
 3840SOL    HW122982   2.305   2.416  11.866 -1.2086  3.6330  2.0575
 3840SOL    HW222983   2.248   2.290  11.905 -0.0104  0.7403 -2.2385
 3841SOL     OW22984   2.699   3.347   4.650 -0.1334 -0.2081 -0.4716
 3841SOL    HW122985   2.671   3.278   4.710 -0.6442 -0.7625 -1.3370
 3841SOL    HW222986   2.690   3.417   4.713 -1.0884 -0.6989 -0.0654
 3842SOL     OW22987   4.582   3.028   2.891 -0.0574  0.4131 -0.5044
 3842SOL    HW122988   4.530   3.106   2.907  1.4674  1.4017 -0.3816
 3842SOL    HW222989   4.670   3.052   2.922 -0.0320  1.1103 -1.1408
 3843SOL     OW22990   4.043   1.734  12.394 -0.2146 -0.3627 -0.1776
 3843SOL    HW122991   4.101   1.805  12.421  1.1744 -1.7031  0.4109
 3843SOL    HW222992   4.069   1.655  12.442 -0.6460  0.1342  0.8854
 3844SOL     OW22993   1.336   1.335  16.334 -0.4065  0.0567 -0.2648
 3844SOL    HW122994   1.363   1.424  16.354 -0.9591 -0.3816  2.4861
 3844SOL    HW222995   1.297   1.304  16.416  0.3772  1.7119  0.7300
 3845SOL     OW22996   1.075   1.670   3.138  0.7928 -0.2806  0.1707
 3845SOL    HW122997   1.167   1.693   3.128  0.5865  1.2963  1.8482
 3845SOL    HW222998   1.025   1.745   3.106 -1.5620 -2.4582 -1.2983
 3846SOL     OW22999   1.537   1.022   4.108 -0.6920 -0.4301  0.7168
 3846SOL    HW123000   1.483   1.091   4.070  1.2150  1.0884  0.8284
 3846SOL    HW223001   1.617   1.028   4.056 -0.6347 -2.2737  0.5666
 3847SOL     OW23002   4.678   1.539   1.831  0.2331  0.3714  0.2352
 3847SOL    HW123003   4.672   1.631   1.804  0.9984 -0.0179 -1.2746
 3847SOL    HW223004   0.050   1.532   1.834 -0.0626 -3.4011  0.6985
 3848SOL     OW23005   4.053   0.149   5.705 -0.3115 -0.5547 -0.2349
 3848SOL    HW123006   4.067   0.062   5.668 -0.4586 -1.0804  0.9395
 3848SOL    HW223007   4.106   0.156   5.784  0.7379 -1.0386 -0.9082
 3849SOL     OW23008   0.040   2.620   1.955  0.4347  0.1987 -0.4498
 3849SOL    HW123009   4.673   2.653   1.967 -0.3340 -1.8587 -0.4921
 3849SOL    HW223010   0.089   2.673   2.017  1.5663  1.1222 -2.1151
 3850SOL     OW23011   2.858   4.574  17.629 -0.5313  0.0055 -0.5998
 3850SOL    HW123012   2.874   4.529   0.019 -0.3471 -1.7526 -1.5885
 3850SOL    HW223013   2.945   4.599  17.599 -2.0841  3.2459 -2.3331
 3851SOL     OW23014   2.198   1.212   2.857 -0.1812 -0.1022  0.0022
 3851SOL    HW123015   2.214   1.124   2.823  2.4823  0.4500 -0.2305
 3851SOL    HW223016   2.239   1.267   2.789 -0.0154 -0.4683 -0.1954
 3852SOL     OW23017   1.303   3.961   5.818 -0.2641  0.0406  0.0602
 3852SOL    HW123018   1.399   3.957   5.824 -0.3210 -1.0151  0.2515
 3852SOL    HW223019   1.293   3.945   5.725  1.7743  0.7652 -0.2927
 3853SOL     OW23020   1.512   4.268  11.638 -1.1070  0.0337 -0.4442
 3853SOL    HW123021   1.599   4.294  11.608 -1.3116 -0.4171 -1.4459
 3853SOL    HW223022   1.503   4.347  11.692  2.3556 -0.2249  0.4443
 3854SOL     OW23023   4.360   2.828  17.161 -0.4518 -0.3525 -0.0507
 3854SOL    HW123024   4.413   2.872  17.095 -0.0601  1.6511  1.6050
 3854SOL    HW223025   4.277   2.814  17.114 -0.1377 -0.2440 -0.6348
 3855SOL     OW23026   1.917   0.495   2.463 -0.4717  0.1397 -0.3147
 3855SOL    HW123027   1.974   0.429   2.423  2.2286  1.4405  1.3916
 3855SOL    HW223028   1.927   0.573   2.409 -0.8769 -0.6720 -1.5612
 3856SOL     OW23029   1.306   1.067   9.259  0.0422 -0.6482  0.1324
 3856SOL    HW123030   1.240   1.089   9.192  3.1227 -1.7591 -3.2973
 3856SOL    HW223031   1.252   1.103   9.329  0.5894  2.0606 -0.8142
 3857SOL     OW23032   2.332   0.613   8.554  0.4864 -0.1586  0.5361
 3857SOL    HW123033   2.255   0.646   8.507 -0.1183 -1.7503  0.3977
 3857SOL    HW223034   2.321   0.651   8.641  1.4123 -1.4470  1.2067
 3858SOL     OW23035   0.551   4.290   5.452  0.3467 -0.5359 -0.4377
 3858SOL    HW123036   0.488   4.338   5.506  1.2271  0.8890 -0.6786
 3858SOL    HW223037   0.494   4.269   5.377  0.7171  0.9190 -1.1152
 3859SOL     OW23038   4.183   2.448  10.605  0.0969 -0.7062 -0.1170
 3859SOL    HW123039   4.093   2.439  10.637 -0.2512 -0.3118 -0.9892
 3859SOL    HW223040   4.204   2.522  10.662  0.4934  0.1018 -1.3260
 3860SOL     OW23041   2.241   0.732   8.802  0.3040  0.2787  0.2314
 3860SOL    HW123042   2.317   0.777   8.837  0.6154  0.0729 -0.1720
 3860SOL    HW223043   2.201   0.727   8.889 -0.4112 -0.8591 -0.1626
 3861SOL     OW23044   1.385   0.548   0.390 -0.3666  0.1782  0.1888
 3861SOL    HW123045   1.372   0.626   0.443 -1.2169  1.9125 -2.5593
 3861SOL    HW223046   1.384   0.478   0.456 -3.0570 -0.4528 -0.5536
 3862SOL     OW23047   3.962   3.146   1.513  0.0298  0.6996 -0.0656
 3862SOL    HW123048   3.982   3.222   1.568 -2.2924  1.3201 -0.1125
 3862SOL    HW223049   3.867   3.150   1.514 -0.0030  0.1389 -0.7029
 3863SOL     OW23050   1.112   2.751   2.748  0.5513  0.2238 -0.0419
 3863SOL    HW123051   1.163   2.831   2.759 -2.5001  2.1974 -0.5587
 3863SOL    HW223052   1.106   2.743   2.653  0.3278  1.7290 -0.1560
 3864SOL     OW23053   1.332   0.279   1.308  0.3985 -0.2573  0.5562
 3864SOL    HW123054   1.373   0.354   1.351  0.5041 -0.3731  0.6568
 3864SOL    HW223055   1.410   0.227   1.290  0.0576 -0.9517  1.0878
 3865SOL     OW23056   1.243   3.266   0.477  0.2675  0.0461 -0.0381
 3865SOL    HW123057   1.281   3.214   0.548  0.5580  0.4369  0.0944
 3865SOL    HW223058   1.193   3.201   0.428 -1.2424 -0.1193  1.6863
 3866SOL     OW23059   2.018   0.706   9.993  0.2123  0.0071  0.1008
 3866SOL    HW123060   2.030   0.713   9.898  1.0086  0.1448  0.2077
 3866SOL    HW223061   1.924   0.722  10.001  0.2148  0.3253 -0.4859
 3867SOL     OW23062   3.633   3.217  14.238 -0.2048 -0.2181 -0.0344
 3867SOL    HW123063   3.672   3.304  14.227 -0.6258  0.0409  0.5413
 3867SOL    HW223064   3.708   3.179  14.284  0.4865 -0.4874 -1.3785
 3868SOL     OW23065   4.285   1.316   4.722 -0.2723  0.0516  0.4864
 3868SOL    HW123066   4.243   1.293   4.805  2.4595  0.1844  1.9059
 3868SOL    HW223067   4.373   1.282   4.738  0.1171  0.7673 -0.1554
 3869SOL     OW23068   2.436   3.234   5.140  0.3136  0.0809 -0.2400
 3869SOL    HW123069   2.478   3.267   5.219 -0.9783 -2.2168  1.4089
 3869SOL    HW223070   2.361   3.294   5.136 -0.4569 -0.8577  0.2645
 3870SOL     OW23071   4.323   1.184   4.080 -0.1715 -0.3934 -0.0061
 3870SOL    HW123072   4.330   1.271   4.040 -1.0572  0.3053  1.3581
 3870SOL    HW223073   4.406   1.151   4.047  0.7765  3.1587 -1.1893
 3871SOL     OW23074   3.975   0.739   2.630  0.2447  0.0465 -0.7631
 3871SOL    HW123075   4.035   0.682   2.582  0.0228 -0.9660  0.1611
 3871SOL    HW223076   4.045   0.800   2.654  1.2721 -1.8125  0.9041
 3872SOL     OW23077   0.060   1.110   2.997  0.4320  0.1465  0.1734
 3872SOL    HW123078   0.084   1.173   3.065 -0.9463  1.5162 -0.5948
 3872SOL    HW223079   4.693   1.087   3.019  0.1857  0.6375 -0.3110
 3873SOL     OW23080   2.699   2.147   1.501  0.7576  0.3096 -0.8404
 3873SOL    HW123081   2.699   2.118   1.410  0.1321  0.1537 -0.7876
 3873SOL    HW223082   2.791   2.130   1.521  0.5206  1.4233  1.2450
 3874SOL     OW23083   3.960   0.372  17.508  0.2033 -0.5746 -0.0416
 3874SOL    HW123084   4.005   0.291  17.486  3.2931  0.2894  3.2345
 3874SOL    HW223085   3.915   0.352  17.590  0.5468 -0.9038  0.0663
 3875SOL     OW23086   3.908   3.658   0.592  0.8035 -0.3384  0.2594
 3875SOL    HW123087   3.938   3.655   0.501 -1.5274 -1.4535 -0.4960
 3875SOL    HW223088   3.849   3.734   0.591  3.3384  1.6084  2.0326
 3876SOL     OW23089   3.198   1.749   2.455 -0.4002 -0.1195  0.5165
 3876SOL    HW123090   3.162   1.802   2.384 -1.3130  0.3329  1.3184
 3876SOL    HW223091   3.189   1.816   2.522  1.6749 -0.1708  0.8433
 3877SOL     OW23092   4.076   2.031  10.903  0.4784  0.4921  0.9423
 3877SOL    HW123093   3.990   2.072  10.911 -0.8369 -2.0791 -0.1939
 3877SOL    HW223094   4.057   1.937  10.906 -0.4756  0.6707  0.3850
 3878SOL     OW23095   1.276   2.576   8.307  0.4445  0.5771  0.0870
 3878SOL    HW123096   1.192   2.547   8.344  0.4555  1.3822  0.7425
 3878SOL    HW223097   1.240   2.592   8.219  0.7413  0.7268 -0.0070
 3879SOL     OW23098   4.585   0.274   6.561  0.5685 -1.3609 -0.4301
 3879SOL    HW123099   4.575   0.212   6.634  0.8201 -0.1675  0.6100
 3879SOL    HW223100   4.496   0.305   6.541  0.1982 -1.4427  1.0604
 3880SOL     OW23101   0.164   4.509  14.815 -0.1576  0.3473 -0.1687
 3880SOL    HW123102   0.245   4.509  14.764 -0.7740  0.7135 -1.1476
 3880SOL    HW223103   0.156   4.595  14.857  1.4679  1.6458 -2.4737
 3881SOL     OW23104   2.670   0.080  10.069 -0.1411 -0.5009 -0.2999
 3881SOL    HW123105   2.726   0.125  10.132 -1.1742  0.2803  0.0576
 3881SOL    HW223106   2.733   0.055  10.001  1.9575  2.6714  0.5145
 3882SOL     OW23107   2.974   4.646   2.097  0.3413  0.6646 -0.2945
 3882SOL    HW123108   2.993   4.635   2.004  1.9631  0.9047  0.0101
 3882SOL    HW223109   2.898   4.591   2.115 -1.9752  3.5066 -1.3297
 3883SOL     OW23110   3.992   3.277   1.268  0.1365 -0.4005 -0.0367
 3883SOL    HW123111   3.968   3.228   1.347 -0.4318 -0.3089 -0.1540
 3883SOL    HW223112   3.984   3.369   1.293  1.0759 -0.2231 -0.4012
 3884SOL     OW23113   1.466   4.388   1.951 -0.3105  0.1813  0.4862
 3884SOL    HW123114   1.445   4.450   1.882 -3.4240 -0.2165  1.0810
 3884SOL    HW223115   1.561   4.397   1.942 -0.4423 -1.2092 -2.3799
 3885SOL     OW23116   1.368   2.659  15.022  0.6158  0.1801  0.3793
 3885SOL    HW123117   1.289   2.637  15.073  0.1550  0.8198 -0.0613
 3885SOL    HW223118   1.411   2.575  15.009 -1.0585 -0.3833 -1.4552
 3886SOL     OW23119   0.643   2.012  10.132  0.1676  0.2138  0.3384
 3886SOL    HW123120   0.732   2.046  10.128 -0.0533  0.9601  1.7281
 3886SOL    HW223121   0.607   2.074  10.068 -1.1773  0.7932  1.6478
 3887SOL     OW23122   3.987   4.131  12.133  0.0917 -0.0415 -0.2798
 3887SOL    HW123123   4.041   4.055  12.154  2.3457  1.5649 -0.3457
 3887SOL    HW223124   4.003   4.189  12.207  0.3794 -1.8816  1.1032
 3888SOL     OW23125   3.262   1.975   9.932 -0.3041 -0.4975  0.1429
 3888SOL    HW123126   3.173   1.991   9.963 -0.7435 -1.6052 -0.5115
 3888SOL    HW223127   3.290   1.891   9.968 -0.1119  0.4921  2.2615
 3889SOL     OW23128   2.855   1.997   2.044 -0.3453  0.2065  0.2323
 3889SOL    HW123129   2.798   1.937   1.995 -0.0184 -1.3350  1.7427
 3889SOL    HW223130   2.894   1.935   2.106  0.1547 -0.5063 -0.7951
 3890SOL     OW23131   1.908   0.400   7.685  0.4047 -0.4466 -0.1985
 3890SOL    HW123132   1.931   0.353   7.605 -0.2759  0.8442 -1.1623
 3890SOL    HW223133   1.937   0.489   7.665 -2.4768  0.4274 -0.5033
 3891SOL     OW23134   1.612   0.663  14.685 -0.2147 -0.0610 -0.2943
 3891SOL    HW123135   1.689   0.681  14.739  0.0182 -0.3875 -0.5182
 3891SOL    HW223136   1.555   0.630  14.754  0.4072 -1.6839 -0.5664
 3892SOL     OW23137   1.687   2.179   8.036  0.2489  0.8199 -0.3236
 3892SOL    HW123138   1.628   2.187   8.111 -0.9421 -0.3077 -1.1479
 3892SOL    HW223139   1.743   2.105   8.056  0.2304  1.3224  1.5967
 3893SOL     OW23140   0.600   0.406   5.881 -0.1381  0.0790 -0.0111
 3893SOL    HW123141   0.565   0.480   5.930  0.2225 -0.7449  1.4757
 3893SOL    HW223142   0.555   0.411   5.796 -1.1056  0.9744  0.5614
 3894SOL     OW23143   0.852   2.798   9.402  0.0296  0.6335 -0.2586
 3894SOL    HW123144   0.938   2.837   9.388 -0.3123  1.6704  0.5638
 3894SOL    HW223145   0.862   2.728   9.466 -0.4605 -1.1596 -2.1408
 3895SOL     OW23146   3.987   4.431   3.946 -0.0925 -0.8478 -0.2546
 3895SOL    HW123147   3.989   4.527   3.940  1.6029 -0.7663  1.8175
 3895SOL    HW223148   4.019   4.412   4.034  0.5764 -0.0186 -0.3156
 3896SOL     OW23149   1.991   1.341  14.982 -0.6821 -0.4743 -0.6542
 3896SOL    HW123150   1.978   1.265  14.924 -0.6267 -1.2180  0.3024
 3896SOL    HW223151   1.901   1.348  15.013 -0.4962  1.7946 -0.6691
 3897SOL     OW23152   2.906   3.085   4.739 -0.7301  0.5235 -0.5454
 3897SOL    HW123153   2.943   3.172   4.752 -3.3580  1.5303  0.1051
 3897SOL    HW223154   2.814   3.096   4.762 -0.9563 -1.5916 -0.3874
 3898SOL     OW23155   3.031   0.456  10.689 -0.1034 -0.2609  0.0203
 3898SOL    HW123156   3.009   0.543  10.721 -0.3693 -0.9181  1.6216
 3898SOL    HW223157   2.950   0.423  10.648 -0.3745 -0.5834  0.8134
 3899SOL     OW23158   0.956   2.693  11.872 -0.0618  0.1479 -0.0441
 3899SOL    HW123159   1.042   2.661  11.896 -0.0939 -0.8374 -1.2450
 3899SOL    HW223160   0.904   2.613  11.873 -0.0183  0.1293  0.5977
 3900SOL     OW23161   2.760   4.423   9.883 -0.0335 -0.2658  0.3837
 3900SOL    HW123162   2.771   4.450   9.973  0.5163 -2.2455  0.9185
 3900SOL    HW223163   2.833   4.468   9.841  0.8839 -1.1188  1.0558
 3901SOL     OW23164   0.841   3.388  17.033  0.2387  0.2072 -0.6025
 3901SOL    HW123165   0.824   3.344  16.950  0.6098 -1.9673  0.4943
 3901SOL    HW223166   0.851   3.478  17.002 -0.6412  1.3549  2.4672
 3902SOL     OW23167   1.514   2.071   4.161  0.1467 -0.0380  0.1578
 3902SOL    HW123168   1.591   2.075   4.105  0.4406 -3.6376  0.3128
 3902SOL    HW223169   1.454   2.041   4.092  1.9787 -0.1193 -1.3989
 3903SOL     OW23170   2.096   4.519  16.976 -0.4270  0.1118 -0.6438
 3903SOL    HW123171   2.179   4.489  16.937 -0.5287 -0.2823 -0.5524
 3903SOL    HW223172   2.061   4.439  17.015  0.7110  0.2703  0.7042
 3904SOL     OW23173   0.883   2.387   0.684 -0.3422 -0.2924 -0.1524
 3904SOL    HW123174   0.972   2.383   0.649 -1.3381 -0.0372 -2.7038
 3904SOL    HW223175   0.879   2.472   0.730  0.0031 -0.7158  0.6592
 3905SOL     OW23176   2.706   0.031  16.790 -0.1841 -0.0182  0.2261
 3905SOL    HW123177   2.670   0.006  16.705 -1.4135 -1.7012  1.2439
 3905SOL    HW223178   2.783   4.697  16.791  0.4138  0.7912 -2.3404
 3906SOL     OW23179   1.298   3.299  12.852  0.2748  0.1246 -0.0360
 3906SOL    HW123180   1.289   3.379  12.904  0.0299 -0.5074  0.8869
 3906SOL    HW223181   1.233   3.256  12.906 -0.7982  0.7391 -0.8415
 3907SOL     OW23182   2.151   2.166  16.930  0.2665  0.9309 -0.0417
 3907SOL    HW123183   2.197   2.099  16.878 -1.1319  1.2245 -1.6353
 3907SOL    HW223184   2.157   2.241  16.871  1.0197  0.4455 -0.5895
 3908SOL     OW23185   4.610   1.843   5.197  0.2992  0.2724 -0.3599
 3908SOL    HW123186   4.620   1.820   5.290 -2.7437  2.4212  0.5139
 3908SOL    HW223187   4.685   1.795   5.163 -0.5843  0.4111 -2.4942
 3909SOL     OW23188   4.664   3.397   4.801 -0.3652  0.5713  0.3845
 3909SOL    HW123189   4.589   3.453   4.819 -0.2630  0.6479  0.5626
 3909SOL    HW223190   4.669   3.364   4.890  0.4654  0.0543  0.1463
 3910SOL     OW23191   1.195   1.078   3.521 -0.2753  0.4210 -0.4349
 3910SOL    HW123192   1.145   1.041   3.594  1.2668 -1.3567 -0.2775
 3910SOL    HW223193   1.132   1.060   3.451 -2.1538  0.5671  1.2323
 3911SOL     OW23194   3.137   3.760   6.960 -0.0616  0.3876  0.5743
 3911SOL    HW123195   3.061   3.759   6.902  1.1451  1.7849 -1.0277
 3911SOL    HW223196   3.210   3.753   6.899  0.2496 -0.5318  1.0582
 3912SOL     OW23197   1.530   2.459   6.399 -0.2424  0.2062 -0.0018
 3912SOL    HW123198   1.484   2.447   6.316 -0.2210  1.0990 -0.1378
 3912SOL    HW223199   1.604   2.506   6.361 -0.1232  0.3381  0.3970
 3913SOL     OW23200   0.414   4.398   8.299 -0.0772  0.4138 -0.2030
 3913SOL    HW123201   0.324   4.370   8.283 -0.5974  1.7538  0.3641
 3913SOL    HW223202   0.418   4.401   8.394 -1.4048  1.2627 -0.1695
 3914SOL     OW23203   1.616   2.245   5.641 -0.3724 -0.4719  0.6637
 3914SOL    HW123204   1.670   2.307   5.592 -1.7645  0.7443  0.7033
 3914SOL    HW223205   1.581   2.197   5.566 -0.1263  1.1673 -0.5041
 3915SOL     OW23206   4.525   2.301   4.577 -0.3092  0.3765  0.5227
 3915SOL    HW123207   4.463   2.327   4.509  0.3493  1.5765  0.3655
 3915SOL    HW223208   4.474   2.299   4.658 -3.2078 -2.6081 -1.3714
 3916SOL     OW23209   2.372   1.919  11.704 -0.2900 -0.3559  0.0110
 3916SOL    HW123210   2.465   1.898  11.716 -0.8081 -2.5786  0.0281
 3916SOL    HW223211   2.344   1.858  11.637  0.9511 -1.1788  0.2405
 3917SOL     OW23212   0.875   2.799   2.040  0.5393  0.2891 -0.1012
 3917SOL    HW123213   0.780   2.808   2.027  0.4042 -0.1133  0.6072
 3917SOL    HW223214   0.909   2.839   1.960 -0.5612 -0.9614 -1.2114
 3918SOL     OW23215   3.280   1.172  15.102  0.2977  0.0014 -0.2421
 3918SOL    HW123216   3.311   1.113  15.035 -1.1597 -0.3064 -0.6513
 3918SOL    HW223217   3.187   1.168  15.078  0.8148  0.4919 -2.3008
 3919SOL     OW23218   2.181   0.481   7.689  0.1905 -0.0258 -0.2385
 3919SOL    HW123219   2.259   0.486   7.634 -1.1451 -0.5303 -2.2077
 3919SOL    HW223220   2.170   0.389   7.713  0.7455 -0.6265 -2.2310
 3920SOL     OW23221   2.388   2.952   6.243  0.4532  0.3533  0.2777
 3920SOL    HW123222   2.338   3.033   6.254  1.1631  0.6228  1.4544
 3920SOL    HW223223   2.479   2.970   6.264  0.2860  3.0329 -1.3235
 3921SOL     OW23224   0.087   3.788  14.650  0.0063 -0.5405 -0.3537
 3921SOL    HW123225   0.065   3.773  14.558 -0.9132 -0.2432 -0.1767
 3921SOL    HW223226   0.011   3.744  14.687 -0.0765 -1.9670 -2.2321
 3922SOL     OW23227   3.675   3.633   2.487 -0.0121 -0.4152 -0.9754
 3922SOL    HW123228   3.600   3.652   2.543  2.1309 -1.4889  2.3185
 3922SOL    HW223229   3.671   3.537   2.492  1.5025 -0.4246  0.3642
 3923SOL     OW23230   4.670   1.453   4.075  0.6524  0.2748 -0.1488
 3923SOL    HW123231   0.015   1.504   4.121  0.9679  1.5789 -2.0440
 3923SOL    HW223232   4.656   1.379   4.134  1.1755 -0.0979 -0.4936
 3924SOL     OW23233   0.375   2.906  14.519 -0.3513  0.5108  0.1867
 3924SOL    HW123234   0.288   2.941  14.500  0.1950  0.2520 -2.7241
 3924SOL    HW223235   0.420   2.963  14.456 -1.0215  0.2695 -0.5011
 3925SOL     OW23236   1.989   4.656  13.704 -0.1706  0.2944 -0.1795
 3925SOL    HW123237   2.037   4.674  13.784 -0.6967  1.0036 -0.0273
 3925SOL    HW223238   1.900   4.653  13.741 -1.2576  2.0595 -2.6983
 3926SOL     OW23239   4.623   2.308   3.452  0.0462 -0.4549  0.0499
 3926SOL    HW123240   4.615   2.336   3.361 -1.0095 -2.5760 -0.5002
 3926SOL    HW223241   4.546   2.251   3.450  1.4812 -2.3782 -1.1998
 3927SOL     OW23242   3.011   1.621   2.621 -0.0220 -0.0025 -0.0428
 3927SOL    HW123243   2.991   1.529   2.602  0.1367 -0.4158  1.7190
 3927SOL    HW223244   3.076   1.640   2.554  1.1650  3.3233  2.0278
 3928SOL     OW23245   4.626   3.600  11.178  0.0536  0.9272  0.2936
 3928SOL    HW123246   4.657   3.586  11.088 -2.2869  0.1540 -0.3935
 3928SOL    HW223247   4.703   3.644  11.216  1.1990 -0.4109 -0.4689
 3929SOL     OW23248   3.659   1.155  15.976  0.6190  0.4431 -0.4575
 3929SOL    HW123249   3.668   1.076  15.922  1.1330  0.4748 -0.4222
 3929SOL    HW223250   3.673   1.219  15.906 -0.5796 -0.2560 -1.3362
 3930SOL     OW23251   1.879   2.788   5.265 -0.1931  0.3969  0.4439
 3930SOL    HW123252   1.804   2.846   5.278  0.8061  1.5898  0.9131
 3930SOL    HW223253   1.922   2.793   5.350  1.1161  2.0669 -0.3177
 3931SOL     OW23254   1.331   3.532  15.032  0.0482  0.1750 -0.0659
 3931SOL    HW123255   1.239   3.552  15.019 -0.1498 -0.6406  0.0891
 3931SOL    HW223256   1.350   3.598  15.099  1.7985  0.3067 -0.6674
 3932SOL     OW23257   4.719   0.962   6.217  0.2896 -0.1035 -0.3826
 3932SOL    HW123258   0.044   0.927   6.292 -0.1826 -1.3284 -0.6586
 3932SOL    HW223259   4.639   0.914   6.235  0.0451  0.3786 -0.1977
 3933SOL     OW23260   2.849   1.786   9.421 -0.3388 -0.2226 -0.3095
 3933SOL    HW123261   2.801   1.786   9.338 -0.2075 -0.1454 -0.3843
 3933SOL    HW223262   2.869   1.878   9.436 -0.5381  0.0303 -1.6050
 3934SOL     OW23263   1.538   0.383   6.385  0.1834 -0.1840 -0.2579
 3934SOL    HW123264   1.480   0.343   6.450 -1.3515  0.3288 -1.3177
 3934SOL    HW223265   1.501   0.349   6.304  0.2632 -0.5423 -0.1422
 3935SOL     OW23266   3.538   3.155   3.672  0.3036 -0.7200  0.4275
 3935SOL    HW123267   3.550   3.247   3.696 -2.3051 -0.6495  1.4599
 3935SOL    HW223268   3.614   3.143   3.614 -0.8899  0.7376 -1.4485
 3936SOL     OW23269   2.385   1.026  15.956 -0.2201 -0.1807  0.2316
 3936SOL    HW123270   2.360   1.112  15.923  0.5722 -0.0780 -0.0937
 3936SOL    HW223271   2.353   0.968  15.887 -2.1334 -0.4953  1.3677
 3937SOL     OW23272   3.618   0.196   9.470  0.4195 -0.1263 -0.3565
 3937SOL    HW123273   3.619   0.122   9.530 -1.1635 -1.2046 -1.6677
 3937SOL    HW223274   3.710   0.191   9.445  0.7623 -1.4269  1.1953
 3938SOL     OW23275   2.843   4.327   8.590 -0.3710  0.3689 -0.1444
 3938SOL    HW123276   2.781   4.399   8.600 -1.5743 -0.0295 -4.9061
 3938SOL    HW223277   2.857   4.352   8.499  0.0591 -1.4011 -0.5694
 3939SOL     OW23278   0.238   1.918   3.420 -0.2178  0.1618 -0.2342
 3939SOL    HW123279   0.179   1.983   3.459  0.0067  0.2973 -0.1230
 3939SOL    HW223280   0.184   1.892   3.345  0.9963 -1.8895 -0.3989
 3940SOL     OW23281   4.691   1.343   5.462 -0.0774  0.0145  0.3966
 3940SOL    HW123282   4.668   1.396   5.538 -0.1806 -1.2455  1.2438
 3940SOL    HW223283   0.025   1.280   5.507 -0.7114 -0.4672  0.5264
 3941SOL     OW23284   4.221   1.359   6.545 -0.4051 -0.3009 -0.2442
 3941SOL    HW123285   4.314   1.371   6.566 -0.6324  1.2462 -0.1150
 3941SOL    HW223286   4.224   1.342   6.451 -0.2608 -1.1547 -0.0855
 3942SOL     OW23287   1.019   3.882  15.202 -0.5547  0.6192 -0.0999
 3942SOL    HW123288   1.052   3.971  15.191 -1.2278  1.0120  1.0063
 3942SOL    HW223289   0.943   3.892  15.261  0.1487 -0.5596  1.0096
 3943SOL     OW23290   0.319   1.346   4.211  0.1097 -0.5211  0.0077
 3943SOL    HW123291   0.304   1.288   4.286  0.2235 -0.2639  0.2282
 3943SOL    HW223292   0.270   1.425   4.234 -0.4670 -1.0697  0.6921
 3944SOL     OW23293   3.194   1.334  15.912 -0.1434  0.5514 -0.1230
 3944SOL    HW123294   3.279   1.310  15.876 -1.5510 -2.1005 -1.6876
 3944SOL    HW223295   3.221   1.416  15.955  0.2033  1.0602 -1.3244
 3945SOL     OW23296   3.947   0.387   7.740  0.2409 -0.0357  0.1613
 3945SOL    HW123297   3.949   0.329   7.816 -1.4429  2.1409  1.8482
 3945SOL    HW223298   3.893   0.457   7.774 -0.4172 -0.2705 -0.4012
 3946SOL     OW23299   2.283   4.187   4.126 -0.1096  0.2143 -0.3284
 3946SOL    HW123300   2.342   4.122   4.162 -1.7388 -1.7337 -1.2017
 3946SOL    HW223301   2.265   4.152   4.038  1.1175  0.2684 -0.5988
 3947SOL     OW23302   0.647   0.051   7.322 -0.0382 -0.9655 -0.3568
 3947SOL    HW123303   0.592   0.007   7.388 -1.2979  1.4794  0.2342
 3947SOL    HW223304   0.652   0.133   7.371  1.3992 -0.0363 -2.0838
 3948SOL     OW23305   3.095   4.383   4.170  0.1995  0.2660  0.0595
 3948SOL    HW123306   3.157   4.328   4.219  0.7604  0.2538 -0.6628
 3948SOL    HW223307   3.032   4.410   4.237  1.0147  0.1722  0.8752
 3949SOL     OW23308   4.126   4.134   9.040  0.5201  0.0324  0.4167
 3949SOL    HW123309   4.074   4.054   9.033 -2.6187  2.0752  0.3572
 3949SOL    HW223310   4.101   4.167   9.126 -1.9483  2.0293 -1.0857
 3950SOL     OW23311   1.981   0.504   5.897 -0.2976  0.8326 -0.0224
 3950SOL    HW123312   1.966   0.461   5.813 -0.5677 -2.4046  1.6706
 3950SOL    HW223313   1.926   0.452   5.956 -0.0880 -0.6727 -1.1435
 3951SOL     OW23314   4.229   3.162   4.334 -0.1626  0.3089 -0.5717
 3951SOL    HW123315   4.259   3.092   4.277 -2.3835 -0.7680 -0.4231
 3951SOL    HW223316   4.314   3.190   4.367 -0.1520  1.4142 -1.5110
 3952SOL     OW23317   0.401   2.171   2.986 -0.2557  0.4848  0.2380
 3952SOL    HW123318   0.374   2.192   3.075 -0.5790 -0.5864  0.3940
 3952SOL    HW223319   0.371   2.240   2.926  0.0580  1.1001  0.7927
 3953SOL     OW23320   4.634   4.564   0.914 -0.4495  0.2240  0.2229
 3953SOL    HW123321   4.598   4.514   0.987 -2.2072  0.6441 -0.3311
 3953SOL    HW223322   4.570   4.634   0.898 -0.4711 -0.1934 -1.5169
 3954SOL     OW23323   0.794   4.234   7.793 -0.8414 -1.1053  0.3750
 3954SOL    HW123324   0.829   4.171   7.856  0.8729  0.6281  1.1649
 3954SOL    HW223325   0.828   4.320   7.818 -1.5707 -0.4463 -0.8836
 3955SOL     OW23326   1.763   2.705  16.769  0.2613 -0.0457 -0.4721
 3955SOL    HW123327   1.727   2.640  16.829 -0.6415 -1.2988 -2.3456
 3955SOL    HW223328   1.783   2.650  16.693 -1.3148  1.2922 -1.8734
 3956SOL     OW23329   4.624   4.318  17.570  0.1131 -0.0819  0.1086
 3956SOL    HW123330   4.581   4.244  17.613  1.4946 -0.7263  0.3439
 3956SOL    HW223331   4.700   4.333  17.626  1.1008 -0.2262 -1.2213
 3957SOL     OW23332   3.704   3.060   6.477  0.0102 -0.2740  0.4765
 3957SOL    HW123333   3.619   3.023   6.498  1.2666 -4.0343 -1.0253
 3957SOL    HW223334   3.726   3.021   6.392  0.6491  2.3446 -0.5635
 3958SOL     OW23335   0.244   0.056  10.223 -0.0054  0.4393 -0.8810
 3958SOL    HW123336   0.212   4.718  10.156  1.1799 -0.6362 -0.4551
 3958SOL    HW223337   0.197   0.031  10.302  0.4395  2.1957 -0.0569
 3959SOL     OW23338   2.241   3.166   7.547  0.5642 -0.3583 -0.1593
 3959SOL    HW123339   2.196   3.164   7.463  1.5331 -0.3981 -0.6856
 3959SOL    HW223340   2.330   3.193   7.523 -0.2854  2.0048 -0.6255
 3960SOL     OW23341   2.372   2.370   2.716  0.1469 -0.1278  0.4047
 3960SOL    HW123342   2.295   2.338   2.669 -0.2498  0.4987  0.6206
 3960SOL    HW223343   2.341   2.382   2.806 -0.1146 -2.9090  0.7023
 3961SOL     OW23344   0.752   2.927   9.195 -0.4066 -0.3661 -0.1612
 3961SOL    HW123345   0.761   2.866   9.267  0.2005  0.3414  0.3671
 3961SOL    HW223346   0.741   2.867   9.122  0.4735  1.2812 -1.6728
 3962SOL     OW23347   3.274   2.307   2.653  0.0268 -0.2304 -0.1428
 3962SOL    HW123348   3.345   2.259   2.697 -1.5789 -2.6699 -0.2086
 3962SOL    HW223349   3.295   2.280   2.564  1.0076 -0.8003  0.2496
 3963SOL     OW23350   1.522   0.384   3.807 -0.0460 -0.2930  0.0937
 3963SOL    HW123351   1.548   0.303   3.765  0.9186  1.5129 -2.7769
 3963SOL    HW223352   1.508   0.352   3.897  1.3982 -0.8888  0.1066
 3964SOL     OW23353   3.235   1.394   0.990 -0.1004  0.6177 -0.5518
 3964SOL    HW123354   3.286   1.408   0.909 -3.6240  1.8007 -2.5562
 3964SOL    HW223355   3.302   1.353   1.045  1.3536  0.7025 -2.2600
 3965SOL     OW23356   3.203   4.234   5.584 -0.0235  0.1377 -0.4955
 3965SOL    HW123357   3.296   4.238   5.564 -0.0448  0.5365 -0.5134
 3965SOL    HW223358   3.210   4.283   5.666  1.5299 -2.1206  0.7122
 3966SOL     OW23359   1.572   4.577   9.027 -0.2932  0.0784  0.5743
 3966SOL    HW123360   1.583   4.557   8.934 -0.2946  1.8323  0.2022
 3966SOL    HW223361   1.553   4.491   9.065 -2.9423 -0.1804 -1.3697
 3967SOL     OW23362   2.788   4.430  12.215  0.1371  0.5679  0.2144
 3967SOL    HW123363   2.777   4.487  12.139  1.8573  0.7431  0.1030
 3967SOL    HW223364   2.723   4.469  12.273 -0.0606 -0.3386  0.6034
 3968SOL     OW23365   1.459   2.911   5.641  0.1516  0.4216 -0.3591
 3968SOL    HW123366   1.545   2.924   5.681 -0.2181 -0.2124  0.6582
 3968SOL    HW223367   1.407   2.924   5.720 -1.3574  0.5118 -1.3732
 3969SOL     OW23368   2.095   2.605  17.053 -0.1448  0.5024  0.3685
 3969SOL    HW123369   2.135   2.583  16.969 -0.6268  1.4070 -0.1010
 3969SOL    HW223370   2.034   2.532  17.062  0.7540 -0.0563  1.7887
 3970SOL     OW23371   2.737   3.645   6.178 -0.2562  0.7598 -0.2276
 3970SOL    HW123372   2.708   3.597   6.256 -0.8413  2.5906  0.6769
 3970SOL    HW223373   2.702   3.587   6.110  2.8273 -0.5792 -0.6798
 3971SOL     OW23374   4.116   4.662   2.181  0.5620  0.2609 -0.7042
 3971SOL    HW123375   4.033   4.633   2.141 -0.6689 -0.1359  2.1548
 3971SOL    HW223376   4.098   0.029   2.206 -0.1748  0.4693 -1.9861
 3972SOL     OW23377   3.964   0.145   2.641  0.0454 -0.8715  0.0518
 3972SOL    HW123378   4.059   0.156   2.640 -0.3011  2.0519 -2.0575
 3972SOL    HW223379   3.961   0.050   2.648 -0.6394 -0.8267  0.4344
 3973SOL     OW23380   1.070   1.403   3.157 -0.1420 -0.1562 -0.2372
 3973SOL    HW123381   1.162   1.401   3.130 -0.6216 -1.0543 -1.7803
 3973SOL    HW223382   1.053   1.497   3.158  2.0905  0.2502  0.3460
 3974SOL     OW23383   2.302   0.872   4.280 -0.0660 -0.2266  0.0379
 3974SOL    HW123384   2.258   0.824   4.209  0.9468 -0.4504 -0.4487
 3974SOL    HW223385   2.362   0.927   4.229  0.2292 -0.5945 -0.0102
 3975SOL     OW23386   1.904   2.656   5.777 -0.3407  0.1255 -0.5757
 3975SOL    HW123387   1.969   2.687   5.840 -0.2188 -0.4681 -0.4109
 3975SOL    HW223388   1.867   2.578   5.819 -0.4920  1.1176  1.1414
 3976SOL     OW23389   0.704   2.206   7.385  0.2840 -0.7253 -0.6054
 3976SOL    HW123390   0.796   2.227   7.368 -0.2262  1.2171 -0.9577
 3976SOL    HW223391   0.665   2.293   7.387 -0.8201 -1.2588  0.6409
 3977SOL     OW23392   2.761   2.944  15.289 -0.5542 -0.3153  0.5904
 3977SOL    HW123393   2.848   2.915  15.318 -0.3435 -1.2786 -0.9713
 3977SOL    HW223394   2.693   2.917  15.350 -2.8186  0.2702 -1.6708
 3978SOL     OW23395   0.473   2.647   5.217  0.2966 -0.0465  0.6466
 3978SOL    HW123396   0.513   2.734   5.211  1.4827 -0.5302  1.4927
 3978SOL    HW223397   0.489   2.615   5.128  0.5882  0.8218  0.3836
 3979SOL     OW23398   2.413   0.385   0.931 -0.6000 -0.1373  0.2291
 3979SOL    HW123399   2.362   0.397   1.011  2.9364  3.3330  1.9725
 3979SOL    HW223400   2.502   0.412   0.954  0.3393 -1.0093 -2.4224
 3980SOL     OW23401   2.294   2.046   8.228  0.2286 -0.4333 -0.4121
 3980SOL    HW123402   2.340   2.105   8.287  1.5191 -1.6592 -0.1933
 3980SOL    HW223403   2.364   1.981   8.230 -0.4754 -1.1678  0.2063
 3981SOL     OW23404   1.840   0.086   5.277  0.4653  0.1134 -0.3748
 3981SOL    HW123405   1.932   0.110   5.266  0.6683 -0.7109 -0.4942
 3981SOL    HW223406   1.793   0.146   5.218 -0.3406 -1.1463 -1.0215
 3982SOL     OW23407   3.197   3.086   5.584  0.3694  0.0870 -0.1288
 3982SOL    HW123408   3.292   3.077   5.581  0.3558 -0.6973  1.9751
 3982SOL    HW223409   3.177   3.123   5.670 -1.1843  1.0543 -0.9049
 3983SOL     OW23410   4.439   3.100   0.260  0.1911 -0.3907 -0.4828
 3983SOL    HW123411   4.432   3.013   0.300 -1.4333 -0.0121  0.0274
 3983SOL    HW223412   4.349   3.129   0.246 -0.0253 -1.1335 -0.6175
 3984SOL     OW23413   0.481   4.136  14.865  0.3843  0.4228  0.1323
 3984SOL    HW123414   0.393   4.169  14.883 -0.2600  0.3234 -2.8145
 3984SOL    HW223415   0.457   4.049  14.833 -0.2917 -0.1783  2.2273
 3985SOL     OW23416   4.614   2.672   3.005 -0.0583  0.2467  0.0549
 3985SOL    HW123417   4.665   2.749   3.032  0.1660  0.3626 -0.7113
 3985SOL    HW223418   4.542   2.679   3.068 -2.3030  3.1345 -2.8445
 3986SOL     OW23419   2.691   3.935  11.597  0.2389  0.0718 -0.8524
 3986SOL    HW123420   2.757   3.923  11.665 -0.3399 -1.0420 -0.4870
 3986SOL    HW223421   2.625   3.871  11.625 -0.4977  0.8428 -0.8219
 3987SOL     OW23422   1.022   0.573   2.118 -0.0144 -0.1496  0.0026
 3987SOL    HW123423   1.009   0.630   2.043 -0.0007 -1.3444 -0.9012
 3987SOL    HW223424   0.955   0.505   2.125  2.8419 -2.8721  0.8774
 3988SOL     OW23425   3.287   4.263   4.318 -0.0264  0.2039  0.1749
 3988SOL    HW123426   3.234   4.216   4.382 -0.6007  2.3161  1.2661
 3988SOL    HW223427   3.370   4.218   4.328 -0.4504  0.0733  3.2010
 3989SOL     OW23428   4.632   4.440  10.871  0.2041  0.2380 -0.8568
 3989SOL    HW123429   4.565   4.417  10.806 -1.1941  1.4759  0.1246
 3989SOL    HW223430   4.621   4.375  10.941  1.5951  1.8469  0.8424
 3990SOL     OW23431   1.533   4.167   1.676  0.3062  0.3998  0.5158
 3990SOL    HW123432   1.526   4.241   1.616  2.6753 -1.1677 -1.6959
 3990SOL    HW223433   1.627   4.148   1.665  0.4916  0.3256  2.1976
 3991SOL     OW23434   1.561   1.332   5.934  0.2102 -0.1134  0.4476
 3991SOL    HW123435   1.571   1.237   5.933  0.2691 -0.0994 -0.2490
 3991SOL    HW223436   1.479   1.327   5.983 -0.8809  0.9553 -1.2921
 3992SOL     OW23437   1.910   4.093   6.321 -0.4016 -0.0506 -0.2371
 3992SOL    HW123438   1.978   4.104   6.254  1.4522 -1.2470  1.4704
 3992SOL    HW223439   1.897   4.186   6.343  0.6230  0.0775 -0.1913
 3993SOL     OW23440   0.481   4.351   0.427  0.8869 -0.0234  0.1857
 3993SOL    HW123441   0.433   4.433   0.439  3.6206  1.4463  0.9909
 3993SOL    HW223442   0.453   4.310   0.509  1.1510  1.3812  0.9822
 3994SOL     OW23443   2.705   0.366  15.634  0.4090  0.2113 -0.8554
 3994SOL    HW123444   2.740   0.278  15.647  0.1315  0.3257  0.6406
 3994SOL    HW223445   2.742   0.378  15.546  2.8792 -1.4306 -0.0371
 3995SOL     OW23446   3.766   4.587   8.013 -0.5921  0.3310  0.3625
 3995SOL    HW123447   3.778   4.594   7.918 -0.2942  3.4049  0.6298
 3995SOL    HW223448   3.835   4.521   8.024  0.1175  0.9283 -0.5314
 3996SOL     OW23449   3.180   0.515   9.557  0.5574 -0.5171  0.3422
 3996SOL    HW123450   3.190   0.419   9.561  1.2431 -0.3952  1.5700
 3996SOL    HW223451   3.269   0.542   9.579 -0.1110  1.2171  0.8907
 3997SOL     OW23452   3.531   4.349   0.305  0.0174  0.6343 -0.0024
 3997SOL    HW123453   3.612   4.395   0.284 -1.3554  2.0257 -2.1545
 3997SOL    HW223454   3.468   4.410   0.268 -1.5594 -0.8296  0.2582
 3998SOL     OW23455   4.615   4.720   7.750 -0.1140  0.2852  0.2698
 3998SOL    HW123456   4.684   4.662   7.782 -2.3088 -1.9655  0.9160
 3998SOL    HW223457   4.649   0.014   7.662 -1.5483  0.9949 -0.1594
 3999SOL     OW23458   2.742   1.054   9.053  0.5010  0.4525 -0.0585
 3999SOL    HW123459   2.760   1.140   9.014  0.2913  1.7436  2.6912
 3999SOL    HW223460   2.718   1.079   9.142  0.9661 -1.0230  0.4721
 4000SOL     OW23461   3.543   4.523   7.082  0.7580  0.6380 -0.8375
 4000SOL    HW123462   3.493   4.603   7.072  1.0825  1.0019  0.4370
 4000SOL    HW223463   3.600   4.525   7.005  0.3387  1.1087 -1.1334
 4001SOL     OW23464   1.356   4.584  15.568 -0.3336 -0.0783  0.1025
 4001SOL    HW123465   1.312   4.528  15.505  1.3790 -2.0406  0.6521
 4001SOL    HW223466   1.284   4.594  15.630 -0.0998 -0.4713  0.4391
 4002SOL     OW23467   0.064   3.110   3.342  0.3388 -0.5546  0.1035
 4002SOL    HW123468   0.085   3.150   3.258  0.0771 -0.2890  0.1621
 4002SOL    HW223469   0.127   3.040   3.361  0.3171 -0.6465 -0.1690
 4003SOL     OW23470   1.044   3.640  15.108 -0.9475  0.2311  0.1657
 4003SOL    HW123471   0.949   3.629  15.119 -0.9464  0.4601  0.4046
 4003SOL    HW223472   1.055   3.724  15.153 -1.7553  0.3467  0.1539
 4004SOL     OW23473   0.586   3.239   6.684  0.6399 -0.3637 -0.1165
 4004SOL    HW123474   0.530   3.317   6.686 -0.1109 -0.9194  0.3632
 4004SOL    HW223475   0.611   3.226   6.593  0.1495 -0.2980 -0.2612
 4005SOL     OW23476   0.212   0.383   1.240  0.2365  0.0095  0.5055
 4005SOL    HW123477   0.291   0.362   1.291 -0.2897  2.2651  2.2129
 4005SOL    HW223478   0.219   0.478   1.241  3.6319 -0.2189  0.7568
 4006SOL     OW23479   0.704   1.930   4.836  0.2380 -0.0608 -0.1365
 4006SOL    HW123480   0.703   2.026   4.837 -0.7268 -0.0697  0.0514
 4006SOL    HW223481   0.721   1.914   4.744 -0.2827  0.7977 -0.3792
 4007SOL     OW23482   0.263   4.241   3.517  0.2145 -0.2059  0.4677
 4007SOL    HW123483   0.205   4.177   3.560 -2.0331  0.9529 -0.8144
 4007SOL    HW223484   0.221   4.321   3.551  3.0057  1.7791 -0.8043
 4008SOL     OW23485   0.540   4.722   5.650 -0.0247  0.0327  0.4900
 4008SOL    HW123486   0.591   0.062   5.702 -0.4495 -1.0851  2.2728
 4008SOL    HW223487   0.601   4.657   5.616 -0.6812  0.3487 -1.2708
 4009SOL     OW23488   0.395   2.553   7.027 -0.5658 -0.6283 -0.7156
 4009SOL    HW123489   0.376   2.521   6.938 -1.5373 -0.0091 -0.7311
 4009SOL    HW223490   0.480   2.510   7.039 -0.5590 -0.2595  0.5740
 4010SOL     OW23491   0.394   0.182   5.081  0.7745  0.2034 -0.0162
 4010SOL    HW123492   0.373   0.262   5.130 -0.2937 -0.4652  0.6251
 4010SOL    HW223493   0.445   0.219   5.009 -0.3482 -1.5486 -1.7056
 4011SOL     OW23494   0.913   0.713   1.881 -0.5975 -0.7239 -0.1996
 4011SOL    HW123495   0.844   0.727   1.816 -1.0941 -0.0691  0.4662
 4011SOL    HW223496   0.944   0.625   1.858  1.2871 -0.0451 -0.2543
 4012SOL     OW23497   3.123   4.165   7.013 -0.0919 -0.1668 -0.4087
 4012SOL    HW123498   3.159   4.180   6.926 -0.0392  2.1462  0.0133
 4012SOL    HW223499   3.039   4.125   6.990 -1.5099  1.9688  1.0854
 4013SOL     OW23500   2.674   1.721  13.913 -0.5930  0.3773  0.3704
 4013SOL    HW123501   2.755   1.735  13.961 -0.3124  1.8614 -0.5394
 4013SOL    HW223502   2.606   1.718  13.981 -0.3771 -0.6707  0.5469
 4014SOL     OW23503   3.534   2.340  12.283 -0.0706  0.2410  0.0219
 4014SOL    HW123504   3.572   2.252  12.281 -2.0638 -0.5643 -2.0956
 4014SOL    HW223505   3.568   2.360  12.370  0.2563  1.6301 -0.4113
 4015SOL     OW23506   3.204   0.024  16.734  0.3545  0.0159 -0.5341
 4015SOL    HW123507   3.177   0.115  16.721 -0.2015 -0.1322 -0.4417
 4015SOL    HW223508   3.193   4.718  16.643  2.2097 -0.6083 -0.5594
 4016SOL     OW23509   3.099   1.487  13.538  0.0486  0.2093  0.8904
 4016SOL    HW123510   3.014   1.528  13.523  0.4740  0.0024 -2.1302
 4016SOL    HW223511   3.116   1.456  13.449 -1.4251  0.9210  0.3683
 4017SOL     OW23512   0.893   4.680   3.651  0.2011  0.0151  0.2643
 4017SOL    HW123513   0.974   4.635   3.673 -0.4742 -1.2006  0.2937
 4017SOL    HW223514   0.918   0.018   3.582 -0.4560  1.2888  1.1559
 4018SOL     OW23515   4.407   0.875   0.938 -0.3925 -0.4895  0.5532
 4018SOL    HW123516   4.451   0.791   0.952 -1.4596 -1.0994  0.2453
 4018SOL    HW223517   4.326   0.863   0.987 -1.0074  0.1494 -0.3121
 4019SOL     OW23518   3.572   4.246   8.676  0.5719  0.0163 -0.2112
 4019SOL    HW123519   3.547   4.245   8.584 -0.4909  2.7796  0.0546
 4019SOL    HW223520   3.531   4.169   8.717  1.3715 -0.2096  0.1535
 4020SOL     OW23521   3.224   0.641   7.766 -0.0139 -0.3135 -0.6370
 4020SOL    HW123522   3.193   0.559   7.804  0.7149 -0.8151 -1.1196
 4020SOL    HW223523   3.136   0.678   7.760  0.3821  0.6832 -0.3641
 4021SOL     OW23524   0.844   3.798  13.989  0.4362 -0.1019  0.0437
 4021SOL    HW123525   0.770   3.817  13.931 -0.5377 -1.0237  0.9886
 4021SOL    HW223526   0.925   3.833  13.950  2.8940 -3.0502  2.5172
 4022SOL     OW23527   2.158   4.120  10.389 -0.2178  0.3526  0.0720
 4022SOL    HW123528   2.105   4.199  10.381  0.2209  0.9982  3.3572
 4022SOL    HW223529   2.247   4.145  10.364  0.1369 -0.1326  0.8364
 4023SOL     OW23530   4.265   3.219   5.953  0.3623 -0.1239  0.4420
 4023SOL    HW123531   4.249   3.141   6.006 -1.3813 -0.2714 -0.3292
 4023SOL    HW223532   4.218   3.186   5.876 -1.6165  1.3530  1.0468
 4024SOL     OW23533   4.206   1.508  11.419  0.3708  0.7205 -0.3015
 4024SOL    HW123534   4.119   1.548  11.424  0.3159  0.7735 -1.5244
 4024SOL    HW223535   4.189   1.443  11.350 -0.6486 -0.4095  1.0192
 4025SOL     OW23536   2.574   0.311   9.736 -0.3564 -0.1465 -0.4330
 4025SOL    HW123537   2.497   0.368   9.740  0.6643  1.0955  1.1478
 4025SOL    HW223538   2.542   0.229   9.773  0.7150 -0.0237  0.7615
 4026SOL     OW23539   0.389   1.673   5.542  0.2784  0.2884  0.4760
 4026SOL    HW123540   0.469   1.726   5.537 -0.9652  2.2392  1.3235
 4026SOL    HW223541   0.422   1.585   5.564 -0.1665  0.0236  0.0880
 4027SOL     OW23542   3.138   3.989   5.864 -0.1369 -0.3062 -0.6115
 4027SOL    HW123543   3.226   4.022   5.879 -0.5420  0.1406  0.7316
 4027SOL    HW223544   3.097   3.984   5.950  0.8982  3.1188  0.0688
 4028SOL     OW23545   2.111   3.998   9.113 -0.5156  0.1434 -0.0812
 4028SOL    HW123546   2.082   4.043   9.034 -1.9833 -0.5300  0.0714
 4028SOL    HW223547   2.186   3.948   9.081  0.2620  0.7085  0.8652
 4029SOL     OW23548   0.248   0.835   2.439 -0.3561 -0.2006 -0.1302
 4029SOL    HW123549   0.276   0.866   2.353  0.2564 -2.1377 -0.6361
 4029SOL    HW223550   0.256   0.916   2.490  0.0959  0.3294 -1.0557
 4030SOL     OW23551   4.402   1.012   5.754 -0.2445  0.3166 -0.4051
 4030SOL    HW123552   4.343   1.074   5.797 -0.2550  0.2022 -0.2549
 4030SOL    HW223553   4.358   0.927   5.765 -1.7542  1.1118 -0.3362
 4031SOL     OW23554   0.855   1.130  16.058 -0.5622  0.6136  0.5522
 4031SOL    HW123555   0.818   1.197  16.115 -1.0766 -0.2393  1.2059
 4031SOL    HW223556   0.948   1.139  16.082 -0.8054 -0.6468  1.9224
 4032SOL     OW23557   1.980   1.297   8.095 -0.3072  0.3155 -0.3765
 4032SOL    HW123558   2.016   1.213   8.123 -2.2908 -0.2022  0.5515
 4032SOL    HW223559   2.035   1.351   8.152 -0.2979  1.6543 -1.6601
 4033SOL     OW23560   1.161   1.830   0.813 -0.5232 -0.0926  0.2045
 4033SOL    HW123561   1.234   1.771   0.796 -0.6748 -0.7253  1.7126
 4033SOL    HW223562   1.087   1.782   0.774  0.0331 -0.4909 -0.3621
 4034SOL     OW23563   1.157   2.943   7.526  0.2326 -0.3784 -0.5352
 4034SOL    HW123564   1.174   2.918   7.435 -1.9338 -1.5569 -0.5861
 4034SOL    HW223565   1.211   2.879   7.571  2.6909  1.0587 -1.3806
 4035SOL     OW23566   3.536   4.692  13.099  0.3611 -0.4831 -0.4035
 4035SOL    HW123567   3.473   4.623  13.115 -0.8937  0.6428 -0.5280
 4035SOL    HW223568   3.496   0.024  13.031  0.3172  0.2768  0.2413
 4036SOL     OW23569   1.307   2.820   6.973  0.0249 -0.3180  0.2366
 4036SOL    HW123570   1.217   2.791   6.958  0.0432 -0.1969 -0.1263
 4036SOL    HW223571   1.350   2.750   7.022  2.7722  0.3480 -1.2084
 4037SOL     OW23572   2.652   4.508  16.615 -0.2201  0.0868  0.3164
 4037SOL    HW123573   2.743   4.527  16.637 -0.2315  2.2602 -1.5065
 4037SOL    HW223574   2.653   4.536  16.523 -1.8235  0.4307  0.4014
 4038SOL     OW23575   3.301   1.142   2.528 -0.3024  1.1482  0.3631
 4038SOL    HW123576   3.264   1.157   2.441 -0.6901 -0.8337  0.1871
 4038SOL    HW223577   3.394   1.157   2.512  0.4058 -1.5951  1.9497
 4039SOL     OW23578   0.120   2.308  13.786 -0.3366 -0.7999  0.4747
 4039SOL    HW123579   0.086   2.259  13.711  0.7369  0.3355 -0.7650
 4039SOL    HW223580   0.166   2.383  13.748 -0.4955 -1.1833 -0.4792
 4040SOL     OW23581   3.441   4.516   5.836  0.0426 -0.1540  0.0370
 4040SOL    HW123582   3.511   4.481   5.890  0.6064  0.2410 -0.4287
 4040SOL    HW223583   3.380   4.443   5.828  0.0702 -0.0230 -1.3410
 4041SOL     OW23584   4.286   4.141   2.906  0.3356  0.3448 -0.2165
 4041SOL    HW123585   4.220   4.203   2.937  0.9972  0.7905  0.3253
 4041SOL    HW223586   4.282   4.164   2.814 -1.3817  0.0635 -0.2042
 4042SOL     OW23587   3.435   4.455  14.541 -0.3572 -0.4009 -0.5945
 4042SOL    HW123588   3.490   4.489  14.471  0.1661 -2.3543 -1.1335
 4042SOL    HW223589   3.353   4.501  14.524 -0.0706  0.8437  1.4720
 4043SOL     OW23590   3.363   1.743  11.232  0.0764  0.0068  0.3940
 4043SOL    HW123591   3.380   1.695  11.151  2.0819  0.7014  0.4012
 4043SOL    HW223592   3.434   1.806  11.245 -0.9093  0.5861  3.0241
 4044SOL     OW23593   4.237   4.081   4.565  0.0450 -0.3881 -0.1479
 4044SOL    HW123594   4.232   4.154   4.627  1.0833  0.2858 -0.8493
 4044SOL    HW223595   4.146   4.055   4.580  0.7035 -0.4372  3.8799
 4045SOL     OW23596   2.804   3.193   0.870  0.6721 -0.4704 -0.4849
 4045SOL    HW123597   2.853   3.221   0.948 -0.6815  4.2170 -1.2847
 4045SOL    HW223598   2.725   3.246   0.885 -0.4049 -1.2542 -3.4525
 4046SOL     OW23599   0.984   3.486   1.992 -0.0564  0.4537  0.6702
 4046SOL    HW123600   1.008   3.424   1.923  1.8352  2.6807 -0.6624
 4046SOL    HW223601   1.042   3.558   1.970 -0.1025  0.5900  0.9944
 4047SOL     OW23602   2.268   3.885   8.349  0.0996  0.5740  0.5062
 4047SOL    HW123603   2.237   3.968   8.384  0.2636  0.1171  1.7242
 4047SOL    HW223604   2.188   3.836   8.331 -0.6461  1.7135  0.7609
 4048SOL     OW23605   3.943   2.365   2.255  0.2600  0.0074  0.0429
 4048SOL    HW123606   4.031   2.335   2.231 -0.4908 -1.3341 -1.0589
 4048SOL    HW223607   3.950   2.459   2.271 -0.9382  0.2312 -0.8076
 4049SOL     OW23608   3.010   1.034   2.029  0.0572  0.3885  0.8614
 4049SOL    HW123609   2.978   0.997   1.947  2.6221  0.2642 -0.1054
 4049SOL    HW223610   3.093   1.062   1.989 -0.3940 -0.7545 -0.8495
 4050SOL     OW23611   1.856   0.725  10.466  0.0231  0.7730  0.2771
 4050SOL    HW123612   1.928   0.665  10.446 -0.1627  0.6810 -0.1044
 4050SOL    HW223613   1.831   0.697  10.554  0.0375 -0.7895 -0.2202
 4051SOL     OW23614   4.065   1.918  15.279 -0.3884 -0.1263 -0.6069
 4051SOL    HW123615   4.009   1.863  15.333  0.9632  2.2844  3.2356
 4051SOL    HW223616   4.064   2.002  15.324  1.6408  0.3887 -1.5050
 4052SOL     OW23617   1.131   2.194  11.934 -0.1619  0.2199  0.5777
 4052SOL    HW123618   1.043   2.163  11.913  0.2430  1.6548 -3.2455
 4052SOL    HW223619   1.185   2.146  11.871 -2.6370  1.5931 -2.5793
 4053SOL     OW23620   4.197   0.558   8.049  0.2901  0.2665 -0.1327
 4053SOL    HW123621   4.275   0.598   8.010  0.8659  0.1680  0.9318
 4053SOL    HW223622   4.184   0.624   8.116 -3.5888  0.7277 -1.2824
 4054SOL     OW23623   2.906   0.489   1.352  0.1530 -0.1969  0.2158
 4054SOL    HW123624   2.838   0.472   1.418 -0.0173  0.8407  0.3099
 4054SOL    HW223625   2.908   0.584   1.359 -1.1592 -0.0895 -1.0180
 4055SOL     OW23626   0.961   1.084   0.288  0.2361 -0.6686 -0.0817
 4055SOL    HW123627   0.896   1.029   0.246  0.6962  0.6114 -2.4960
 4055SOL    HW223628   0.947   1.073   0.382 -0.7030 -0.7269 -0.2333
 4056SOL     OW23629   4.240   4.485  13.566 -0.1382 -0.3037  0.0627
 4056SOL    HW123630   4.215   4.568  13.607  0.7489 -1.2168  2.4591
 4056SOL    HW223631   4.166   4.480  13.506 -0.6579  2.1143  0.4680
 4057SOL     OW23632   4.285   2.386   8.160  0.0654  0.2079  0.2814
 4057SOL    HW123633   4.372   2.422   8.143  0.6544 -0.8089  1.2015
 4057SOL    HW223634   4.291   2.328   8.235  2.8202 -0.2188 -0.2697
 4058SOL     OW23635   3.429   3.042   5.852 -0.7259 -0.7404  0.3264
 4058SOL    HW123636   3.365   2.995   5.800  0.0455 -0.4026 -0.9425
 4058SOL    HW223637   3.478   3.093   5.787 -0.5487 -3.8737 -1.9498
 4059SOL     OW23638   3.134   4.667   9.010 -0.0483  0.0523 -0.2695
 4059SOL    HW123639   3.155   0.003   9.082 -3.3333 -0.2709  0.9141
 4059SOL    HW223640   3.177   4.707   8.934 -3.4825  0.4977 -2.0032
 4060SOL     OW23641   3.765   4.370   8.259  0.4671  0.2625 -0.0590
 4060SOL    HW123642   3.753   4.285   8.217  0.8867 -0.2377  0.8160
 4060SOL    HW223643   3.855   4.392   8.234 -0.0239  0.9799 -1.1953
 4061SOL     OW23644   2.167   0.453   6.164  0.5246  0.2491 -0.3721
 4061SOL    HW123645   2.231   0.519   6.139  1.1396 -0.8493 -1.7279
 4061SOL    HW223646   2.102   0.510   6.206  1.9280  1.4343  0.1676
 4062SOL     OW23647   0.720   2.096   7.645 -0.1444 -0.0733 -0.3851
 4062SOL    HW123648   0.814   2.081   7.634 -0.2437 -1.3864  0.4846
 4062SOL    HW223649   0.701   2.144   7.565 -0.2962 -1.3329 -1.1031
 4063SOL     OW23650   1.422   1.595  16.385  0.1286  0.3486  0.9086
 4063SOL    HW123651   1.443   1.671  16.331  1.4511 -0.3758  0.4138
 4063SOL    HW223652   1.411   1.624  16.476 -1.4750 -0.9054  1.1181
 4064SOL     OW23653   3.082   0.193   2.205 -0.6775 -0.5625  0.2080
 4064SOL    HW123654   3.059   0.169   2.295  0.6898 -0.5478  0.5694
 4064SOL    HW223655   3.059   0.119   2.149 -0.6496  0.4239 -1.0907
 4065SOL     OW23656   0.052   2.843   1.424 -0.4756  0.6953 -0.0480
 4065SOL    HW123657   0.042   2.786   1.348  2.6025  0.4565 -0.2647
 4065SOL    HW223658   0.034   2.933   1.395 -1.9195  0.0118 -1.2601
 4066SOL     OW23659   2.249   4.380   4.416 -0.2297  0.3509  0.3405
 4066SOL    HW123660   2.217   4.413   4.500  0.8372  2.6460 -0.1637
 4066SOL    HW223661   2.250   4.465   4.372  1.4212  1.4839  2.5775
 4067SOL     OW23662   2.020   0.606   6.987 -0.2331 -0.2020 -0.1261
 4067SOL    HW123663   2.022   0.541   7.058  1.8362 -0.4708 -0.4199
 4067SOL    HW223664   1.994   0.682   7.038 -2.2570  1.0416 -3.0028
 4068SOL     OW23665   1.066   3.482   0.329  0.0221 -0.2229 -0.2093
 4068SOL    HW123666   1.100   3.425   0.397  2.6403 -0.4539 -1.6869
 4068SOL    HW223667   0.982   3.514   0.361  0.1922  1.0693 -1.0361
 4069SOL     OW23668   0.025   3.007  16.044 -0.4969 -0.2078 -0.4874
 4069SOL    HW123669   4.714   3.011  16.133 -0.7479 -0.9666 -0.5457
 4069SOL    HW223670   0.097   2.944  16.049  0.1685  0.5685 -0.3067
 4070SOL     OW23671   1.198   3.692   7.965 -0.0910 -0.1844 -0.4265
 4070SOL    HW123672   1.165   3.634   8.034  1.2520 -0.2026  0.1956
 4070SOL    HW223673   1.152   3.653   7.891  0.8372 -0.4796 -0.8530
 4071SOL     OW23674   1.212   2.090   0.429 -0.2549  0.0560 -0.2838
 4071SOL    HW123675   1.238   2.080   0.521  2.5871  0.4959 -1.0403
 4071SOL    HW223676   1.296   2.082   0.383  0.3931  0.6994  0.7733
 4072SOL     OW23677   1.391   3.626  16.004  0.1517 -0.0980 -0.5600
 4072SOL    HW123678   1.422   3.595  16.089 -0.3245  2.6712  0.6218
 4072SOL    HW223679   1.459   3.690  15.983  1.3361 -1.2274 -0.1621
 4073SOL     OW23680   3.203   2.683   3.033  0.1570 -0.2468  0.1988
 4073SOL    HW123681   3.223   2.593   3.006 -0.0170  0.3329 -1.8071
 4073SOL    HW223682   3.290   2.716   3.056 -0.2531  1.5380 -0.8971
 4074SOL     OW23683   3.744   1.540   5.528  0.2746  0.1783 -0.2129
 4074SOL    HW123684   3.729   1.532   5.433 -3.2629 -0.4673  0.4042
 4074SOL    HW223685   3.724   1.452   5.558  1.0964 -0.1771 -0.6911
 4075SOL     OW23686   2.893   4.435   0.158  0.4375 -0.2983  0.2288
 4075SOL    HW123687   2.863   4.345   0.145  2.9019 -1.1084  0.0249
 4075SOL    HW223688   2.955   4.419   0.229  1.6637  1.1251 -0.5243
 4076SOL     OW23689   2.460   3.681   7.755  0.6691 -0.1119 -0.6879
 4076SOL    HW123690   2.460   3.681   7.851  2.0617  0.4212 -0.6809
 4076SOL    HW223691   2.404   3.605   7.740  1.7236 -1.2030  1.0044
 4077SOL     OW23692   3.328   1.179   8.101 -0.2489  0.4432 -0.8482
 4077SOL    HW123693   3.290   1.106   8.149 -0.6223  0.7898 -0.6123
 4077SOL    HW223694   3.247   1.221   8.072 -1.1342  0.1796  1.2537
 4078SOL     OW23695   3.742   4.466   6.852 -0.9713  0.3134  0.2308
 4078SOL    HW123696   3.741   4.557   6.822  1.7815  0.1141 -0.5143
 4078SOL    HW223697   3.827   4.439   6.817 -1.8192 -2.1822  0.0848
 4079SOL     OW23698   1.915   0.806   6.759 -0.7769  0.1729  0.3608
 4079SOL    HW123699   1.827   0.768   6.758  0.0087 -1.6756  2.3630
 4079SOL    HW223700   1.930   0.814   6.853  0.4379  1.4002  0.0651
 4080SOL     OW23701   3.973   4.199   6.469  0.2655  0.0177 -0.1400
 4080SOL    HW123702   3.918   4.148   6.410  1.0959 -1.0361 -0.0143
 4080SOL    HW223703   4.030   4.130   6.503 -0.4861 -1.0662 -1.1261
 4081SOL     OW23704   3.321   3.631   6.507 -0.6432  0.1329  0.0464
 4081SOL    HW123705   3.281   3.543   6.510  0.3920 -0.3320  0.2387
 4081SOL    HW223706   3.344   3.648   6.598 -0.4712  1.1103 -0.1819
 4082SOL     OW23707   1.058   4.015  13.041 -0.5070 -0.5200  0.4837
 4082SOL    HW123708   1.076   3.978  12.955  0.3715 -1.2778  0.9902
 4082SOL    HW223709   1.074   3.937  13.094  0.4914 -0.4372  0.3093
 4083SOL     OW23710   3.227   4.626  11.836  0.5009  0.6687 -0.4620
 4083SOL    HW123711   3.161   4.682  11.877 -0.8465 -1.0684 -0.2572
 4083SOL    HW223712   3.285   4.676  11.779 -2.3275  3.1299 -1.1617
 4084SOL     OW23713   2.200   3.369   9.098  0.0653  0.0359  0.1166
 4084SOL    HW123714   2.218   3.449   9.148  0.2581 -1.2396  2.0813
 4084SOL    HW223715   2.251   3.388   9.019 -0.5602  1.2099 -0.0182
 4085SOL     OW23716   2.548   4.109   9.240 -0.0532 -0.0783  0.2089
 4085SOL    HW123717   2.565   4.079   9.330  0.7072 -1.7528 -0.4922
 4085SOL    HW223718   2.540   4.202   9.262  1.1187  0.4117 -1.4504
 4086SOL     OW23719   1.672   2.805   4.966 -0.1749 -0.3287  0.2867
 4086SOL    HW123720   1.731   2.746   4.920 -0.8898 -1.1952  0.4800
 4086SOL    HW223721   1.631   2.754   5.036 -0.0501 -0.3379  0.3522
 4087SOL     OW23722   0.728   3.217  17.224 -0.2690 -0.1429  0.2056
 4087SOL    HW123723   0.787   3.264  17.165  0.9855 -3.4375 -1.1683
 4087SOL    HW223724   0.766   3.228  17.311 -0.0248  1.4208 -0.1036
 4088SOL     OW23725   4.235   3.715   3.490  0.1287  0.0872  0.1286
 4088SOL    HW123726   4.271   3.626   3.484  0.6541  0.3159 -0.1908
 4088SOL    HW223727   4.266   3.753   3.408  1.5284 -1.6738 -0.1605
 4089SOL     OW23728   3.906   2.388  17.276  0.6439  0.2943  0.0114
 4089SOL    HW123729   3.884   2.368  17.185  1.6055  0.2445 -0.2049
 4089SOL    HW223730   3.912   2.483  17.271  0.4520  0.3148  0.1660
 4090SOL     OW23731   4.528   4.477   4.004 -0.4114 -0.3626  0.1458
 4090SOL    HW123732   4.539   4.477   3.909  0.3101  0.9852  0.2146
 4090SOL    HW223733   4.545   4.387   4.030 -1.8376 -0.7195 -0.1935
 4091SOL     OW23734   3.644   3.281   5.702  0.1264 -0.4844 -0.1429
 4091SOL    HW123735   3.677   3.346   5.640  0.1879  0.6182  1.0645
 4091SOL    HW223736   3.577   3.237   5.650 -0.4302  0.6188 -0.3661
 4092SOL     OW23737   0.441   2.424  15.619  0.3005  0.2049 -0.2269
 4092SOL    HW123738   0.432   2.361  15.547  0.0462  1.8205 -1.5894
 4092SOL    HW223739   0.496   2.378  15.683  0.1453  0.6290  0.2151
 4093SOL     OW23740   0.987   0.932   2.993 -0.3676  0.1811  0.2621
 4093SOL    HW123741   0.977   0.860   3.055 -2.6787  0.7902  0.5902
 4093SOL    HW223742   1.077   0.954   3.017 -0.1216  0.8697 -1.2775
 4094SOL     OW23743   2.411   3.181  12.210  0.0073  0.6296  0.3677
 4094SOL    HW123744   2.444   3.232  12.284  3.3639 -0.1525 -0.5705
 4094SOL    HW223745   2.484   3.197  12.150  0.0809  2.7292  1.0036
 4095SOL     OW23746   0.147   4.323   4.514  0.2242  0.8329  0.3517
 4095SOL    HW123747   0.174   4.414   4.528  0.2062  0.8496  0.2780
 4095SOL    HW223748   0.201   4.278   4.579 -1.6733 -2.6180 -0.4585
 4096SOL     OW23749   3.654   2.032   7.599  0.0276  0.3882  0.4440
 4096SOL    HW123750   3.590   2.053   7.667  1.0269  2.0659  0.8667
 4096SOL    HW223751   3.703   1.962   7.642 -0.6576  0.3586  1.1892
 4097SOL     OW23752   2.141   4.120   9.353 -0.6068 -0.2026 -0.1228
 4097SOL    HW123753   2.130   4.048   9.291 -0.0079  1.8750 -2.6094
 4097SOL    HW223754   2.175   4.187   9.295  1.7419 -1.3682 -0.0841
 4098SOL     OW23755   2.919   2.300   3.133  0.4300  0.1642 -0.4546
 4098SOL    HW123756   2.957   2.366   3.190 -0.5751 -0.1231  0.5556
 4098SOL    HW223757   2.987   2.300   3.066  1.7470  1.3932  0.9009
 4099SOL     OW23758   1.838   4.421   6.320  0.0652 -0.0192  0.5177
 4099SOL    HW123759   1.806   4.365   6.390  1.3956 -0.6246  0.6331
 4099SOL    HW223760   1.877   4.497   6.365 -1.4839  1.3340 -0.4093
 4100SOL     OW23761   1.452   2.987  13.834  0.1589 -0.0474 -0.0589
 4100SOL    HW123762   1.467   2.981  13.928  0.5930 -0.8825 -0.1841
 4100SOL    HW223763   1.402   3.068  13.825 -0.7907 -0.3794  2.1377
 4101SOL     OW23764   2.724   2.679   6.205 -0.0183 -0.1828 -0.3040
 4101SOL    HW123765   2.632   2.704   6.220 -0.1182 -2.1167  2.2413
 4101SOL    HW223766   2.775   2.730   6.268  0.7050 -0.4091 -0.7177
 4102SOL     OW23767   2.856   0.808   8.254 -0.3728  0.0106  0.9273
 4102SOL    HW123768   2.860   0.753   8.177 -1.1077  1.4710 -0.1603
 4102SOL    HW223769   2.880   0.749   8.326  0.1225 -2.6378 -1.4396
 4103SOL     OW23770   1.503   3.995   3.302  0.3989  0.8043  0.1198
 4103SOL    HW123771   1.487   3.922   3.363 -0.3336  1.2712  0.4943
 4103SOL    HW223772   1.527   3.958   3.217 -0.7980  0.5377 -0.1056
 4104SOL     OW23773   1.690   2.840   8.873  0.2098 -0.1610 -0.1243
 4104SOL    HW123774   1.758   2.857   8.809  1.2404  0.4740  1.1451
 4104SOL    HW223775   1.614   2.833   8.815  0.5583 -1.6244 -0.4019
 4105SOL     OW23776   1.935   0.205   4.651  0.4027 -0.3126  0.0119
 4105SOL    HW123777   1.848   0.240   4.630  0.4308 -0.1959  0.0882
 4105SOL    HW223778   1.947   0.160   4.568  1.8269  2.6078 -1.3488
 4106SOL     OW23779   1.255   4.513   5.158  0.5860  0.0818 -0.1062
 4106SOL    HW123780   1.276   4.486   5.068 -1.5005 -1.5017 -0.1236
 4106SOL    HW223781   1.169   4.554   5.147 -0.1863 -1.2641  0.8972
 4107SOL     OW23782   2.388   0.485  16.911  0.5637 -0.1867 -0.5868
 4107SOL    HW123783   2.428   0.463  16.827  0.9657  0.6750 -0.6173
 4107SOL    HW223784   2.465   0.484  16.969 -0.3187 -1.1806  0.5779
 4108SOL     OW23785   0.316   3.758   7.877 -0.1212  0.4704  0.0326
 4108SOL    HW123786   0.285   3.785   7.791  0.7727  1.8859  0.1458
 4108SOL    HW223787   0.327   3.664   7.864  1.1635  0.7494 -0.8502
 4109SOL     OW23788   1.048   3.410   6.936 -0.2994  0.0003  0.3453
 4109SOL    HW123789   1.075   3.449   7.019 -1.3588  1.9998 -0.2522
 4109SOL    HW223790   1.130   3.415   6.886  0.7420  0.7629  2.1464
 4110SOL     OW23791   2.786   0.194   0.137 -0.6921  0.1589  0.7337
 4110SOL    HW123792   2.858   0.131   0.143 -2.4031 -1.9125 -0.3887
 4110SOL    HW223793   2.706   0.142   0.141  0.3969 -1.4878  1.4807
 4111SOL     OW23794   4.074   1.576   9.351 -0.0648 -0.7552  0.5532
 4111SOL    HW123795   4.016   1.653   9.352 -0.5193 -1.0779 -0.3068
 4111SOL    HW223796   4.149   1.609   9.400  0.2913 -1.9349  0.7873
 4112SOL     OW23797   1.855   3.344   4.601 -0.3329 -0.0778  0.3367
 4112SOL    HW123798   1.904   3.378   4.676  1.9528  1.8574 -2.0256
 4112SOL    HW223799   1.794   3.294   4.656 -0.1219 -0.1859  0.4770
 4113SOL     OW23800   1.554   2.709  16.441  0.1066 -0.3356  0.0348
 4113SOL    HW123801   1.518   2.797  16.435  1.9949  0.2814 -2.4844
 4113SOL    HW223802   1.473   2.665  16.467  0.3893  1.1788  3.4258
 4114SOL     OW23803   0.971   4.666   1.303 -0.7627  0.3070  0.1222
 4114SOL    HW123804   0.955   0.034   1.278  2.0648  0.2352 -2.1025
 4114SOL    HW223805   0.946   4.620   1.223 -0.0322  0.2912 -0.1050
 4115SOL     OW23806   3.667   0.742   5.730 -0.0538  0.1483 -0.1682
 4115SOL    HW123807   3.691   0.738   5.638  3.2514  1.2723  0.6308
 4115SOL    HW223808   3.585   0.695   5.746 -1.1124  2.3519  0.9498
 4116SOL     OW23809   3.512   3.890   5.450 -0.4986 -0.2664  0.1598
 4116SOL    HW123810   3.426   3.849   5.442 -0.1423 -1.0160  0.2601
 4116SOL    HW223811   3.560   3.825   5.400 -0.4105  1.0760 -1.5063
 4117SOL     OW23812   3.688   0.015   6.841 -0.3301  0.3819 -0.2622
 4117SOL    HW123813   3.700   0.059   6.925 -0.6639  0.0064 -0.0169
 4117SOL    HW223814   3.752   0.064   6.790 -0.4237  1.8108  0.9799
 4118SOL     OW23815   2.573   0.656   5.766 -0.1768 -0.3082  0.1096
 4118SOL    HW123816   2.508   0.599   5.809  0.7206 -0.2090  1.5886
 4118SOL    HW223817   2.553   0.619   5.680 -0.4648 -0.7985  0.3823
 4119SOL     OW23818   2.118   1.758   5.896 -0.3222  0.5422 -0.0961
 4119SOL    HW123819   2.114   1.671   5.857  0.9937  0.4933 -0.1142
 4119SOL    HW223820   2.027   1.774   5.921  0.1713  2.6195  0.4243
 4120SOL     OW23821   1.498   1.228  15.234  0.0612  0.5545  0.2368
 4120SOL    HW123822   1.549   1.169  15.178 -0.9033  0.6521 -0.7321
 4120SOL    HW223823   1.555   1.231  15.312  0.1311  1.0044  0.1671
 4121SOL     OW23824   3.973   1.261   9.542 -0.4500  0.1055 -0.2771
 4121SOL    HW123825   3.918   1.183   9.549  0.3527 -0.5414 -1.2625
 4121SOL    HW223826   4.027   1.235   9.468 -1.6785 -1.4346 -0.6353
 4122SOL     OW23827   3.976   4.132   6.131  0.3716 -0.0672  0.3132
 4122SOL    HW123828   3.955   4.125   6.038 -0.0777 -0.0497  0.4093
 4122SOL    HW223829   3.950   4.047   6.167 -0.6467  0.2965  0.4341
 4123SOL     OW23830   1.448   3.675   5.942 -0.7540  0.1117  0.5227
 4123SOL    HW123831   1.369   3.726   5.961 -2.4678 -2.9244  1.5231
 4123SOL    HW223832   1.499   3.750   5.910 -1.3075  0.0370 -0.5506
 4124SOL     OW23833   4.470   3.007  10.763 -0.7620 -0.2817  0.1507
 4124SOL    HW123834   4.513   3.084  10.725 -1.4061  0.3222  0.6651
 4124SOL    HW223835   4.401   2.990  10.699 -1.8221  2.0140  0.6626
 4125SOL     OW23836   0.957   2.153   3.474  0.3197  0.1059 -0.3565
 4125SOL    HW123837   0.948   2.241   3.510 -2.2071 -1.3152  2.4948
 4125SOL    HW223838   0.942   2.174   3.382  0.8002 -1.3944 -0.7756
 4126SOL     OW23839   2.854   0.292   0.401  0.2377 -0.0379  0.1462
 4126SOL    HW123840   2.889   0.264   0.317 -1.3332  1.9858 -1.1812
 4126SOL    HW223841   2.780   0.232   0.406 -0.0346  0.1397 -1.8167
 4127SOL     OW23842   3.950   3.271   4.307  0.1203  0.5567  0.2287
 4127SOL    HW123843   3.872   3.324   4.326 -2.4265 -2.1252 -2.4653
 4127SOL    HW223844   3.994   3.298   4.387 -0.7081 -1.0673  1.2518
 4128SOL     OW23845   0.460   2.219   1.715 -0.2731 -0.1418  0.1269
 4128SOL    HW123846   0.390   2.284   1.715  1.0893  1.3160  0.5708
 4128SOL    HW223847   0.541   2.267   1.698 -0.1293  0.2113  1.8503
 4129SOL     OW23848   1.317   1.411   2.786 -0.6059  0.3437 -0.6269
 4129SOL    HW123849   1.246   1.380   2.729 -1.5732  1.4555 -0.0475
 4129SOL    HW223850   1.298   1.505   2.784 -2.3691  0.0085  0.0345
 4130SOL     OW23851   3.974   3.721  16.647 -0.1374  0.1346  0.0386
 4130SOL    HW123852   4.013   3.745  16.731  1.1817 -1.0659 -0.2267
 4130SOL    HW223853   3.933   3.805  16.630 -0.5906 -0.3624 -1.3060
 4131SOL     OW23854   1.551   4.181   6.240  0.1387  0.2162 -0.5458
 4131SOL    HW123855   1.630   4.188   6.187  0.0691  1.0060 -0.5448
 4131SOL    HW223856   1.494   4.143   6.173  0.0192  0.1080 -0.3827
 4132SOL     OW23857   3.820   3.218   8.547  0.0212 -0.2348  0.4832
 4132SOL    HW123858   3.799   3.149   8.609 -1.9590  0.1151  0.2149
 4132SOL    HW223859   3.813   3.172   8.464  0.8421  0.5561 -0.0309
 4133SOL     OW23860   3.500   1.741   1.471 -0.4041  0.0153 -0.6553
 4133SOL    HW123861   3.488   1.646   1.473  2.1052 -0.2378  2.8263
 4133SOL    HW223862   3.535   1.753   1.383  0.5639 -0.6528 -0.3591
 4134SOL     OW23863   0.520   1.950   6.496  0.0057 -0.0634  0.1278
 4134SOL    HW123864   0.590   1.894   6.461  2.1267  0.3439  3.7090
 4134SOL    HW223865   0.517   1.914   6.584 -1.3908 -0.2204  0.0087
 4135SOL     OW23866   3.384   0.128   9.370 -0.0544  0.4304 -0.2231
 4135SOL    HW123867   3.330   0.170   9.437 -1.5003  0.5943 -1.4992
 4135SOL    HW223868   3.470   0.163   9.393  0.1378  1.2106 -2.1300
 4136SOL     OW23869   3.862   4.369   8.649 -0.0862 -0.5265  0.0473
 4136SOL    HW123870   3.800   4.409   8.588  0.1414 -1.9588 -1.1328
 4136SOL    HW223871   3.882   4.300   8.586  3.3460 -0.0491  0.6120
 4137SOL     OW23872   1.520   2.886  11.230 -0.1767  0.5618  0.1188
 4137SOL    HW123873   1.447   2.917  11.283 -0.6652 -0.1024 -0.1625
 4137SOL    HW223874   1.597   2.915  11.280  0.7594 -0.0337 -0.9701
 4138SOL     OW23875   1.049   1.335   3.444  0.1029  0.4689 -0.0915
 4138SOL    HW123876   1.113   1.272   3.476 -1.6672 -0.6769  1.1902
 4138SOL    HW223877   1.057   1.330   3.348 -0.1894  2.3032 -0.2317
 4139SOL     OW23878   4.228   0.401   5.889  0.2688  0.0971 -0.1138
 4139SOL    HW123879   4.299   0.421   5.828  1.1210  1.0743  1.1983
 4139SOL    HW223880   4.232   0.307   5.874  0.4219 -0.0900  1.0673
 4140SOL     OW23881   1.620   1.941   0.354  0.0197 -0.0081 -0.8940
 4140SOL    HW123882   1.663   2.001   0.415 -0.3219  2.2385 -2.8647
 4140SOL    HW223883   1.551   1.908   0.413  1.9659 -1.7139  0.4155
 4141SOL     OW23884   2.607   2.728  14.520  0.3220  0.0158 -0.8369
 4141SOL    HW123885   2.648   2.672  14.587  0.4684 -1.1347 -1.9003
 4141SOL    HW223886   2.541   2.668  14.486  1.5502 -1.5616 -0.4603
 4142SOL     OW23887   0.313   2.481   8.845 -0.1141  0.1919  0.1575
 4142SOL    HW123888   0.252   2.543   8.884 -1.3963 -2.2184  1.9616
 4142SOL    HW223889   0.340   2.425   8.918  1.2274 -0.2457 -0.6638
 4143SOL     OW23890   1.397   4.106   4.635 -0.0359 -0.2709  0.2825
 4143SOL    HW123891   1.455   4.065   4.699  0.6128 -3.0482 -2.0781
 4143SOL    HW223892   1.409   4.198   4.656 -1.8971  0.1733 -0.6153
 4144SOL     OW23893   1.280   3.656  16.525  0.3930 -0.0939  0.9232
 4144SOL    HW123894   1.366   3.680  16.490 -0.6097  0.6309 -1.0349
 4144SOL    HW223895   1.240   3.592  16.466 -0.2155  1.5927 -0.5083
 4145SOL     OW23896   1.362   3.020  10.861  0.4166  0.1954  0.7374
 4145SOL    HW123897   1.372   3.071  10.781 -0.4455 -1.1996 -0.2670
 4145SOL    HW223898   1.283   2.969  10.841  0.1081 -0.6472  4.1845
 4146SOL     OW23899   0.498   1.417   3.998  0.5408  0.2267  0.5385
 4146SOL    HW123900   0.438   1.382   4.064  0.5314 -0.2346  0.2892
 4146SOL    HW223901   0.450   1.499   3.986  2.7037  1.5235  0.6996
 4147SOL     OW23902   3.157   2.550   2.767  0.0795  0.6891  0.4277
 4147SOL    HW123903   3.207   2.631   2.773 -3.1897  2.7809 -0.8119
 4147SOL    HW223904   3.202   2.505   2.694  0.1954 -1.6272  1.9307
 4148SOL     OW23905   4.518   1.998   6.054  0.3342  0.1354 -0.5856
 4148SOL    HW123906   4.573   1.920   6.060 -0.7113 -0.4201  1.9227
 4148SOL    HW223907   4.568   2.058   6.109  0.2017 -1.5062  1.3254
 4149SOL     OW23908   1.967   3.450  17.195 -0.1062  0.2472  0.3456
 4149SOL    HW123909   1.990   3.396  17.270  1.4233 -0.0604 -0.3419
 4149SOL    HW223910   2.006   3.536  17.212 -2.8153  1.4409  0.4620
 4150SOL     OW23911   2.531   3.711  11.575  0.4624  0.1767  0.3626
 4150SOL    HW123912   2.481   3.742  11.500  1.0161 -0.6021 -0.3402
 4150SOL    HW223913   2.563   3.624  11.552  0.3143  0.1131  0.3964
 4151SOL     OW23914   4.395   0.025   7.172  0.0467  0.4272 -0.0616
 4151SOL    HW123915   4.371   4.681   7.236  2.2362 -0.9086 -0.6306
 4151SOL    HW223916   4.426   4.700   7.096  1.1760  0.8632  0.1222
 4152SOL     OW23917   3.589   4.573  15.600  0.1206  0.2999  0.1179
 4152SOL    HW123918   3.536   4.562  15.521 -1.8559  0.2776  1.4203
 4152SOL    HW223919   3.530   4.538  15.667  0.2799  0.0809  0.1435
 4153SOL     OW23920   4.693   4.005   8.658 -0.0479 -0.5791  0.2757
 4153SOL    HW123921   0.040   4.058   8.620  0.3087  0.1701  1.9729
 4153SOL    HW223922   4.701   4.013   8.753 -0.2432 -1.9566  0.4017
 4154SOL     OW23923   0.146   2.180   3.497 -0.4742 -0.0612  0.5298
 4154SOL    HW123924   0.059   2.180   3.456 -1.7446 -0.0206  3.2611
 4154SOL    HW223925   0.134   2.247   3.565  0.6027 -0.0449  0.6996
 4155SOL     OW23926   4.688   0.987   7.884  0.1597 -0.3162 -0.3474
 4155SOL    HW123927   0.059   0.988   7.901  0.4066 -1.4105 -1.6701
 4155SOL    HW223928   4.688   0.960   7.792  3.2624  0.0898 -0.4581
 4156SOL     OW23929   2.276   1.066   7.843  1.0709  0.3142  0.6230
 4156SOL    HW123930   2.286   1.032   7.754 -1.0126  0.0934  0.4864
 4156SOL    HW223931   2.340   1.017   7.895  0.7249  0.8347  1.5247
 4157SOL     OW23932   1.981   3.811   9.258 -0.2366  0.6298  0.2649
 4157SOL    HW123933   1.950   3.776   9.175  0.5215 -0.8909  0.6402
 4157SOL    HW223934   1.999   3.903   9.234  1.2970  0.1032 -0.6108
 4158SOL     OW23935   0.651   0.604   8.916 -0.2520  0.8682  0.2648
 4158SOL    HW123936   0.664   0.673   8.981 -1.2298  0.3022  1.0642
 4158SOL    HW223937   0.557   0.585   8.923 -0.2057  1.2058  1.9483
 4159SOL     OW23938   1.352   0.529   8.915 -0.0523  0.0053  0.0762
 4159SOL    HW123939   1.377   0.605   8.861 -3.4343  1.0196 -0.0402
 4159SOL    HW223940   1.384   0.460   8.857  1.6245  1.3256 -0.5835
 4160SOL     OW23941   3.162   4.211   4.775  0.2004  0.2088  0.2629
 4160SOL    HW123942   3.193   4.301   4.787 -1.2881  1.0913 -2.2465
 4160SOL    HW223943   3.067   4.225   4.768 -0.0278 -0.7354  1.4778
 4161SOL     OW23944   0.758   2.747   3.416 -0.2807  0.6101 -0.1343
 4161SOL    HW123945   0.706   2.676   3.454  1.1351  0.2123  1.0550
 4161SOL    HW223946   0.835   2.701   3.382 -0.7377  2.3973 -3.5897
 4162SOL     OW23947   4.650   1.728   9.188 -0.6079 -0.4562  0.3230
 4162SOL    HW123948   4.569   1.775   9.207  0.0474  1.1771 -0.8731
 4162SOL    HW223949   4.640   1.664   9.258 -0.0860 -1.8370 -0.8729
 4163SOL     OW23950   3.389   1.434   6.943  0.5654 -0.1900 -0.3317
 4163SOL    HW123951   3.319   1.489   6.977  1.0198  0.1202  0.1000
 4163SOL    HW223952   3.382   1.464   6.852 -0.9977 -0.1764 -0.1978
 4164SOL     OW23953   3.599   1.155   2.476  0.6446 -0.1900  0.7274
 4164SOL    HW123954   3.659   1.228   2.462  0.1805  0.0838  0.1891
 4164SOL    HW223955   3.553   1.171   2.394  2.9633  2.8714  0.0524
 4165SOL     OW23956   4.118   3.784  16.888 -0.5597  0.0106 -0.5420
 4165SOL    HW123957   4.193   3.843  16.874  0.3803 -1.1742 -0.4432
 4165SOL    HW223958   4.116   3.786  16.983 -0.4537 -0.8021 -0.5229
 4166SOL     OW23959   2.800   4.231   5.983 -0.0298 -0.0863  0.2660
 4166SOL    HW123960   2.710   4.197   5.983 -1.3397  3.4170 -0.9576
 4166SOL    HW223961   2.846   4.177   6.048  1.0832  1.2976  0.6115
 4167SOL     OW23962   1.454   0.921   9.557 -0.1860  0.1428 -0.5386
 4167SOL    HW123963   1.480   1.006   9.522 -2.2149  1.2043  0.5251
 4167SOL    HW223964   1.373   0.948   9.599  0.9547  1.0801  1.0684
 4168SOL     OW23965   4.665   2.339   9.814  0.0190 -0.2781 -0.0089
 4168SOL    HW123966   4.703   2.260   9.852  1.6433  0.6508  0.2768
 4168SOL    HW223967   4.621   2.299   9.739  1.2512  0.9802 -1.4086
 4169SOL     OW23968   1.716   4.297  12.427 -0.0162 -0.2930 -0.0028
 4169SOL    HW123969   1.683   4.262  12.344 -1.1125  0.1849  0.2413
 4169SOL    HW223970   1.721   4.388  12.396 -2.3113  0.0000  0.5309
 4170SOL     OW23971   3.188   3.015   8.394  0.2627 -0.3281  0.8603
 4170SOL    HW123972   3.226   2.928   8.402 -1.2803 -1.1428 -0.6995
 4170SOL    HW223973   3.213   3.057   8.477  0.8588  0.4974  0.2656
 4171SOL     OW23974   0.413   3.998   3.161  0.2052  0.3346 -0.4913
 4171SOL    HW123975   0.486   3.940   3.183 -0.4154  0.1428  1.0510
 4171SOL    HW223976   0.416   3.998   3.065  0.7737  1.3227 -0.4741
 4172SOL     OW23977   0.769   1.375  12.880 -0.0677 -0.1991  0.0707
 4172SOL    HW123978   0.763   1.405  12.789 -1.5601 -2.2355 -0.4987
 4172SOL    HW223979   0.687   1.406  12.918  0.3815 -0.4913  1.2464
 4173SOL     OW23980   3.368   2.654   9.408  0.1275 -0.3456 -0.2952
 4173SOL    HW123981   3.448   2.657   9.460 -1.0485  0.1117  1.4857
 4173SOL    HW223982   3.337   2.568   9.435 -0.6874  0.6302  1.9404
 4174SOL     OW23983   1.266   1.407   5.982  0.6640 -0.5757  0.2891
 4174SOL    HW123984   1.213   1.327   5.982  0.7125 -0.6034 -1.1141
 4174SOL    HW223985   1.210   1.456   5.922  0.5317 -1.6164 -0.4406
 4175SOL     OW23986   4.628   0.639   8.952  0.5149 -0.1897  0.4814
 4175SOL    HW123987   4.570   0.644   9.028  1.0242  1.5227  0.7646
 4175SOL    HW223988   4.620   0.547   8.929 -1.2085  0.3180 -0.9965
 4176SOL     OW23989   0.860   1.475  11.860  0.1087  0.3127 -0.1719
 4176SOL    HW123990   0.935   1.416  11.870  0.1996  0.0512 -2.3208
 4176SOL    HW223991   0.904   1.555  11.834 -0.9914  0.8830 -0.2542
 4177SOL     OW23992   4.006   1.514   0.336 -0.1774  0.2670 -0.4520
 4177SOL    HW123993   4.095   1.550   0.336 -0.2488  0.4423 -0.7410
 4177SOL    HW223994   3.979   1.525   0.427  1.7964  0.8396  0.0760
 4178SOL     OW23995   2.515   0.128   3.446 -0.7401  0.0000 -0.1504
 4178SOL    HW123996   2.479   0.199   3.499 -1.0636  0.0061 -0.3772
 4178SOL    HW223997   2.517   0.165   3.358 -0.6016  2.1373  0.7507
 4179SOL     OW23998   4.682   2.932   3.989 -0.3915  0.0901  0.4512
 4179SOL    HW123999   4.677   2.909   3.896  2.2687  0.1870  0.2724
 4179SOL    HW224000   0.004   2.857   4.027  0.0512 -0.3690 -0.9670
 4180SOL     OW24001   0.195   2.390  15.195  0.7836  0.4980  0.2777
 4180SOL    HW124002   0.222   2.404  15.104  2.6992 -1.6462  0.5078
 4180SOL    HW224003   0.280   2.358  15.225 -0.1074 -1.1292  1.0354
 4181SOL     OW24004   1.776   2.402  15.185 -0.2892 -0.1227 -0.0860
 4181SOL    HW124005   1.841   2.334  15.165 -0.1373  0.0744 -0.2583
 4181SOL    HW224006   1.829   2.478  15.208 -1.1640  0.2307  0.7495
 4182SOL     OW24007   0.904   0.264  10.965 -0.3219  0.0287  0.0009
 4182SOL    HW124008   0.980   0.212  10.992  0.0077  1.1541  1.2815
 4182SOL    HW224009   0.941   0.343  10.924 -0.5787 -0.5485 -1.3154
 4183SOL     OW24010   3.639   3.801  12.037  0.3636 -0.6280  0.3114
 4183SOL    HW124011   3.653   3.894  12.054  0.2501 -0.5924  0.2128
 4183SOL    HW224012   3.640   3.809  11.942 -2.0500 -1.5978  0.2099
 4184SOL     OW24013   0.687   0.573   8.653 -0.0906 -0.3593 -0.0856
 4184SOL    HW124014   0.686   0.590   8.748  0.3866 -1.7709  0.1839
 4184SOL    HW224015   0.782   0.564   8.646 -0.0887 -1.9582  1.7648
 4185SOL     OW24016   2.138   1.633   4.337 -0.1056 -0.0014  0.8088
 4185SOL    HW124017   2.106   1.610   4.424  1.1888  0.0724  1.2952
 4185SOL    HW224018   2.231   1.620   4.354 -0.0591 -1.4636 -0.5387
 4186SOL     OW24019   1.271   3.599   6.394  0.0220 -0.1591  0.1454
 4186SOL    HW124020   1.240   3.594   6.484 -0.4423 -1.1747 -0.0759
 4186SOL    HW224021   1.209   3.553   6.339  0.8649  0.4459 -1.3052
 4187SOL     OW24022   3.759   3.643   4.891  0.0305  0.0581 -0.1841
 4187SOL    HW124023   3.800   3.562   4.860  2.4721  0.4702  2.0358
 4187SOL    HW224024   3.723   3.676   4.808 -0.8501  0.2074  0.2602
 4188SOL     OW24025   4.564   4.360  10.326  0.5404  0.6266 -0.3701
 4188SOL    HW124026   4.512   4.342  10.404 -0.5939  4.0080 -0.3226
 4188SOL    HW224027   4.566   4.274  10.285  0.7651 -0.2457  1.4994
 4189SOL     OW24028   4.313   1.799   3.072  0.1833 -0.0627  0.2015
 4189SOL    HW124029   4.381   1.840   3.019 -0.8537  0.3848 -0.7773
 4189SOL    HW224030   4.299   1.714   3.030 -0.1918  0.2948 -0.4037
 4190SOL     OW24031   0.005   2.902   9.354 -0.3171  0.1462  0.2112
 4190SOL    HW124032   4.693   2.844   9.422  2.2862 -0.9194  0.6298
 4190SOL    HW224033   0.004   2.990   9.392 -1.5286  0.2234 -0.0001
 4191SOL     OW24034   1.632   0.985   7.697  0.0042 -0.3920 -0.6783
 4191SOL    HW124035   1.728   0.992   7.689 -0.0375  1.6193  0.5203
 4191SOL    HW224036   1.618   0.939   7.615  0.2076  0.3351 -1.1227
 4192SOL     OW24037   3.698   1.898   1.666 -0.1154 -0.1756 -0.5953
 4192SOL    HW124038   3.652   1.828   1.620 -1.5115  0.2554  0.1196
 4192SOL    HW224039   3.667   1.980   1.626 -1.0765 -1.5728 -2.6929
 4193SOL     OW24040   0.892   0.297   2.388  0.9943  0.7463 -0.1092
 4193SOL    HW124041   0.941   0.370   2.426  3.3103 -0.4378 -0.8307
 4193SOL    HW224042   0.899   0.310   2.293 -0.8006 -3.3771 -0.7903
 4194SOL     OW24043   2.524   2.576   5.010 -0.3048 -0.1582 -0.2515
 4194SOL    HW124044   2.443   2.527   5.023  0.0793 -0.6123  0.4206
 4194SOL    HW224045   2.588   2.532   5.065 -0.1227  0.0762 -0.2726
 4195SOL     OW24046   1.711   2.921   8.005  0.2333  0.1655  0.1871
 4195SOL    HW124047   1.802   2.949   8.000  0.4749 -0.5116  0.6857
 4195SOL    HW224048   1.651   2.994   7.988 -0.0067 -0.6361 -2.4248
 4196SOL     OW24049   3.790   4.644  10.371 -0.5307 -0.1403 -0.2926
 4196SOL    HW124050   3.806   4.676  10.282  1.1030  0.9715  0.4144
 4196SOL    HW224051   3.775   0.006  10.414  1.6096  0.5020 -0.8206
 4197SOL     OW24052   0.947   3.071   1.642 -0.3764 -0.3281  0.0196
 4197SOL    HW124053   1.034   3.077   1.601  0.5674 -1.2744  1.8892
 4197SOL    HW224054   0.971   3.007   1.709  0.8992  0.9524  0.7857
 4198SOL     OW24055   2.403   4.159   1.774 -0.1007 -0.0209 -0.5995
 4198SOL    HW124056   2.462   4.101   1.725  0.4105 -3.0236  3.5359
 4198SOL    HW224057   2.382   4.220   1.703 -0.0340  1.5837  0.7796
 4199SOL     OW24058   2.123   2.287   2.549  0.1086 -0.2290  0.1678
 4199SOL    HW124059   2.034   2.313   2.527  0.6025 -0.5333 -2.1400
 4199SOL    HW224060   2.154   2.311   2.462 -0.4344 -0.3044 -0.0456
 4200SOL     OW24061   1.290   4.063   2.715 -0.2922 -0.0840 -0.0150
 4200SOL    HW124062   1.210   4.016   2.739 -0.4247 -1.2974 -2.9415
 4200SOL    HW224063   1.314   4.084   2.806  0.6303  0.2164 -0.3232
 4201SOL     OW24064   4.045   4.420  12.750 -0.1883 -0.1795 -0.2457
 4201SOL    HW124065   4.023   4.461  12.833  4.4520  0.8312  0.5017
 4201SOL    HW224066   3.963   4.453  12.713 -0.6304 -0.4009  0.5450
 4202SOL     OW24067   0.471   1.576   6.170  0.0200 -0.1315  0.3746
 4202SOL    HW124068   0.471   1.656   6.223  1.9254  1.6020 -2.1988
 4202SOL    HW224069   0.426   1.514   6.227 -0.1339 -0.3876 -0.0241
 4203SOL     OW24070   2.200   4.587  13.077 -0.0830  0.6173  0.3694
 4203SOL    HW124071   2.203   4.528  13.152 -3.6904 -0.4784 -0.3623
 4203SOL    HW224072   2.105   4.587  13.064  0.3626  1.6438 -3.0054
 4204SOL     OW24073   0.418   1.698   8.954  0.5370 -0.5195 -0.0317
 4204SOL    HW124074   0.397   1.785   8.988 -0.2272 -0.7749  0.1503
 4204SOL    HW224075   0.408   1.641   9.031  1.1477  1.8353  1.7969
 4205SOL     OW24076   2.185   0.942  11.389 -0.4078  0.6399 -0.4541
 4205SOL    HW124077   2.163   0.967  11.479  3.0241 -0.2419  0.6154
 4205SOL    HW224078   2.111   0.991  11.353 -1.9488 -1.4088 -0.1692
 4206SOL     OW24079   2.004   4.113   5.199 -0.1987 -0.6900 -0.8139
 4206SOL    HW124080   2.027   4.034   5.247 -1.5521  0.0937  1.1159
 4206SOL    HW224081   1.961   4.156   5.273  1.6736  0.8001 -0.5877
 4207SOL     OW24082   3.382   4.719   6.961 -0.1362 -0.2728 -0.3727
 4207SOL    HW124083   3.345   4.664   6.892  0.1681 -1.7813  0.6750
 4207SOL    HW224084   3.307   0.055   6.965  1.0520  1.0733  1.6813
 4208SOL     OW24085   4.620   1.182   8.742 -0.4249  0.0917 -0.2044
 4208SOL    HW124086   4.558   1.121   8.780 -1.0591  0.6735 -0.2900
 4208SOL    HW224087   4.641   1.238   8.817  1.8319 -0.3451 -0.5025
 4209SOL     OW24088   1.414   3.568   4.141 -0.1276 -0.4833 -0.4772
 4209SOL    HW124089   1.349   3.503   4.113  0.8657 -2.8437  2.7167
 4209SOL    HW224090   1.440   3.538   4.228  0.2437 -0.1877 -0.4892
 4210SOL     OW24091   4.400   1.930  12.611  0.3209  0.2813  0.6520
 4210SOL    HW124092   4.492   1.948  12.590 -0.3209  2.0935 -0.5701
 4210SOL    HW224093   4.350   1.950  12.532 -1.6042 -0.4766  1.6902
 4211SOL     OW24094   1.793   1.225  15.708  0.1916  0.5227  0.2748
 4211SOL    HW124095   1.709   1.237  15.751  0.1523 -0.9453  0.6046
 4211SOL    HW224096   1.816   1.317  15.695  1.7347 -0.2548 -2.3966
 4212SOL     OW24097   4.495   3.157   4.413 -0.3668 -0.0619  0.1401
 4212SOL    HW124098   4.550   3.154   4.335  1.6199  1.7177  1.4725
 4212SOL    HW224099   4.554   3.150   4.487  1.3560  0.4233 -1.2023
 4213SOL     OW24100   2.650   0.935   3.898 -0.6884 -0.3625 -0.0353
 4213SOL    HW124101   2.626   0.939   3.805  0.2216 -1.3049 -0.3076
 4213SOL    HW224102   2.706   1.009   3.921 -0.5963  0.1770 -1.9612
 4214SOL     OW24103   1.162   2.833   3.604 -0.4786 -0.0173  0.1481
 4214SOL    HW124104   1.138   2.837   3.512 -0.6859  1.4573  0.2583
 4214SOL    HW224105   1.254   2.857   3.602 -0.0852 -1.4621  1.1842
 4215SOL     OW24106   1.839   2.915  16.942  0.4953  0.2012  0.6190
 4215SOL    HW124107   1.920   2.919  16.891  1.6576 -0.1577  2.4623
 4215SOL    HW224108   1.789   2.860  16.882  2.6094  0.0051 -0.9427
 4216SOL     OW24109   0.128   1.608   1.545 -0.3767  0.3627  0.1002
 4216SOL    HW124110   0.176   1.688   1.523  1.2162  0.1481  2.7904
 4216SOL    HW224111   0.151   1.595   1.637  0.1050  1.0814  0.0876
 4217SOL     OW24112   3.698   2.143  11.130 -0.3279  0.4599 -0.1226
 4217SOL    HW124113   3.652   2.226  11.121 -0.8976  0.1920  0.2708
 4217SOL    HW224114   3.750   2.148  11.050  0.8656 -0.1746  0.6088
 4218SOL     OW24115   1.176   2.116   9.942  0.0097  0.1998 -0.1396
 4218SOL    HW124116   1.201   2.052   9.875  1.5141 -0.8794  1.4432
 4218SOL    HW224117   1.114   2.059   9.987 -1.6761 -0.1054 -2.8711
 4219SOL     OW24118   3.880   4.315   3.589  0.1200  0.0917 -0.1356
 4219SOL    HW124119   3.823   4.332   3.665 -0.2332  2.2899 -0.8893
 4219SOL    HW224120   3.921   4.231   3.611  0.9455  0.3460 -0.7129
 4220SOL     OW24121   1.631   4.347   7.533 -0.0763  0.4153  0.0514
 4220SOL    HW124122   1.537   4.333   7.526  0.3293 -0.9661 -2.8405
 4220SOL    HW224123   1.663   4.308   7.451 -0.1126 -0.4640  0.4529
 4221SOL     OW24124   1.484   3.631  16.814  0.3544 -1.0075  0.2229
 4221SOL    HW124125   1.484   3.536  16.806 -0.5207 -1.1279  1.4691
 4221SOL    HW224126   1.467   3.629  16.909 -0.9293  1.1041  0.0296
 4222SOL     OW24127   1.437   3.901  16.733 -0.2017  0.1185  0.2868
 4222SOL    HW124128   1.447   3.809  16.757 -2.0288 -0.5744 -1.5917
 4222SOL    HW224129   1.509   3.935  16.786  0.1027 -0.8836  0.5090
 4223SOL     OW24130   4.061   0.302  16.896  1.0369  0.1605  0.3052
 4223SOL    HW124131   3.968   0.315  16.877  2.0634  3.1406 -2.6736
 4223SOL    HW224132   4.088   0.269  16.810 -1.1487  0.0139 -0.3239
 4224SOL     OW24133   4.308   1.974   0.167  0.2427 -0.5723  0.0668
 4224SOL    HW124134   4.214   1.985   0.180  0.0103 -1.5401 -0.7257
 4224SOL    HW224135   4.318   2.024   0.086  1.9595 -0.7176  0.1863
 4225SOL     OW24136   3.225   0.175   1.755  0.1007  0.0447  0.3816
 4225SOL    HW124137   3.159   0.110   1.778  1.9574 -1.4428  1.5214
 4225SOL    HW224138   3.193   0.210   1.672  2.9349  0.5568 -0.4976
 4226SOL     OW24139   0.545   1.702   3.719  0.5965 -0.4654 -0.4240
 4226SOL    HW124140   0.615   1.675   3.779 -1.7202  0.1985  2.5302
 4226SOL    HW224141   0.538   1.633   3.652 -0.4089  0.5695 -1.3821
 4227SOL     OW24142   0.334   1.284   8.595  0.3526 -0.2872 -0.1803
 4227SOL    HW124143   0.330   1.192   8.621 -0.9076  0.8285  3.5954
 4227SOL    HW224144   0.347   1.328   8.679  3.2430 -0.7653 -0.3985
 4228SOL     OW24145   4.612   4.458   9.783  0.1211 -0.1571  0.6874
 4228SOL    HW124146   4.637   4.485   9.694 -1.6403 -1.1903 -0.1381
 4228SOL    HW224147   4.657   4.525   9.834 -0.4859  0.6159  0.2047
 4229SOL     OW24148   1.611   3.563   4.560 -0.6924 -0.0790 -0.0205
 4229SOL    HW124149   1.559   3.510   4.500  1.5903 -1.4002 -0.8240
 4229SOL    HW224150   1.699   3.566   4.521 -0.1672 -1.0517  1.0807
 4230SOL     OW24151   0.702   2.860  12.848 -0.0010  0.6748  0.2522
 4230SOL    HW124152   0.714   2.771  12.816 -1.3181  0.7219 -0.3859
 4230SOL    HW224153   0.770   2.905  12.799  0.8091  0.0548  0.8214
 4231SOL     OW24154   2.837   4.580   2.822 -0.1134  0.5340 -0.4008
 4231SOL    HW124155   2.877   4.666   2.811  1.2118 -0.4142 -2.9273
 4231SOL    HW224156   2.766   4.579   2.759  0.3246  0.4853 -0.8897
 4232SOL     OW24157   4.199   0.111  16.417  0.0151  0.0115 -1.2959
 4232SOL    HW124158   4.119   0.098  16.468  0.7233  0.0561 -0.1599
 4232SOL    HW224159   4.255   0.146  16.487 -0.5230 -0.1341 -0.7876
 4233SOL     OW24160   1.919   3.510   3.936  0.6172 -0.2043 -0.0107
 4233SOL    HW124161   1.862   3.570   3.985 -0.7927 -0.3868 -1.3947
 4233SOL    HW224162   1.907   3.540   3.845  4.0749 -1.6208 -0.9165
 4234SOL     OW24163   2.344   2.234  14.511 -0.3164 -0.0687 -0.3209
 4234SOL    HW124164   2.249   2.232  14.518 -0.4392 -1.1414 -2.2173
 4234SOL    HW224165   2.365   2.258  14.420  1.6402  2.1994  0.7123
 4235SOL     OW24166   3.554   2.562  17.118  0.3322  0.0701 -0.1974
 4235SOL    HW124167   3.537   2.490  17.179 -1.2144  1.2407  0.7501
 4235SOL    HW224168   3.484   2.612  17.159  0.6579  1.3957 -1.2790
 4236SOL     OW24169   1.067   0.280   6.660  0.0966 -0.0831  0.2398
 4236SOL    HW124170   1.116   0.214   6.709 -0.7167 -0.5230  0.4633
 4236SOL    HW224171   1.052   0.351   6.724  1.5211 -1.6651  2.3368
 4237SOL     OW24172   2.405   0.970   5.569 -0.1705 -0.7183 -0.4903
 4237SOL    HW124173   2.432   1.053   5.531 -0.4654 -0.3644  0.0713
 4237SOL    HW224174   2.431   0.983   5.660  1.0477 -0.1385 -0.9309
 4238SOL     OW24175   4.059   0.234   2.130 -0.1459  0.5322  0.4307
 4238SOL    HW124176   4.010   0.286   2.067 -0.1245 -0.4606 -0.4104
 4238SOL    HW224177   3.980   0.184   2.149 -0.1956  0.3482 -0.2720
 4239SOL     OW24178   3.506   2.475   4.633 -0.2519  0.1348 -0.2743
 4239SOL    HW124179   3.434   2.523   4.592 -2.4980 -1.9180  1.2825
 4239SOL    HW224180   3.517   2.406   4.567  2.4438  1.4078 -1.1490
 4240SOL     OW24181   2.999   4.028   9.792 -0.1022 -0.4106 -0.2091
 4240SOL    HW124182   2.987   4.107   9.740 -0.4094  0.6734  1.5184
 4240SOL    HW224183   3.093   4.023   9.775  0.3356 -1.3715  2.5351
 4241SOL     OW24184   0.925   1.200  12.558  0.1273 -0.2140  0.5960
 4241SOL    HW124185   0.927   1.291  12.526 -1.2591 -0.8530 -1.2695
 4241SOL    HW224186   0.831   1.182  12.557  0.2844 -1.0137  0.8282
 4242SOL     OW24187   2.053   4.002  17.198  0.3742 -0.0815  0.6046
 4242SOL    HW124188   2.125   4.065  17.195  0.6554 -0.4391 -0.3841
 4242SOL    HW224189   2.021   4.028  17.284 -0.5263 -0.8406  0.4962
 4243SOL     OW24190   0.775   1.861  11.832 -0.0182 -0.0411 -0.4145
 4243SOL    HW124191   0.709   1.807  11.876  2.7988 -1.9345  1.5267
 4243SOL    HW224192   0.843   1.793  11.826 -0.6167 -0.6542 -0.3050
 4244SOL     OW24193   3.304   3.091   4.028 -0.2933 -0.1449  0.0527
 4244SOL    HW124194   3.333   3.182   4.021  1.7380 -0.8402 -0.5589
 4244SOL    HW224195   3.366   3.045   3.970  0.4561 -0.1972  0.8904
 4245SOL     OW24196   2.195   1.844  15.456  0.3011 -0.5489 -0.1363
 4245SOL    HW124197   2.208   1.923  15.403  4.0547 -0.7268  0.5078
 4245SOL    HW224198   2.145   1.791  15.394  1.3211 -2.2925  0.5571
 4246SOL     OW24199   3.768   4.452   1.070  0.2385  0.3461  0.4216
 4246SOL    HW124200   3.723   4.529   1.034 -3.2263 -0.4006  3.0591
 4246SOL    HW224201   3.749   4.386   1.003 -0.7052  1.3171 -0.2652
 4247SOL     OW24202   1.219   0.543   5.292 -0.5227 -0.0457  0.1762
 4247SOL    HW124203   1.295   0.560   5.235 -0.6012 -0.7666 -0.1501
 4247SOL    HW224204   1.214   0.452   5.322  0.4502 -0.4079 -0.7369
 4248SOL     OW24205   1.961   3.573   0.335 -0.2031  0.7402  0.5534
 4248SOL    HW124206   1.915   3.575   0.252  0.9029  2.3807 -0.0341
 4248SOL    HW224207   2.017   3.650   0.327  1.5389 -0.5313  0.5225
 4249SOL     OW24208   4.523   3.822   7.268 -0.2074  0.1999  0.1999
 4249SOL    HW124209   4.485   3.905   7.238  1.3157  1.2760  1.2424
 4249SOL    HW224210   4.485   3.825   7.355  0.3989 -2.5373  0.5679
 4250SOL     OW24211   2.268   0.061   1.046  0.5791  0.1950 -0.5039
 4250SOL    HW124212   2.183   0.020   1.031  0.7322  0.6549 -2.5645
 4250SOL    HW224213   2.291   0.081   0.956  1.4926 -0.1738 -0.3512
 4251SOL     OW24214   1.316   0.118   3.442  0.0527  0.1675  0.5734
 4251SOL    HW124215   1.324   0.029   3.475  0.5894 -0.0680 -0.2009
 4251SOL    HW224216   1.252   0.120   3.371  0.4602 -1.1381  0.1669
 4252SOL     OW24217   4.215   0.189  17.181  0.4190 -0.2176 -0.3325
 4252SOL    HW124218   4.214   0.124  17.251 -2.0374 -1.1624 -1.2451
 4252SOL    HW224219   4.310   0.199  17.167  0.4593  1.9512  1.5408
 4253SOL     OW24220   3.927   2.478  14.802 -0.5958  0.1749 -0.2985
 4253SOL    HW124221   3.912   2.389  14.833 -1.8916  0.9551  1.2785
 4253SOL    HW224222   3.843   2.512  14.834  0.4108 -0.1064  2.6519
 4254SOL     OW24223   0.470   2.227   0.938 -0.0471 -0.0538 -0.3449
 4254SOL    HW124224   0.547   2.222   0.882  0.2218 -1.2562  0.1233
 4254SOL    HW224225   0.408   2.190   0.876 -1.3715 -0.5160  1.2462
 4255SOL     OW24226   2.012   2.011   7.563 -0.2169  0.3963  0.6897
 4255SOL    HW124227   2.057   1.964   7.633 -0.9218  1.4888  1.8724
 4255SOL    HW224228   1.921   1.993   7.587 -0.3437 -1.0216 -0.8399
 4256SOL     OW24229   2.910   4.582  16.658 -0.3158  0.2417  0.3196
 4256SOL    HW124230   2.969   4.539  16.719  0.3343  0.1541 -0.3680
 4256SOL    HW224231   2.966   4.648  16.616  0.6781 -2.0584 -2.0170
 4257SOL     OW24232   3.176   1.220  12.814 -0.1071 -0.0005  0.0416
 4257SOL    HW124233   3.108   1.282  12.839 -1.1265 -0.9994 -0.2592
 4257SOL    HW224234   3.184   1.223  12.719 -0.3247  0.8537  0.0550
 4258SOL     OW24235   3.620   2.393  11.020  0.2374 -0.5702  0.3283
 4258SOL    HW124236   3.551   2.457  11.002  2.2218  1.8556  1.4483
 4258SOL    HW224237   3.638   2.425  11.108  2.6326  2.7612 -1.3577
 4259SOL     OW24238   2.706   4.483  10.252 -0.1159  0.4885  0.2645
 4259SOL    HW124239   2.724   4.519  10.339 -0.3567  0.8559  0.1618
 4259SOL    HW224240   2.794   4.482  10.215 -0.6780 -2.0530 -1.0116
 4260SOL     OW24241   2.798   4.005   1.721 -0.0872  0.2632 -0.4379
 4260SOL    HW124242   2.704   3.999   1.704  0.0841  0.3248 -1.4073
 4260SOL    HW224243   2.822   3.933   1.779  1.0437  1.1824  0.2332
 4261SOL     OW24244   0.365   3.791   4.811  0.1828  0.0419 -0.3344
 4261SOL    HW124245   0.456   3.766   4.824  0.2796  0.0794 -0.9401
 4261SOL    HW224246   0.353   3.851   4.885  1.6385  0.4453 -0.4288
 4262SOL     OW24247   0.908   0.910   4.736 -0.6287  0.2171  0.6180
 4262SOL    HW124248   0.853   0.969   4.788 -0.0186 -0.3625  1.9071
 4262SOL    HW224249   0.970   0.882   4.803  0.8601  0.8749 -0.4779
 4263SOL     OW24250   2.423   1.732   5.247 -0.5964  0.2626  0.1878
 4263SOL    HW124251   2.409   1.826   5.257  2.8889  0.8965 -1.0331
 4263SOL    HW224252   2.380   1.705   5.166 -2.0425  0.3869  0.9096
 4264SOL     OW24253   3.954   2.296   6.472  0.4818 -0.0118  0.7086
 4264SOL    HW124254   3.955   2.230   6.542 -0.4899  0.6373  1.3360
 4264SOL    HW224255   3.860   2.308   6.464  0.8144  1.5449 -0.8523
 4265SOL     OW24256   3.001   2.035   7.885 -0.6815 -0.1768  0.4669
 4265SOL    HW124257   2.915   2.068   7.912 -0.1127  0.8964  0.9434
 4265SOL    HW224258   2.974   2.002   7.799  1.0152 -0.0213 -0.1248
 4266SOL     OW24259   3.311   1.879   9.153 -0.5936 -0.1841  0.2468
 4266SOL    HW124260   3.260   1.946   9.106 -0.2504  0.0668  0.2322
 4266SOL    HW224261   3.236   1.824   9.175 -2.0486  0.7935 -2.2519
 4267SOL     OW24262   1.346   1.238   6.200 -0.3070  0.3049  0.1728
 4267SOL    HW124263   1.299   1.278   6.127 -0.5859 -2.8680 -1.4006
 4267SOL    HW224264   1.335   1.299   6.274  1.1569  1.9880 -0.9956
 4268SOL     OW24265   1.818   2.546   8.273 -0.0867  0.2026  0.5949
 4268SOL    HW124266   1.727   2.531   8.298  0.2933 -0.3735  1.6217
 4268SOL    HW224267   1.824   2.640   8.256 -0.5804  0.0827 -0.2491
 4269SOL     OW24268   2.749   1.841   0.488 -0.4219  0.5582  0.1707
 4269SOL    HW124269   2.726   1.751   0.509  2.2414  0.0241  0.9031
 4269SOL    HW224270   2.751   1.883   0.574  2.4663  1.6023 -0.3778
 4270SOL     OW24271   1.604   1.394   9.352 -0.0426 -0.6802  0.0983
 4270SOL    HW124272   1.540   1.459   9.380  1.5953  0.0457  2.1039
 4270SOL    HW224273   1.676   1.453   9.333 -1.3966  1.0226  0.2521
 4271SOL     OW24274   2.150   3.231   1.332 -0.3908 -0.0363  0.4936
 4271SOL    HW124275   2.204   3.165   1.290 -0.6565 -1.0640  1.7910
 4271SOL    HW224276   2.136   3.191   1.418  0.8678  0.6066  0.9997
 4272SOL     OW24277   2.665   1.303  13.612 -0.3147 -0.1808 -0.1939
 4272SOL    HW124278   2.632   1.382  13.569  0.1436 -0.2088 -0.5952
 4272SOL    HW224279   2.725   1.281  13.541  0.4374  1.3136 -0.0235
 4273SOL     OW24280   0.100   4.068   1.329 -0.2445  0.4488 -0.3702
 4273SOL    HW124281   0.127   4.133   1.393 -1.1300  1.4738 -1.0299
 4273SOL    HW224282   0.188   4.047   1.298  0.4807  0.2283  1.9045
 4274SOL     OW24283   4.327   3.282   8.835  0.0116  0.0275  0.0296
 4274SOL    HW124284   4.252   3.339   8.851 -1.2991 -1.3103 -1.2721
 4274SOL    HW224285   4.343   3.246   8.922  1.6352  0.5515 -0.0452
 4275SOL     OW24286   3.365   1.484   5.239  0.1149 -0.2040  0.4387
 4275SOL    HW124287   3.392   1.477   5.330  2.2978  2.6745 -0.0134
 4275SOL    HW224288   3.307   1.559   5.246  1.4959  0.7738  1.2417
 4276SOL     OW24289   1.306   0.913  13.067 -0.0575 -0.4164 -0.0028
 4276SOL    HW124290   1.313   0.836  13.011  1.0588  1.1980 -2.0713
 4276SOL    HW224291   1.253   0.975  13.016  0.3226 -0.2820 -0.2277
 4277SOL     OW24292   0.610   0.489   0.926  0.6246 -0.1752  0.1031
 4277SOL    HW124293   0.646   0.575   0.947 -2.7656  1.2058  0.1165
 4277SOL    HW224294   0.557   0.516   0.852 -1.1016  0.6943  1.6672
 4278SOL     OW24295   1.101   0.427   8.352 -0.3826  0.2874  0.1788
 4278SOL    HW124296   1.094   0.409   8.445 -0.8639 -0.8490 -0.0783
 4278SOL    HW224297   1.086   0.521   8.356  0.5007  0.4042  0.7247
 4279SOL     OW24298   1.759   3.107  17.138 -0.9313 -0.1206 -0.2680
 4279SOL    HW124299   1.743   3.034  17.198 -0.7939  1.4959  1.7168
 4279SOL    HW224300   1.791   3.056  17.063 -0.0673 -0.1417  0.1185
 4280SOL     OW24301   1.589   2.956  10.981 -0.0688  0.0978  0.3399
 4280SOL    HW124302   1.506   2.979  10.939  1.0703  1.4124 -1.1861
 4280SOL    HW224303   1.560   2.945  11.072  0.2929 -1.9062  0.2081
 4281SOL     OW24304   1.683   4.704   8.047  0.1158  0.1783 -0.4624
 4281SOL    HW124305   1.610   0.015   8.100 -0.3089  1.1654 -1.6761
 4281SOL    HW224306   1.732   0.062   8.061  0.4839 -0.1106 -0.0914
 4282SOL     OW24307   2.899   3.591  15.077 -0.1228  0.4923 -0.9012
 4282SOL    HW124308   2.863   3.564  15.162  2.1216  2.6356  0.6959
 4282SOL    HW224309   2.973   3.530  15.072 -0.3843  0.2152 -1.4224
 4283SOL     OW24310   0.098   2.111   2.644 -0.2971  0.4516 -0.8316
 4283SOL    HW124311   0.148   2.029   2.643  0.3909  0.8542  0.1314
 4283SOL    HW224312   0.096   2.138   2.553  2.2508 -0.9589 -1.3023
 4284SOL     OW24313   4.657   3.212  14.485 -0.0314  0.1446  0.0370
 4284SOL    HW124314   4.621   3.164  14.410  0.9054 -0.4341 -0.0464
 4284SOL    HW224315   0.020   3.170  14.495 -0.4637 -0.8893 -0.6032
 4285SOL     OW24316   0.575   3.331  12.537  0.3234  0.6215 -0.2693
 4285SOL    HW124317   0.630   3.389  12.590  2.3534 -1.2747 -0.2866
 4285SOL    HW224318   0.571   3.253  12.593 -1.2268  0.4363 -0.6631
 4286SOL     OW24319   4.679   2.326   2.760 -0.5358 -0.3007  0.1592
 4286SOL    HW124320   4.713   2.258   2.702 -0.1779  0.6764 -0.7836
 4286SOL    HW224321   0.014   2.401   2.744  0.2309 -0.6850  1.1309
 4287SOL     OW24322   4.323   2.200   3.972 -0.4112 -0.5647  0.0751
 4287SOL    HW124323   4.298   2.290   3.991  2.0895  0.0253  0.5941
 4287SOL    HW224324   4.262   2.160   4.033  0.8705  0.3562  1.9736
 4288SOL     OW24325   1.111   1.343  12.751  0.5124  0.2069  0.1580
 4288SOL    HW124326   1.036   1.290  12.723 -0.4286  1.0591  1.0799
 4288SOL    HW224327   1.178   1.307  12.693 -0.3407  0.4992 -1.0242
 4289SOL     OW24328   4.156   1.425   9.680  0.2609  0.3074 -0.2260
 4289SOL    HW124329   4.120   1.377   9.605  0.5782  1.6981 -1.2601
 4289SOL    HW224330   4.081   1.480   9.701 -1.2403 -1.4345 -0.9522
 4290SOL     OW24331   1.019   2.923   1.845 -0.5687 -0.1848 -0.1574
 4290SOL    HW124332   1.105   2.884   1.829 -1.3843 -1.1041 -2.2394
 4290SOL    HW224333   1.048   2.983   1.914  1.3084 -0.5327 -0.6306
 4291SOL     OW24334   2.464   4.174   3.219  0.1475 -0.0907 -0.3960
 4291SOL    HW124335   2.454   4.151   3.311 -1.9618 -0.6042 -0.7549
 4291SOL    HW224336   2.373   4.181   3.192 -0.2910 -1.0666  0.8533
 4292SOL     OW24337   1.411   2.987   3.216 -0.4802 -0.1680  0.2724
 4292SOL    HW124338   1.485   2.972   3.157 -0.3371  2.0481 -0.1377
 4292SOL    HW224339   1.368   2.903   3.201 -0.7230  0.2123 -1.2195
 4293SOL     OW24340   0.515   3.479  14.687 -0.1654 -0.3110  0.1382
 4293SOL    HW124341   0.423   3.504  14.692  0.0898  0.7136 -0.3329
 4293SOL    HW224342   0.512   3.383  14.685 -1.9902 -0.2494 -0.2674
 4294SOL     OW24343   2.988   4.498  15.558  0.1583  0.2597  0.1822
 4294SOL    HW124344   3.021   4.435  15.623  0.4049  0.4714  0.2614
 4294SOL    HW224345   2.895   4.494  15.578 -0.2213  3.0804 -0.9919
 4295SOL     OW24346   0.369   3.838   1.593  0.0793  0.2001 -0.2457
 4295SOL    HW124347   0.430   3.878   1.654  1.9789 -0.9157 -1.3760
 4295SOL    HW224348   0.290   3.886   1.617 -1.5526 -1.5453 -2.0062
 4296SOL     OW24349   4.259   3.457   3.076  0.1254  0.3007 -0.1375
 4296SOL    HW124350   4.276   3.528   3.014 -0.0716  2.6510  2.4844
 4296SOL    HW224351   4.168   3.474   3.101  0.2463 -1.0359  1.2045
 4297SOL     OW24352   2.874   1.862  15.008 -0.6318  0.2337 -0.0688
 4297SOL    HW124353   2.785   1.857  15.043 -0.8713  1.1905 -0.5328
 4297SOL    HW224354   2.910   1.789  15.057 -2.5520 -1.7710 -1.6615
 4298SOL     OW24355   0.459   1.969   9.060 -0.3686 -0.0656  0.2005
 4298SOL    HW124356   0.364   1.979   9.049 -0.3899 -0.1253  0.3260
 4298SOL    HW224357   0.495   2.044   9.014 -1.2030 -0.1194 -0.5378
 4299SOL     OW24358   3.663   3.635   6.643  0.1116  0.2169  0.1855
 4299SOL    HW124359   3.749   3.595   6.625 -0.0581 -1.2658  2.7799
 4299SOL    HW224360   3.603   3.562   6.659  0.4671  0.2803  1.7256
 4300SOL     OW24361   2.244   4.484   8.778  0.6519  0.1816  0.0862
 4300SOL    HW124362   2.163   4.513   8.819  1.0214  1.9797 -0.4529
 4300SOL    HW224363   2.215   4.455   8.691 -0.3499 -1.7982  1.0806
 4301SOL     OW24364   0.340   2.041   5.260  0.3424 -0.3240  0.1880
 4301SOL    HW124365   0.271   2.004   5.314  1.5368 -1.5337  0.8899
 4301SOL    HW224366   0.347   2.132   5.289  0.4849 -0.9657  2.1676
 4302SOL     OW24367   3.306   2.338   5.429  0.0605 -0.0984  0.2100
 4302SOL    HW124368   3.374   2.368   5.369 -0.8203  0.0095 -0.7285
 4302SOL    HW224369   3.346   2.372   5.510 -1.5555  1.0734  0.5213
 4303SOL     OW24370   3.741   0.240   2.398  0.0378 -0.0387  0.7227
 4303SOL    HW124371   3.784   0.205   2.320  1.3579 -1.7916  2.2284
 4303SOL    HW224372   3.653   0.204   2.395  0.1455 -0.2728  0.3543
 4304SOL     OW24373   0.296   0.083   5.593  0.0206 -1.1736 -0.0868
 4304SOL    HW124374   0.330   0.144   5.526 -0.6160 -1.0774 -0.3206
 4304SOL    HW224375   0.378   0.048   5.629 -0.3789 -2.0416 -0.0286
 4305SOL     OW24376   0.670   4.465  12.097 -0.0101 -0.3967 -0.5162
 4305SOL    HW124377   0.747   4.479  12.043 -1.0376 -0.1976 -1.9178
 4305SOL    HW224378   0.638   4.555  12.095  1.1917  0.0309 -0.4014
 4306SOL     OW24379   1.906   3.726   2.602 -0.0671  0.4653  0.5606
 4306SOL    HW124380   1.900   3.819   2.577 -2.8200  0.1638  0.1173
 4306SOL    HW224381   1.982   3.692   2.556 -2.4996 -1.7929 -1.7789
 4307SOL     OW24382   3.556   1.786   9.205 -0.2861 -0.2159  0.0913
 4307SOL    HW124383   3.534   1.735   9.283  0.9816 -0.8124  0.0575
 4307SOL    HW224384   3.471   1.818   9.177 -1.4754 -1.4644  2.3324
 4308SOL     OW24385   4.219   3.532   8.191 -0.6954  0.6702  0.1657
 4308SOL    HW124386   4.243   3.617   8.154  1.5954 -0.1293 -0.1889
 4308SOL    HW224387   4.262   3.534   8.276  1.0105  0.1369 -0.6735
 4309SOL     OW24388   0.147   2.340   8.030 -0.1380 -0.6584  0.3819
 4309SOL    HW124389   0.239   2.356   8.054 -1.0127  2.3958  1.6660
 4309SOL    HW224390   0.114   2.341   8.119 -2.0324  0.4020 -0.3462
 4310SOL     OW24391   2.662   4.356   0.427 -0.6778 -0.2128  0.2156
 4310SOL    HW124392   2.647   4.411   0.503  0.9159  0.7502 -0.1840
 4310SOL    HW224393   2.664   4.265   0.459  0.8405 -1.2801 -2.8787
 4311SOL     OW24394   4.593   3.297   3.530 -0.4446  0.1075 -0.5667
 4311SOL    HW124395   4.500   3.305   3.512 -0.5723 -2.0696 -0.8508
 4311SOL    HW224396   4.624   3.234   3.465  0.3865  0.7713 -0.8278
 4312SOL     OW24397   2.960   1.200   4.237  0.2563  0.4289  0.0430
 4312SOL    HW124398   3.020   1.129   4.257  0.5447 -0.1335 -2.9496
 4312SOL    HW224399   2.954   1.209   4.142  1.8733  1.1718  0.0057
 4313SOL     OW24400   0.789   0.268  16.994 -0.2124 -0.6991  0.3386
 4313SOL    HW124401   0.850   0.208  17.036 -0.5038 -0.5886  0.9240
 4313SOL    HW224402   0.834   0.352  16.995 -2.2720  0.3897  1.6400
 4314SOL     OW24403   1.332   1.378   2.474 -0.5733 -0.0487  0.5103
 4314SOL    HW124404   1.268   1.444   2.500 -2.2860 -1.5779  0.1360
 4314SOL    HW224405   1.289   1.353   2.392 -0.8681 -0.4888  0.7966
 4315SOL     OW24406   3.734   2.576   0.963 -0.8826 -0.2060  0.1531
 4315SOL    HW124407   3.641   2.564   0.981 -0.7785  0.6754  1.2890
 4315SOL    HW224408   3.754   2.665   0.994 -0.3706  0.3612 -1.7997
 4316SOL     OW24409   1.148   3.170   4.636 -0.2711 -0.0693  0.3813
 4316SOL    HW124410   1.145   3.238   4.702 -0.7142  1.3996 -1.1474
 4316SOL    HW224411   1.184   3.105   4.696  0.8887 -1.3466 -1.6809
 4317SOL     OW24412   2.130   4.698   1.292 -0.1757 -0.7119 -0.0927
 4317SOL    HW124413   2.149   4.708   1.385 -2.3464 -1.6269  0.4400
 4317SOL    HW224414   2.058   0.033   1.268 -0.7241 -0.9443  1.0086
 4318SOL     OW24415   0.153   4.719   0.979  0.2108 -0.4354 -0.0068
 4318SOL    HW124416   0.226   4.658   0.966  0.5085 -0.7610  3.0537
 4318SOL    HW224417   0.072   4.672   0.958 -0.0930 -0.6507  1.6189
 4319SOL     OW24418   3.148   4.649   9.601 -0.3015 -0.1354  0.0699
 4319SOL    HW124419   3.080   4.716   9.608 -0.1136 -0.2230  2.7814
 4319SOL    HW224420   3.138   4.591   9.526  2.3361 -1.0383  0.3997
 4320SOL     OW24421   4.570   2.048   4.456  0.1644 -0.1543 -0.0452
 4320SOL    HW124422   4.535   2.136   4.473 -1.1379 -0.4746 -1.0922
 4320SOL    HW224423   4.532   2.026   4.371  0.4086 -0.6199 -0.0284
 4321SOL     OW24424   1.133   1.679   4.312 -0.2190 -0.4035 -0.1390
 4321SOL    HW124425   1.056   1.634   4.347  0.2023 -1.5652 -0.7031
 4321SOL    HW224426   1.135   1.764   4.357  0.4382 -1.1382  1.2219
 4322SOL     OW24427   0.694   1.617  17.044 -0.7106 -0.4729 -0.2327
 4322SOL    HW124428   0.678   1.623  17.138  3.0680  0.6569  0.3400
 4322SOL    HW224429   0.646   1.693  17.013  0.1119  0.1366 -0.0133
 4323SOL     OW24430   1.259   0.771   0.449  0.7371  0.2247 -0.4809
 4323SOL    HW124431   1.216   0.714   0.385 -1.9431  0.5596  1.0251
 4323SOL    HW224432   1.256   0.857   0.408  0.9696  0.2121 -0.5234
 4324SOL     OW24433   2.683   1.428   7.273 -0.2027 -0.2201  0.8255
 4324SOL    HW124434   2.762   1.457   7.227 -0.8905  0.2499 -0.0572
 4324SOL    HW224435   2.666   1.349   7.223 -2.6229  1.4591 -1.0192
 4325SOL     OW24436   3.550   1.544   3.697 -0.2142 -0.2545 -0.5838
 4325SOL    HW124437   3.620   1.484   3.674 -0.4361 -0.6775 -0.1481
 4325SOL    HW224438   3.497   1.482   3.747 -2.3253  0.4264 -1.9879
 4326SOL     OW24439   3.225   0.667   5.493  0.0904  0.2259 -0.5123
 4326SOL    HW124440   3.224   0.740   5.554 -1.0951  0.8545 -1.2814
 4326SOL    HW224441   3.140   0.678   5.450 -0.9134 -2.5756  0.7135
 4327SOL     OW24442   3.020   4.483   4.634 -0.0587  0.5349  0.6092
 4327SOL    HW124443   3.090   4.494   4.698 -1.2643  1.2726  1.7903
 4327SOL    HW224444   2.944   4.472   4.691 -0.5514 -1.5723 -0.4490
 4328SOL     OW24445   4.493   1.632  16.085 -0.1660 -0.1699  0.6140
 4328SOL    HW124446   4.572   1.597  16.045  0.9640  2.5489  0.4744
 4328SOL    HW224447   4.474   1.563  16.149 -1.4414 -0.3309  0.0606
 4329SOL     OW24448   4.000   3.446   2.883 -0.3516  1.2507  0.0306
 4329SOL    HW124449   3.995   3.490   2.798 -1.5003  0.8672 -0.0903
 4329SOL    HW224450   4.084   3.401   2.871 -1.9322 -1.2490 -1.5803
 4330SOL     OW24451   1.027   4.076   1.730  0.0898  0.1114  0.2382
 4330SOL    HW124452   1.110   4.078   1.681 -0.6914 -0.2871 -1.0937
 4330SOL    HW224453   0.973   4.127   1.670  0.0024 -0.9946 -0.6286
 4331SOL     OW24454   2.473   4.064  15.149  0.3576  0.4198 -0.1587
 4331SOL    HW124455   2.448   4.043  15.239 -1.2313 -2.2242 -1.2443
 4331SOL    HW224456   2.518   3.986  15.119  0.2644 -0.0797  0.9849
 4332SOL     OW24457   3.380   1.123   5.638 -0.6061 -0.0848  0.4463
 4332SOL    HW124458   3.322   1.048   5.626 -0.8518 -0.0998  1.7066
 4332SOL    HW224459   3.403   1.158   5.552 -1.7759 -2.1941 -0.7253
 4333SOL     OW24460   1.664   0.507   2.581  0.0446  0.4491  0.2231
 4333SOL    HW124461   1.660   0.413   2.565  0.9999  0.6429 -1.1513
 4333SOL    HW224462   1.742   0.518   2.526 -0.0954  0.0841 -0.0476
 4334SOL     OW24463   3.104   4.697   7.040  0.0666 -0.5358  0.5292
 4334SOL    HW124464   3.031   4.723   6.984 -0.4807  0.6227  1.7699
 4334SOL    HW224465   3.079   4.605   7.051  0.8823 -0.9126 -0.7891
 4335SOL     OW24466   1.823   0.908   3.488 -0.1817  0.0670  0.4742
 4335SOL    HW124467   1.908   0.926   3.530 -0.4774 -0.5106  1.3325
 4335SOL    HW224468   1.848   0.858   3.410 -0.5425  1.5092 -0.5593
 4336SOL     OW24469   1.179   3.350  11.430  0.2114  0.1156  0.4506
 4336SOL    HW124470   1.257   3.365  11.377 -1.5231 -1.3083 -2.4818
 4336SOL    HW224471   1.196   3.257  11.448 -0.8213 -0.1681 -0.0481
 4337SOL     OW24472   3.944   3.859  11.843 -0.2939 -0.1391  0.0062
 4337SOL    HW124473   3.928   3.864  11.748 -2.0937  0.0036  0.3120
 4337SOL    HW224474   4.038   3.872  11.841 -0.6010  2.2902  1.8010
 4338SOL     OW24475   2.210   1.987   2.801 -0.0654 -0.4253  0.3660
 4338SOL    HW124476   2.198   1.892   2.810 -1.3982 -0.7973 -5.2627
 4338SOL    HW224477   2.218   2.018   2.892  0.8848  1.7285 -0.4502
 4339SOL     OW24478   1.020   0.933  15.852 -0.0784 -0.0328 -0.4768
 4339SOL    HW124479   1.051   0.879  15.779  1.6361  1.4825 -0.8912
 4339SOL    HW224480   1.065   1.011  15.817  0.4482 -0.6495 -1.1970
 4340SOL     OW24481   3.330   1.535   8.282 -0.0786 -0.0265 -0.1804
 4340SOL    HW124482   3.392   1.462   8.286  0.2416  0.2152 -0.7586
 4340SOL    HW224483   3.335   1.570   8.371 -0.3235 -0.5168  0.0315
 4341SOL     OW24484   2.441   2.297   0.764  0.3584  0.0034 -0.2181
 4341SOL    HW124485   2.352   2.322   0.787  0.2141  0.5216 -1.3393
 4341SOL    HW224486   2.468   2.379   0.722  0.9746 -0.2167 -0.2584
 4342SOL     OW24487   4.262   1.777   4.395 -0.5762 -0.2660  0.4648
 4342SOL    HW124488   4.195   1.761   4.328  0.9360  0.3079 -1.1892
 4342SOL    HW224489   4.338   1.735   4.355 -0.3338  1.7238 -1.1443
 4343SOL     OW24490   1.723   3.289   7.623  0.0705  0.0668 -0.2251
 4343SOL    HW124491   1.802   3.329   7.587 -1.2243  2.8987  0.1509
 4343SOL    HW224492   1.763   3.234   7.691 -1.9194  2.0371  2.5155
 4344SOL     OW24493   2.944   3.543   8.798  0.2864  0.3879 -0.1893
 4344SOL    HW124494   3.023   3.593   8.817  0.8193 -0.6288  0.2528
 4344SOL    HW224495   2.873   3.601   8.825  0.8050  0.9724 -0.0696
 4345SOL     OW24496   2.970   4.659   0.589 -0.4511  0.0997  0.2057
 4345SOL    HW124497   2.982   4.566   0.568 -1.9780  0.3396 -1.7535
 4345SOL    HW224498   2.894   4.674   0.534 -1.6448 -0.7660  1.6235
 4346SOL     OW24499   0.625   1.294   5.354  0.1334  0.3064 -0.2102
 4346SOL    HW124500   0.700   1.239   5.378 -1.1281 -0.8559  1.0768
 4346SOL    HW224501   0.654   1.369   5.406  0.2969 -1.2518  1.9877
 4347SOL     OW24502   3.829   0.443   5.872  0.7545 -0.2687 -0.1553
 4347SOL    HW124503   3.823   0.397   5.788  1.8776 -0.1414 -0.3081
 4347SOL    HW224504   3.747   0.421   5.915  0.6376 -1.3827 -0.9359
 4348SOL     OW24505   3.692   2.771   6.054 -0.5134  0.1321 -0.6008
 4348SOL    HW124506   3.725   2.789   5.966  0.6218 -0.7092 -0.3473
 4348SOL    HW224507   3.716   2.678   6.059 -3.5002 -0.6203 -0.3169
 4349SOL     OW24508   3.537   4.536  10.807 -0.3869  0.2326 -0.3466
 4349SOL    HW124509   3.594   4.611  10.790 -0.3942 -0.0796 -1.7063
 4349SOL    HW224510   3.561   4.478  10.736  2.3477  0.8661  0.0652
 4350SOL     OW24511   3.676   3.639   4.636 -0.9427  0.0785 -0.1447
 4350SOL    HW124512   3.592   3.631   4.592 -0.9559 -0.5728 -0.0029
 4350SOL    HW224513   3.717   3.559   4.605 -0.8292 -0.9484  2.6571
 4351SOL     OW24514   4.119   2.028   2.358  0.2751  0.1592  0.4519
 4351SOL    HW124515   4.188   2.005   2.295 -0.0240  0.7455 -0.0952
 4351SOL    HW224516   4.145   1.992   2.443 -1.9405 -0.5733  0.8195
 4352SOL     OW24517   1.330   0.283   5.709 -0.8058  0.7498 -0.5697
 4352SOL    HW124518   1.371   0.252   5.628  0.6186 -0.7778  0.7417
 4352SOL    HW224519   1.299   0.371   5.686  0.6249  2.2566  3.1866
 4353SOL     OW24520   3.844   0.194   6.723 -0.3771  0.4798 -0.4332
 4353SOL    HW124521   3.929   0.174   6.685 -1.3511 -0.4490 -2.1072
 4353SOL    HW224522   3.854   0.270   6.780  2.2208 -0.5505  0.4854
 4354SOL     OW24523   0.476   3.181  17.155  0.4490 -0.0318  0.3294
 4354SOL    HW124524   0.440   3.216  17.236  0.3538 -0.3105  0.4043
 4354SOL    HW224525   0.566   3.213  17.163 -0.1691  2.0208 -0.6889
 4355SOL     OW24526   1.507   1.118   1.633  0.2535  0.3387  0.1692
 4355SOL    HW124527   1.469   1.095   1.548 -2.3115 -0.1358  1.4214
 4355SOL    HW224528   1.529   1.209   1.617 -1.2716  1.0909  2.2641
 4356SOL     OW24529   4.403   0.814   3.021 -0.0903 -0.5087 -0.3212
 4356SOL    HW124530   4.368   0.779   3.103  3.0566 -0.1631  1.1797
 4356SOL    HW224531   4.460   0.885   3.049  1.4087 -2.0262  0.4406
 4357SOL     OW24532   2.286   4.157  16.779 -0.4248 -0.0221  0.0320
 4357SOL    HW124533   2.250   4.087  16.724 -0.6309 -0.1979  0.3916
 4357SOL    HW224534   2.368   4.121  16.814  0.8347  1.8768 -1.0012
 4358SOL     OW24535   1.149   1.131   0.613  0.1159 -0.2317  0.0739
 4358SOL    HW124536   1.189   1.069   0.552 -0.4238 -1.5606  1.0689
 4358SOL    HW224537   1.061   1.092   0.614 -0.4306  1.0234  1.1283
 4359SOL     OW24538   4.483   0.006   1.888 -0.1393 -0.0435  0.5664
 4359SOL    HW124539   4.488   4.678   1.806  3.1999 -0.0719  0.7932
 4359SOL    HW224540   4.564   4.702   1.932  0.3450  0.4811  0.0054
 4360SOL     OW24541   3.784   2.277   0.748 -0.1341  0.4898  0.4724
 4360SOL    HW124542   3.812   2.342   0.684  1.6254  0.4248  1.1929
 4360SOL    HW224543   3.702   2.312   0.784 -1.9470 -1.4480 -1.6815
 4361SOL     OW24544   0.228   4.234  16.160  0.7242  0.4778 -0.2856
 4361SOL    HW124545   0.148   4.181  16.165  1.4307 -0.7812 -2.1780
 4361SOL    HW224546   0.197   4.321  16.136 -0.0630  0.6752  1.4716
 4362SOL     OW24547   3.509   3.158   6.975  0.7997 -0.5224  0.1654
 4362SOL    HW124548   3.540   3.113   7.053 -2.9433  0.8162  2.4249
 4362SOL    HW224549   3.509   3.242   7.019  1.9258 -0.5097  0.1228
 4363SOL     OW24550   2.810   0.507   2.976 -0.6022 -0.0051  0.3472
 4363SOL    HW124551   2.812   0.474   2.886  0.6943  0.6516  0.1369
 4363SOL    HW224552   2.903   0.494   2.996  0.2584  1.5279 -2.7913
 4364SOL     OW24553   4.532   3.327   7.354 -0.0649  0.3223 -0.5428
 4364SOL    HW124554   4.626   3.340   7.360 -0.1157 -0.7673  2.6681
 4364SOL    HW224555   4.502   3.407   7.310  1.0578  0.2059 -1.5108
 4365SOL     OW24556   4.185   1.909   3.769  0.3419 -0.0584 -0.2960
 4365SOL    HW124557   4.131   1.839   3.732  0.3562 -0.7373  0.9646
 4365SOL    HW224558   4.159   1.978   3.708 -0.9330 -1.3199 -1.1741
 4366SOL     OW24559   3.219   4.033   2.957  0.3807 -0.2762 -0.5651
 4366SOL    HW124560   3.226   4.129   2.958 -3.1620 -0.0263  0.0864
 4366SOL    HW224561   3.162   4.018   3.032 -0.8488  2.2145 -0.9816
 4367SOL     OW24562   0.894   1.835   1.095 -0.0716 -0.1758 -1.1454
 4367SOL    HW124563   0.949   1.789   1.160  1.8801 -0.3242 -2.8888
 4367SOL    HW224564   0.828   1.864   1.157 -1.1053 -1.2645 -1.7491
 4368SOL     OW24565   2.078   2.696   5.987  0.2491  0.4599 -0.3343
 4368SOL    HW124566   2.098   2.786   6.012 -2.2028  1.2590 -1.2556
 4368SOL    HW224567   2.148   2.649   6.032  0.6777  1.3527 -0.0814
 4369SOL     OW24568   0.204   0.764  16.767  0.1656  0.4807 -0.2918
 4369SOL    HW124569   0.222   0.733  16.856 -0.2421 -2.7347 -1.3182
 4369SOL    HW224570   0.262   0.716  16.708 -2.1460  1.7689 -3.6125
 4370SOL     OW24571   3.246   2.536   4.569  0.0497  0.8969 -0.6955
 4370SOL    HW124572   3.155   2.508   4.566  0.2383  0.2493 -0.3310
 4370SOL    HW224573   3.241   2.632   4.572  0.0653  0.8509  1.2858
 4371SOL     OW24574   2.877   4.231   2.303  0.7156  0.3383 -0.3901
 4371SOL    HW124575   2.914   4.274   2.226  0.7176  2.2436  0.6909
 4371SOL    HW224576   2.936   4.252   2.375  1.8423  0.9819 -1.5109
 4372SOL     OW24577   4.072   1.568  10.662 -0.0316  0.3134  0.3671
 4372SOL    HW124578   4.090   1.474  10.671  0.2325  0.2132 -1.1915
 4372SOL    HW224579   3.981   1.569  10.633 -0.0916  2.5920  0.6610
 4373SOL     OW24580   4.505   3.200  15.728  0.2834 -0.1231  0.6151
 4373SOL    HW124581   4.565   3.273  15.715  0.2054 -0.2283 -0.3358
 4373SOL    HW224582   4.514   3.145  15.651  0.1564  1.9289 -0.8864
 4374SOL     OW24583   3.686   0.681  10.010 -0.2917 -0.0784  0.6574
 4374SOL    HW124584   3.633   0.760  10.019  2.1387  1.5124  1.0842
 4374SOL    HW224585   3.628   0.643   9.944  0.7755 -1.5518  0.5544
 4375SOL     OW24586   2.612   2.952   5.929  0.5100 -0.0947  0.2966
 4375SOL    HW124587   2.700   2.914   5.916  0.0357 -1.0512 -0.1449
 4375SOL    HW224588   2.606   2.969   6.023 -0.7599  0.2965  0.1351
 4376SOL     OW24589   3.040   3.306   4.813  0.3975  1.2001  0.3895
 4376SOL    HW124590   2.979   3.304   4.887  0.8189 -1.8664  0.6490
 4376SOL    HW224591   3.093   3.386   4.821  0.6129  1.2298 -1.2577
 4377SOL     OW24592   2.415   0.091   1.274 -0.8181  0.3179 -0.4979
 4377SOL    HW124593   2.387   0.041   1.350 -0.9787 -0.0568 -0.8077
 4377SOL    HW224594   2.379   0.049   1.197  1.1218 -0.7455 -0.8278
 4378SOL     OW24595   4.471   1.680   4.278  0.1034 -0.2716 -0.3487
 4378SOL    HW124596   4.549   1.634   4.248  0.1828  1.7940 -3.3270
 4378SOL    HW224597   4.501   1.770   4.264  0.0563 -0.4706 -1.8150
 4379SOL     OW24598   2.850   0.325   9.756 -0.7699  0.0302  0.7234
 4379SOL    HW124599   2.829   0.410   9.794 -2.0548 -0.4458  1.0841
 4379SOL    HW224600   2.764   0.284   9.742 -0.6946  0.0553  0.1809
 4380SOL     OW24601   2.747   1.901   8.582 -0.6750 -0.4252  0.2031
 4380SOL    HW124602   2.784   1.928   8.666 -0.3870 -0.7251  0.1715
 4380SOL    HW224603   2.776   1.969   8.521 -0.7634 -2.2411 -1.8746
 4381SOL     OW24604   0.435   0.067   8.583  0.3156 -0.2206 -0.3835
 4381SOL    HW124605   0.404   0.115   8.506  1.1331  0.3376 -0.3623
 4381SOL    HW224606   0.492   0.136   8.618  1.2413  0.1649 -2.6668
 4382SOL     OW24607   3.997   4.033   0.662 -0.3638 -0.3924 -0.5320
 4382SOL    HW124608   4.080   4.005   0.701 -0.3503  0.9371  0.3672
 4382SOL    HW224609   4.027   4.055   0.574  0.7557  0.6366  0.1056
 4383SOL     OW24610   4.004   0.216   4.336 -0.1389  0.0172 -0.6826
 4383SOL    HW124611   4.070   0.271   4.293 -0.9101 -1.0986 -3.2685
 4383SOL    HW224612   4.000   0.261   4.420 -2.8535 -1.7304  0.1377
 4384SOL     OW24613   2.843   2.709  14.340 -0.5496  0.3417 -0.3042
 4384SOL    HW124614   2.801   2.644  14.284  0.5920 -0.1306 -0.5940
 4384SOL    HW224615   2.779   2.745  14.402  0.4757  1.1349  0.2773
 4385SOL     OW24616   3.361   0.797   4.125 -0.3773  0.0339 -0.2556
 4385SOL    HW124617   3.335   0.711   4.159 -0.2747  0.1873  0.2191
 4385SOL    HW224618   3.373   0.778   4.032  1.4687 -1.7586  0.3350
 4386SOL     OW24619   0.526   0.804   7.820 -0.0979  0.7676  0.0422
 4386SOL    HW124620   0.480   0.830   7.900  1.9478  0.5712  1.2808
 4386SOL    HW224621   0.603   0.860   7.835  0.4733 -0.3200  1.2607
 4387SOL     OW24622   3.489   0.471  10.343  0.0244 -0.1854 -0.3530
 4387SOL    HW124623   3.448   0.538  10.397  0.7628 -0.0733  0.0624
 4387SOL    HW224624   3.425   0.458  10.272 -0.5421  1.4519 -0.1485
 4388SOL     OW24625   0.765   1.500  10.532  0.2308  0.0276  0.2238
 4388SOL    HW124626   0.718   1.583  10.539  1.9296  0.8546  1.6183
 4388SOL    HW224627   0.845   1.502  10.585 -0.1535  2.2350  0.7000
 4389SOL     OW24628   1.547   1.798   2.638  0.0383  0.0751  0.0763
 4389SOL    HW124629   1.563   1.783   2.544  1.9593  0.1388  0.4009
 4389SOL    HW224630   1.627   1.769   2.682 -0.7750  1.1901  2.2407
 4390SOL     OW24631   1.066   1.058   2.690 -0.2126 -0.0146  0.1474
 4390SOL    HW124632   1.068   1.002   2.613 -0.7260  2.0302 -1.3509
 4390SOL    HW224633   1.094   0.996   2.758  0.0762 -1.6180 -1.4514
 4391SOL     OW24634   2.343   1.402   1.965 -0.1779  0.0312  0.1577
 4391SOL    HW124635   2.287   1.408   2.042  0.9359  1.8456  0.8256
 4391SOL    HW224636   2.275   1.373   1.904  0.1128 -2.3912  0.9692
 4392SOL     OW24637   1.521   3.050   1.563 -0.4939  0.0705  0.0762
 4392SOL    HW124638   1.564   3.126   1.525 -2.2477  0.8783 -0.2794
 4392SOL    HW224639   1.560   3.050   1.650 -0.5588  0.2429  0.1049
 4393SOL     OW24640   3.612   4.441  10.136 -0.3777  0.4300  0.5838
 4393SOL    HW124641   3.595   4.529  10.170  0.7656  0.5729  0.7953
 4393SOL    HW224642   3.554   4.441  10.060  0.1650  2.0986  0.1732
 4394SOL     OW24643   2.584   4.327   4.183 -0.2908  0.1061 -0.1587
 4394SOL    HW124644   2.594   4.401   4.243 -2.2806  1.2986 -1.3042
 4394SOL    HW224645   2.577   4.364   4.095 -2.3985  2.1334  0.8961
 4395SOL     OW24646   0.939   1.031   4.218  0.4382  0.3359  0.3846
 4395SOL    HW124647   0.921   0.975   4.294 -1.7460  0.5626  0.0505
 4395SOL    HW224648   1.007   1.088   4.254  1.6524 -1.2775  0.6701
 4396SOL     OW24649   1.841   2.145   4.388 -0.0471  0.3321 -0.4441
 4396SOL    HW124650   1.852   2.239   4.373  0.7641  0.2078 -0.6171
 4396SOL    HW224651   1.831   2.126   4.295 -0.8158 -0.9800 -0.0910
 4397SOL     OW24652   1.203   1.065   6.680 -0.1188 -0.1750  0.1977
 4397SOL    HW124653   1.294   1.049   6.654  0.2455  0.8469  0.8397
 4397SOL    HW224654   1.188   0.992   6.741 -0.6365 -1.0466 -0.9661
 4398SOL     OW24655   3.086   0.778   2.766 -0.2312  0.0484  0.3530
 4398SOL    HW124656   2.996   0.777   2.799 -0.0045 -0.1910  0.9604
 4398SOL    HW224657   3.100   0.684   2.756 -0.0910 -0.0971  2.0524
 4399SOL     OW24658   1.546   3.357   2.392  0.4424 -0.4200  0.0910
 4399SOL    HW124659   1.584   3.445   2.383  1.2052 -0.4695  2.6333
 4399SOL    HW224660   1.600   3.326   2.465  0.0312  0.6644  0.8677
 4400SOL     OW24661   2.515   3.798   4.999 -0.2979  0.7858 -0.2903
 4400SOL    HW124662   2.434   3.747   4.994 -0.0195  0.6384 -3.5069
 4400SOL    HW224663   2.510   3.827   5.090 -0.4344 -0.7034  0.1802
 4401SOL     OW24664   3.852   4.012   8.988  0.2543 -0.4089 -0.0209
 4401SOL    HW124665   3.833   4.096   9.031  0.9253  0.3060 -1.1286
 4401SOL    HW224666   3.822   4.032   8.899  1.1608 -0.9297 -0.4390
 4402SOL     OW24667   3.946   4.420   2.397  0.1082 -0.5776  0.7599
 4402SOL    HW124668   3.858   4.405   2.361  0.9916  2.5215 -2.6352
 4402SOL    HW224669   3.936   4.514   2.414 -3.6075 -1.1341  1.7884
 4403SOL     OW24670   3.045   2.259  10.812  0.3427  0.1578 -1.0715
 4403SOL    HW124671   3.129   2.216  10.830  2.1995  4.7600  1.2412
 4403SOL    HW224672   3.002   2.248  10.896  0.5035 -1.9437 -1.2659
 4404SOL     OW24673   0.336   4.399   2.365  0.1328  0.5284 -0.1531
 4404SOL    HW124674   0.369   4.382   2.454  1.9788 -2.4706 -1.4366
 4404SOL    HW224675   0.262   4.456   2.389  0.6188  0.7491  0.8239
 4405SOL     OW24676   2.309   3.194   2.865  0.1087  0.0155 -0.7112
 4405SOL    HW124677   2.378   3.193   2.931 -1.2315  1.1631  0.6992
 4405SOL    HW224678   2.329   3.113   2.818 -1.7024 -0.1331 -1.2319
 4406SOL     OW24679   2.363   1.167   5.258 -0.0637  0.0056  0.4996
 4406SOL    HW124680   2.440   1.185   5.312 -0.0726  0.7806  0.2590
 4406SOL    HW224681   2.366   1.235   5.190 -1.4281  0.9286  1.3564
 4407SOL     OW24682   1.978   2.487  16.613 -0.0749 -0.3147 -0.2839
 4407SOL    HW124683   2.056   2.541  16.631 -0.5566  0.1011  0.5535
 4407SOL    HW224684   2.001   2.401  16.577 -2.6791 -1.1398 -0.0070
 4408SOL     OW24685   1.269   4.587  12.691  0.2872  0.4685 -0.3913
 4408SOL    HW124686   1.179   4.560  12.673  1.3380 -3.7515  0.6267
 4408SOL    HW224687   1.315   4.503  12.696 -1.9956 -0.7132  0.9283
 4409SOL     OW24688   4.242   4.634  11.686 -0.0624 -0.0142  0.4775
 4409SOL    HW124689   4.232   4.653  11.780  0.1703 -0.1883  0.5372
 4409SOL    HW224690   4.279   4.546  11.690 -4.0045 -1.8082 -2.6527
 4410SOL     OW24691   4.551   1.238   5.218  0.1578  0.1507  0.0118
 4410SOL    HW124692   4.508   1.200   5.294  2.3559 -0.2566  1.0573
 4410SOL    HW224693   4.641   1.205   5.224 -0.4178 -0.7625  3.1770
 4411SOL     OW24694   2.687   0.462   1.504 -0.2212 -0.3116  0.1191
 4411SOL    HW124695   2.611   0.418   1.466  1.1670 -0.7130 -2.2092
 4411SOL    HW224696   2.648   0.546   1.528 -0.4805  0.3729 -2.6799
 4412SOL     OW24697   3.706   3.686  11.734  0.1027 -0.2866 -0.3921
 4412SOL    HW124698   3.764   3.745  11.686  1.8705  0.1595  2.3438
 4412SOL    HW224699   3.634   3.747  11.749 -0.0120 -0.6953  0.7534
 4413SOL     OW24700   2.113   4.569   0.786 -0.0938 -0.0864  0.0684
 4413SOL    HW124701   2.055   4.501   0.751  1.0918  0.2508 -2.5817
 4413SOL    HW224702   2.108   4.553   0.880  2.1611 -0.7497  0.0555
 4414SOL     OW24703   1.486   1.689   6.688 -1.0448  0.0329  0.2285
 4414SOL    HW124704   1.406   1.731   6.720 -0.8955  1.6108 -1.4761
 4414SOL    HW224705   1.504   1.645   6.771  2.0158 -0.5591 -0.7548
 4415SOL     OW24706   3.477   1.557   2.957  0.1473 -0.0628 -0.1208
 4415SOL    HW124707   3.382   1.544   2.958  0.0139  0.8691 -1.1792
 4415SOL    HW224708   3.493   1.561   2.863 -1.5446  0.3248 -0.3971
 4416SOL     OW24709   4.095   0.591  10.454  0.3090 -0.5333 -0.0612
 4416SOL    HW124710   4.101   0.497  10.435 -1.7122 -1.0393  1.8124
 4416SOL    HW224711   4.134   0.593  10.542 -2.1717  0.2990  1.0162
 4417SOL     OW24712   1.115   2.699   3.071 -0.9581  0.2790  0.2502
 4417SOL    HW124713   1.155   2.712   2.985  0.5937  0.2181  0.9778
 4417SOL    HW224714   1.053   2.626   3.063 -1.4444  0.8046 -0.8000
 4418SOL     OW24715   1.220   1.231   5.145  0.1533 -0.4841 -0.1808
 4418SOL    HW124716   1.294   1.270   5.100 -0.2776  1.3907  0.7459
 4418SOL    HW224717   1.199   1.299   5.209  0.8126  0.2666 -0.7668
 4419SOL     OW24718   0.557   3.985   5.790 -0.3170  0.1541  0.5585
 4419SOL    HW124719   0.598   4.037   5.858  1.5092 -1.0654  0.3790
 4419SOL    HW224720   0.550   3.899   5.831  1.1590  0.4173  1.3561
 4420SOL     OW24721   0.959   0.332   5.035  0.2868  0.0848 -0.2081
 4420SOL    HW124722   0.963   0.359   4.943  1.4717 -0.7727 -0.4165
 4420SOL    HW224723   0.878   0.281   5.033  0.4516 -0.2113  1.2625
 4421SOL     OW24724   2.134   3.875   2.498  0.2789  0.3853 -0.0592
 4421SOL    HW124725   2.159   3.859   2.407  1.0470 -0.8703  0.3712
 4421SOL    HW224726   2.128   3.970   2.506 -0.7627  0.2041  1.3724
 4422SOL     OW24727   3.835   3.770  17.282  0.0028  0.0579  0.3461
 4422SOL    HW124728   3.825   3.716  17.204 -3.7875 -0.6583  1.3118
 4422SOL    HW224729   3.875   3.702  17.337 -1.5489  0.1569  1.6082
 4423SOL     OW24730   4.341   4.009   0.564  0.1097 -0.1685 -0.2032
 4423SOL    HW124731   4.358   3.951   0.490 -2.5200 -0.3377 -0.6462
 4423SOL    HW224732   4.279   4.069   0.523 -0.2494  0.0777  0.6859
 4424SOL     OW24733   3.196   3.340   3.765 -0.3850 -0.3138 -0.2205
 4424SOL    HW124734   3.235   3.275   3.707  0.7696 -1.7933  2.1910
 4424SOL    HW224735   3.274   3.391   3.789  0.5310 -1.4156 -0.8331
 4425SOL     OW24736   2.991   3.333   5.517  0.2013  0.2108 -0.0635
 4425SOL    HW124737   3.016   3.389   5.443 -1.4148  0.2666 -0.5630
 4425SOL    HW224738   2.956   3.259   5.467 -2.3152  0.9904  0.5547
 4426SOL     OW24739   1.759   2.387   6.170  0.3771 -0.2040  0.0930
 4426SOL    HW124740   1.770   2.336   6.250  0.1176 -0.8870 -0.3072
 4426SOL    HW224741   1.851   2.403   6.150 -0.7920  3.1018 -2.6810
 4427SOL     OW24742   3.815   2.418   1.196  0.1228 -0.0346  0.1332
 4427SOL    HW124743   3.770   2.455   1.120  3.4836 -0.1813 -1.9282
 4427SOL    HW224744   3.835   2.502   1.237 -2.6558  1.8656 -2.4191
 4428SOL     OW24745   1.047   0.751  10.970  0.5170  0.4817  0.5509
 4428SOL    HW124746   1.105   0.826  10.983  2.0052 -0.6986  0.7314
 4428SOL    HW224747   0.971   0.791  11.011 -0.2832  0.2421 -0.7019
 4429SOL     OW24748   3.712   3.953   3.605  0.4406  0.3911 -0.6754
 4429SOL    HW124749   3.800   3.988   3.612  0.8564 -0.3486 -2.3126
 4429SOL    HW224750   3.668   4.006   3.538 -0.6257  1.7957  1.1291
 4430SOL     OW24751   4.327   4.526  10.430 -0.3918  0.3303 -0.0177
 4430SOL    HW124752   4.247   4.577  10.415 -1.9533 -2.6628 -1.8812
 4430SOL    HW224753   4.383   4.586  10.380  0.5098  0.4956  1.2063
 4431SOL     OW24754   0.896   1.134  16.465 -0.0816  0.4029  0.3190
 4431SOL    HW124755   0.894   1.225  16.493 -3.0311  0.4326  0.0384
 4431SOL    HW224756   0.851   1.147  16.381 -1.6456 -0.4186  1.0242
 4432SOL     OW24757   4.105   1.028   2.372  0.0265  0.0964  0.5493
 4432SOL    HW124758   4.146   1.114   2.379 -1.3439  0.6818  1.3777
 4432SOL    HW224759   4.045   1.037   2.446  2.4732  1.8823  2.2987
 4433SOL     OW24760   0.615   2.365  16.902 -0.0549 -0.0666  0.7792
 4433SOL    HW124761   0.537   2.398  16.946 -1.1135 -1.7891  0.1654
 4433SOL    HW224762   0.673   2.429  16.943  0.6635 -0.2445  0.0562
 4434SOL     OW24763   0.843   2.100   6.539 -0.3654  0.1344  0.2503
 4434SOL    HW124764   0.764   2.149   6.516 -0.3205  0.0415 -0.1088
 4434SOL    HW224765   0.905   2.174   6.545  1.4934 -1.5341  1.6302
 4435SOL     OW24766   1.778   4.191   3.357 -0.2321 -0.3386 -0.1284
 4435SOL    HW124767   1.773   4.266   3.416  0.0299  0.1110 -0.6790
 4435SOL    HW224768   1.697   4.148   3.386 -2.0610  1.5724 -2.3230
 4436SOL     OW24769   0.129   2.909  14.702  0.0090  0.9300 -0.1301
 4436SOL    HW124770   0.158   2.972  14.767  0.0936  0.8681 -0.1080
 4436SOL    HW224771   0.121   2.965  14.625 -1.2415  0.5113 -0.3067
 4437SOL     OW24772   1.197   0.771   3.817  0.1766  0.3790  0.2768
 4437SOL    HW124773   1.132   0.816   3.764 -0.5351 -1.1301 -0.1338
 4437SOL    HW224774   1.209   0.831   3.891  0.5568 -0.7937  1.1822
 4438SOL     OW24775   1.122   1.323  13.204  0.2106  0.2753 -0.4156
 4438SOL    HW124776   1.193   1.362  13.153 -0.3373  0.8149 -0.7591
 4438SOL    HW224777   1.182   1.277  13.263  0.0248  0.9787  0.3223
 4439SOL     OW24778   2.385   1.182   6.676 -0.4319  0.3994 -0.2526
 4439SOL    HW124779   2.349   1.130   6.747 -0.9604  0.9194 -0.1428
 4439SOL    HW224780   2.439   1.246   6.722 -0.8748 -1.5227  2.9504
 4440SOL     OW24781   3.141   1.699  15.435 -0.4932  0.1632  0.5518
 4440SOL    HW124782   3.197   1.689  15.512 -0.2988 -1.3867  0.2147
 4440SOL    HW224783   3.092   1.618  15.450  2.7796 -2.3005 -1.9708
 4441SOL     OW24784   3.990   4.158   2.494  0.3374 -0.3191  0.3382
 4441SOL    HW124785   3.925   4.118   2.437  0.7974  0.3121 -0.6354
 4441SOL    HW224786   3.983   4.248   2.461  0.4480  0.1729  1.6263
 4442SOL     OW24787   2.055   0.420   8.718  0.1688  0.4059 -0.6176
 4442SOL    HW124788   2.135   0.419   8.771 -1.2254 -2.8083  1.4093
 4442SOL    HW224789   2.038   0.514   8.715 -0.5528  0.3043  0.2158
 4443SOL     OW24790   2.230   3.200   9.593  0.6940 -0.2222 -0.4074
 4443SOL    HW124791   2.148   3.212   9.640  0.6685  2.8258 -1.2108
 4443SOL    HW224792   2.254   3.290   9.570 -1.3467 -0.1317 -2.0996
 4444SOL     OW24793   4.449   1.968  14.003 -0.1772  0.0529  0.1616
 4444SOL    HW124794   4.415   2.033  14.065 -3.3307 -1.4363  0.0039
 4444SOL    HW224795   4.475   2.022  13.929  2.1657 -0.2713  0.7339
 4445SOL     OW24796   1.379   3.961   4.388 -0.7424  0.0993  0.1707
 4445SOL    HW124797   1.289   3.986   4.367 -0.1143  1.2146 -1.2676
 4445SOL    HW224798   1.405   4.017   4.461 -0.9535  1.1558 -0.5683
 4446SOL     OW24799   0.730   0.639  12.770  0.6773 -0.1881  1.0832
 4446SOL    HW124800   0.768   0.578  12.707  0.7102  2.4513 -1.4468
 4446SOL    HW224801   0.699   0.576  12.836 -3.6268  0.8046  0.0464
 4447SOL     OW24802   3.431   1.918  10.206  0.0905 -0.0219 -0.7078
 4447SOL    HW124803   3.373   1.994  10.198 -0.5237 -0.5371 -1.1573
 4447SOL    HW224804   3.393   1.892  10.289 -0.6368  0.0222 -1.0289
 4448SOL     OW24805   4.039   3.266   9.330 -0.0540  0.2112  0.2340
 4448SOL    HW124806   4.055   3.207   9.403  1.0177  0.1800 -0.0104
 4448SOL    HW224807   4.123   3.312   9.341  1.1842 -2.1448  0.5200
 4449SOL     OW24808   0.945   2.546   5.101 -0.1818 -0.7534  0.4758
 4449SOL    HW124809   0.883   2.567   5.031 -0.3974  0.1153  0.9251
 4449SOL    HW224810   0.943   2.630   5.147 -0.9962  0.1951 -1.2736
 4450SOL     OW24811   0.800   3.873   3.983  0.1981 -0.2924  0.3676
 4450SOL    HW124812   0.754   3.955   3.965  1.3546  0.8195  2.5863
 4450SOL    HW224813   0.823   3.877   4.075 -0.2769  0.0745  0.4673
 4451SOL     OW24814   3.262   1.536   3.814 -0.1712 -0.1291  0.4218
 4451SOL    HW124815   3.180   1.506   3.775  0.1363 -0.4381  0.0145
 4451SOL    HW224816   3.286   1.617   3.769  1.4218  0.1014  1.6798
 4452SOL     OW24817   0.445   0.953   2.861  0.5518  0.4927  0.3951
 4452SOL    HW124818   0.438   1.001   2.943 -0.3726  1.2433 -0.1234
 4452SOL    HW224819   0.382   0.882   2.867 -0.1732  1.0697 -0.3188
 4453SOL     OW24820   4.254   0.795  15.097  0.1749 -0.6794 -0.0498
 4453SOL    HW124821   4.324   0.858  15.082 -0.0042 -0.3589  0.4306
 4453SOL    HW224822   4.292   0.741  15.167 -0.4699 -2.7159 -1.2731
 4454SOL     OW24823   2.123   2.038   8.000  0.3060 -0.0453  0.5195
 4454SOL    HW124824   2.163   2.073   8.079 -0.1069  1.7263 -0.0674
 4454SOL    HW224825   2.129   2.115   7.944  2.2672 -2.8296 -3.0948
 4455SOL     OW24826   2.256   1.826   3.253  0.0564 -0.3683  0.0529
 4455SOL    HW124827   2.211   1.889   3.309  0.2564 -0.9200  0.8315
 4455SOL    HW224828   2.282   1.766   3.323  0.7659  1.2283  1.1903
 4456SOL     OW24829   3.071   2.825  10.035  0.3001  0.1387 -0.6745
 4456SOL    HW124830   3.117   2.742  10.023 -0.9757 -0.3665 -2.1150
 4456SOL    HW224831   3.144   2.881  10.061  0.3119 -0.2510  0.1265
 4457SOL     OW24832   1.593   1.726   9.592  0.5533 -0.6377 -0.2572
 4457SOL    HW124833   1.610   1.820   9.587  1.5113 -0.8179 -0.3243
 4457SOL    HW224834   1.630   1.701   9.676  0.6341  0.8691  0.1409
 4458SOL     OW24835   2.919   2.871   2.276  0.2971  0.0625  0.0237
 4458SOL    HW124836   2.869   2.929   2.218 -1.5911 -1.7672 -0.1536
 4458SOL    HW224837   2.850   2.806   2.292  0.2952  0.5053  1.7193
 4459SOL     OW24838   0.986   0.865   9.757  0.0389  0.1635 -0.2242
 4459SOL    HW124839   0.940   0.949   9.745  0.8697  0.7389  0.6366
 4459SOL    HW224840   1.073   0.890   9.726  0.8741 -2.7898 -0.2521
 4460SOL     OW24841   3.072   0.450   5.916 -0.1287  0.0412 -0.7037
 4460SOL    HW124842   3.091   0.437   5.823 -3.7614  0.4810 -1.5335
 4460SOL    HW224843   2.977   0.463   5.921  0.4452  3.7942  0.3010
 4461SOL     OW24844   0.133   3.141   3.886  0.0887 -0.2676 -0.2808
 4461SOL    HW124845   0.217   3.099   3.866 -0.7383 -2.4274  0.7607
 4461SOL    HW224846   0.078   3.074   3.926 -1.2466 -0.0952 -1.8291
 4462SOL     OW24847   1.753   3.265  12.939 -0.3567  0.1394  0.3541
 4462SOL    HW124848   1.770   3.352  12.901 -1.2279 -0.0408 -0.4582
 4462SOL    HW224849   1.819   3.250  13.006  0.3407  2.9210  0.2923
 4463SOL     OW24850   1.148   3.810  13.225 -0.2262  0.1142 -0.0575
 4463SOL    HW124851   1.064   3.765  13.237  0.1720 -0.4080  0.8124
 4463SOL    HW224852   1.164   3.862  13.304  0.1545 -1.4257  0.8888
 4464SOL     OW24853   4.438   1.343  16.155 -0.2397 -0.2995  0.2307
 4464SOL    HW124854   4.437   1.273  16.090 -0.3746 -1.5933  1.6194
 4464SOL    HW224855   4.533   1.342  16.170  0.1836  1.6946 -2.2947
 4465SOL     OW24856   1.695   0.626   5.020  0.4964 -0.1892  0.2884
 4465SOL    HW124857   1.699   0.705   4.966 -0.4517 -0.7141 -0.5486
 4465SOL    HW224858   1.757   0.647   5.090  1.0433 -0.6368 -0.0604
 4466SOL     OW24859   4.086   0.253   2.965 -0.1486  0.3871  0.2794
 4466SOL    HW124860   4.179   0.256   2.987  0.3305 -1.2186 -1.4659
 4466SOL    HW224861   4.065   0.335   2.920  0.5687  0.2917 -0.2351
 4467SOL     OW24862   0.757   2.990   7.401  0.4984 -0.3738  0.2902
 4467SOL    HW124863   0.789   2.985   7.492  0.4348 -0.2638  0.3177
 4467SOL    HW224864   0.798   3.066   7.361  1.6865 -2.1465 -1.8652
 4468SOL     OW24865   1.277   3.672  14.381 -1.3741  0.0158 -0.7066
 4468SOL    HW124866   1.195   3.627  14.364 -1.6587 -0.0418  0.8316
 4468SOL    HW224867   1.331   3.603  14.420  2.0481  1.6674 -2.4996
 4469SOL     OW24868   2.633   4.209   2.434 -0.1880  0.0816 -0.2592
 4469SOL    HW124869   2.709   4.230   2.378 -0.3479  0.0097 -0.5024
 4469SOL    HW224870   2.668   4.249   2.513  0.3984 -2.6601  0.8777
 4470SOL     OW24871   0.856   4.590  15.955 -0.3129  0.4804 -0.8958
 4470SOL    HW124872   0.948   4.568  15.936 -0.4175  0.8342 -1.7760
 4470SOL    HW224873   0.868   4.630  16.041  1.0199  1.4006 -1.5025
 4471SOL     OW24874   4.359   1.407  15.501 -0.0733  0.4087 -0.0820
 4471SOL    HW124875   4.404   1.384  15.419  0.8588 -2.3453  1.1987
 4471SOL    HW224876   4.283   1.349  15.497  0.2206  0.0620 -0.7037
 4472SOL     OW24877   2.283   3.585  17.425  0.3229 -0.0786 -0.0781
 4472SOL    HW124878   2.208   3.601  17.368  0.5576 -0.9816 -0.6228
 4472SOL    HW224879   2.265   3.502  17.468  1.9033 -0.4568 -0.1245
 4473SOL     OW24880   4.471   1.865  10.945 -0.1912  0.1361  0.4899
 4473SOL    HW124881   4.405   1.934  10.937  0.9342  1.0796 -0.5805
 4473SOL    HW224882   4.500   1.862  10.854  1.6006  0.8581  1.0515
 4474SOL     OW24883   2.919   4.042  15.647 -0.1047  0.2074 -0.5149
 4474SOL    HW124884   2.848   3.982  15.669 -1.3690  1.9533  0.1136
 4474SOL    HW224885   2.928   4.019  15.555  0.9215 -2.0842  0.1498
 4475SOL     OW24886   4.322   2.486   7.623 -0.0085 -0.5684  0.0456
 4475SOL    HW124887   4.387   2.545   7.661  2.4014 -0.7113 -3.8488
 4475SOL    HW224888   4.376   2.411   7.597  1.5921  0.0405  1.6174
 4476SOL     OW24889   2.012   3.647   6.367 -0.3501  0.2473  0.3294
 4476SOL    HW124890   1.959   3.715   6.408 -2.4345 -0.4981 -1.1364
 4476SOL    HW224891   2.075   3.633   6.437  2.2128  1.1187 -1.8003
 4477SOL     OW24892   3.402   4.047   5.948  0.1634 -0.2337 -0.7406
 4477SOL    HW124893   3.436   4.054   6.037  0.6825 -2.3447 -0.7673
 4477SOL    HW224894   3.396   3.952   5.947  1.3964 -0.3217  0.7067
 4478SOL     OW24895   1.452   3.191   4.942  0.3979 -0.1724  0.1990
 4478SOL    HW124896   1.523   3.236   4.896 -1.1193  2.1093  0.0933
 4478SOL    HW224897   1.468   3.098   4.925 -2.8716 -0.9774  1.4173
 4479SOL     OW24898   1.858   3.456   3.355  0.2849  0.2241 -0.3266
 4479SOL    HW124899   1.843   3.426   3.444  1.8708  3.8301  1.1841
 4479SOL    HW224900   1.925   3.397   3.319  0.4876 -0.4636  1.1920
 4480SOL     OW24901   1.638   4.204  12.192  0.0024  0.5578  0.1412
 4480SOL    HW124902   1.596   4.133  12.144  0.0142  1.6417 -1.5014
 4480SOL    HW224903   1.598   4.278  12.146 -1.6436 -0.6667 -0.3688
 4481SOL     OW24904   4.659   1.689   7.166  0.0270  0.3078 -0.1460
 4481SOL    HW124905   0.018   1.648   7.136 -1.6719 -1.4832 -2.2972
 4481SOL    HW224906   4.592   1.659   7.105 -1.1495 -0.7785  1.7020
 4482SOL     OW24907   3.403   1.337   3.252  0.0021 -0.2854 -0.6382
 4482SOL    HW124908   3.433   1.413   3.202 -2.1468  1.5787  0.8889
 4482SOL    HW224909   3.365   1.283   3.182  0.2837 -2.2595  0.7191
 4483SOL     OW24910   3.834   1.445   2.800 -0.7096 -0.2009 -0.3307
 4483SOL    HW124911   3.809   1.409   2.714  1.3061  0.3826 -1.1675
 4483SOL    HW224912   3.892   1.517   2.775  0.2291 -0.2395  1.7835
 4484SOL     OW24913   0.264   2.006  10.646 -0.3899 -0.0676  0.2119
 4484SOL    HW124914   0.232   2.074  10.587 -1.5043  0.4057  1.3835
 4484SOL    HW224915   0.354   2.040  10.647  0.1112 -1.4160  0.2801
 4485SOL     OW24916   0.011   1.841  11.535 -0.4998  0.0542  0.3651
 4485SOL    HW124917   4.670   1.850  11.606 -1.8734  0.7953 -0.9596
 4485SOL    HW224918   0.068   1.771  11.567  1.3005  0.5066 -1.8274
 4486SOL     OW24919   0.656   1.389  12.325 -0.3015  0.0644 -0.3393
 4486SOL    HW124920   0.735   1.410  12.375 -1.0667 -0.0997  0.9609
 4486SOL    HW224921   0.590   1.431  12.381 -0.7919 -0.2079 -0.7051
 4487SOL     OW24922   2.397   4.163  11.765 -0.1337  0.3327 -0.0805
 4487SOL    HW124923   2.378   4.073  11.738 -0.4623  0.6588 -0.9460
 4487SOL    HW224924   2.465   4.142  11.828 -2.5355  0.9120  2.6745
 4488SOL     OW24925   2.688   1.617   6.090  0.1988 -1.0254 -0.0518
 4488SOL    HW124926   2.612   1.633   6.035 -0.5715  0.7024  1.5064
 4488SOL    HW224927   2.650   1.566   6.162 -1.9170  0.6017 -0.0290
 4489SOL     OW24928   0.236   3.763   4.590 -0.6221 -0.3531 -0.5652
 4489SOL    HW124929   0.311   3.763   4.650 -0.0458 -0.6391 -1.2840
 4489SOL    HW224930   0.177   3.828   4.628 -1.0147 -0.4119 -1.0728
 4490SOL     OW24931   0.246   3.555   0.151  0.4457 -0.3131  0.2350
 4490SOL    HW124932   0.202   3.490   0.095 -0.9933  1.2870 -0.4875
 4490SOL    HW224933   0.189   3.541   0.226 -1.1465  0.2490 -0.8684
 4491SOL     OW24934   3.517   4.052   0.303 -0.3673  1.1244 -0.1956
 4491SOL    HW124935   3.462   4.073   0.378 -0.9148  1.6375 -0.7396
 4491SOL    HW224936   3.572   4.131   0.299  0.0854  0.7335 -1.8657
 4492SOL     OW24937   2.454   0.286  10.053 -0.5984 -0.7370  0.1002
 4492SOL    HW124938   2.518   0.215  10.056  0.9495  0.6608  0.5914
 4492SOL    HW224939   2.372   0.238  10.048 -0.2983 -1.2020 -0.2945
 4493SOL     OW24940   3.246   4.358   0.592  0.3714 -0.6675 -0.0247
 4493SOL    HW124941   3.337   4.385   0.587  0.4626 -0.5348  2.7270
 4493SOL    HW224942   3.217   4.391   0.677 -0.2639  2.2198 -1.3636
 4494SOL     OW24943   0.305   0.162   7.707 -0.4378 -0.0587 -0.0173
 4494SOL    HW124944   0.267   0.219   7.774 -1.7703 -1.9401  0.8225
 4494SOL    HW224945   0.363   0.108   7.761 -1.7949 -1.9840 -0.4786
 4495SOL     OW24946   4.385   1.902   3.330 -0.6883 -0.2365 -0.5043
 4495SOL    HW124947   4.300   1.863   3.353 -0.7027  0.5180  0.7177
 4495SOL    HW224948   4.401   1.865   3.243 -0.6440  0.9561 -1.0017
 4496SOL     OW24949   3.985   1.112   6.983 -0.1941  0.6998  0.1916
 4496SOL    HW124950   3.896   1.089   7.012 -1.3786  1.4642 -2.8238
 4496SOL    HW224951   3.973   1.186   6.923  1.0900  0.0054 -0.8955
 4497SOL     OW24952   0.198   1.745   3.631  0.1285 -0.4941  0.0641
 4497SOL    HW124953   0.243   1.801   3.568  1.6522 -0.5012  1.1482
 4497SOL    HW224954   0.117   1.712   3.592  1.3824  0.3016 -3.1867
 4498SOL     OW24955   0.506   3.276   4.100 -0.4718 -0.4141 -0.5461
 4498SOL    HW124956   0.466   3.189   4.095 -1.7426  0.0946  0.8149
 4498SOL    HW224957   0.458   3.323   4.032  0.7157  1.7064  0.1157
 4499SOL     OW24958   4.252   1.850  14.919 -0.4414  0.1091 -0.5067
 4499SOL    HW124959   4.338   1.870  14.954 -0.3530 -1.9800  0.4618
 4499SOL    HW224960   4.216   1.935  14.895  1.1882  0.9233 -0.0718
 4500SOL     OW24961   4.402   0.203  12.679  0.1672 -0.4498 -0.1112
 4500SOL    HW124962   4.430   0.158  12.600 -1.3477  0.2177 -1.0416
 4500SOL    HW224963   4.345   0.138  12.721 -0.2653  0.0962  0.1523
 4501SOL     OW24964   0.939   3.494   7.998 -0.5502 -0.4209 -0.2167
 4501SOL    HW124965   0.861   3.451   8.033 -1.0166 -0.1942 -0.9797
 4501SOL    HW224966   0.900   3.579   7.979 -1.9341 -1.5888 -2.5116
 4502SOL     OW24967   3.234   3.778   3.502  0.1124  0.2997  0.5000
 4502SOL    HW124968   3.267   3.840   3.566  1.6431  1.1850 -1.1509
 4502SOL    HW224969   3.307   3.715   3.503 -1.0720 -1.0961 -0.7038
 4503SOL     OW24970   4.678   3.316  16.830 -0.5226  0.1952  0.5160
 4503SOL    HW124971   4.715   3.379  16.768 -3.7383  1.1007 -0.4547
 4503SOL    HW224972   4.718   3.356  16.907 -1.3406 -0.1105  1.0988
 4504SOL     OW24973   3.475   1.920   2.162  0.1524  0.2239 -0.0643
 4504SOL    HW124974   3.543   1.929   2.096  0.5739  2.5773  0.6887
 4504SOL    HW224975   3.472   2.010   2.195  3.2775  0.2098  0.2732
 4505SOL     OW24976   2.458   0.953   7.993 -0.8670  0.0068  0.0166
 4505SOL    HW124977   2.531   0.913   7.946 -1.0434  0.0553 -0.3017
 4505SOL    HW224978   2.494   0.995   8.071 -0.6631  0.2766 -0.2211
 4506SOL     OW24979   1.569   3.531   4.826  0.6720 -0.0026 -0.1988
 4506SOL    HW124980   1.631   3.557   4.758  0.5149  1.3312  0.1616
 4506SOL    HW224981   1.487   3.540   4.778  0.1219 -1.4108  0.4943
 4507SOL     OW24982   2.313   2.689   6.168  0.3422 -0.5018 -0.1619
 4507SOL    HW124983   2.276   2.668   6.254  0.0556 -1.2586 -0.4731
 4507SOL    HW224984   2.333   2.782   6.179  0.0430 -0.5843  1.0509
 4508SOL     OW24985   1.053   3.114   1.153  0.4460 -0.2492 -0.4432
 4508SOL    HW124986   0.966   3.139   1.123 -1.0028 -2.9384  1.4675
 4508SOL    HW224987   1.049   3.038   1.211  1.4812 -0.3853 -0.5545
 4509SOL     OW24988   3.674   2.256   6.474 -0.1050  0.5256 -0.2177
 4509SOL    HW124989   3.606   2.221   6.532  1.6674  0.3958  1.7875
 4509SOL    HW224990   3.617   2.279   6.401  0.8102 -0.4893 -1.2286
 4510SOL     OW24991   1.002   3.097   4.096 -0.4583  0.4961  0.3327
 4510SOL    HW124992   1.008   3.048   4.014 -1.8364  1.9891 -0.6819
 4510SOL    HW224993   0.925   3.152   4.079 -0.1432  1.0787  0.7930
 4511SOL     OW24994   1.140   4.590   8.381  0.2534  0.3693 -0.7339
 4511SOL    HW124995   1.054   4.596   8.340 -2.2515 -2.2761  4.1397
 4511SOL    HW224996   1.145   4.671   8.431 -1.0194  1.1089 -1.7900
 4512SOL     OW24997   2.545   3.191   7.301  0.4685  0.0603  0.5575
 4512SOL    HW124998   2.539   3.217   7.393 -0.8043  1.2139  0.1461
 4512SOL    HW224999   2.452   3.179   7.284  1.2936 -3.1878 -1.6614
 4513SOL     OW25000   1.640   0.721   2.352 -0.2827  0.0689 -0.6075
 4513SOL    HW125001   1.600   0.653   2.406 -0.2276  2.4340  2.3875
 4513SOL    HW225002   1.611   0.796   2.403 -1.7287 -1.1012  0.2913
 4514SOL     OW25003   2.479   1.200   7.400  0.0808  1.1572  0.1138
 4514SOL    HW125004   2.557   1.219   7.348 -0.3486  0.9524 -0.6026
 4514SOL    HW225005   2.508   1.225   7.488  2.3820 -0.4614 -0.2013
 4515SOL     OW25006   2.486   4.026  10.411  0.2711  0.7659  0.0422
 4515SOL    HW125007   2.550   4.090  10.381  0.2927  0.5596 -0.3538
 4515SOL    HW225008   2.477   3.980  10.328 -1.4000 -0.9703  1.1852
 4516SOL     OW25009   2.992   1.420   3.630 -0.3362 -0.1604 -0.7168
 4516SOL    HW125010   2.941   1.498   3.610  2.4222  1.7580 -0.3121
 4516SOL    HW225011   3.050   1.409   3.554  0.2717  0.6001 -0.3635
 4517SOL     OW25012   1.082   1.902   4.442 -0.0035 -0.0449  0.0604
 4517SOL    HW125013   1.002   1.941   4.406 -0.9584 -0.2693  1.9286
 4517SOL    HW225014   1.117   1.977   4.491 -0.8644  0.0866  0.4702
 4518SOL     OW25015   4.517   0.909  15.028 -0.2624 -0.0011  0.0320
 4518SOL    HW125016   4.535   0.969  14.956 -1.0679  0.8534  0.5411
 4518SOL    HW225017   4.601   0.865  15.045 -0.7166 -1.2810 -1.0380
 4519SOL     OW25018   1.206   2.156   7.787 -0.0663 -0.0854 -0.1468
 4519SOL    HW125019   1.266   2.117   7.724 -0.2572  0.3956 -0.6246
 4519SOL    HW225020   1.241   2.111   7.864 -0.7831  0.3269  0.4245
 4520SOL     OW25021   3.611   3.040   2.638 -0.5274  0.0781  0.5781
 4520SOL    HW125022   3.648   3.034   2.550  1.1567  0.1441  1.2723
 4520SOL    HW225023   3.659   2.977   2.693  0.7435  0.0239 -0.5796
 4521SOL     OW25024   2.250   1.301   2.602  0.4786  0.1060 -0.8356
 4521SOL    HW125025   2.186   1.363   2.569 -0.1463 -0.2155 -0.2365
 4521SOL    HW225026   2.282   1.267   2.518  0.5753  0.2732 -0.8667
 4522SOL     OW25027   3.394   2.072   7.714 -0.3690 -0.0020  0.3258
 4522SOL    HW125028   3.360   2.005   7.774 -0.4826 -0.2305  0.0077
 4522SOL    HW225029   3.347   2.147   7.750  1.5961  0.4973  1.8280
 4523SOL     OW25030   0.294   4.409   6.685 -0.3325  0.1897 -0.1834
 4523SOL    HW125031   0.212   4.436   6.644 -0.7363 -0.1979  0.3844
 4523SOL    HW225032   0.352   4.484   6.671  1.2948 -0.7970  1.1816
 4524SOL     OW25033   0.148   4.374   7.010 -0.1203 -0.6214 -0.4196
 4524SOL    HW125034   0.216   4.340   6.953  1.2519  0.2443  0.6976
 4524SOL    HW225035   0.084   4.303   7.019 -1.1337  0.5428  1.6748
 4525SOL     OW25036   1.895   2.031  15.345  0.1038  0.0907 -0.5462
 4525SOL    HW125037   1.823   2.042  15.283 -0.5634  1.9480  0.5402
 4525SOL    HW225038   1.904   1.936  15.348 -1.8687  0.0025  3.2678
 4526SOL     OW25039   2.425   4.629  16.743  0.1767 -0.4398  0.0945
 4526SOL    HW125040   2.377   4.551  16.771 -1.5649  0.6686  0.1202
 4526SOL    HW225041   2.503   4.591  16.700 -1.0000 -0.9319 -1.6006
 4527SOL     OW25042   3.531   2.756   2.420  0.4373 -0.2551 -0.2533
 4527SOL    HW125043   3.597   2.711   2.474  0.8464 -0.4296 -0.9002
 4527SOL    HW225044   3.577   2.835   2.394  1.6899 -0.6575  0.7352
 4528SOL     OW25045   1.075   1.573   0.620  0.0556 -0.1581  0.9797
 4528SOL    HW125046   1.064   1.497   0.562 -0.8721  0.2283  0.6501
 4528SOL    HW225047   0.991   1.611   0.595  1.6088  1.1350 -2.2285
 4529SOL     OW25048   1.271   0.225   8.781 -0.1564 -0.2346 -0.1460
 4529SOL    HW125049   1.332   0.297   8.768 -0.0180 -0.3477 -0.1176
 4529SOL    HW225050   1.332   0.155   8.806 -0.4532 -0.5219 -0.2233
 4530SOL     OW25051   0.858   2.980   3.546  0.4846 -0.2272  0.0726
 4530SOL    HW125052   0.947   2.961   3.516  1.3916  0.3619  2.3562
 4530SOL    HW225053   0.810   2.916   3.493  0.6506 -1.3811  1.3109
 4531SOL     OW25054   1.259   0.719   7.756 -0.4444  0.0881  0.5900
 4531SOL    HW125055   1.268   0.624   7.768  0.2377  0.2779  1.5016
 4531SOL    HW225056   1.283   0.755   7.841 -0.7048  1.3553  0.1227
 4532SOL     OW25057   2.809   3.163   3.015  0.4888  0.0385  0.7424
 4532SOL    HW125058   2.756   3.203   3.084 -1.6101 -2.1103  0.3660
 4532SOL    HW225059   2.830   3.077   3.052  1.2711 -0.3164 -0.5436
 4533SOL     OW25060   1.693   1.623   5.295 -0.3189 -0.1504 -0.0949
 4533SOL    HW125061   1.692   1.582   5.209 -0.2650  1.9104 -1.0831
 4533SOL    HW225062   1.777   1.669   5.295 -1.9120  2.7980  0.9562
 4534SOL     OW25063   2.287   3.233   1.962 -0.0283  0.4697  0.0645
 4534SOL    HW125064   2.216   3.237   2.025  0.0272 -1.5827  0.2770
 4534SOL    HW225065   2.297   3.138   1.949  2.6228  0.8034 -0.5042
 4535SOL     OW25066   3.463   4.674  11.075 -0.2128  0.1555  0.2011
 4535SOL    HW125067   3.449   4.593  11.027 -0.9156  1.9787 -2.7083
 4535SOL    HW225068   3.403   0.008  11.027 -0.5206 -0.0461  0.3503
 4536SOL     OW25069   0.806   0.213   4.491 -0.0887 -0.4645 -0.0105
 4536SOL    HW125070   0.832   0.252   4.407 -3.1162  1.0662 -0.2257
 4536SOL    HW225071   0.869   0.141   4.487 -0.2864 -0.6617  0.4168
 4537SOL     OW25072   1.445   3.990   7.423  0.5358  0.8223  0.2106
 4537SOL    HW125073   1.512   4.012   7.488  0.9381  0.3077 -0.0286
 4537SOL    HW225074   1.448   4.075   7.379 -2.6043 -0.5905 -2.8073
 4538SOL     OW25075   4.369   3.742   8.870  0.6258 -0.6576  0.2187
 4538SOL    HW125076   4.321   3.682   8.813 -0.8846 -1.1555  2.0014
 4538SOL    HW225077   4.403   3.805   8.806 -1.9449  0.1901 -0.3117
 4539SOL     OW25078   3.384   0.052   3.322 -0.5415  0.0022  0.1531
 4539SOL    HW125079   3.408   4.683   3.337  1.7728  0.6827  0.5631
 4539SOL    HW225080   3.459   0.078   3.269  1.1802 -2.4045  1.3714
 4540SOL     OW25081   0.916   4.500   3.254 -0.3249 -0.4646  0.3381
 4540SOL    HW125082   0.915   4.454   3.170  0.6330  2.1249 -1.0931
 4540SOL    HW225083   0.971   4.445   3.310 -1.1393 -1.8257 -0.1920
 4541SOL     OW25084   2.327   3.888   6.527 -0.5178  0.0057 -0.1289
 4541SOL    HW125085   2.410   3.904   6.571 -1.4130  0.1174  1.5282
 4541SOL    HW225086   2.357   3.831   6.456 -3.1520  0.8095 -1.8874
 4542SOL     OW25087   1.941   0.239   2.274 -0.3154  0.1252 -0.4187
 4542SOL    HW125088   1.998   0.223   2.198 -0.6065 -0.4119 -0.5244
 4542SOL    HW225089   1.870   0.280   2.225 -0.5054  1.6581  1.1648
 4543SOL     OW25090   3.920   4.462   6.542 -0.0683 -0.2524  0.2738
 4543SOL    HW125091   3.943   4.497   6.628  1.3707  1.1079 -0.6693
 4543SOL    HW225092   3.967   4.379   6.551 -0.2139 -0.5184 -1.4068
 4544SOL     OW25093   1.432   1.310   5.666  0.1765  0.4429 -0.8846
 4544SOL    HW125094   1.495   1.350   5.605 -0.0679  0.8532 -0.8642
 4544SOL    HW225095   1.486   1.281   5.739  0.0391  0.1672 -0.8927
 4545SOL     OW25096   1.348   4.397   3.283  0.1401 -0.1928  0.0410
 4545SOL    HW125097   1.282   4.392   3.214  1.2310  1.0227 -1.0993
 4545SOL    HW225098   1.333   4.310   3.320 -0.2716  0.0931  0.5450
 4546SOL     OW25099   4.611   0.237   7.483 -0.3759 -0.3345 -0.2518
 4546SOL    HW125100   4.554   0.205   7.552 -0.3573  2.1527  0.9310
 4546SOL    HW225101   4.688   0.181   7.494 -0.4927 -0.1245  1.5776
 4547SOL     OW25102   3.695   0.926   4.048  0.6122 -0.2073 -0.0694
 4547SOL    HW125103   3.774   0.915   3.995  2.6483  1.6976  2.6233
 4547SOL    HW225104   3.694   1.014   4.084 -2.7154 -0.8289  1.3801
 4548SOL     OW25105   3.838   3.392   7.363 -0.4108 -0.0153 -0.0763
 4548SOL    HW125106   3.852   3.451   7.436  0.8809  0.7378 -0.9392
 4548SOL    HW225107   3.926   3.391   7.326  0.0460 -1.0956  1.0186
 4549SOL     OW25108   2.869   0.051   9.890 -0.0089  0.4126 -0.0757
 4549SOL    HW125109   2.927   4.701   9.868 -0.0976 -0.1041  1.4537
 4549SOL    HW225110   2.883   0.115   9.819 -1.9761  0.6388 -0.2399
 4550SOL     OW25111   2.036   3.895   7.335  0.0214 -0.4141 -0.2414
 4550SOL    HW125112   2.042   3.919   7.427  0.0087 -2.4183  0.2751
 4550SOL    HW225113   1.957   3.946   7.314 -0.3948 -0.4986  1.1001
 4551SOL     OW25114   2.821   0.567   5.943 -0.0341  0.1142 -0.4217
 4551SOL    HW125115   2.798   0.517   6.021  3.4403  0.2463  0.6402
 4551SOL    HW225116   2.751   0.632   5.945  1.0404  1.2510  0.1087
 4552SOL     OW25117   3.573   2.332   7.826 -0.2068  0.7986  0.3477
 4552SOL    HW125118   3.543   2.375   7.746 -0.3971 -0.0920 -0.0625
 4552SOL    HW225119   3.656   2.378   7.835 -0.9963  1.8230  2.4429
 4553SOL     OW25120   4.303   3.690  12.572 -0.1359 -0.5447 -0.4740
 4553SOL    HW125121   4.223   3.654  12.611  0.7191  0.4665  2.2085
 4553SOL    HW225122   4.260   3.709  12.489  0.2640  0.5044 -0.4305
 4554SOL     OW25123   4.051   2.358   1.805 -0.3113  0.1652 -0.5821
 4554SOL    HW125124   3.964   2.340   1.838  0.7402 -0.5440  1.7940
 4554SOL    HW225125   4.031   2.346   1.712 -2.7590  1.2653 -0.1790
 4555SOL     OW25126   4.116   0.143  17.501 -0.3112  0.3893 -0.7277
 4555SOL    HW125127   4.199   0.126  17.458 -0.9248  1.2694 -2.2646
 4555SOL    HW225128   4.072   0.060  17.484  1.1340 -0.2920 -1.1114
 4556SOL     OW25129   3.313   3.055   7.665 -0.2361  0.4448  1.0515
 4556SOL    HW125130   3.350   3.009   7.589 -0.9486 -0.4652  1.2637
 4556SOL    HW225131   3.271   2.981   7.708 -0.9641 -0.2773 -0.8878
 4557SOL     OW25132   0.106   4.434   5.511 -0.0958  0.1484  0.3252
 4557SOL    HW125133   0.038   4.368   5.521 -1.1431  1.3633  1.2821
 4557SOL    HW225134   0.056   4.516   5.511  0.5992  0.5806  0.5462
 4558SOL     OW25135   2.122   1.057   5.890  0.0845  0.4847 -0.2251
 4558SOL    HW125136   2.071   1.084   5.814  0.2348  1.2457 -0.0614
 4558SOL    HW225137   2.054   1.029   5.953 -1.4370  0.0105 -2.0779
 4559SOL     OW25138   3.037   3.371  11.290  0.1049 -0.2014  0.3043
 4559SOL    HW125139   3.054   3.321  11.371 -3.3614 -1.7811  0.0658
 4559SOL    HW225140   2.983   3.302  11.252 -1.0292  0.1038  1.3418
 4560SOL     OW25141   0.701   3.135   1.842 -0.4677 -0.3766  0.3096
 4560SOL    HW125142   0.641   3.102   1.908 -1.0046  0.9230  0.4722
 4560SOL    HW225143   0.768   3.177   1.897 -1.7827  0.9425  0.8923
 4561SOL     OW25144   2.806   2.075   3.212  0.3066  0.8129 -0.7818
 4561SOL    HW125145   2.844   2.162   3.198 -0.1509  0.9462 -1.1761
 4561SOL    HW225146   2.732   2.098   3.268  1.2369  0.7164  0.4912
 4562SOL     OW25147   0.733   2.929   1.454  0.8672  0.0526  0.3890
 4562SOL    HW125148   0.747   2.849   1.504 -0.9778  0.1340  1.0637
 4562SOL    HW225149   0.658   2.899   1.403 -1.0826  3.1220  1.4363
 4563SOL     OW25150   0.872   2.956   9.636  0.0215  0.2360  0.0356
 4563SOL    HW125151   0.794   2.930   9.587  2.0319  0.5084 -3.3085
 4563SOL    HW225152   0.913   3.011   9.570  1.8581 -1.0792  0.0655
 4564SOL     OW25153   0.214   4.194   1.791 -0.1104 -0.7195  0.0725
 4564SOL    HW125154   0.159   4.122   1.820 -0.2480 -0.1788  1.1765
 4564SOL    HW225155   0.300   4.153   1.782  1.2118  1.4253  2.6517
 4565SOL     OW25156   2.942   0.640   6.458 -0.2660 -0.3127 -0.7300
 4565SOL    HW125157   2.916   0.719   6.411 -0.9227 -0.7336 -1.0712
 4565SOL    HW225158   3.012   0.609   6.400  0.3058  0.6839 -0.5684
 4566SOL     OW25159   3.719   3.689   3.230  0.4534  1.0131  0.5172
 4566SOL    HW125160   3.714   3.648   3.143  1.4626  0.0836  0.9044
 4566SOL    HW225161   3.783   3.629   3.269  1.2077  0.0272 -2.2314
 4567SOL     OW25162   2.256   4.371   9.422 -0.0300 -1.0374  0.2899
 4567SOL    HW125163   2.329   4.373   9.361  0.6947  0.6276  1.2007
 4567SOL    HW225164   2.297   4.375   9.509 -0.0885 -0.7481  0.3042
 4568SOL     OW25165   4.320   4.613   7.420  0.6080  0.2285  0.3269
 4568SOL    HW125166   4.406   4.572   7.430  0.9549  1.1843  1.3891
 4568SOL    HW225167   4.334   4.697   7.464  1.6702  1.4931 -2.4491
 4569SOL     OW25168   2.705   4.586   2.391 -0.0429 -0.3005 -0.4255
 4569SOL    HW125169   2.736   4.541   2.313 -1.8493  1.2402 -2.0263
 4569SOL    HW225170   2.634   4.646   2.365 -0.1844 -0.0381  0.5624
 4570SOL     OW25171   3.007   1.369   6.048  0.4320 -0.0750 -0.2093
 4570SOL    HW125172   2.933   1.370   6.109 -1.1501  0.7580 -2.1675
 4570SOL    HW225173   3.057   1.291   6.071 -0.9941 -1.4823 -1.9431
 4571SOL     OW25174   0.894   1.970   3.692 -0.3669 -0.3234  0.0064
 4571SOL    HW125175   0.897   2.035   3.621  0.7937  0.3417  0.6753
 4571SOL    HW225176   0.814   1.928   3.662  0.0452  0.8611 -2.7721
 4572SOL     OW25177   1.941   1.715   3.586 -0.0035 -0.3494  0.2374
 4572SOL    HW125178   1.973   1.783   3.527 -2.4003 -1.3294 -2.1855
 4572SOL    HW225179   1.908   1.650   3.525 -2.1259 -0.4226  1.4565
 4573SOL     OW25180   1.374   4.408   5.911  0.0371 -0.6295 -0.1635
 4573SOL    HW125181   1.334   4.438   5.829  0.3706  1.8531  0.5793
 4573SOL    HW225182   1.465   4.395   5.885  0.3775  0.0491  0.6956
 4574SOL     OW25183   1.254   0.868  12.688 -0.5145 -0.4589  0.7146
 4574SOL    HW125184   1.176   0.922  12.688 -0.4191 -0.2632 -4.0716
 4574SOL    HW225185   1.204   0.786  12.690 -3.1618  1.1223 -0.9551
 4575SOL     OW25186   4.284   3.902   5.127 -0.5344  0.4775 -0.4895
 4575SOL    HW125187   4.292   3.863   5.040  0.1542 -0.8827  0.1819
 4575SOL    HW225188   4.190   3.918   5.120 -0.9363 -0.7859  2.2077
 4576SOL     OW25189   2.489   0.002   8.129 -0.5226 -0.4071  0.1113
 4576SOL    HW125190   2.416   0.057   8.100 -0.9076 -0.3838  1.1462
 4576SOL    HW225191   2.530   0.071   8.180 -1.8889 -0.8149  1.7376
 4577SOL     OW25192   2.335   2.270   5.424 -0.5673 -0.1600  0.3062
 4577SOL    HW125193   2.415   2.315   5.451 -0.9596  1.6460 -1.4954
 4577SOL    HW225194   2.268   2.312   5.478  0.6890  0.6700  1.2484
 4578SOL     OW25195   3.533   0.076   5.126 -0.2539  0.2234  0.1203
 4578SOL    HW125196   3.443   0.054   5.103 -0.5832  2.2039 -0.4983
 4578SOL    HW225197   3.550   0.030   5.208  0.6362 -0.5944 -0.5145
 4579SOL     OW25198   4.017   3.858   2.568  0.2724  0.2281  0.1819
 4579SOL    HW125199   3.971   3.914   2.506 -0.8139 -0.9290 -0.0585
 4579SOL    HW225200   3.953   3.842   2.637  0.9069  1.5882  1.0813
 4580SOL     OW25201   2.812   4.011   5.535 -0.2385  0.4426  0.0877
 4580SOL    HW125202   2.905   4.004   5.512 -0.3418  0.7151 -0.4200
 4580SOL    HW225203   2.769   3.968   5.460 -1.2976 -0.6322  1.3110
 4581SOL     OW25204   3.617   2.157   1.565 -0.5116 -0.3219  0.5745
 4581SOL    HW125205   3.537   2.122   1.525 -0.8110  0.9104  0.1105
 4581SOL    HW225206   3.584   2.237   1.605  2.1787  1.4581 -0.8003
 4582SOL     OW25207   4.632   0.380   8.865 -0.1917 -0.4559  0.0344
 4582SOL    HW125208   4.682   0.301   8.888  1.0736  0.3222 -0.0266
 4582SOL    HW225209   4.546   0.341   8.882 -1.2444  1.7589 -0.2257
 4583SOL     OW25210   1.224   4.614  13.358 -0.7586  0.5744  0.3995
 4583SOL    HW125211   1.239   4.548  13.290 -0.9940  0.0260  0.8740
 4583SOL    HW225212   1.223   4.554  13.433 -1.4572  1.0703  0.7841
 4584SOL     OW25213   4.548   1.259   2.841  0.3634 -0.0590 -0.1103
 4584SOL    HW125214   4.559   1.176   2.796  0.1776 -1.5953  2.7104
 4584SOL    HW225215   4.466   1.238   2.885 -0.0356 -0.4970 -1.0858
 4585SOL     OW25216   3.618   2.984   7.172  0.0187 -0.5030  0.6605
 4585SOL    HW125217   3.708   3.016   7.168 -0.5067  1.1961  2.0840
 4585SOL    HW225218   3.611   2.958   7.264 -1.5846  0.7221  0.9094
 4586SOL     OW25219   2.351   1.038   9.877  0.0536  0.0578  0.1441
 4586SOL    HW125220   2.385   1.116   9.835 -0.2781  0.5499  0.7954
 4586SOL    HW225221   2.300   1.079   9.947  1.7144 -0.8764  1.9051
 4587SOL     OW25222   1.498   3.270   2.148 -0.2765 -0.5768  0.0512
 4587SOL    HW125223   1.490   3.360   2.119  0.3793 -0.5243  0.0244
 4587SOL    HW225224   1.487   3.270   2.243 -0.1375 -0.2079  0.0672
 4588SOL     OW25225   1.686   0.390   6.885 -0.1031 -0.1933  0.3089
 4588SOL    HW125226   1.656   0.443   6.960  0.1652  2.3057 -1.3396
 4588SOL    HW225227   1.717   0.313   6.933 -0.1479  0.2579  1.0790
 4589SOL     OW25228   4.141   0.911   7.236  0.0499 -0.2248 -0.3729
 4589SOL    HW125229   4.103   0.823   7.239 -0.9597  0.2337  0.0079
 4589SOL    HW225230   4.143   0.924   7.331  0.1396  0.4420 -0.4686
 4590SOL     OW25231   2.272   3.556  15.599  0.2023  0.6025  0.1763
 4590SOL    HW125232   2.263   3.487  15.532 -1.1422  0.6356  0.3162
 4590SOL    HW225233   2.363   3.556  15.627 -0.3797  1.7241  2.0259
 4591SOL     OW25234   2.813   3.474   3.208 -0.4192  0.0335 -0.1210
 4591SOL    HW125235   2.786   3.384   3.230  0.3164 -0.3072 -0.5951
 4591SOL    HW225236   2.728   3.518   3.200 -0.1109  0.7898  0.9527
 4592SOL     OW25237   3.069   1.088   8.914  0.2460 -0.2645 -0.4050
 4592SOL    HW125238   3.082   1.151   8.843 -1.8615  2.1025  1.2736
 4592SOL    HW225239   3.162   1.072   8.927  0.0256 -1.2316 -0.0483
 4593SOL     OW25240   1.512   3.539   2.064  0.2076 -0.1871 -0.3986
 4593SOL    HW125241   1.533   3.578   1.979 -0.4298 -2.0413 -1.4109
 4593SOL    HW225242   1.437   3.591   2.092  1.4694  1.1833  0.4321
 4594SOL     OW25243   3.964   3.124   3.281 -0.4393  0.5420 -0.0652
 4594SOL    HW125244   3.944   3.082   3.198  2.4051 -2.8610  0.9203
 4594SOL    HW225245   4.048   3.080   3.295 -0.4109  0.1316 -1.5621
 4595SOL     OW25246   2.756   0.086   6.046 -0.2234  0.0853 -0.0589
 4595SOL    HW125247   2.754   4.714   6.059  0.0291  0.2478  1.2234
 4595SOL    HW225248   2.675   0.111   6.091 -0.9387 -1.2729 -0.6036
 4596SOL     OW25249   4.231   1.614   4.708 -0.2213  0.6323 -0.4294
 4596SOL    HW125250   4.266   1.525   4.709 -2.1032 -0.1042 -0.0742
 4596SOL    HW225251   4.212   1.631   4.800 -0.5137  0.4835 -0.4601
 4597SOL     OW25252   0.225   4.563   6.210  0.7019 -0.3160 -0.3969
 4597SOL    HW125253   0.240   4.543   6.117 -1.7347 -3.3124 -0.1050
 4597SOL    HW225254   0.169   4.490   6.232 -1.9233  1.9068  0.2729
 4598SOL     OW25255   2.527   4.195   5.970 -0.1259  0.3505  0.2530
 4598SOL    HW125256   2.497   4.197   6.061 -0.8948 -1.3957  0.0307
 4598SOL    HW225257   2.543   4.287   5.950 -0.9394  0.1871 -1.1024
 4599SOL     OW25258   1.160   4.708  16.691  0.6248 -0.2797  0.1490
 4599SOL    HW125259   1.247   0.022  16.705  1.2234 -2.4077  1.9448
 4599SOL    HW225260   1.105   0.064  16.693  1.1777  0.1427 -1.1774
 4600SOL     OW25261   4.384   4.531   5.061 -0.5312 -0.2495  0.1650
 4600SOL    HW125262   4.381   4.531   4.965  0.3697  0.4148  0.1350
 4600SOL    HW225263   4.375   4.622   5.086 -0.6940  0.7604 -3.5213
 4601SOL     OW25264   3.400   4.232   3.741  0.2810  0.3234  0.2973
 4601SOL    HW125265   3.399   4.321   3.705 -2.6145 -0.4064 -1.4117
 4601SOL    HW225266   3.321   4.240   3.794 -0.7672 -2.6338 -0.8180
 4602SOL     OW25267   1.986   2.213   9.030 -0.4022  0.1577  0.0337
 4602SOL    HW125268   1.993   2.278   8.961 -0.0533  1.1904  1.0453
 4602SOL    HW225269   1.898   2.223   9.067  0.3300  2.7927  1.0756
 4603SOL     OW25270   1.693   2.158   8.355  0.3203  0.0612  0.2030
 4603SOL    HW125271   1.724   2.078   8.312  2.2740  1.4673 -1.0229
 4603SOL    HW225272   1.774   2.181   8.400 -0.1091 -1.3644  1.7109
 4604SOL     OW25273   4.486   1.416  15.246  0.0541 -0.1816 -0.5908
 4604SOL    HW125274   4.575   1.405  15.211  0.4485 -1.3076  0.8046
 4604SOL    HW225275   4.441   1.470  15.181  0.9529  0.5170 -0.6381
 4605SOL     OW25276   1.318   1.914   7.171 -0.3588 -0.4342 -0.1799
 4605SOL    HW125277   1.242   1.964   7.141 -0.9553  0.4124  2.7876
 4605SOL    HW225278   1.394   1.934   7.115 -0.1160 -1.1442 -0.1066
 4606SOL     OW25279   3.210   3.552   7.894  0.5192 -0.3726 -0.0895
 4606SOL    HW125280   3.233   3.530   7.984  0.5106 -0.7797 -0.1872
 4606SOL    HW225281   3.258   3.634   7.881 -0.3998  0.5118  2.0891
 4607SOL     OW25282   2.124   2.604   5.175  0.2455  0.8788 -0.1465
 4607SOL    HW125283   2.184   2.642   5.239 -1.4050 -0.3484  2.1407
 4607SOL    HW225284   2.040   2.640   5.205 -0.4878 -0.7865 -0.1600
 4608SOL     OW25285   3.061   3.284  15.798  0.2327  0.6082  0.2000
 4608SOL    HW125286   3.138   3.336  15.778 -0.0295 -0.1487 -2.8093
 4608SOL    HW225287   3.098   3.236  15.873 -1.0826 -0.2499  0.3066
 4609SOL     OW25288   3.759   1.274   1.405 -0.4497  1.1461 -0.2973
 4609SOL    HW125289   3.680   1.223   1.420 -0.0991  0.5711 -0.4122
 4609SOL    HW225290   3.745   1.298   1.313  2.2432  1.4280 -0.6354
 4610SOL     OW25291   0.383   1.652   5.926  0.0117  0.1467 -0.2392
 4610SOL    HW125292   0.407   1.626   6.015 -2.0047  0.2580  0.3556
 4610SOL    HW225293   0.314   1.589   5.904  1.4528 -0.8389 -1.9129
 4611SOL     OW25294   0.144   4.476   3.653 -0.2117 -0.4660 -1.3876
 4611SOL    HW125295   0.174   4.556   3.611 -0.4030  0.5379  0.3567
 4611SOL    HW225296   0.057   4.459   3.619 -1.0180  0.3864  0.2198
 4612SOL     OW25297   3.944   0.365   4.009  0.1540 -0.1303  0.3110
 4612SOL    HW125298   3.930   0.333   3.920 -4.2224  0.6505  0.6994
 4612SOL    HW225299   4.039   0.379   4.013 -0.0508  1.4579 -0.1646
 4613SOL     OW25300   0.828   2.530   0.282 -0.1121  0.5481 -0.0137
 4613SOL    HW125301   0.839   2.613   0.328 -2.1278  1.7608 -1.6826
 4613SOL    HW225302   0.914   2.488   0.284  0.8412  2.5591  0.8848
 4614SOL     OW25303   2.679   1.452   3.154  0.4258 -0.3699 -0.2148
 4614SOL    HW125304   2.692   1.545   3.167  2.0790 -0.8852  1.7771
 4614SOL    HW225305   2.602   1.440   3.097 -1.2105 -0.2550  1.9870
 4615SOL     OW25306   2.759   1.812   5.519  0.1233 -0.1529 -0.1820
 4615SOL    HW125307   2.854   1.825   5.521  0.2462 -0.9773 -0.6287
 4615SOL    HW225308   2.728   1.895   5.556 -0.6110 -0.0330 -1.0471
 4616SOL     OW25309   2.242   0.768   8.035  0.5363 -0.3562 -0.1916
 4616SOL    HW125310   2.187   0.763   7.956  1.3889 -0.6907 -0.7659
 4616SOL    HW225311   2.315   0.820   8.002  1.4348 -1.5586 -0.0787
 4617SOL     OW25312   2.555   3.833   3.997 -0.2190  0.0933  0.2206
 4617SOL    HW125313   2.562   3.895   4.069  1.4177  0.7945 -0.5375
 4617SOL    HW225314   2.643   3.839   3.959  0.7670 -0.7203  2.3852
 4618SOL     OW25315   3.465   2.324   6.202 -0.7051  0.3127  0.2527
 4618SOL    HW125316   3.466   2.377   6.122 -0.2175 -0.0460  0.0209
 4618SOL    HW225317   3.423   2.239   6.190 -0.3524  0.1121  0.4261
 4619SOL     OW25318   2.457   0.062  17.040  0.2501  0.1363  0.2570
 4619SOL    HW125319   2.537   0.036  17.085 -0.3669  1.9551  2.3943
 4619SOL    HW225320   2.469   0.054  16.945  1.1450  1.1224  0.2824
 4620SOL     OW25321   1.655   3.120   0.735 -0.5422  0.3043  0.0208
 4620SOL    HW125322   1.592   3.050   0.718  0.0833 -0.2098 -0.1894
 4620SOL    HW225323   1.623   3.177   0.665 -1.1488 -1.6818 -1.3399
 4621SOL     OW25324   4.624   0.767  15.873  0.4019  0.4147 -0.4385
 4621SOL    HW125325   4.622   0.785  15.967 -2.9595  0.2715 -0.5085
 4621SOL    HW225326   4.649   0.854  15.841  0.9561  0.3906 -0.0740
 4622SOL     OW25327   0.294   2.816   3.810  0.4286  0.1205 -0.2543
 4622SOL    HW125328   0.351   2.743   3.832  0.2810  0.0667 -0.0596
 4622SOL    HW225329   0.208   2.775   3.805 -0.7769  2.4462  1.1028
 4623SOL     OW25330   0.082   3.388  14.762  0.1658  0.3907 -0.4101
 4623SOL    HW125331   0.114   3.393  14.671  2.0660 -0.9174  0.1881
 4623SOL    HW225332   0.118   3.303  14.787  0.1334  0.5381  0.1224
 4624SOL     OW25333   2.138   0.383   5.342 -0.2817 -0.0757 -0.4266
 4624SOL    HW125334   2.047   0.383   5.369 -0.7498  0.0782 -1.9892
 4624SOL    HW225335   2.133   0.338   5.258  0.5055 -0.7056 -0.1371
 4625SOL     OW25336   1.197   0.717  16.601 -0.0614  0.1614 -0.0672
 4625SOL    HW125337   1.179   0.810  16.588  2.2973  0.5600 -0.4949
 4625SOL    HW225338   1.125   0.679  16.651 -0.4716 -1.0535 -1.5835
 4626SOL     OW25339   2.300   4.452   3.491 -0.3088  0.0985  0.4216
 4626SOL    HW125340   2.293   4.384   3.557 -1.4149  1.1116  1.3540
 4626SOL    HW225341   2.388   4.484   3.510  0.9123 -2.0566 -1.5972
 4627SOL     OW25342   2.445   1.687   0.829  0.5778 -0.2275 -0.2230
 4627SOL    HW125343   2.536   1.676   0.859  0.7909 -1.0330 -1.1904
 4627SOL    HW225344   2.441   1.783   0.821 -0.0940 -0.3689 -1.5722
 4628SOL     OW25345   4.561   1.192   4.736 -0.4045 -0.0877 -0.4291
 4628SOL    HW125346   4.632   1.249   4.707 -1.1732  1.4266  0.6789
 4628SOL    HW225347   4.564   1.120   4.674  0.4228 -0.1590 -0.3069
 4629SOL     OW25348   0.559   3.903   1.790  0.4203  0.2221  0.2195
 4629SOL    HW125349   0.652   3.921   1.772  0.3713 -0.2104 -0.5042
 4629SOL    HW225350   0.558   3.875   1.881 -0.0619  0.0612  0.1649
 4630SOL     OW25351   3.011   1.701   7.758  0.3519  0.1919 -0.0498
 4630SOL    HW125352   3.089   1.648   7.770  0.0480 -0.3083 -0.2518
 4630SOL    HW225353   2.948   1.628   7.763  0.6791 -0.0931 -0.0847
 4631SOL     OW25354   4.067   1.768  10.871 -0.4523 -0.5625 -0.4387
 4631SOL    HW125355   4.147   1.735  10.911  0.2695  0.4484 -1.0562
 4631SOL    HW225356   4.064   1.719  10.788 -0.3054  1.6140 -1.7182
 4632SOL     OW25357   0.869   3.216   2.028  0.2290 -0.4875 -0.6856
 4632SOL    HW125358   0.949   3.175   1.996  0.3985 -0.2583 -0.5546
 4632SOL    HW225359   0.904   3.305   2.035  0.3714 -0.5030 -1.2096
 4633SOL     OW25360   0.747   4.124   5.362  0.2707 -0.1520 -0.1098
 4633SOL    HW125361   0.677   4.187   5.380 -1.1886 -1.3736 -1.5004
 4633SOL    HW225362   0.706   4.057   5.307 -0.2184 -1.0037  1.2818
 4634SOL     OW25363   1.419   0.691   8.720  0.2159 -0.0394  0.0378
 4634SOL    HW125364   1.390   0.654   8.636 -1.1417  0.7078  0.1792
 4634SOL    HW225365   1.510   0.702   8.696 -0.0490 -2.1688 -1.9335
 4635SOL     OW25366   3.891   3.971   8.288  0.1953 -0.2410 -0.1279
 4635SOL    HW125367   3.912   3.903   8.223  0.5632 -0.0703 -0.1889
 4635SOL    HW225368   3.832   3.922   8.345  1.0434 -2.2471 -0.9693
 4636SOL     OW25369   3.010   1.474  15.505  0.1072 -0.4044 -0.0489
 4636SOL    HW125370   3.046   1.398  15.551  1.3846 -0.3286 -0.9441
 4636SOL    HW225371   2.922   1.448  15.478  0.5625 -1.2794 -0.6809
 4637SOL     OW25372   1.398   2.907   4.863  0.0907 -0.1499 -0.4263
 4637SOL    HW125373   1.474   2.870   4.909 -0.0856 -1.0947 -0.9083
 4637SOL    HW225374   1.353   2.827   4.835 -1.0922  0.7414 -1.0856
 4638SOL     OW25375   2.622   4.704   0.020  0.4501 -0.1090 -0.2359
 4638SOL    HW125376   2.628   4.665   0.107 -2.8560  1.9540  0.9144
 4638SOL    HW225377   2.708   4.682  17.677  0.2429  1.3873 -1.6746
 4639SOL     OW25378   2.943   4.101   3.701  0.2710  0.3118 -0.1710
 4639SOL    HW125379   2.973   4.191   3.687  0.3338  0.6163  1.8153
 4639SOL    HW225380   2.867   4.124   3.755 -0.1356  1.2233 -1.1267
 4640SOL     OW25381   1.569   0.391   9.867  0.5681  0.8394  0.1272
 4640SOL    HW125382   1.527   0.432   9.791 -0.4919 -0.3950  0.0408
 4640SOL    HW225383   1.517   0.314   9.888 -1.2171  1.8494 -0.5311
 4641SOL     OW25384   2.123   3.563   2.821  0.1596 -0.2183 -0.0110
 4641SOL    HW125385   2.141   3.657   2.813  2.2218 -1.0773 -5.4955
 4641SOL    HW225386   2.135   3.536   2.730 -0.0138  0.2604 -0.1763
 4642SOL     OW25387   2.166   0.715   9.081 -0.1350 -0.0102  0.0794
 4642SOL    HW125388   2.074   0.740   9.092 -0.0563  0.4630 -0.3742
 4642SOL    HW225389   2.197   0.720   9.172 -1.8034 -0.2726  0.6654
 4643SOL     OW25390   1.973   4.285   9.520  0.2039 -0.2227  0.1209
 4643SOL    HW125391   2.035   4.297   9.448  2.8329 -1.2019  2.2183
 4643SOL    HW225392   1.977   4.194   9.550  0.1089 -0.7913 -1.5464
 4644SOL     OW25393   4.433   3.816   3.719  0.2826 -0.2967  0.1829
 4644SOL    HW125394   4.429   3.736   3.668  0.6200 -0.8461  1.0101
 4644SOL    HW225395   4.500   3.781   3.778  2.0055  1.2815 -0.8513
 4645SOL     OW25396   0.089   2.419  13.507 -0.0726  0.0649  0.4140
 4645SOL    HW125397   0.173   2.462  13.524  0.2645 -0.5162  0.2009
 4645SOL    HW225398   0.030   2.492  13.489  1.4907  1.1386 -0.3910
 4646SOL     OW25399   3.729   2.361   9.068  0.1452 -0.3723  0.1153
 4646SOL    HW125400   3.665   2.306   9.114  2.4111 -2.5200  0.7194
 4646SOL    HW225401   3.669   2.426   9.031  0.3456  0.1848  0.7671
 4647SOL     OW25402   1.364   0.290   6.159  0.5803 -0.1104  0.3784
 4647SOL    HW125403   1.321   0.348   6.095  0.5950 -0.9992 -0.4366
 4647SOL    HW225404   1.293   0.231   6.182 -1.1474  2.1102  0.7171
 4648SOL     OW25405   2.016   1.619   7.804 -0.1752 -0.4901 -0.2983
 4648SOL    HW125406   2.091   1.638   7.747 -2.4860  2.5574 -2.2844
 4648SOL    HW225407   1.973   1.554   7.749 -0.4428  1.5104 -2.4163
 4649SOL     OW25408   2.421   4.032  15.410  0.1476 -0.3197 -0.2262
 4649SOL    HW125409   2.421   3.969  15.481  1.3733 -1.5798 -1.3406
 4649SOL    HW225410   2.410   4.112  15.462  1.7201 -0.5387  0.4336
 4650SOL     OW25411   2.831   0.636   8.041  0.0150  0.5681  0.0387
 4650SOL    HW125412   2.736   0.643   8.049  0.0085 -0.3151  0.6868
 4650SOL    HW225413   2.841   0.670   7.951 -1.3314 -2.0729 -1.1018
 4651SOL     OW25414   1.151   3.784   5.980  0.0276 -0.1689  0.3527
 4651SOL    HW125415   1.137   3.717   5.913 -1.6066  0.1237  0.3881
 4651SOL    HW225416   1.211   3.850   5.945 -0.1534  0.8316  1.9443
 4652SOL     OW25417   0.384   2.613  16.153 -0.4174 -0.2252 -0.3863
 4652SOL    HW125418   0.440   2.564  16.213 -0.2717 -3.4158 -3.1510
 4652SOL    HW225419   0.427   2.580  16.074  1.3694  0.5251  0.2652
 4653SOL     OW25420   4.502   0.832  16.525  0.5795 -0.3648 -0.4143
 4653SOL    HW125421   4.469   0.900  16.466  2.9261  0.9558 -0.2381
 4653SOL    HW225422   4.442   0.762  16.502 -1.3098  0.5414  1.8416
 4654SOL     OW25423   1.200   4.041   7.642  0.6778 -0.7677 -0.1280
 4654SOL    HW125424   1.220   4.043   7.736  0.9714  0.1857 -0.2146
 4654SOL    HW225425   1.249   3.970   7.600 -0.5283  0.0938 -2.9782
 4655SOL     OW25426   2.244   4.178   6.807 -0.0026 -0.5187 -0.4554
 4655SOL    HW125427   2.208   4.102   6.852  1.6980 -1.2282 -0.2969
 4655SOL    HW225428   2.170   4.213   6.757  0.0463  0.9642  0.5028
 4656SOL     OW25429   1.463   3.298  16.321  0.3944  0.1853 -0.1152
 4656SOL    HW125430   1.380   3.297  16.370 -0.4281 -0.3118 -1.5226
 4656SOL    HW225431   1.455   3.217  16.269  2.3627 -0.5374  0.7113
 4657SOL     OW25432   3.709   4.237   5.061 -0.0016 -0.0460 -0.0307
 4657SOL    HW125433   3.768   4.163   5.048 -0.5083 -0.1421 -1.6904
 4657SOL    HW225434   3.705   4.278   4.975  0.1871 -0.9146 -0.4543
 4658SOL     OW25435   2.620   2.348  12.152 -0.0318  0.0176  0.4119
 4658SOL    HW125436   2.614   2.425  12.209  2.1555 -0.3628  1.1434
 4658SOL    HW225437   2.626   2.372  12.060 -1.0147 -2.3854 -0.2615
 4659SOL     OW25438   2.095   2.882  16.824  0.6682  0.6095  0.2226
 4659SOL    HW125439   2.152   2.911  16.752 -0.2451  1.2953 -0.2235
 4659SOL    HW225440   2.146   2.919  16.896  0.4723  1.2451  0.0282
 4660SOL     OW25441   2.201   3.624   8.083 -0.1592 -0.0815  0.5257
 4660SOL    HW125442   2.162   3.657   8.164  1.0476  3.0574 -0.1585
 4660SOL    HW225443   2.292   3.651   8.086  0.2435 -1.4474  0.7215
 4661SOL     OW25444   3.318   4.063  11.228 -0.1363  0.6108  0.6815
 4661SOL    HW125445   3.365   3.983  11.253  0.8117  1.4051  1.4695
 4661SOL    HW225446   3.400   4.107  11.207 -0.0636 -0.0842 -0.4902
 4662SOL     OW25447   1.104   2.870   3.296  0.6848 -0.0709 -0.1105
 4662SOL    HW125448   1.113   2.825   3.212  3.1812  0.8237 -0.3146
 4662SOL    HW225449   1.057   2.948   3.267 -0.1467 -0.5949 -0.1832
 4663SOL     OW25450   0.326   4.044  13.982 -0.5203  0.1654 -0.1102
 4663SOL    HW125451   0.392   4.048  13.913 -1.3069  1.4052 -0.7904
 4663SOL    HW225452   0.269   3.975  13.947  0.0746 -0.0318 -0.6815
 4664SOL     OW25453   1.843   2.694   0.533 -0.5615 -0.1192 -0.7077
 4664SOL    HW125454   1.844   2.788   0.515  0.0970 -0.5071 -2.6276
 4664SOL    HW225455   1.792   2.694   0.614 -2.7508 -0.2699 -2.1026
 4665SOL     OW25456   1.793   1.602  13.386  0.2617  0.3252 -0.0102
 4665SOL    HW125457   1.722   1.618  13.324  0.6094  0.1481 -0.4513
 4665SOL    HW225458   1.773   1.524  13.438  2.2941 -0.2656 -0.1149
 4666SOL     OW25459   1.414   0.374  12.140 -0.1683  0.3301 -0.6705
 4666SOL    HW125460   1.371   0.327  12.069  0.3050 -0.2427 -0.5702
 4666SOL    HW225461   1.502   0.390  12.108  0.4903 -0.6128  0.6782
 4667SOL     OW25462   0.122   1.393  12.413 -0.0484  0.5117 -0.1322
 4667SOL    HW125463   0.113   1.427  12.324  0.6092  1.9013  0.3320
 4667SOL    HW225464   0.175   1.314  12.401  1.1473  1.3534 -0.4460
 4668SOL     OW25465   4.377   2.921   3.853 -0.4438  0.8178 -0.3071
 4668SOL    HW125466   4.461   2.890   3.819 -0.2631  0.0088  0.8732
 4668SOL    HW225467   4.338   2.941   3.768  1.7709 -1.1694 -1.8077
 4669SOL     OW25468   0.750   4.426   2.146  0.7948  0.3159  0.4521
 4669SOL    HW125469   0.826   4.480   2.124 -0.5217  1.2990 -1.6298
 4669SOL    HW225470   0.702   4.491   2.198 -2.4158  1.4070 -3.8988
 4670SOL     OW25471   0.485   3.434   2.092 -0.6586 -0.5657 -0.2616
 4670SOL    HW125472   0.407   3.384   2.065  0.5198 -2.7217  0.2921
 4670SOL    HW225473   0.448   3.476   2.170  1.4220  0.2728  0.2596
 4671SOL     OW25474   4.364   2.007   2.169  0.0148  0.3382  0.5171
 4671SOL    HW125475   4.417   1.927   2.171  0.4485  0.6164  0.1660
 4671SOL    HW225476   4.363   2.024   2.075  0.0278 -2.3742  0.0285
 4672SOL     OW25477   2.092   4.556   1.070  0.3059 -0.6141  0.3350
 4672SOL    HW125478   2.011   4.515   1.101  0.3128 -3.4771 -3.4100
 4672SOL    HW225479   2.117   4.604   1.149  0.0005  0.0049  0.0589
 4673SOL     OW25480   1.723   0.624  10.017  0.0589  0.0504  0.1583
 4673SOL    HW125481   1.669   0.661  10.087  0.1062 -0.7636  0.6340
 4673SOL    HW225482   1.752   0.540  10.053  1.4614  1.0174  1.2906
 4674SOL     OW25483   4.308   2.086  10.723 -0.3138 -0.1485  0.1914
 4674SOL    HW125484   4.219   2.062  10.747  0.4852 -2.5483  0.7390
 4674SOL    HW225485   4.351   2.001  10.727 -0.4816 -0.3734 -2.6799
 4675SOL     OW25486   2.712   3.331   3.805 -0.1093  0.5402 -0.0890
 4675SOL    HW125487   2.742   3.295   3.889  0.8173  2.3410  0.3648
 4675SOL    HW225488   2.668   3.410   3.836 -1.7677  0.8844 -3.3533
 4676SOL     OW25489   0.481   2.599   8.103  0.1890 -0.1133 -0.4946
 4676SOL    HW125490   0.420   2.536   8.141 -0.1512  0.0940 -0.6944
 4676SOL    HW225491   0.518   2.533   8.044 -0.1110 -1.4847  0.8273
 4677SOL     OW25492   0.484   1.826   6.732 -0.1767 -0.0808 -0.0216
 4677SOL    HW125493   0.435   1.873   6.800 -0.8991 -1.0767  0.1422
 4677SOL    HW225494   0.459   1.736   6.750  1.8454 -1.1903 -2.8854
 4678SOL     OW25495   1.995   2.164  12.018  0.4287  0.0987 -0.4610
 4678SOL    HW125496   1.990   2.252  12.053 -0.6517 -0.7527  1.5362
 4678SOL    HW225497   2.082   2.163  11.979  0.7491 -2.4244  0.2633
 4679SOL     OW25498   3.387   4.013   6.650  0.1042  0.1149 -0.1841
 4679SOL    HW125499   3.405   4.079   6.583  2.5999 -0.4861 -0.1262
 4679SOL    HW225500   3.480   3.997   6.667  0.3461  0.4517 -1.1841
 4680SOL     OW25501   3.294   1.987   5.108  0.3242  0.1596 -0.5359
 4680SOL    HW125502   3.298   2.060   5.046  0.9275 -0.5678 -1.3496
 4680SOL    HW225503   3.362   2.020   5.167  0.8252 -1.0387 -0.4452
 4681SOL     OW25504   0.463   0.420  15.030  0.0007 -0.2841  0.1914
 4681SOL    HW125505   0.501   0.332  15.030 -0.1786 -0.3617 -0.9807
 4681SOL    HW225506   0.469   0.421  15.125 -0.1916  0.8941  0.1930
 4682SOL     OW25507   0.208   0.146   7.231 -0.3404  0.0191  0.4372
 4682SOL    HW125508   0.269   0.187   7.291  1.4059  1.2080 -2.1253
 4682SOL    HW225509   0.169   0.226   7.194 -1.0119  0.2771  1.7147
 4683SOL     OW25510   0.200   3.067   8.509 -0.0560 -0.0647 -0.0264
 4683SOL    HW125511   0.119   3.117   8.496  0.6022  0.8030 -0.7947
 4683SOL    HW225512   0.253   3.143   8.533  1.2943 -0.8256 -0.5893
 4684SOL     OW25513   3.745   0.087   5.494  0.7453  0.0611  0.4551
 4684SOL    HW125514   3.734   0.004   5.449  0.5530 -0.6286  1.7657
 4684SOL    HW225515   3.742   0.058   5.586  0.4209 -0.5987  0.2309
 4685SOL     OW25516   4.108   2.134  11.447  0.1073  0.4963  0.5858
 4685SOL    HW125517   4.119   2.039  11.455  1.5396  0.7160  1.2697
 4685SOL    HW225518   4.040   2.146  11.381 -0.7991 -2.0330  1.0250
 4686SOL     OW25519   3.344   1.437   2.265  0.2395 -0.3057 -0.1908
 4686SOL    HW125520   3.396   1.358   2.256  0.5596 -0.0009 -1.0935
 4686SOL    HW225521   3.411   1.503   2.284 -1.8866  2.0643 -0.8602
 4687SOL     OW25522   2.851   3.455   9.238 -0.0971  0.2377 -0.2165
 4687SOL    HW125523   2.814   3.461   9.326  2.0590 -1.1773  0.7530
 4687SOL    HW225524   2.871   3.362   9.231 -1.8994 -0.3381  2.2984
 4688SOL     OW25525   0.517   0.988   8.927  0.4399  0.1216  0.1543
 4688SOL    HW125526   0.425   0.991   8.900  0.3952  0.8677  0.3711
 4688SOL    HW225527   0.527   0.904   8.970 -0.3008  0.3769  0.8309
 4689SOL     OW25528   2.813   1.117  16.671 -0.2678 -0.1165 -0.0459
 4689SOL    HW125529   2.717   1.118  16.667 -0.1749 -0.6456 -2.1801
 4689SOL    HW225530   2.823   1.208  16.700  0.5160 -0.6052  1.2469
 4690SOL     OW25531   3.424   4.192   6.434 -0.1746  0.3769  0.0301
 4690SOL    HW125532   3.420   4.137   6.355  0.9859  0.3177  0.0067
 4690SOL    HW225533   3.482   4.259   6.396  0.3171  0.5706  1.1221
 4691SOL     OW25534   3.174   0.716   9.213  0.2937  0.5213 -0.2929
 4691SOL    HW125535   3.117   0.645   9.242 -1.4767  2.0470 -0.0224
 4691SOL    HW225536   3.134   0.795   9.251  1.2804  0.6894  0.3742
 4692SOL     OW25537   2.886   0.136   4.953 -0.2989 -0.0578  0.3242
 4692SOL    HW125538   2.982   0.144   4.954  0.0185 -3.6233 -1.3289
 4692SOL    HW225539   2.864   0.083   5.029  1.6763 -1.1358  0.1452
 4693SOL     OW25540   4.693   1.798   7.934 -0.0225  0.2003  0.2077
 4693SOL    HW125541   0.031   1.860   7.974 -0.2882  1.2120 -0.9612
 4693SOL    HW225542   4.616   1.852   7.918  0.4908  1.4731  2.0312
 4694SOL     OW25543   0.559   1.146   4.733 -0.1144 -0.3409  0.3027
 4694SOL    HW125544   0.491   1.089   4.768 -2.9023  2.5987 -0.2892
 4694SOL    HW225545   0.620   1.074   4.717 -1.1790 -1.2673  0.4976
 4695SOL     OW25546   3.956   3.455   8.104 -0.1706 -0.3482  0.3040
 4695SOL    HW125547   4.041   3.498   8.116  0.2566 -1.3261  0.8003
 4695SOL    HW225548   3.926   3.462   8.194  0.3122  1.5707  0.3094
 4696SOL     OW25549   1.685   3.895  16.475  0.0348 -0.4100  0.1976
 4696SOL    HW125550   1.771   3.928  16.503  0.2308 -0.3581 -0.4691
 4696SOL    HW225551   1.640   3.958  16.532  0.4206 -1.5811  1.8026
 4697SOL     OW25552   2.306   2.554   6.501  0.8085 -0.2035  0.5912
 4697SOL    HW125553   2.299   2.520   6.590 -1.6744 -2.5834 -0.5234
 4697SOL    HW225554   2.239   2.510   6.449  0.6103  2.1503 -1.1801
 4698SOL     OW25555   4.634   3.443   9.223  0.4899 -0.1023  0.3394
 4698SOL    HW125556   4.647   3.401   9.309 -2.0386  0.0681  0.8002
 4698SOL    HW225557   4.679   3.525   9.244  1.1211 -0.3875  0.1197
 4699SOL     OW25558   2.821   0.598   9.811 -0.4186 -0.0833  0.7372
 4699SOL    HW125559   2.745   0.635   9.767 -1.1200 -2.9386 -0.4321
 4699SOL    HW225560   2.823   0.634   9.900  0.8328  1.8132 -0.0455
 4700SOL     OW25561   2.408   1.639   4.362 -0.1245 -0.8288 -0.1487
 4700SOL    HW125562   2.433   1.725   4.327  0.6164 -0.1404  2.0509
 4700SOL    HW225563   2.430   1.644   4.455 -0.5863  0.7672 -0.1120
 4701SOL     OW25564   1.292   1.280   3.676 -0.1697 -0.6253 -0.0700
 4701SOL    HW125565   1.336   1.277   3.592  0.5509 -2.2272  0.3711
 4701SOL    HW225566   1.252   1.367   3.674 -0.6328 -0.7164  3.8162
 4702SOL     OW25567   1.264   2.124  13.603 -0.0264  0.2512  0.1792
 4702SOL    HW125568   1.196   2.181  13.639 -0.6048 -0.1947 -0.1966
 4702SOL    HW225569   1.226   2.041  13.633  0.1331 -0.1891 -0.8346
 4703SOL     OW25570   3.436   3.739   2.633 -0.0345  0.4044 -0.2884
 4703SOL    HW125571   3.370   3.740   2.564  1.2843 -2.9807 -1.6143
 4703SOL    HW225572   3.379   3.788   2.693  0.2758  0.3680  0.0338
 4704SOL     OW25573   4.399   1.536   2.356 -0.4989 -0.4128  0.0913
 4704SOL    HW125574   4.441   1.618   2.331 -2.5404  0.4334 -0.6251
 4704SOL    HW225575   4.472   1.476   2.344 -0.6509 -0.3134 -1.4027
 4705SOL     OW25576   3.255   3.187   4.930 -0.4813  0.0847 -0.5011
 4705SOL    HW125577   3.207   3.143   5.000 -1.8421 -2.5437 -3.0811
 4705SOL    HW225578   3.175   3.206   4.880 -2.1533 -0.9141  1.7769
 4706SOL     OW25579   4.294   0.986   3.686 -0.7778  0.1524 -0.3664
 4706SOL    HW125580   4.356   1.035   3.632 -0.2164 -1.4182 -1.1321
 4706SOL    HW225581   4.271   1.057   3.746 -1.2555 -0.4446  0.1514
 4707SOL     OW25582   0.230   4.231  14.941  0.6055 -0.1101  0.0756
 4707SOL    HW125583   0.187   4.296  14.997 -0.1695  0.5801 -1.3219
 4707SOL    HW225584   0.247   4.168  15.011  0.4390 -0.3064 -0.0571
 4708SOL     OW25585   2.090   2.415   6.400 -0.2489  0.5201  0.3768
 4708SOL    HW125586   2.075   2.390   6.309  1.8983  1.3473 -0.2079
 4708SOL    HW225587   2.005   2.447   6.428 -0.1580  1.1241 -0.0524
 4709SOL     OW25588   1.791   2.884   9.423 -0.3376 -0.4759  1.2178
 4709SOL    HW125589   1.781   2.870   9.329 -0.2593  1.6048  0.9004
 4709SOL    HW225590   1.758   2.804   9.464  0.3440  0.0014  2.6814
 4710SOL     OW25591   4.122   1.152   9.830  0.0585  0.2873  0.2811
 4710SOL    HW125592   4.205   1.116   9.799 -0.2556  0.0959 -0.3236
 4710SOL    HW225593   4.132   1.248   9.831 -0.4754  0.3509 -0.8347
 4711SOL     OW25594   0.738   0.359  11.426 -0.0071 -0.1021 -0.0253
 4711SOL    HW125595   0.723   0.454  11.422 -2.0759 -0.5103 -2.4235
 4711SOL    HW225596   0.644   0.342  11.435 -0.2332  1.6604  0.9876
 4712SOL     OW25597   1.989   1.515  16.501 -0.6788 -0.1114  0.0005
 4712SOL    HW125598   2.038   1.460  16.562  1.1450  1.5683  0.0372
 4712SOL    HW225599   1.921   1.548  16.560  0.9393  4.3373 -0.6009
 4713SOL     OW25600   2.600   2.920   6.854 -0.0408 -0.5197 -0.7866
 4713SOL    HW125601   2.626   2.828   6.845  1.2204 -0.7199  4.5273
 4713SOL    HW225602   2.505   2.927   6.868  0.1726 -1.5251  1.2880
 4714SOL     OW25603   4.453   0.763  12.508 -0.3681 -0.3024 -0.0393
 4714SOL    HW125604   4.519   0.708  12.467 -0.1870  0.5478 -0.8867
 4714SOL    HW225605   4.503   0.836  12.545 -2.0784  0.4332  0.8483
 4715SOL     OW25606   4.642   4.349   3.482 -0.4196 -0.2802 -0.2857
 4715SOL    HW125607   4.648   4.258   3.452  1.0961 -0.2175 -0.1807
 4715SOL    HW225608   4.602   4.362   3.567  2.2851  0.3452  0.8901
 4716SOL     OW25609   3.246   3.715   8.198  0.1070 -0.1923  0.0502
 4716SOL    HW125610   3.225   3.623   8.213 -2.0178  0.5300  1.4771
 4716SOL    HW225611   3.170   3.734   8.144  0.1318  0.5963  0.2945
 4717SOL     OW25612   2.138   1.119  14.229  0.3293 -0.2386  0.0572
 4717SOL    HW125613   2.099   1.193  14.182 -2.3902 -1.1071  0.9467
 4717SOL    HW225614   2.143   1.159  14.316  2.0078 -2.1581  0.8438
 4718SOL     OW25615   0.694   3.393   5.110  0.5677 -0.4033  0.1164
 4718SOL    HW125616   0.738   3.369   5.191 -1.9859 -1.9051  1.0838
 4718SOL    HW225617   0.714   3.322   5.049  0.6859  0.2518 -0.5985
 4719SOL     OW25618   4.449   0.180  14.261  0.3096  0.2429 -0.0854
 4719SOL    HW125619   4.505   0.254  14.284  0.5558  0.2253 -0.6338
 4719SOL    HW225620   4.509   0.134  14.202  1.8729  1.9645  0.1514
 4720SOL     OW25621   2.485   2.448   2.096 -0.0114 -0.0389  0.0676
 4720SOL    HW125622   2.505   2.362   2.133  0.3720 -0.8529 -2.0240
 4720SOL    HW225623   2.444   2.492   2.171  0.2680  1.0807 -0.4294
 4721SOL     OW25624   3.041   2.334   4.235 -0.0311  0.1905 -0.3318
 4721SOL    HW125625   3.069   2.413   4.189 -1.4723 -0.4636 -2.3521
 4721SOL    HW225626   2.963   2.317   4.182  2.0268  1.3836 -3.7685
 4722SOL     OW25627   1.903   4.502   4.493 -0.0583 -0.5708 -0.1944
 4722SOL    HW125628   1.947   4.585   4.514 -1.7736  0.3028 -0.0227
 4722SOL    HW225629   1.813   4.530   4.511 -0.0659 -1.4621  1.1487
 4723SOL     OW25630   0.744   0.865   6.537 -0.6007  0.6257 -0.1532
 4723SOL    HW125631   0.821   0.905   6.577 -0.0359 -0.4768 -0.1325
 4723SOL    HW225632   0.752   0.899   6.448 -1.1019  0.2137 -0.3532
 4724SOL     OW25633   4.419   2.936  16.903 -0.4260  0.4370  0.0224
 4724SOL    HW125634   4.421   2.849  16.865  0.6807  0.2224  0.5883
 4724SOL    HW225635   4.497   2.980  16.868  0.3137  0.5934  1.8870
 4725SOL     OW25636   0.302   1.028   4.817  0.1021  0.1081 -0.1325
 4725SOL    HW125637   0.222   1.004   4.770 -1.6134  2.1828  1.6970
 4725SOL    HW225638   0.255   1.071   4.889 -1.2193 -0.8510 -0.4240
 4726SOL     OW25639   3.922   3.782   8.091  0.2628 -0.2781  0.1703
 4726SOL    HW125640   3.842   3.729   8.091  0.1048 -0.0395  0.6178
 4726SOL    HW225641   3.982   3.711   8.067 -1.1174 -0.7305 -1.9719
 4727SOL     OW25642   2.671   0.509   0.559 -0.3022 -0.4325  0.0903
 4727SOL    HW125643   2.687   0.421   0.593 -0.0067 -0.3656  0.1297
 4727SOL    HW225644   2.599   0.484   0.501 -1.0223  0.8997  0.3942
 4728SOL     OW25645   0.742   3.862   2.775  0.1755  0.5263  0.0784
 4728SOL    HW125646   0.730   3.954   2.801 -1.1376 -0.3083  2.5120
 4728SOL    HW225647   0.730   3.858   2.680 -1.3348 -2.2090  0.3876
 4729SOL     OW25648   0.702   3.578   4.509  0.1557 -0.5679  0.2141
 4729SOL    HW125649   0.702   3.672   4.493  2.8891 -0.9265 -1.8761
 4729SOL    HW225650   0.758   3.547   4.438  0.9092  1.7380 -0.1958
 4730SOL     OW25651   4.327   1.094   6.725 -0.1353 -0.6444  0.1089
 4730SOL    HW125652   4.330   1.043   6.806  0.9864  0.2844  0.6582
 4730SOL    HW225653   4.237   1.098   6.692 -0.3618  0.0428  0.7891
 4731SOL     OW25654   3.046   1.142  14.985 -0.1187 -0.2132 -0.6668
 4731SOL    HW125655   3.021   1.232  14.965  1.6155  0.1191 -1.3828
 4731SOL    HW225656   3.098   1.124  14.906  0.4065 -0.6064 -0.2319
 4732SOL     OW25657   1.397   3.907   6.506  0.0804  0.2237  0.1439
 4732SOL    HW125658   1.409   3.877   6.596 -0.7284 -1.3792 -0.2876
 4732SOL    HW225659   1.346   3.984   6.533  1.1663  1.5319 -1.5367
 4733SOL     OW25660   0.450   2.405   5.964 -0.8535 -0.2180  0.3589
 4733SOL    HW125661   0.470   2.484   6.014  0.2579  0.6723 -1.5011
 4733SOL    HW225662   0.489   2.346   6.028  2.2573  0.2505 -1.1087
 4734SOL     OW25663   1.258   0.645   4.893  0.2483  0.6524 -0.9075
 4734SOL    HW125664   1.264   0.727   4.843  0.8374  1.6461  0.7843
 4734SOL    HW225665   1.165   0.641   4.913  0.4071 -2.6045 -0.8866
 4735SOL     OW25666   0.305   1.092  13.982  0.2533  0.0725  0.1728
 4735SOL    HW125667   0.356   1.052  13.912 -1.4558  1.5561 -1.9062
 4735SOL    HW225668   0.220   1.055  13.960  0.4864  0.7320 -1.8517
 4736SOL     OW25669   2.120   0.302  10.581  0.1004  0.0959 -0.4553
 4736SOL    HW125670   2.025   0.293  10.570 -0.0431  2.8196 -1.4677
 4736SOL    HW225671   2.145   0.230  10.523 -2.5639  0.2285 -1.7892
 4737SOL     OW25672   2.334   1.667   2.285 -0.3248  0.4156  0.2093
 4737SOL    HW125673   2.299   1.593   2.335 -1.4846  1.2844  0.6994
 4737SOL    HW225674   2.407   1.691   2.342 -2.0222  1.1149  2.1157
 4738SOL     OW25675   4.235   3.742   9.750  0.4294 -0.2544  0.0659
 4738SOL    HW125676   4.200   3.711   9.833  0.9314  0.7155  0.6282
 4738SOL    HW225677   4.280   3.821   9.777 -0.5338  0.5905 -0.8060
 4739SOL     OW25678   4.000   0.679   7.299 -0.0084 -0.2380  0.7640
 4739SOL    HW125679   3.948   0.613   7.345 -1.0545  0.9216  1.2572
 4739SOL    HW225680   4.027   0.620   7.229 -0.1167  0.1216  0.4220
 4740SOL     OW25681   3.082   4.091   7.387 -0.2496 -0.3576  0.1915
 4740SOL    HW125682   3.056   3.999   7.385 -0.7419 -0.2550  2.3188
 4740SOL    HW225683   3.158   4.085   7.328  0.1079  1.2730  0.4950
 4741SOL     OW25684   0.667   3.230   3.124 -0.4705 -0.0140 -0.3514
 4741SOL    HW125685   0.716   3.309   3.103 -1.4384  0.8983  0.8203
 4741SOL    HW225686   0.723   3.184   3.187 -1.1820  0.3239  0.5201
 4742SOL     OW25687   4.152   3.097   9.528  0.2203 -0.3628  0.3301
 4742SOL    HW125688   4.243   3.074   9.547  2.0295  2.1473 -5.3060
 4742SOL    HW225689   4.118   3.052   9.606 -0.7255  2.2680  1.4411
 4743SOL     OW25690   4.639   3.279   6.847  0.0522  0.2694 -0.7301
 4743SOL    HW125691   4.606   3.219   6.913 -0.5130  0.8270 -0.5042
 4743SOL    HW225692   4.679   3.336   6.912 -0.9467 -0.1433  0.2363
 4744SOL     OW25693   4.591   0.740   1.997 -0.0899  0.0538  0.4302
 4744SOL    HW125694   4.510   0.740   2.048 -0.0515  0.9839  0.4921
 4744SOL    HW225695   4.612   0.832   1.980 -1.6277  0.1328 -0.9617
 4745SOL     OW25696   3.893   2.849  13.086 -0.6224  0.1343 -0.6276
 4745SOL    HW125697   3.818   2.905  13.065 -0.0844  0.9392 -0.3916
 4745SOL    HW225698   3.837   2.776  13.113 -0.4398 -0.1436 -1.0126
 4746SOL     OW25699   0.650   2.940   6.410  0.1314  0.2353 -0.8506
 4746SOL    HW125700   0.631   3.034   6.402 -0.7282  0.1146 -0.2630
 4746SOL    HW225701   0.577   2.913   6.466 -0.5753  0.4440 -1.6669
 4747SOL     OW25702   4.599   0.422  13.176  0.0929 -0.3122  0.5207
 4747SOL    HW125703   4.560   0.494  13.226 -2.4695  1.0775 -3.5082
 4747SOL    HW225704   4.524   0.396  13.122  0.0167 -1.7172  1.3158
 4748SOL     OW25705   0.883   1.938  15.610 -0.5552 -0.5221  0.2276
 4748SOL    HW125706   0.951   1.998  15.641 -0.0280  1.1487 -4.2479
 4748SOL    HW225707   0.813   2.000  15.591 -2.7585 -1.9675  3.6543
 4749SOL     OW25708   1.540   1.118   9.391 -0.3965  0.6587 -0.7507
 4749SOL    HW125709   1.464   1.099   9.335 -0.0319 -1.5627 -0.5183
 4749SOL    HW225710   1.561   1.209   9.374 -0.6663  0.4502 -2.2568
 4750SOL     OW25711   0.659   4.120   2.624 -0.2707  0.0383 -0.5951
 4750SOL    HW125712   0.723   4.128   2.553  0.1740 -0.4070 -0.2479
 4750SOL    HW225713   0.590   4.176   2.589 -1.6564 -1.1320  0.2666
 4751SOL     OW25714   4.715   4.074  16.245  0.3656  0.1054 -0.2151
 4751SOL    HW125715   0.037   4.064  16.328  0.2689  0.5340 -0.1117
 4751SOL    HW225716   4.656   3.999  16.254  0.3736  0.3214  1.4919
 4752SOL     OW25717   3.948   4.192   8.469  0.5588 -0.4379  0.1427
 4752SOL    HW125718   4.025   4.152   8.509  0.7670 -1.1483 -0.9600
 4752SOL    HW225719   3.944   4.155   8.380  0.0874 -0.6739  0.2606
 4753SOL     OW25720   1.724   2.030   4.637  0.1720  0.3352 -0.2512
 4753SOL    HW125721   1.760   2.072   4.559  0.0060  0.3983 -0.2931
 4753SOL    HW225722   1.744   1.939   4.615  1.7380  1.2127 -2.5271
 4754SOL     OW25723   3.827   3.349   3.354 -0.0270 -0.0888  0.1131
 4754SOL    HW125724   3.880   3.410   3.302 -0.0708 -0.9281 -0.9031
 4754SOL    HW225725   3.836   3.270   3.302  1.9638  0.8990 -1.0728
 4755SOL     OW25726   1.657   2.175  10.166  0.1955 -0.0194  0.4876
 4755SOL    HW125727   1.574   2.159  10.120  1.8441  1.2398 -2.8821
 4755SOL    HW225728   1.675   2.268  10.157  1.1239 -0.2091  0.4160
 4756SOL     OW25729   3.995   2.585   6.357  0.3774 -0.3209 -0.5247
 4756SOL    HW125730   3.926   2.552   6.300  0.1050 -0.3179 -0.2016
 4756SOL    HW225731   4.017   2.504   6.404  0.5219 -0.6156 -1.0984
 4757SOL     OW25732   1.854   0.822  17.057 -0.1051  0.0830  0.1222
 4757SOL    HW125733   1.868   0.834  17.151 -0.0611 -2.2100  0.4098
 4757SOL    HW225734   1.942   0.835  17.022  0.0947  0.0673  0.6190
 4758SOL     OW25735   0.742   1.791   4.026  0.0339  0.2560 -0.2605
 4758SOL    HW125736   0.748   1.741   4.107 -2.7754  0.4944  0.0934
 4758SOL    HW225737   0.773   1.725   3.965  1.0287  1.7889 -1.4237
 4759SOL     OW25738   3.051   4.048   3.435 -0.2578 -0.3546 -0.2400
 4759SOL    HW125739   3.041   4.103   3.513  0.8417  1.2806 -1.2546
 4759SOL    HW225740   3.124   3.992   3.462  1.1220  1.6653  0.1927
 4760SOL     OW25741   4.238   2.302   4.497  0.3761 -0.1998 -0.4173
 4760SOL    HW125742   4.260   2.390   4.465  1.5563 -1.1460 -2.2094
 4760SOL    HW225743   4.163   2.287   4.439 -0.7652  1.8170  0.5152
 4761SOL     OW25744   1.436   3.843   0.333 -0.1115 -0.4439  0.0474
 4761SOL    HW125745   1.404   3.782   0.400  2.2887  0.6991  2.2105
 4761SOL    HW225746   1.360   3.900   0.320 -0.8589 -1.5390 -0.4186
 4762SOL     OW25747   4.604   0.644   3.736  0.1158 -1.1888  0.2811
 4762SOL    HW125748   4.526   0.685   3.775  1.4053 -0.0918  1.7053
 4762SOL    HW225749   4.652   0.628   3.818 -1.2107 -1.2515  1.0613
 4763SOL     OW25750   2.221   3.742  16.160  0.1343  0.5264  0.4168
 4763SOL    HW125751   2.212   3.691  16.079 -3.3709  2.0447 -0.1501
 4763SOL    HW225752   2.239   3.672  16.222 -0.6162 -0.5056 -0.5149
 4764SOL     OW25753   1.008   4.660  16.451  0.1947  0.2995 -0.9417
 4764SOL    HW125754   0.972   4.578  16.483  0.5263  0.7637  0.6109
 4764SOL    HW225755   1.087   4.664  16.505  0.3088  3.0318 -1.2833
 4765SOL     OW25756   3.478   2.955   8.040 -0.3279 -0.3182  0.0411
 4765SOL    HW125757   3.451   2.877   7.991 -2.0870 -0.4079  1.1638
 4765SOL    HW225758   3.516   3.010   7.971  0.2084  0.6324  1.1037
 4766SOL     OW25759   4.543   2.504   0.637  0.1648 -0.0303  0.0172
 4766SOL    HW125760   4.461   2.513   0.685 -0.9099  1.9591 -2.1658
 4766SOL    HW225761   4.521   2.431   0.578 -0.6366  0.6028 -0.4731
 4767SOL     OW25762   2.287   4.395   6.964  0.2699  0.2428 -0.1185
 4767SOL    HW125763   2.298   4.312   6.919 -1.6770 -0.5055  0.7805
 4767SOL    HW225764   2.338   4.444   6.899 -1.3280 -0.2402 -1.7568
 4768SOL     OW25765   0.875   0.644   3.579  0.0318 -0.0966  0.2001
 4768SOL    HW125766   0.900   0.734   3.596 -0.1568 -0.1060  0.5292
 4768SOL    HW225767   0.899   0.634   3.487 -3.6892  1.2037 -0.9032
 4769SOL     OW25768   2.843   0.934   4.812 -0.2113  0.0734 -0.1706
 4769SOL    HW125769   2.840   1.025   4.842 -0.6820  0.1598 -0.4944
 4769SOL    HW225770   2.899   0.898   4.881  0.7905 -0.9340 -1.5245
 4770SOL     OW25771   1.866   0.946  15.153  0.0607 -0.4352 -0.4566
 4770SOL    HW125772   1.924   1.022  15.161  0.7046 -1.0284  0.6091
 4770SOL    HW225773   1.913   0.898  15.085  0.5329 -2.4437  1.2590
 4771SOL     OW25774   0.708   1.236  10.810  0.1236 -0.1411  0.5264
 4771SOL    HW125775   0.651   1.305  10.775 -1.8000 -1.9048  0.1652
 4771SOL    HW225776   0.648   1.163  10.793  1.0340 -0.8905  0.5401
 4772SOL     OW25777   1.000   1.482  16.175 -0.2950  0.2841  0.2196
 4772SOL    HW125778   1.033   1.392  16.169 -0.9689  0.0649 -0.1492
 4772SOL    HW225779   0.979   1.482  16.082  0.7685  0.8182 -0.0235
 4773SOL     OW25780   3.123   1.959   2.653  0.3580  0.6949  0.5273
 4773SOL    HW125781   3.080   2.040   2.679 -0.2725  1.8168 -3.9608
 4773SOL    HW225782   3.113   1.905   2.731  1.2954 -1.3321 -0.7557
 4774SOL     OW25783   1.177   1.194   9.464 -0.1971  0.0566 -0.3483
 4774SOL    HW125784   1.108   1.143   9.506 -0.6093  1.7444  1.0170
 4774SOL    HW225785   1.123   1.259   9.419  0.0908  1.2594  1.0530
 4775SOL     OW25786   3.241   1.447   2.519 -0.1963  0.2851 -0.2899
 4775SOL    HW125787   3.284   1.453   2.434  0.0009  2.0818 -0.0640
 4775SOL    HW225788   3.149   1.440   2.492 -0.4386  0.4260  0.4947
 4776SOL     OW25789   0.480   2.807  14.748 -0.1359 -0.3860 -0.8031
 4776SOL    HW125790   0.556   2.865  14.752  0.3285 -1.0920  0.6225
 4776SOL    HW225791   0.441   2.844  14.668  0.5356 -1.1796 -1.4883
 4777SOL     OW25792   2.155   3.378   0.388 -0.5130 -0.2176 -0.1476
 4777SOL    HW125793   2.102   3.457   0.392 -1.4642 -0.8097 -1.1849
 4777SOL    HW225794   2.095   3.308   0.361 -1.9650 -0.3679  3.4347
 4778SOL     OW25795   1.186   4.326   7.883 -0.0564 -0.2693  0.6992
 4778SOL    HW125796   1.100   4.304   7.920 -0.4715  0.0385 -0.0563
 4778SOL    HW225797   1.235   4.245   7.896  1.1398  0.5429  1.2260
 4779SOL     OW25798   4.016   2.531  10.381 -0.0329 -0.2805  0.2017
 4779SOL    HW125799   3.948   2.499  10.441  0.4403 -1.5553  0.0581
 4779SOL    HW225800   4.084   2.500  10.440 -0.4013 -0.8154  0.3489
 4780SOL     OW25801   2.954   3.723   9.801  0.1318 -0.3142 -0.9540
 4780SOL    HW125802   2.966   3.741   9.895 -1.0634 -1.8613 -0.5084
 4780SOL    HW225803   2.973   3.808   9.762  0.9800  1.3845  3.1602
 4781SOL     OW25804   3.915   3.396  15.202  0.3068 -0.2943 -0.1560
 4781SOL    HW125805   3.919   3.311  15.248 -1.2768 -1.2329 -1.7683
 4781SOL    HW225806   3.996   3.389  15.151  0.3755 -0.2177 -0.0579
 4782SOL     OW25807   0.437   4.611   6.614  0.7047 -0.4916  0.2845
 4782SOL    HW125808   0.532   4.614   6.599  0.4540  2.3838 -0.8894
 4782SOL    HW225809   0.419   4.705   6.624  0.8186 -0.5323  0.8693
 4783SOL     OW25810   4.006   0.999   8.811 -0.1062 -0.0913 -0.0971
 4783SOL    HW125811   3.928   0.996   8.755  0.7995  1.3200 -1.4052
 4783SOL    HW225812   3.964   1.005   8.897 -0.4368  0.1899 -0.2778
 4784SOL     OW25813   4.396   2.665  10.436  0.6100 -0.1036 -0.0562
 4784SOL    HW125814   4.394   2.709  10.351  0.0157  0.8928  0.4769
 4784SOL    HW225815   4.358   2.579  10.416 -0.4972  0.9937 -2.7263
 4785SOL     OW25816   0.514   3.475   4.281 -0.0836 -0.5515 -0.1522
 4785SOL    HW125817   0.504   3.386   4.248 -0.3362 -0.9858  1.1118
 4785SOL    HW225818   0.488   3.462   4.372 -0.8349 -2.6221 -0.6589
 4786SOL     OW25819   0.449   4.142   7.382 -0.1342  0.3506 -0.1911
 4786SOL    HW125820   0.490   4.091   7.452 -0.8304  0.2838  0.1591
 4786SOL    HW225821   0.517   4.161   7.316  0.6257  2.1745  1.1222
 4787SOL     OW25822   2.584   4.358   8.867  1.1918 -0.5012  0.0498
 4787SOL    HW125823   2.562   4.268   8.843  0.5735 -0.7607  1.5799
 4787SOL    HW225824   2.560   4.395   8.782 -1.0519  0.2556  1.0214
 4788SOL     OW25825   2.303   4.074   4.408  0.5099 -0.0081 -0.1217
 4788SOL    HW125826   2.283   3.993   4.455  2.9230 -0.4802  0.0955
 4788SOL    HW225827   2.397   4.082   4.428  0.5043  0.7198 -0.3923
 4789SOL     OW25828   4.142   3.514   5.026 -0.1278  0.1873  0.6435
 4789SOL    HW125829   4.111   3.596   4.988 -0.7664 -1.6743 -2.8872
 4789SOL    HW225830   4.216   3.552   5.074 -0.6727 -1.3276  2.6850
 4790SOL     OW25831   0.604   1.307   4.332  0.2750  0.2598  0.0597
 4790SOL    HW125832   0.526   1.260   4.303 -0.8831  2.6062 -0.6589
 4790SOL    HW225833   0.574   1.371   4.397  0.4193 -0.1336  0.5171
 4791SOL     OW25834   2.154   1.452   8.663  0.1726  0.0762  0.2550
 4791SOL    HW125835   2.090   1.465   8.733 -0.1993  1.3698 -0.3270
 4791SOL    HW225836   2.116   1.525   8.614 -0.6032 -1.6909 -1.7927
 4792SOL     OW25837   3.627   4.710  10.124 -0.1552 -0.0741 -0.3799
 4792SOL    HW125838   3.707   4.680  10.080 -0.0525  0.4123 -0.5244
 4792SOL    HW225839   3.649   0.068  10.170  1.6127 -1.4506  1.1445
 4793SOL     OW25840   2.830   0.645   3.277 -0.1289  0.0171 -0.3484
 4793SOL    HW125841   2.824   0.630   3.182  1.4977 -0.7222 -0.3412
 4793SOL    HW225842   2.890   0.576   3.307 -1.0587 -0.2170  0.9315
 4794SOL     OW25843   1.106   4.384   1.120  0.7902 -0.1744  0.1588
 4794SOL    HW125844   1.030   4.441   1.104  2.6348  1.4551 -2.9932
 4794SOL    HW225845   1.084   4.335   1.198 -2.3200 -1.2928 -1.4000
 4795SOL     OW25846   4.459   2.691   8.285  0.5833  0.0912 -0.9183
 4795SOL    HW125847   4.365   2.681   8.299  0.7604  1.0303  0.9359
 4795SOL    HW225848   4.464   2.784   8.308 -2.2369  0.4962 -2.0371
 4796SOL     OW25849   2.082   1.089  12.830  0.2502  0.0079 -0.2381
 4796SOL    HW125850   1.997   1.115  12.792  0.3398 -1.9403 -1.8170
 4796SOL    HW225851   2.137   1.163  12.805  0.1268  0.2671  0.2677
 4797SOL     OW25852   0.333   4.307   4.145  0.0108  0.5047 -0.4521
 4797SOL    HW125853   0.368   4.396   4.152 -0.7265  0.7161  0.5926
 4797SOL    HW225854   0.292   4.312   4.059  1.4533 -0.9611 -1.2300
 4798SOL     OW25855   2.951   1.549   8.588  0.4184 -0.0591 -0.1129
 4798SOL    HW125856   2.886   1.489   8.625  2.2561 -2.7447 -1.1785
 4798SOL    HW225857   2.895   1.592   8.524  1.6413  1.4615 -0.1629
 4799SOL     OW25858   2.905   1.661   4.687 -0.7686 -0.1824  0.7630
 4799SOL    HW125859   2.915   1.627   4.598  3.4825  0.9061  0.8301
 4799SOL    HW225860   2.977   1.618   4.734  0.2353  1.4773  0.7512
 4800SOL     OW25861   2.163   0.644   6.741 -0.1998  0.2716 -0.0997
 4800SOL    HW125862   2.107   0.718   6.764  0.6375  1.3210 -1.4196
 4800SOL    HW225863   2.185   0.616   6.829 -2.1671 -1.5064 -0.1851
 4801SOL     OW25864   0.131   1.262  15.715  0.2075  0.0724 -0.4460
 4801SOL    HW125865   0.052   1.307  15.684  0.6446  0.2441 -1.2953
 4801SOL    HW225866   0.112   1.267  15.809  2.1153  0.6395 -0.0901
 4802SOL     OW25867   0.932   4.051   6.427 -0.0239 -0.8242 -0.5313
 4802SOL    HW125868   0.964   4.076   6.340  1.1377  0.5448  0.3133
 4802SOL    HW225869   0.885   3.973   6.395  0.8178 -1.4077 -0.3371
 4803SOL     OW25870   4.112   2.594  11.358 -0.5460 -0.2563 -0.3694
 4803SOL    HW125871   4.117   2.507  11.317  0.0640 -0.5923  0.4159
 4803SOL    HW225872   4.028   2.625  11.324 -0.4502 -0.0222 -0.3868
 4804SOL     OW25873   1.712   2.603  11.148  0.6301  0.1183  1.2288
 4804SOL    HW125874   1.787   2.663  11.145 -0.1781  1.0724  0.0735
 4804SOL    HW225875   1.750   2.519  11.174  2.6370  0.8543  0.7049
 4805SOL     OW25876   3.295   1.447   0.592 -0.1089  0.0466  0.1417
 4805SOL    HW125877   3.343   1.413   0.667  0.0665  2.9669  1.3659
 4805SOL    HW225878   3.345   1.406   0.521  1.6165 -3.8184  3.5696
 4806SOL     OW25879   0.708   1.689  15.361 -0.1749  0.3187 -0.4703
 4806SOL    HW125880   0.754   1.682  15.444  0.9410 -1.0785 -1.2107
 4806SOL    HW225881   0.722   1.781  15.338 -0.0747  0.7494  1.3696
 4807SOL     OW25882   0.725   1.673  14.998  0.1349 -0.2226  0.0578
 4807SOL    HW125883   0.757   1.690  14.909 -0.3069 -0.3212 -0.1186
 4807SOL    HW225884   0.742   1.760  15.035 -1.9677  0.3163 -0.2427
 4808SOL     OW25885   0.021   3.574   4.087 -0.2604 -0.1119  0.5165
 4808SOL    HW125886   0.068   3.518   4.025  1.2575 -0.2458  1.7767
 4808SOL    HW225887   0.066   3.552   4.169 -2.8024 -1.2825  1.5972
 4809SOL     OW25888   2.783   2.287   2.654 -0.5235 -0.2056  0.1805
 4809SOL    HW125889   2.858   2.235   2.626  2.1190  3.6759  0.0838
 4809SOL    HW225890   2.760   2.250   2.739 -1.1763  0.0062  0.0998
 4810SOL     OW25891   0.445   0.498   0.245  0.6327  0.0807  0.1891
 4810SOL    HW125892   0.393   0.502   0.164  3.0724  0.4525 -1.3763
 4810SOL    HW225893   0.528   0.464   0.213  0.7125  1.5045 -1.1148
 4811SOL     OW25894   2.374   1.745   6.414  0.2953  1.0475 -0.1917
 4811SOL    HW125895   2.325   1.695   6.349 -1.4255 -0.3981  2.1888
 4811SOL    HW225896   2.345   1.835   6.402 -1.6435  0.4496 -0.0313
 4812SOL     OW25897   2.194   2.808   4.153 -0.4090  0.0393 -0.3245
 4812SOL    HW125898   2.196   2.874   4.084  1.3076 -1.2801 -1.5336
 4812SOL    HW225899   2.132   2.859   4.206  0.0554  0.3705 -0.1034
 4813SOL     OW25900   2.495   3.995   7.403 -0.1580 -0.1204 -0.4119
 4813SOL    HW125901   2.521   3.982   7.494  0.4703 -0.7286 -0.6775
 4813SOL    HW225902   2.436   3.921   7.396  2.4124 -2.3728  1.6213
 4814SOL     OW25903   1.105   1.684   6.714  0.2293 -0.7578  0.0985
 4814SOL    HW125904   1.012   1.665   6.711 -0.0285  0.2194  1.3713
 4814SOL    HW225905   1.139   1.677   6.625 -2.3888  2.1830 -1.1122
 4815SOL     OW25906   4.419   3.936   1.062  0.1198  0.8689  0.3157
 4815SOL    HW125907   4.514   3.944   1.052  0.1977 -0.2664  0.1276
 4815SOL    HW225908   4.413   3.995   1.137  1.3689 -0.3555  1.3724
 4816SOL     OW25909   2.465   0.216   6.774 -0.1124  0.3171  0.2067
 4816SOL    HW125910   2.464   0.285   6.708  0.2978  0.1873  0.0664
 4816SOL    HW225911   2.536   0.244   6.832  0.1116 -2.2425  1.1699
 4817SOL     OW25912   0.535   4.176   3.673  0.0464  0.4230 -0.1586
 4817SOL    HW125913   0.457   4.229   3.657  0.7643  1.2017 -1.1095
 4817SOL    HW225914   0.549   4.138   3.586  0.6198 -1.1659  0.6219
 4818SOL     OW25915   4.035   3.103   2.016  0.2004  0.0137 -0.2464
 4818SOL    HW125916   4.014   3.011   2.001 -2.2541 -0.1071  3.8631
 4818SOL    HW225917   4.101   3.084   2.082  2.0981  2.5779 -1.3808
 4819SOL     OW25918   4.195   2.720   8.329 -0.8885  0.6568  0.3015
 4819SOL    HW125919   4.160   2.655   8.268  0.1576 -0.5138  0.9449
 4819SOL    HW225920   4.140   2.796   8.310  0.6921  1.4395 -1.0741
 4820SOL     OW25921   1.700   3.139   3.695 -0.4358 -0.8033 -0.7367
 4820SOL    HW125922   1.696   3.074   3.625  1.4059  0.0185 -1.6074
 4820SOL    HW225923   1.683   3.081   3.769  1.4315  1.0166  1.1119
 4821SOL     OW25924   3.429   1.594   9.394  0.4681  0.2633 -0.4379
 4821SOL    HW125925   3.427   1.597   9.489  1.2902  0.5596 -0.4272
 4821SOL    HW225926   3.334   1.597   9.388  0.3502 -0.7258  1.0428
 4822SOL     OW25927   1.097   0.143   5.733  0.6053  0.0018  0.7984
 4822SOL    HW125928   1.028   0.208   5.717  1.4558  0.3793 -1.3027
 4822SOL    HW225929   1.174   0.200   5.736  0.1045  0.6525  1.2669
 4823SOL     OW25930   4.293   3.334   2.218 -0.1662 -0.4321  0.3079
 4823SOL    HW125931   4.247   3.254   2.196 -2.7951  0.3053  2.9822
 4823SOL    HW225932   4.220   3.396   2.228  1.6123  1.6525  0.4056
 4824SOL     OW25933   2.178   3.521   2.315  0.2093  0.2865 -0.0950
 4824SOL    HW125934   2.220   3.468   2.248 -0.3766 -0.8830  0.4617
 4824SOL    HW225935   2.255   3.570   2.345 -0.5971  0.9036  0.9913
 4825SOL     OW25936   4.118   0.441   1.451 -0.5516  0.1796  0.0300
 4825SOL    HW125937   4.128   0.512   1.388 -1.2295 -0.4000 -0.7337
 4825SOL    HW225938   4.063   0.489   1.513  0.3712  0.1037  0.9186
 4826SOL     OW25939   3.931   3.290   1.005 -0.0828  0.3457 -0.3786
 4826SOL    HW125940   3.980   3.280   1.086  0.0440  2.5832 -0.1737
 4826SOL    HW225941   4.001   3.327   0.952  0.1625 -0.9121 -0.9465
 4827SOL     OW25942   1.858   0.250   5.958  0.1781 -0.0336  0.6334
 4827SOL    HW125943   1.901   0.165   5.965  0.6712  0.3033  1.7540
 4827SOL    HW225944   1.827   0.262   6.048 -3.6368  0.4146 -0.7736
 4828SOL     OW25945   4.412   3.319  16.829  1.0053  0.1637  0.2596
 4828SOL    HW125946   4.370   3.278  16.905  1.0268 -2.3224 -1.0524
 4828SOL    HW225947   4.505   3.297  16.838  0.3824 -3.2788 -1.7741
 4829SOL     OW25948   4.600   0.844   7.104 -0.1209  0.4680  0.4925
 4829SOL    HW125949   4.590   0.777   7.172 -0.3339 -3.0382 -3.0020
 4829SOL    HW225950   4.588   0.783   7.031  0.1905 -0.7438  1.4598
 4830SOL     OW25951   0.364   1.141   7.307  0.0738  0.4749 -0.1545
 4830SOL    HW125952   0.423   1.066   7.313  0.2344  0.7239  1.4649
 4830SOL    HW225953   0.336   1.140   7.216 -3.6804 -1.0305  1.0073
 4831SOL     OW25954   1.016   3.697   5.771 -0.0622  0.3223 -0.2789
 4831SOL    HW125955   1.040   3.693   5.679  0.4702 -1.5038 -0.0478
 4831SOL    HW225956   0.980   3.786   5.765  2.0308  1.2744  1.4980
 4832SOL     OW25957   2.363   3.651   4.071 -0.2005 -0.0012 -0.2252
 4832SOL    HW125958   2.314   3.642   3.989 -2.1786  0.3010  0.9245
 4832SOL    HW225959   2.416   3.728   4.049 -0.4115 -0.2180 -1.5336
 4833SOL     OW25960   1.646   0.951   7.968 -0.9367 -0.1734  0.1484
 4833SOL    HW125961   1.648   0.957   7.872  1.7029  0.7414  0.2668
 4833SOL    HW225962   1.611   1.037   7.987  0.4060 -0.1678  2.5448
 4834SOL     OW25963   2.844   0.133   9.342 -0.5587  0.0967 -0.1860
 4834SOL    HW125964   2.776   0.197   9.363  0.8596  1.3923  0.3482
 4834SOL    HW225965   2.821   0.090   9.259  3.0957 -0.6213 -0.8044
 4835SOL     OW25966   0.631   2.303  15.779  0.0849  0.4383  0.5986
 4835SOL    HW125967   0.717   2.344  15.780  0.8909 -1.1688 -0.9762
 4835SOL    HW225968   0.635   2.274  15.870 -2.4378 -1.2550  0.1743
 4836SOL     OW25969   3.266   0.135  11.047 -0.1194  0.2344 -0.3677
 4836SOL    HW125970   3.297   0.226  11.044  1.0923 -0.2110 -1.9857
 4836SOL    HW225971   3.188   0.133  10.992 -0.8643 -0.8890  0.7465
 4837SOL     OW25972   0.096   3.955   7.045 -0.0572 -0.0580 -0.1596
 4837SOL    HW125973   0.015   3.943   6.995 -0.3751 -0.3068  0.4097
 4837SOL    HW225974   0.160   3.986   6.981  0.7634 -1.8475 -0.2108
 4838SOL     OW25975   0.668   4.328   6.313 -0.2883 -0.8511  0.2067
 4838SOL    HW125976   0.584   4.365   6.337 -0.2264 -1.9858  2.1993
 4838SOL    HW225977   0.728   4.352   6.384 -0.2406 -2.1706  0.6214
 4839SOL     OW25978   2.723   1.924   6.207 -0.2435 -0.0748  0.3171
 4839SOL    HW125979   2.725   1.857   6.275  0.2299  0.4621  0.8302
 4839SOL    HW225980   2.639   1.905   6.164 -0.0383 -0.5546  0.1271
 4840SOL     OW25981   0.702   1.959  15.339 -0.0527  0.3004 -0.0206
 4840SOL    HW125982   0.700   2.050  15.368  2.3309  0.1293  0.7570
 4840SOL    HW225983   0.784   1.961  15.289 -1.7727 -0.3952 -2.8362
 4841SOL     OW25984   4.376   1.770  12.816  0.2566  0.6669 -0.5369
 4841SOL    HW125985   4.380   1.818  12.734  0.5448 -1.6987 -1.9224
 4841SOL    HW225986   4.284   1.752  12.834  0.7466  1.2635  2.6314
 4842SOL     OW25987   4.408   2.864  11.846 -0.0197 -0.0540  0.2922
 4842SOL    HW125988   4.373   2.776  11.833  0.3751 -0.3737  1.3979
 4842SOL    HW225989   4.499   2.851  11.874  0.1565 -0.2472 -0.3641
 4843SOL     OW25990   3.454   4.508  16.415  0.2702  0.0563 -0.0645
 4843SOL    HW125991   3.515   4.559  16.469  1.0918  0.3469 -1.2876
 4843SOL    HW225992   3.486   4.418  16.418  2.7619  0.9580 -0.0381
 4844SOL     OW25993   1.649   2.041  11.590  0.2260  0.1153  0.2892
 4844SOL    HW125994   1.724   2.057  11.533  1.7930  0.5712  2.4744
 4844SOL    HW225995   1.584   2.103  11.557  2.2413  2.9896  1.7330
 4845SOL     OW25996   3.164   4.198  16.442 -0.8862  0.1220 -0.2469
 4845SOL    HW125997   3.175   4.276  16.495  0.7838 -1.2481  1.4074
 4845SOL    HW225998   3.137   4.138  16.512  2.5558 -2.2804 -0.9790
 4846SOL     OW25999   0.823   3.553  14.147 -0.2497 -0.4101  0.5173
 4846SOL    HW126000   0.821   3.648  14.135  2.3535 -0.4166 -0.0603
 4846SOL    HW226001   0.771   3.531  14.070  0.1758  0.8186 -0.1201
 4847SOL     OW26002   1.620   3.931   2.989 -0.2168  0.2180  0.3516
 4847SOL    HW126003   1.591   3.842   2.972  1.1078 -0.3930  1.2234
 4847SOL    HW226004   1.715   3.929   3.005 -0.2482  0.2341  0.5449
 4848SOL     OW26005   1.988   2.041   0.816  0.2930  0.4600 -0.0947
 4848SOL    HW126006   1.978   1.957   0.862  0.3860  0.8381  0.6121
 4848SOL    HW226007   1.936   2.035   0.737 -1.6349 -0.0925  1.2144
 4849SOL     OW26008   1.863   3.622  10.812  0.2828 -0.0971 -0.1668
 4849SOL    HW126009   1.932   3.683  10.787  1.2854 -1.2558 -0.2013
 4849SOL    HW226010   1.818   3.667  10.884 -1.3023 -0.0234 -1.2030
 4850SOL     OW26011   0.622   3.123   3.530  0.0798 -0.0938  0.2667
 4850SOL    HW126012   0.696   3.071   3.560 -0.6234 -1.1774  0.1146
 4850SOL    HW226013   0.548   3.065   3.547 -0.8592  2.0039  3.2405
 4851SOL     OW26014   2.376   0.541  10.718  0.1233  0.2624 -0.0415
 4851SOL    HW126015   2.462   0.583  10.715  1.4848 -2.3551  1.9619
 4851SOL    HW226016   2.316   0.613  10.695  1.3339 -0.1410 -4.4263
 4852SOL     OW26017   3.314   4.309  10.223  0.4076 -0.3058 -0.1267
 4852SOL    HW126018   3.303   4.390  10.272 -3.3072 -1.4122  0.8672
 4852SOL    HW226019   3.406   4.316  10.199  0.3916  2.2654  0.5909
 4853SOL     OW26020   4.472   3.766  15.326  0.8815  0.4640  0.4831
 4853SOL    HW126021   4.384   3.797  15.308  0.4244  0.1075  2.1016
 4853SOL    HW226022   4.452   3.682  15.367 -0.3551  0.2700 -0.5532
 4854SOL     OW26023   4.593   3.771   7.649  0.0783 -0.4913 -0.4474
 4854SOL    HW126024   4.508   3.773   7.604  0.5962  2.7044 -1.2335
 4854SOL    HW226025   4.564   3.764   7.740  0.4118 -1.3664 -0.4096
 4855SOL     OW26026   3.451   0.898  17.265  0.3070 -0.0349  0.0921
 4855SOL    HW126027   3.498   0.980  17.275  2.0477 -0.8260 -1.7025
 4855SOL    HW226028   3.460   0.860  17.353  0.6223 -0.5706 -0.1744
 4856SOL     OW26029   2.617   4.428  10.935  0.0783  0.1587 -0.0912
 4856SOL    HW126030   2.711   4.427  10.953  0.1619  1.7070 -0.3973
 4856SOL    HW226031   2.604   4.360  10.869  0.5799  0.3329 -0.3755
 4857SOL     OW26032   0.592   4.512  17.624  0.1481  0.0768 -0.5513
 4857SOL    HW126033   0.559   4.423  17.633  2.3463 -0.8750 -1.8677
 4857SOL    HW226034   0.654   4.519   0.002 -0.3391 -0.9363 -0.0312
 4858SOL     OW26035   2.885   4.068   0.691  0.1691 -0.0106 -0.3563
 4858SOL    HW126036   2.791   4.075   0.671 -0.0203 -1.0602  0.1262
 4858SOL    HW226037   2.895   4.143   0.748  1.0815  1.2550 -2.1759
 4859SOL     OW26038   0.857   0.656   4.667  0.0477 -0.6390  0.4033
 4859SOL    HW126039   0.901   0.736   4.696  0.8904 -0.1980 -2.1285
 4859SOL    HW226040   0.890   0.633   4.580  2.1773  1.8038  0.5750
 4860SOL     OW26041   0.741   1.968   8.539 -0.3045  0.1571  0.2080
 4860SOL    HW126042   0.685   2.043   8.559 -1.1514 -0.7087  1.1259
 4860SOL    HW226043   0.808   1.993   8.602  0.9572 -1.3779 -0.5308
 4861SOL     OW26044   1.967   3.081   4.521  0.3286 -1.0661 -0.4796
 4861SOL    HW126045   2.027   3.143   4.480  0.9331 -0.7755  0.8512
 4861SOL    HW226046   1.883   3.126   4.528 -0.0239 -1.8419  0.3088
 4862SOL     OW26047   4.369   4.372   2.068 -0.1104 -0.9290 -0.3506
 4862SOL    HW126048   4.326   4.410   2.144 -0.7714 -1.1868 -0.5969
 4862SOL    HW226049   4.341   4.432   2.000 -0.9692 -0.1226  0.7239
 4863SOL     OW26050   1.104   2.238   5.828 -0.6639 -0.3360  0.2147
 4863SOL    HW126051   1.044   2.194   5.887 -0.5514 -0.9563 -0.1288
 4863SOL    HW226052   1.160   2.166   5.797  2.0245  1.6129  0.5068
 4864SOL     OW26053   3.093   3.999   0.946  0.1085 -0.0675 -0.4358
 4864SOL    HW126054   3.121   3.988   0.855  0.2347 -0.6080 -0.3340
 4864SOL    HW226055   3.016   4.055   0.934 -0.3336 -0.6543 -0.3505
 4865SOL     OW26056   1.518   0.123  12.743  0.3419 -0.3854  0.0101
 4865SOL    HW126057   1.457   0.049  12.736  0.0010 -0.0007 -1.0486
 4865SOL    HW226058   1.605   0.084  12.743  0.5343  0.0465  2.2714
 4866SOL     OW26059   3.287   4.662   4.978 -0.1894  0.4925 -0.3989
 4866SOL    HW126060   3.357   4.715   4.939  1.3454 -0.2370  1.3637
 4866SOL    HW226061   3.215   0.002   4.985  1.1646  1.8207  1.5900
 4867SOL     OW26062   1.766   3.335   4.358  1.2402 -0.6729  0.0888
 4867SOL    HW126063   1.799   3.340   4.448 -0.1834 -1.7937  0.6710
 4867SOL    HW226064   1.841   3.371   4.312  0.9070 -0.1693 -0.0621
 4868SOL     OW26065   0.076   1.249  11.902  0.3144  0.7536 -0.1084
 4868SOL    HW126066   0.071   1.327  11.958  1.8942  1.4758 -0.9588
 4868SOL    HW226067   0.119   1.187  11.960 -1.1464 -0.8577 -0.7545
 4869SOL     OW26068   3.608   2.184   9.513  0.3446 -0.0014  0.2223
 4869SOL    HW126069   3.583   2.175   9.421  1.5663 -1.4931  0.0357
 4869SOL    HW226070   3.551   2.116   9.550  2.0970 -1.1004  0.9173
 4870SOL     OW26071   2.440   1.915   6.098  0.4252 -0.1465  0.2690
 4870SOL    HW126072   2.402   1.947   6.016 -1.3052 -0.3932  0.9788
 4870SOL    HW226073   2.464   1.826   6.074 -0.1235 -0.9855  2.8277
 4871SOL     OW26074   1.009   0.994   3.285 -0.4856  0.2716  0.5270
 4871SOL    HW126075   0.982   1.053   3.215  2.4426 -0.9401 -1.5957
 4871SOL    HW226076   0.928   0.945   3.300  0.7264 -1.8148  0.2475
 4872SOL     OW26077   0.286   2.459   1.834  0.4898  0.8205  0.8858
 4872SOL    HW126078   0.228   2.501   1.770 -0.0019  0.1591  0.8855
 4872SOL    HW226079   0.228   2.451   1.909  1.4165 -1.6638  1.3423
 4873SOL     OW26080   1.096   2.250   8.106 -0.2202  0.3139 -0.1901
 4873SOL    HW126081   1.126   2.240   8.196  2.8690  1.9590 -1.0193
 4873SOL    HW226082   1.159   2.197   8.057 -1.9016 -0.0614 -1.9314
 4874SOL     OW26083   1.437   2.357  11.185  0.3175 -0.4256  0.4911
 4874SOL    HW126084   1.439   2.306  11.104  0.9998  2.3713 -1.2519
 4874SOL    HW226085   1.528   2.337  11.204 -0.0070 -2.2282  0.1934
 4875SOL     OW26086   2.551   1.501   8.331  0.4880  0.3702  0.6151
 4875SOL    HW126087   2.627   1.557   8.347  0.8312 -0.3644  1.5404
 4875SOL    HW226088   2.504   1.500   8.415  0.6486  1.2944  0.7172
 4876SOL     OW26089   1.132   1.063  14.161  0.1305  0.6828 -0.1924
 4876SOL    HW126090   1.203   1.049  14.098 -0.1976 -0.4782 -0.3216
 4876SOL    HW226091   1.181   1.053  14.242  0.0814 -0.2112 -0.2660
 4877SOL     OW26092   3.801   2.269  13.435 -0.2996  0.0895  0.5558
 4877SOL    HW126093   3.895   2.253  13.431 -0.2284  0.4204  0.9144
 4877SOL    HW226094   3.784   2.309  13.520  0.5160 -0.6885  1.0896
 4878SOL     OW26095   2.304   1.266  15.880  0.2584  0.3791  0.6223
 4878SOL    HW126096   2.226   1.308  15.844 -0.3627 -0.1361  1.3721
 4878SOL    HW226097   2.293   1.279  15.974  1.4314  1.1164  0.6709
 4879SOL     OW26098   4.066   3.424  15.442  0.4734 -0.3856 -0.0322
 4879SOL    HW126099   4.076   3.331  15.419 -1.5620 -0.9335  1.3387
 4879SOL    HW226100   4.050   3.417  15.536  1.0308 -0.8605  0.0279
 4880SOL     OW26101   3.933   2.965   4.207  0.0055 -0.7928 -0.4233
 4880SOL    HW126102   3.922   3.051   4.247  0.9712 -0.7962 -0.1380
 4880SOL    HW226103   4.007   2.988   4.150 -0.0459 -1.6110 -0.8265
 4881SOL     OW26104   0.615   0.079  13.131  0.2580 -0.1335 -0.5885
 4881SOL    HW126105   0.623   0.164  13.174 -0.0603 -0.0087 -0.7704
 4881SOL    HW226106   0.580   0.100  13.044 -4.3703  0.0838  1.2936
 4882SOL     OW26107   1.018   3.576  14.339  0.2529 -0.0474 -0.6588
 4882SOL    HW126108   1.040   3.489  14.374  0.3876 -0.2022 -1.1235
 4882SOL    HW226109   0.949   3.554  14.276  0.1099  0.5684 -0.7108
 4883SOL     OW26110   4.186   4.432   7.601  0.4029  0.0478  0.4819
 4883SOL    HW126111   4.224   4.492   7.537 -1.5111  3.4221  2.5548
 4883SOL    HW226112   4.252   4.441   7.670  2.7625 -0.4560 -1.6844
 4884SOL     OW26113   3.790   3.492  16.401  0.4208 -0.2848 -0.6890
 4884SOL    HW126114   3.750   3.410  16.372 -1.2724  1.0106 -1.9792
 4884SOL    HW226115   3.760   3.553  16.334  2.1988 -0.7701 -1.9526
 4885SOL     OW26116   2.031   2.359   7.721  0.7477  0.1732  0.3071
 4885SOL    HW126117   2.043   2.343   7.814 -2.5319  1.0559  0.8864
 4885SOL    HW226118   2.090   2.434   7.707  1.8832 -1.1825 -2.1744
 4886SOL     OW26119   1.694   0.644   4.358  0.3555 -0.5431  0.0100
 4886SOL    HW126120   1.685   0.690   4.274  0.3538  0.5109  0.5980
 4886SOL    HW226121   1.761   0.697   4.400  1.7015 -2.2700  0.0078
 4887SOL     OW26122   1.876   4.468   7.121 -0.4540  0.1204  0.4258
 4887SOL    HW126123   1.880   4.379   7.084 -1.1712 -0.8143  2.6131
 4887SOL    HW226124   1.804   4.462   7.183 -0.5442 -0.0684  0.3033
 4888SOL     OW26125   4.089   2.937   0.510 -0.1251  0.0895 -0.0487
 4888SOL    HW126126   4.080   2.862   0.451 -1.0142  1.3393 -1.4960
 4888SOL    HW226127   4.060   3.009   0.454 -2.5242  0.0204  1.0722
 4889SOL     OW26128   2.518   2.486  10.913 -0.1265  0.1117  0.2346
 4889SOL    HW126129   2.441   2.443  10.877 -1.1129 -0.4149  2.9412
 4889SOL    HW226130   2.557   2.421  10.971 -0.3850 -0.0324  0.2471
 4890SOL     OW26131   1.562   1.332   8.477 -0.3215 -0.0438 -0.0920
 4890SOL    HW126132   1.600   1.256   8.522  0.5113  0.1519 -0.4620
 4890SOL    HW226133   1.471   1.302   8.473 -0.4741  0.4891 -0.5889
 4891SOL     OW26134   0.618   2.236   5.353  0.1031 -0.0270 -0.0577
 4891SOL    HW126135   0.661   2.253   5.269 -0.2486  2.2599  0.2358
 4891SOL    HW226136   0.670   2.162   5.386  0.3462  0.2169  0.1027
 4892SOL     OW26137   0.890   0.322   3.249  0.3158  0.0017 -0.0463
 4892SOL    HW126138   0.913   0.229   3.240 -0.0121 -0.1738  0.8817
 4892SOL    HW226139   0.931   0.355   3.169  0.5785 -0.2951 -0.0328
 4893SOL     OW26140   1.451   0.405   8.698 -0.3580  0.0755  0.1261
 4893SOL    HW126141   1.433   0.444   8.612 -2.4576 -1.3273 -0.0866
 4893SOL    HW226142   1.545   0.392   8.684 -0.4438  0.3952 -0.7353
 4894SOL     OW26143   0.465   3.192  15.736  0.8224  0.3418 -0.4073
 4894SOL    HW126144   0.429   3.247  15.806 -0.2572 -0.1197 -0.6071
 4894SOL    HW226145   0.558   3.199  15.758  0.8720 -0.6127 -0.2868
 4895SOL     OW26146   2.140   1.445   2.171 -0.0613  0.3396  0.9116
 4895SOL    HW126147   2.108   1.525   2.214  1.7887  2.2172 -1.1869
 4895SOL    HW226148   2.056   1.406   2.148 -0.5256  1.6489  0.3902
 4896SOL     OW26149   1.952   4.360   4.271  0.7103  0.3044  0.3242
 4896SOL    HW126150   1.941   4.424   4.200  0.2717 -0.2748 -0.1323
 4896SOL    HW226151   1.899   4.390   4.345 -0.0841 -0.2597 -0.0122
 4897SOL     OW26152   3.786   0.536   2.942 -0.3317 -0.3536 -0.0246
 4897SOL    HW126153   3.812   0.474   3.010 -0.9931 -0.8986 -0.2626
 4897SOL    HW226154   3.870   0.537   2.895  0.7096 -1.3974  1.8127
 4898SOL     OW26155   3.987   2.565   2.678  0.1869  0.4299  0.2998
 4898SOL    HW126156   4.061   2.611   2.718 -1.3511  1.2394  2.2220
 4898SOL    HW226157   4.034   2.521   2.607  1.6594 -0.7640  1.9996
 4899SOL     OW26158   2.268   0.115   9.911 -0.0555  0.1244 -0.0039
 4899SOL    HW126159   2.232   0.118   9.823  1.3242  0.1692 -0.5619
 4899SOL    HW226160   2.288   0.022   9.922 -1.5384 -0.2644 -0.6019
 4900SOL     OW26161   0.113   2.285   2.386  0.0259 -0.0868 -0.1339
 4900SOL    HW126162   0.045   2.353   2.396 -0.1492 -0.3870  0.7911
 4900SOL    HW226163   0.177   2.327   2.329  0.5193  1.9411  1.8830
 4901SOL     OW26164   0.694   3.199   2.850 -0.2225  0.1394  0.1002
 4901SOL    HW126165   0.775   3.249   2.858 -0.3469  0.4089 -0.2878
 4901SOL    HW226166   0.660   3.187   2.938 -0.0579  1.6100  0.3615
 4902SOL     OW26167   1.395   2.792   8.047  0.2200  0.2148 -0.4129
 4902SOL    HW126168   1.472   2.849   8.042  0.7297 -0.2672  1.7347
 4902SOL    HW226169   1.422   2.731   7.978 -0.1671  1.8044 -1.9743
 4903SOL     OW26170   3.749   3.825   0.377  0.0406 -0.3059 -0.4781
 4903SOL    HW126171   3.686   3.882   0.422 -0.0443  0.0869 -1.1015
 4903SOL    HW226172   3.689   3.759   0.341  1.1085 -1.8325  0.5276
 4904SOL     OW26173   0.337   3.469   6.691  0.6481 -0.0394 -0.1471
 4904SOL    HW126174   0.293   3.546   6.655  0.0673  0.6344  2.0128
 4904SOL    HW226175   0.338   3.492   6.783 -3.4520 -0.4219 -0.0009
 4905SOL     OW26176   4.311   2.474   1.767  0.1379  0.2865 -0.3698
 4905SOL    HW126177   4.222   2.437   1.768 -0.0859  0.8294  0.9007
 4905SOL    HW226178   4.349   2.451   1.852  1.5376  1.9081 -0.5644
 4906SOL     OW26179   0.780   4.665   3.919  0.3244 -0.3482 -1.0493
 4906SOL    HW126180   0.821   4.685   3.835  0.2704 -0.6856 -1.1586
 4906SOL    HW226181   0.718   4.597   3.891 -0.5554 -1.0670  2.6315
 4907SOL     OW26182   3.119   1.919   8.742  0.0403 -0.3297  0.2157
 4907SOL    HW126183   3.095   1.828   8.722 -0.1467  0.0307 -1.1903
 4907SOL    HW226184   3.038   1.936   8.790 -0.0050 -2.2070  0.8216
 4908SOL     OW26185   3.881   4.016   4.237 -0.0128  0.6732  0.7230
 4908SOL    HW126186   3.804   4.019   4.293  0.2327 -0.1020  1.1047
 4908SOL    HW226187   3.923   3.944   4.284 -1.2430  0.3453  1.3176
 4909SOL     OW26188   2.438   2.565  13.054 -0.2483 -0.3862  0.6043
 4909SOL    HW126189   2.371   2.503  13.082  1.2303 -1.9724  0.5779
 4909SOL    HW226190   2.492   2.496  13.015  1.5078  0.0694  2.2161
 4910SOL     OW26191   3.534   0.771   4.590 -0.1279  0.1235 -0.5780
 4910SOL    HW126192   3.515   0.818   4.670 -0.7661 -0.0671 -0.6204
 4910SOL    HW226193   3.617   0.806   4.557 -0.3368  1.3256  0.2089
 4911SOL     OW26194   2.555   2.678   1.928 -0.3949 -0.5763  0.5479
 4911SOL    HW126195   2.461   2.686   1.916 -0.5207 -0.0130  1.8348
 4911SOL    HW226196   2.555   2.582   1.924 -1.0506 -0.5355 -0.2756
 4912SOL     OW26197   1.155   0.109   8.506 -0.6642  0.2857  0.4463
 4912SOL    HW126198   1.246   0.139   8.511  0.2178 -2.8095  3.5944
 4912SOL    HW226199   1.107   0.192   8.508  1.7145  1.6722  0.0765
 4913SOL     OW26200   0.642   2.650   6.736 -0.0714 -0.3217  0.0827
 4913SOL    HW126201   0.735   2.675   6.739  0.4200 -1.9633 -1.4132
 4913SOL    HW226202   0.626   2.635   6.829 -1.2931  1.0637  0.0991
 4914SOL     OW26203   4.026   0.616   5.895  0.4862  0.0459  0.3359
 4914SOL    HW126204   4.096   0.564   5.936  1.4737  2.7657  2.1143
 4914SOL    HW226205   3.960   0.550   5.873  0.7356 -0.2691  0.5315
 4915SOL     OW26206   4.717   0.897   6.719  0.1070 -0.5642 -0.1881
 4915SOL    HW126207   0.019   0.825   6.660 -0.9061  0.3577 -1.7631
 4915SOL    HW226208   4.624   0.906   6.699  0.3472  0.1845 -1.0295
 4916SOL     OW26209   3.878   3.721  12.185  0.4135 -0.9720 -0.3668
 4916SOL    HW126210   3.840   3.741  12.100  0.8714 -0.8403 -0.5409
 4916SOL    HW226211   3.815   3.766  12.241  1.7269 -1.2847  1.3627
 4917SOL     OW26212   2.312   0.989   2.728  0.0252  0.1146  0.1746
 4917SOL    HW126213   2.333   0.935   2.652 -1.0076 -2.2469  1.5469
 4917SOL    HW226214   2.401   0.998   2.762  0.1516  0.3699 -0.2324
 4918SOL     OW26215   1.153   0.207   0.671 -0.0937  0.0389 -0.1371
 4918SOL    HW126216   1.166   0.154   0.750  0.3729  0.5007  0.1004
 4918SOL    HW226217   1.122   0.290   0.708  1.7621  0.8575 -0.3779
 4919SOL     OW26218   3.933   2.925   1.337  0.1519 -0.8147 -0.2492
 4919SOL    HW126219   3.943   2.964   1.424 -0.3752 -0.6290 -0.2698
 4919SOL    HW226220   3.940   3.007   1.289  1.4984  0.1115  1.5231
 4920SOL     OW26221   2.271   4.421  16.769  0.1188 -0.4075  0.1771
 4920SOL    HW126222   2.281   4.330  16.798 -2.4949 -0.7516  0.0222
 4920SOL    HW226223   2.212   4.401  16.696  1.7755 -1.9095 -0.7392
 4921SOL     OW26224   2.929   0.408   3.378  0.3497 -0.3561 -0.1019
 4921SOL    HW126225   2.992   0.404   3.450  1.5514 -1.8342 -1.2585
 4921SOL    HW226226   2.927   0.322   3.338  2.8561 -0.7495  0.6014
 4922SOL     OW26227   1.586   0.726   1.736 -0.2374  0.2713  0.2187
 4922SOL    HW126228   1.525   0.772   1.793  0.7987 -0.8965  2.2462
 4922SOL    HW226229   1.530   0.671   1.682 -0.5419 -0.1143  0.9307
 4923SOL     OW26230   1.756   4.111   4.332  0.5566  0.2656  0.1790
 4923SOL    HW126231   1.839   4.135   4.292  1.7789 -3.1773  0.5906
 4923SOL    HW226232   1.757   4.168   4.409 -1.8525  0.0974  0.3355
 4924SOL     OW26233   1.414   2.179  10.088  0.0736  0.1452  0.2926
 4924SOL    HW126234   1.368   2.143  10.012 -2.8560  0.0282  2.1456
 4924SOL    HW226235   1.353   2.163  10.159  0.8002  1.4850  1.2119
 4925SOL     OW26236   3.836   4.405   2.082 -0.0562 -0.0291 -0.5321
 4925SOL    HW126237   3.841   4.499   2.062 -1.2589  0.2706  0.5902
 4925SOL    HW226238   3.923   4.380   2.051 -0.6309 -0.9793 -1.3960
 4926SOL     OW26239   3.382   2.218   3.338 -0.0416  0.2825 -0.1147
 4926SOL    HW126240   3.400   2.138   3.289  1.1219  1.1616 -1.1452
 4926SOL    HW226241   3.406   2.282   3.271  1.1414 -0.8203 -0.7424
 4927SOL     OW26242   2.409   1.270  10.542  0.3132  0.3413 -0.5654
 4927SOL    HW126243   2.442   1.181  10.551  0.6604  0.4410 -0.8357
 4927SOL    HW226244   2.411   1.271  10.446  0.8699 -0.3014 -0.5592
 4928SOL     OW26245   0.759   1.873   4.408 -0.0990  0.0793 -0.0521
 4928SOL    HW126246   0.707   1.822   4.470 -0.3056  0.4610  0.0842
 4928SOL    HW226247   0.757   1.806   4.340  0.5881 -0.0362  0.0413
 4929SOL     OW26248   2.422   1.114   3.621 -0.5337  0.4416  0.3607
 4929SOL    HW126249   2.369   1.175   3.569 -2.2617 -0.5613  0.9553
 4929SOL    HW226250   2.432   1.037   3.566 -1.9187 -0.0196  0.7572
 4930SOL     OW26251   0.578   0.394   4.932  0.4454 -0.7007  0.5952
 4930SOL    HW126252   0.615   0.386   4.844 -3.6771 -1.3641 -1.0890
 4930SOL    HW226253   0.645   0.452   4.969 -0.5529  0.0836  1.1758
 4931SOL     OW26254   1.076   4.581  16.926  0.2525  0.9328  0.1549
 4931SOL    HW126255   1.094   4.602  16.835  3.3489 -1.4568  0.2589
 4931SOL    HW226256   1.164   4.564  16.958 -0.4644 -2.4252  0.4070
 4932SOL     OW26257   0.818   2.296   7.812  0.2616  0.2801  0.3084
 4932SOL    HW126258   0.759   2.238   7.764  0.7469 -1.5474  1.9482
 4932SOL    HW226259   0.842   2.241   7.887  2.2478 -2.1736 -2.1107
 4933SOL     OW26260   2.436   4.249   9.715  0.4019  0.0691 -0.0702
 4933SOL    HW126261   2.516   4.198   9.730  0.8565  0.2538 -1.9028
 4933SOL    HW226262   2.368   4.186   9.736 -1.2112  1.6315 -0.5902
 4934SOL     OW26263   1.622   3.819  12.297  0.4261  0.7480 -0.2507
 4934SOL    HW126264   1.675   3.891  12.262 -0.5133  0.4815 -2.2274
 4934SOL    HW226265   1.682   3.764  12.348 -1.8822 -1.5016  0.0147
 4935SOL     OW26266   1.308   4.345   5.399 -0.0069 -0.0203 -0.0340
 4935SOL    HW126267   1.267   4.399   5.330 -1.2242  1.5052  1.8657
 4935SOL    HW226268   1.323   4.269   5.343  0.3730  0.5291 -0.6813
 4936SOL     OW26269   2.793   4.443   2.108  0.4662  0.0022  0.0889
 4936SOL    HW126270   2.787   4.352   2.080 -1.7901 -0.6375  2.5907
 4936SOL    HW226271   2.736   4.481   2.041  1.1674  0.3470 -0.3028
 4937SOL     OW26272   3.075   1.308  11.811 -0.1792  0.5510 -0.1241
 4937SOL    HW126273   3.089   1.240  11.876 -1.4036  0.8952  0.5015
 4937SOL    HW226274   3.158   1.319  11.765 -1.2890 -2.0231 -2.8299
 4938SOL     OW26275   3.900   2.818   9.063  0.1641  0.1847  0.8314
 4938SOL    HW126276   3.947   2.880   9.007 -0.8500  0.5530  0.3883
 4938SOL    HW226277   3.953   2.739   9.057 -0.2160 -0.1437  1.7510
 4939SOL     OW26278   3.712   1.700   9.431 -0.6090 -0.6178  0.4868
 4939SOL    HW126279   3.650   1.628   9.427 -1.4694  0.1878 -0.5780
 4939SOL    HW226280   3.720   1.720   9.338 -0.5882 -3.0644 -0.0274
 4940SOL     OW26281   2.144   3.403   8.714 -0.2275  0.2470 -0.1132
 4940SOL    HW126282   2.064   3.446   8.744  0.2784  1.2224 -0.1442
 4940SOL    HW226283   2.129   3.380   8.622  0.2858 -0.7576  0.0586
 4941SOL     OW26284   3.350   0.347   9.839  0.4803  0.5196 -0.5027
 4941SOL    HW126285   3.306   0.307   9.914  1.0709  1.2342  0.2266
 4941SOL    HW226286   3.296   0.422   9.816 -0.5625  0.0183  0.2650
 4942SOL     OW26287   1.462   2.619   9.577  0.3500  0.1333  0.0502
 4942SOL    HW126288   1.453   2.547   9.515 -0.8735 -1.0362  1.6053
 4942SOL    HW226289   1.554   2.645   9.565  0.9554 -2.1827 -0.3237
 4943SOL     OW26290   2.631   4.424  13.221  0.4605 -0.1830  0.3361
 4943SOL    HW126291   2.723   4.417  13.196  0.1733 -1.2711 -0.3999
 4943SOL    HW226292   2.633   4.490  13.291 -0.0881  1.6937 -1.4287
 4944SOL     OW26293   0.286   1.616   7.801  0.1870 -0.1247  0.7324
 4944SOL    HW126294   0.318   1.701   7.771 -0.3255 -0.1568  0.0825
 4944SOL    HW226295   0.319   1.605   7.890  0.8143 -1.7941  0.3062
 4945SOL     OW26296   2.895   2.119   1.020 -0.4386 -0.3347  0.1877
 4945SOL    HW126297   2.894   2.211   1.050 -1.2013 -0.4570  0.5450
 4945SOL    HW226298   2.803   2.094   1.017 -0.1633 -1.4290  1.0301
 4946SOL     OW26299   1.170   0.764   4.285 -0.3531 -0.3439 -0.4738
 4946SOL    HW126300   1.246   0.820   4.274  0.0864 -0.8204  0.1106
 4946SOL    HW226301   1.182   0.704   4.212 -1.1509  2.4614 -2.8705
 4947SOL     OW26302   3.857   3.141   6.688 -0.1988 -0.9578 -0.2380
 4947SOL    HW126303   3.786   3.112   6.632  0.0839  0.5554 -1.3805
 4947SOL    HW226304   3.870   3.073   6.753 -0.0803 -1.0168 -0.3247
 4948SOL     OW26305   3.228   0.705   5.896 -0.1747 -0.4996 -0.1224
 4948SOL    HW126306   3.303   0.684   5.840 -0.1467  0.1320 -0.3215
 4948SOL    HW226307   3.176   0.625   5.891  0.6055 -0.7809 -3.3386
 4949SOL     OW26308   3.108   0.058   7.991 -0.7246 -0.2505 -0.4285
 4949SOL    HW126309   3.052   0.020   8.059 -0.5592  2.5922  1.3291
 4949SOL    HW226310   3.053   0.131   7.961 -1.4765 -0.4218  0.5255
 4950SOL     OW26311   3.506   1.701   4.718  0.2954 -0.9714 -0.3099
 4950SOL    HW126312   3.475   1.736   4.802 -0.7400  0.8930 -1.4645
 4950SOL    HW226313   3.431   1.707   4.659  0.5981 -1.3052 -0.7270
 4951SOL     OW26314   2.696   4.083   7.242  1.0725  0.1149 -0.0103
 4951SOL    HW126315   2.652   4.166   7.223 -1.4977 -0.9768  1.3151
 4951SOL    HW226316   2.654   4.053   7.323  0.8314 -1.5905 -0.7696
 4952SOL     OW26317   3.191   4.207   8.986 -0.8836  0.1622 -0.3959
 4952SOL    HW126318   3.114   4.225   9.039 -1.0693  1.8544 -1.2176
 4952SOL    HW226319   3.150   4.204   8.899 -1.2374  1.6434 -0.2749
 4953SOL     OW26320   3.382   1.419   7.391  0.1211 -0.1567  0.4229
 4953SOL    HW126321   3.413   1.439   7.479  1.4877 -2.2536  0.4205
 4953SOL    HW226322   3.348   1.502   7.358  0.7884 -0.6888 -1.5956
 4954SOL     OW26323   0.283   0.791   9.126  0.6546  0.0369 -0.2823
 4954SOL    HW126324   0.292   0.859   9.193  0.1875 -1.2149  1.0550
 4954SOL    HW226325   0.196   0.813   9.091  0.4884  0.7707  0.5878
 4955SOL     OW26326   4.723   3.147   9.508  0.0524  0.7327  0.6808
 4955SOL    HW126327   0.024   3.172   9.597 -2.2587  2.1851  0.8918
 4955SOL    HW226328   0.042   3.216   9.457  1.4948 -0.8628 -0.2947
 4956SOL     OW26329   0.535   2.303   0.669  0.2368  0.1668 -0.1955
 4956SOL    HW126330   0.500   2.384   0.704  2.1963  0.9622 -0.0569
 4956SOL    HW226331   0.447   2.274   0.646  0.9556 -1.2933 -1.1049
 4957SOL     OW26332   1.838   3.147  17.450  0.0336  0.1373 -0.4246
 4957SOL    HW126333   1.781   3.216  17.483 -1.0292 -0.6199 -0.6793
 4957SOL    HW226334   1.771   3.094  17.406  1.9913 -1.0729 -1.9490
 4958SOL     OW26335   1.316   3.515   3.715  0.2553 -0.1307 -0.1329
 4958SOL    HW126336   1.272   3.449   3.770  1.3458  0.9372  2.0296
 4958SOL    HW226337   1.306   3.469   3.632 -1.9262  2.1097 -1.1134
 4959SOL     OW26338   2.240   1.458  13.461 -0.0176  0.0413  0.2735
 4959SOL    HW126339   2.320   1.423  13.422 -0.9879  0.9997 -2.5494
 4959SOL    HW226340   2.192   1.375  13.470 -1.0282  0.6356  0.3553
 4960SOL     OW26341   1.248   2.949   2.939  0.5818 -0.2654 -0.0697
 4960SOL    HW126342   1.322   2.968   2.880 -0.0626  3.4992  0.2998
 4960SOL    HW226343   1.235   3.035   2.980  0.0888  0.0600 -0.9047
 4961SOL     OW26344   1.379   4.239   6.742  0.7230  0.0199 -0.6416
 4961SOL    HW126345   1.285   4.225   6.729  0.2117  0.8792  2.1180
 4961SOL    HW226346   1.413   4.171   6.799 -0.3522 -0.7837 -0.9622
 4962SOL     OW26347   0.836   0.764   6.047 -0.0558  0.1604 -0.5095
 4962SOL    HW126348   0.785   0.739   5.970  0.8657 -1.7086 -0.5014
 4962SOL    HW226349   0.891   0.829   6.004  0.3074 -0.1096 -0.4435
 4963SOL     OW26350   2.506   4.505   6.314 -0.3730  0.3428 -0.1014
 4963SOL    HW126351   2.455   4.585   6.304  0.5033  0.6985 -1.6213
 4963SOL    HW226352   2.486   4.481   6.224  3.3937 -1.6646 -0.3662
 4964SOL     OW26353   0.922   4.699  16.201  0.7932 -0.3637 -0.0584
 4964SOL    HW126354   0.952   4.678  16.289 -1.1453 -0.6791  0.5146
 4964SOL    HW226355   0.996   0.024  16.162  0.0423  0.2117 -0.7759
 4965SOL     OW26356   0.648   2.471  11.127 -0.0723 -0.3519 -0.0857
 4965SOL    HW126357   0.727   2.516  11.156 -0.9515  1.2576 -0.1650
 4965SOL    HW226358   0.668   2.381  11.153  0.5803 -0.1652  0.0591
 4966SOL     OW26359   0.672   1.529  13.430  0.0602 -0.4017 -0.4289
 4966SOL    HW126360   0.609   1.597  13.453  1.0447  0.6407 -0.7676
 4966SOL    HW226361   0.747   1.533  13.489 -0.2788  0.4325 -0.0508
 4967SOL     OW26362   3.071   1.383   1.858 -0.3301 -0.4161 -0.2908
 4967SOL    HW126363   3.109   1.425   1.935  0.4127  2.4514 -2.2172
 4967SOL    HW226364   3.014   1.454   1.828 -0.8342 -0.8488 -0.3603
 4968SOL     OW26365   0.054   0.920   4.749 -0.0701 -0.1647 -0.8681
 4968SOL    HW126366   0.028   0.911   4.841  0.4208  0.7483 -0.6482
 4968SOL    HW226367   0.013   0.841   4.713  0.5494 -0.3695 -1.1323
 4969SOL     OW26368   1.276   4.043   1.640  0.1786 -0.1771 -0.1255
 4969SOL    HW126369   1.301   3.953   1.618 -0.9349 -0.1567 -1.4489
 4969SOL    HW226370   1.362   4.080   1.660  0.2357 -0.4580  0.1439
 4970SOL     OW26371   3.655   1.589   8.904  0.4125  0.4754  1.5630
 4970SOL    HW126372   3.581   1.539   8.938 -0.5516 -0.1856 -1.4743
 4970SOL    HW226373   3.717   1.519   8.888 -0.4374 -0.2138  1.2465
 4971SOL     OW26374   2.801   3.772   8.124 -1.1299 -0.0439  0.1393
 4971SOL    HW126375   2.793   3.746   8.216  0.9104 -0.0778  0.3162
 4971SOL    HW226376   2.894   3.793   8.117 -1.4789  1.8896  1.0875
 4972SOL     OW26377   4.270   0.197  14.061  0.1450 -0.1146 -0.3173
 4972SOL    HW126378   4.306   0.184  14.149  0.7115 -1.2449 -0.7044
 4972SOL    HW226379   4.189   0.243  14.081 -0.5976 -2.3479  1.8188
 4973SOL     OW26380   3.798   4.221   9.149 -0.5297 -0.2870  0.4404
 4973SOL    HW126381   3.714   4.257   9.178 -0.3790 -1.3796  2.2495
 4973SOL    HW226382   3.862   4.237   9.218 -1.8318 -2.0182  2.0371
 4974SOL     OW26383   1.100   2.145   7.220 -0.2443 -0.5390  0.5812
 4974SOL    HW126384   1.079   2.210   7.153 -0.4976 -1.5444 -0.2991
 4974SOL    HW226385   1.140   2.197   7.290 -0.7516 -0.4690  0.8184
 4975SOL     OW26386   0.521   3.053   8.170  0.2409 -0.0389  0.5530
 4975SOL    HW126387   0.523   3.041   8.265  1.0394 -0.9411  0.4208
 4975SOL    HW226388   0.598   3.109   8.162  2.3822 -3.2504 -1.1091
 4976SOL     OW26389   3.910   1.496   5.810 -0.0392 -0.5832  0.0858
 4976SOL    HW126390   3.914   1.426   5.744  0.0984 -0.4395 -0.0552
 4976SOL    HW226391   3.839   1.459   5.864  1.2770 -2.8802  0.2646
 4977SOL     OW26392   3.857   1.566   7.814  0.3148 -0.1816  0.4592
 4977SOL    HW126393   3.937   1.609   7.843  1.3854 -0.3657 -2.2475
 4977SOL    HW226394   3.841   1.493   7.874  2.1039 -0.9236  0.0353
 4978SOL     OW26395   1.157   4.162   2.463 -0.2942 -0.7365 -0.7351
 4978SOL    HW126396   1.062   4.169   2.464 -0.1187  1.7699  0.2757
 4978SOL    HW226397   1.174   4.109   2.540 -0.1824  0.3169 -0.0299
 4979SOL     OW26398   4.404   2.886   5.790 -0.2304 -0.3349 -0.0771
 4979SOL    HW126399   4.381   2.831   5.715 -0.7931 -2.0774  1.3795
 4979SOL    HW226400   4.348   2.862   5.863  0.4555  1.3990  1.0024
 4980SOL     OW26401   1.316   3.110   0.687  0.5871 -0.5820  0.6006
 4980SOL    HW126402   1.389   3.048   0.684  1.1180  0.0704  0.3047
 4980SOL    HW226403   1.290   3.101   0.779  4.8445  0.7639  1.9355
 4981SOL     OW26404   1.306   0.905   6.096 -0.0061  0.7172 -0.5561
 4981SOL    HW126405   1.381   0.866   6.141  1.3294  2.1162 -1.5557
 4981SOL    HW226406   1.267   0.825   6.060  2.4765  0.0401 -1.7296
 4982SOL     OW26407   3.270   0.196  13.143  0.0496 -0.6329  0.2862
 4982SOL    HW126408   3.238   0.284  13.161  0.4667 -0.4221  0.0053
 4982SOL    HW226409   3.328   0.211  13.067  0.2273 -0.2231  0.5030
 4983SOL     OW26410   3.772   4.619   4.061  0.8707 -0.9903  0.1129
 4983SOL    HW126411   3.804   4.638   4.150  1.3845  1.3043 -0.5611
 4983SOL    HW226412   3.746   4.528   4.071  1.2703 -0.8051  2.8279
 4984SOL     OW26413   1.316   0.667   1.754  0.1056 -0.1999 -0.0955
 4984SOL    HW126414   1.358   0.599   1.700 -2.5369 -1.5211 -0.4842
 4984SOL    HW226415   1.244   0.692   1.695  2.2316  1.2026 -2.1083
 4985SOL     OW26416   4.480   1.716  11.477  0.7420 -0.7824  0.1559
 4985SOL    HW126417   4.433   1.769  11.412  2.2350 -1.8466 -1.7870
 4985SOL    HW226418   4.571   1.736  11.454 -0.3420  2.2695 -1.4814
 4986SOL     OW26419   2.186   1.925   5.129  0.4040  0.1348  0.4538
 4986SOL    HW126420   2.151   1.964   5.209  0.1919 -0.7391  0.7770
 4986SOL    HW226421   2.269   1.972   5.119 -0.6142  1.9120  0.2888
 4987SOL     OW26422   3.244   1.675   8.060 -0.2071 -0.3310 -0.6369
 4987SOL    HW126423   3.298   1.615   8.008 -0.3702 -2.3647  1.5323
 4987SOL    HW226424   3.270   1.659   8.151  0.8884  1.2549 -0.6864
 4988SOL     OW26425   0.474   3.016   1.988 -0.2974 -0.1698  0.3296
 4988SOL    HW126426   0.412   3.088   1.994  2.1120  2.2871 -3.7630
 4988SOL    HW226427   0.414   2.964   1.935 -0.9293 -0.1237  1.0077
 4989SOL     OW26428   3.153   3.557   4.867 -0.5254  0.7646  0.3678
 4989SOL    HW126429   3.170   3.554   4.962  2.8196  1.4821 -0.2207
 4989SOL    HW226430   3.076   3.614   4.862 -0.7371  0.5783  1.4427
 4990SOL     OW26431   2.664   0.861   3.353  0.0275 -0.3747 -0.2408
 4990SOL    HW126432   2.725   0.794   3.324  1.6113  0.5309  0.9914
 4990SOL    HW226433   2.670   0.922   3.279 -1.0922 -0.9822 -0.8278
 4991SOL     OW26434   0.776   1.081   6.808 -0.5319 -0.2395 -0.5743
 4991SOL    HW126435   0.833   1.111   6.880 -0.1499  0.0889 -1.0130
 4991SOL    HW226436   0.838   1.070   6.736 -0.2384 -2.7844  0.0730
 4992SOL     OW26437   4.720   2.885  12.435 -0.2937  0.3502 -0.0330
 4992SOL    HW126438   4.638   2.838  12.421  0.0411 -0.3678  0.4346
 4992SOL    HW226439   0.006   2.919  12.346  1.2879  1.0204  0.3644
 4993SOL     OW26440   4.455   3.449   6.726 -0.3662  0.3260 -0.2175
 4993SOL    HW126441   4.499   3.379   6.773  0.0910  0.0549 -1.0424
 4993SOL    HW226442   4.533   3.493   6.693 -0.4592  0.6013 -0.0678
 4994SOL     OW26443   4.135   3.322   3.428  0.3885 -0.5391  0.5307
 4994SOL    HW126444   4.089   3.324   3.512  1.7548  1.6250  1.2476
 4994SOL    HW226445   4.067   3.294   3.367  0.3893 -2.0980  1.2375
 4995SOL     OW26446   3.833   0.081   9.172 -0.3360  0.2333 -0.0289
 4995SOL    HW126447   3.805   4.719   9.207  1.8841 -0.7618 -0.6748
 4995SOL    HW226448   3.749   0.117   9.143  0.3663 -1.2090 -3.8389
 4996SOL     OW26449   1.671   3.070   4.751  0.3079 -0.2196 -0.3872
 4996SOL    HW126450   1.662   3.008   4.823  2.4744  2.3156  2.0791
 4996SOL    HW226451   1.631   3.024   4.677  0.9254 -0.3832 -0.6197
 4997SOL     OW26452   2.298   3.082   9.065  0.2919  0.0627 -0.2824
 4997SOL    HW126453   2.221   3.140   9.063  1.1514  1.2169 -0.2088
 4997SOL    HW226454   2.332   3.102   9.153 -0.5862 -0.5382  0.1951
 4998SOL     OW26455   2.529   4.488   3.929  0.5523  0.1875  0.3180
 4998SOL    HW126456   2.610   4.503   3.879 -0.5014  0.2075 -1.3776
 4998SOL    HW226457   2.490   4.572   3.907 -0.6186 -0.7856 -1.2816
 4999SOL     OW26458   2.107   1.560  10.706 -0.3893  0.0809  0.1625
 4999SOL    HW126459   2.139   1.614  10.634 -1.3126 -0.1313 -0.4090
 4999SOL    HW226460   2.114   1.621  10.779 -0.0342  0.5908 -0.2981
 5000SOL     OW26461   1.529   3.187   4.065 -0.0791 -0.4369  0.3557
 5000SOL    HW126462   1.524   3.224   3.978 -0.6531  0.7878  0.9127
 5000SOL    HW226463   1.434   3.172   4.070 -0.3093  0.8604 -0.3535
 5001SOL     OW26464   2.293   0.532   9.394 -0.0991 -0.0452 -0.4883
 5001SOL    HW126465   2.313   0.538   9.488  1.2359 -1.1668 -0.7002
 5001SOL    HW226466   2.204   0.498   9.408 -1.0720  1.0944 -4.0739
 5002SOL     OW26467   4.004   0.031   7.773  0.0682  0.4348  1.2923
 5002SOL    HW126468   3.934   4.702   7.733  2.5159 -0.1752 -2.1753
 5002SOL    HW226469   3.962   0.106   7.815 -0.0997  1.4730 -0.7912
 5003SOL     OW26470   3.735   0.680   1.995 -0.2343 -0.4205  0.4469
 5003SOL    HW126471   3.691   0.600   1.967 -0.8355  0.8818 -2.3022
 5003SOL    HW226472   3.714   0.743   1.926 -3.1938 -0.1571  1.6163
 5004SOL     OW26473   3.699   0.210  12.500 -0.3021  0.0078 -0.1095
 5004SOL    HW126474   3.629   0.215  12.435 -0.0546  3.8813 -0.1093
 5004SOL    HW226475   3.770   0.187  12.440  0.3260  2.2009 -0.2006
 5005SOL     OW26476   1.354   0.290   0.495  0.1975  0.0996 -0.6679
 5005SOL    HW126477   1.315   0.258   0.414 -0.8374 -1.7605  0.5604
 5005SOL    HW226478   1.288   0.261   0.559 -1.5758 -1.0000 -3.0228
 5006SOL     OW26479   2.098   4.151  15.508  0.1497 -0.0600 -0.6854
 5006SOL    HW126480   2.116   4.074  15.562  2.6234 -0.3291 -1.8729
 5006SOL    HW226481   2.154   4.136  15.432  1.4834 -0.1014  0.3236
 5007SOL     OW26482   3.278   2.099   2.972 -0.8068  0.3786  0.9657
 5007SOL    HW126483   3.233   2.087   3.056 -1.2175 -3.0655  0.2514
 5007SOL    HW226484   3.251   2.014   2.938  2.0709 -0.1589 -0.0044
 5008SOL     OW26485   3.325   2.345  13.650  0.3426 -0.4113 -0.2692
 5008SOL    HW126486   3.251   2.296  13.613 -0.6594  1.7732 -1.1440
 5008SOL    HW226487   3.268   2.405  13.697 -2.2313 -2.5019 -0.7232
 5009SOL     OW26488   1.276   2.346   5.588 -0.2138 -0.2529 -0.2924
 5009SOL    HW126489   1.354   2.396   5.566 -1.2198  1.2666 -0.3620
 5009SOL    HW226490   1.310   2.300   5.665  2.4516  0.9120 -0.7817
 5010SOL     OW26491   1.111   1.077   7.220 -0.1460  0.4347  0.2106
 5010SOL    HW126492   1.204   1.099   7.221 -0.4866  1.8267  1.2925
 5010SOL    HW226493   1.085   1.056   7.310 -0.3457  1.1932  0.3320
 5011SOL     OW26494   2.763   2.963   6.615  0.4283 -0.0362  0.0360
 5011SOL    HW126495   2.738   3.052   6.589  1.2697 -0.2916 -1.6230
 5011SOL    HW226496   2.707   2.950   6.692  3.0367  1.6395  2.2138
 5012SOL     OW26497   4.579   4.330   4.587 -0.0699  0.3093  0.3492
 5012SOL    HW126498   4.521   4.318   4.512  0.3250  1.1811 -0.0992
 5012SOL    HW226499   4.584   4.426   4.588 -2.2982  0.4515 -1.3009
 5013SOL     OW26500   3.650   0.799   1.413  0.6545  0.1130  0.1737
 5013SOL    HW126501   3.562   0.763   1.425 -0.2727  1.8948 -1.2963
 5013SOL    HW226502   3.624   0.891   1.414 -0.9316 -0.3564  1.4894
 5014SOL     OW26503   3.494   0.294  12.124 -0.0120 -0.4161 -0.1768
 5014SOL    HW126504   3.527   0.229  12.186  1.2661  0.5453  0.1539
 5014SOL    HW226505   3.416   0.318  12.175  0.5827 -0.4723  0.7527
 5015SOL     OW26506   4.127   3.013   4.033 -0.7955 -0.0284 -0.4835
 5015SOL    HW126507   4.113   2.954   3.959  1.1105 -1.0375 -0.0432
 5015SOL    HW226508   4.217   3.044   4.028 -0.0610 -1.9222  0.6644
 5016SOL     OW26509   3.487   2.159  13.539  0.2805  0.0615  0.3012
 5016SOL    HW126510   3.431   2.232  13.568  0.8902  1.0595 -1.0172
 5016SOL    HW226511   3.428   2.085  13.527 -0.3184  0.4896  0.5924
 5017SOL     OW26512   2.234   0.613   5.870 -0.2577 -1.0547 -0.5237
 5017SOL    HW126513   2.219   0.663   5.790  0.0188 -0.4998 -0.2329
 5017SOL    HW226514   2.145   0.579   5.878 -0.8441  0.7929  1.0028
 5018SOL     OW26515   0.774   3.251   4.077 -0.0544  0.1114  0.4390
 5018SOL    HW126516   0.679   3.242   4.087 -0.1983  2.0151  0.8198
 5018SOL    HW226517   0.776   3.280   3.986 -1.8953  2.3231  1.0740
 5019SOL     OW26518   2.944   0.088   7.390  0.6707  0.4050  0.7352
 5019SOL    HW126519   3.026   0.083   7.341  0.5021 -0.8700  0.5772
 5019SOL    HW226520   2.945   4.723   7.428 -1.9973 -0.6735 -1.6979
 5020SOL     OW26521   4.331   2.315   6.132  0.2822 -0.5948  0.4845
 5020SOL    HW126522   4.252   2.277   6.170  1.5290 -1.3018  2.3875
 5020SOL    HW226523   4.318   2.409   6.146 -0.9705 -0.6267 -0.4968
 5021SOL     OW26524   1.336   1.937   6.692 -0.1035  0.1632  0.2671
 5021SOL    HW126525   1.333   2.013   6.634 -1.6427  0.3945  0.6392
 5021SOL    HW226526   1.260   1.885   6.665 -1.0705  1.6855  0.0741
 5022SOL     OW26527   2.482   0.724   3.027 -1.0052 -0.0662 -0.3892
 5022SOL    HW126528   2.421   0.686   3.090  0.8140 -0.9613  0.8266
 5022SOL    HW226529   2.471   0.665   2.953 -0.7366 -1.3108  0.5611
 5023SOL     OW26530   1.269   3.295   3.523 -0.4368  0.4383  0.3625
 5023SOL    HW126531   1.180   3.289   3.488 -0.9453 -0.4173  1.8012
 5023SOL    HW226532   1.298   3.205   3.507 -0.6806  0.0247  2.2740
 5024SOL     OW26533   2.613   0.926   2.373  0.1496  0.3604  0.5175
 5024SOL    HW126534   2.571   1.009   2.350  0.6108  0.1142 -1.1570
 5024SOL    HW226535   2.705   0.939   2.354 -0.3132  0.9339 -1.3163
 5025SOL     OW26536   0.180   0.317   3.513  0.6175  0.6299 -0.1860
 5025SOL    HW126537   0.097   0.324   3.467  0.7126  1.7828 -0.1825
 5025SOL    HW226538   0.189   0.397   3.564  2.7078 -0.4562  1.1773
 5026SOL     OW26539   2.144   1.096   8.266  0.5987 -0.3824 -0.1570
 5026SOL    HW126540   2.199   1.034   8.314  1.7730  0.0030 -1.0169
 5026SOL    HW226541   2.067   1.077   8.320  1.0732  3.0147  1.7154
 5027SOL     OW26542   4.425   2.896   4.223 -0.5861  0.2355 -0.1291
 5027SOL    HW126543   4.437   2.980   4.179 -1.0601  0.2916 -0.1513
 5027SOL    HW226544   4.511   2.893   4.264 -0.3063  0.4218 -0.7038
 5028SOL     OW26545   2.276   0.672   0.791 -0.1666 -0.3535 -0.0665
 5028SOL    HW126546   2.213   0.703   0.727 -0.3708  1.9569  1.2530
 5028SOL    HW226547   2.236   0.693   0.876 -0.5466  1.0877 -0.6021
 5029SOL     OW26548   1.180   0.184   0.950 -0.1663 -0.1012  0.2624
 5029SOL    HW126549   1.094   0.175   0.909 -0.4447  2.0765  0.3702
 5029SOL    HW226550   1.215   0.101   0.918 -0.0180 -0.0770  0.3585
 5030SOL     OW26551   0.854   2.630   8.033  0.5797  0.2348  0.4073
 5030SOL    HW126552   0.946   2.655   8.028 -0.0607  2.3414 -0.6086
 5030SOL    HW226553   0.852   2.566   8.104 -2.3289 -1.2564 -0.9842
 5031SOL     OW26554   1.223   4.501   5.703  0.4067  0.2849 -0.2464
 5031SOL    HW126555   1.206   4.410   5.678  2.6702 -0.5637  1.1815
 5031SOL    HW226556   1.148   4.518   5.760 -1.1990 -2.1835 -1.6310
 5032SOL     OW26557   2.793   3.498   1.707  0.2461  0.3163 -0.4565
 5032SOL    HW126558   2.739   3.427   1.672 -1.1328  0.4637  1.4121
 5032SOL    HW226559   2.759   3.502   1.796  0.8127 -1.4354 -0.1592
 5033SOL     OW26560   2.647   3.001   7.577  0.1531  0.5186 -0.0942
 5033SOL    HW126561   2.727   3.000   7.523 -0.5313  2.9753 -1.1490
 5033SOL    HW226562   2.608   3.088   7.577 -0.4258  0.2509 -1.1887
 5034SOL     OW26563   2.498   3.445  16.685  0.5407  0.3290 -1.3662
 5034SOL    HW126564   2.448   3.527  16.688  1.9191  1.0989  0.7199
 5034SOL    HW226565   2.512   3.435  16.591  0.2172  0.3876 -1.4217
 5035SOL     OW26566   0.622   1.772   8.007 -0.1740 -0.2224  0.3241
 5035SOL    HW126567   0.613   1.738   8.096  1.0866 -0.4201  0.3762
 5035SOL    HW226568   0.571   1.853   8.016 -1.1154 -0.8529  0.5931
 5036SOL     OW26569   3.876   3.256   2.706  0.5022  0.6409 -0.0891
 5036SOL    HW126570   3.857   3.313   2.781 -1.2719  0.3511 -0.3331
 5036SOL    HW226571   3.941   3.310   2.661  0.8626  1.1507  1.0232
 5037SOL     OW26572   3.930   1.550   4.690  0.4203 -0.3889  0.2764
 5037SOL    HW126573   3.973   1.507   4.764  0.6402  1.1418  1.0371
 5037SOL    HW226574   4.007   1.588   4.647  2.4539 -2.5498  1.9766
 5038SOL     OW26575   4.286   4.271  15.670 -0.0424 -0.1687  0.1864
 5038SOL    HW126576   4.223   4.318  15.614  0.9142  2.0477  0.9768
 5038SOL    HW226577   4.232   4.250  15.746 -1.1354  0.3711 -0.4276
 5039SOL     OW26578   1.331   3.769   4.017  0.2867 -0.2972  0.0869
 5039SOL    HW126579   1.377   3.713   4.080  1.2295 -1.8326 -1.9884
 5039SOL    HW226580   1.244   3.743   4.049  1.3402 -1.4604  2.0343
 5040SOL     OW26581   1.470   0.174   5.902 -0.4319 -0.4052  0.4280
 5040SOL    HW126582   1.492   0.246   5.962  0.5488 -0.1166 -0.2736
 5040SOL    HW226583   1.414   0.216   5.837 -1.7643 -0.3507  1.6228
 5041SOL     OW26584   3.121   0.952   6.595  0.2376  0.6332  0.6153
 5041SOL    HW126585   3.166   0.954   6.511 -4.3330  0.0529 -1.8352
 5041SOL    HW226586   3.029   0.969   6.577 -0.3715 -1.7527  1.4266
 5042SOL     OW26587   3.279   0.970   5.971 -0.3065 -0.4230 -0.3827
 5042SOL    HW126588   3.205   0.985   6.029  1.5206  2.0741  1.3059
 5042SOL    HW226589   3.251   0.891   5.924 -1.1598 -1.5774  2.1127
 5043SOL     OW26590   4.687   3.178   5.947 -0.1845  0.3242  0.7633
 5043SOL    HW126591   0.020   3.242   5.905 -0.5652 -0.2904 -0.6866
 5043SOL    HW226592   4.601   3.209   5.918  0.0025  0.2713  0.1525
 5044SOL     OW26593   3.456   3.382  16.385 -0.6723  0.2851  0.1324
 5044SOL    HW126594   3.447   3.319  16.313  1.5838 -1.5109  1.3892
 5044SOL    HW226595   3.547   3.367  16.411  0.2287 -0.3448 -3.4044
 5045SOL     OW26596   2.392   0.961   1.879 -0.0506  0.0358 -0.1193
 5045SOL    HW126597   2.454   1.028   1.908 -2.2283  2.0780 -0.1752
 5045SOL    HW226598   2.363   0.922   1.962  0.6469  1.9919  1.0472
 5046SOL     OW26599   0.992   1.533   2.240 -0.6125 -0.0111 -0.6947
 5046SOL    HW126600   1.017   1.625   2.229 -0.9901  0.2897  0.8947
 5046SOL    HW226601   1.078   1.494   2.252 -0.1341  0.6702 -1.8552
 5047SOL     OW26602   1.718   0.885   5.777  0.7393 -0.9810  0.5926
 5047SOL    HW126603   1.750   0.961   5.728 -1.2446 -0.4465  0.1259
 5047SOL    HW226604   1.679   0.840   5.703  0.1778 -0.0101  0.3018
 5048SOL     OW26605   0.674   4.002   7.523 -0.3867 -0.1623  0.5817
 5048SOL    HW126606   0.754   4.052   7.538 -0.5505 -0.0549  1.1197
 5048SOL    HW226607   0.701   3.969   7.437 -0.4130 -0.5200  0.7097
 5049SOL     OW26608   1.581   3.333   1.848  0.4949 -0.0079  0.3210
 5049SOL    HW126609   1.511   3.396   1.862  0.2287 -0.5850  1.5376
 5049SOL    HW226610   1.657   3.362   1.899  1.0410 -1.2063  0.1952
 5050SOL     OW26611   0.442   1.374   2.383 -0.2506  0.5862  0.4736
 5050SOL    HW126612   0.460   1.293   2.336  0.0514  0.8842  0.0784
 5050SOL    HW226613   0.528   1.409   2.408 -0.0260 -0.9370  1.8045
 5051SOL     OW26614   4.096   3.762   3.176 -0.0226 -0.6276  0.6130
 5051SOL    HW126615   4.141   3.806   3.104 -3.1500  0.2655 -0.7861
 5051SOL    HW226616   4.146   3.784   3.255 -0.6390  0.7243  0.6130
 5052SOL     OW26617   1.306   0.383   3.266  0.3856  0.3085 -0.1864
 5052SOL    HW126618   1.346   0.316   3.321 -0.1779 -1.5506 -2.0221
 5052SOL    HW226619   1.228   0.413   3.312  0.0802 -0.3085 -0.2937
 5053SOL     OW26620   2.286   1.378   5.574  0.2700 -0.2436 -0.3069
 5053SOL    HW126621   2.363   1.324   5.559  0.5229 -0.2705  1.0731
 5053SOL    HW226622   2.282   1.434   5.496 -1.5648  1.4271  0.9661
 5054SOL     OW26623   3.688   4.671  15.336  0.1700  0.2822 -0.1392
 5054SOL    HW126624   3.771   4.665  15.289  1.3635 -1.1521  2.1665
 5054SOL    HW226625   3.719   4.713  15.416 -0.6655  0.1161  0.2747
 5055SOL     OW26626   2.711   0.373   8.698  0.2893 -0.8278 -0.3170
 5055SOL    HW126627   2.685   0.395   8.788  1.8163 -3.6100  0.8029
 5055SOL    HW226628   2.674   0.286   8.685  1.7085 -2.0599  3.9492
 5056SOL     OW26629   2.129   1.001   4.750  0.1877 -0.3296  0.0544
 5056SOL    HW126630   2.121   1.096   4.750  0.5030 -0.3073  1.5990
 5056SOL    HW226631   2.043   0.985   4.710 -1.0482 -0.2054  2.6452
 5057SOL     OW26632   2.455   0.248  12.026 -0.3497  0.1091 -0.3638
 5057SOL    HW126633   2.474   0.169  12.077 -1.5699  0.2574  0.2972
 5057SOL    HW226634   2.441   0.307  12.099 -1.9122  0.0815 -0.6471
 5058SOL     OW26635   2.874   4.087  10.031  0.0125 -1.2299 -0.0422
 5058SOL    HW126636   2.945   4.143  10.064 -1.8296  0.4713  1.0098
 5058SOL    HW226637   2.915   4.061   9.948 -0.3974  1.5993 -1.1338
 5059SOL     OW26638   1.204   0.844   6.448  0.6194 -0.3672  0.1321
 5059SOL    HW126639   1.203   0.769   6.389  3.1762 -0.8774  0.7625
 5059SOL    HW226640   1.166   0.807   6.528 -0.6711 -0.7407 -0.6458
 5060SOL     OW26641   4.296   0.796   2.409  0.0982  0.1720  0.3326
 5060SOL    HW126642   4.236   0.870   2.415 -1.9046 -1.5782  1.8758
 5060SOL    HW226643   4.244   0.730   2.456  0.2071  0.0640  0.3021
 5061SOL     OW26644   0.488   2.540  14.786 -0.3826  0.3472 -0.5183
 5061SOL    HW126645   0.576   2.544  14.823  0.4254 -2.6734 -2.1492
 5061SOL    HW226646   0.475   2.635  14.785  1.1879  0.5592 -0.3734
 5062SOL     OW26647   1.311   1.702   8.203 -0.0353 -0.4523  1.1000
 5062SOL    HW126648   1.262   1.748   8.135  1.5275  3.0068  2.2906
 5062SOL    HW226649   1.391   1.685   8.154 -0.8130 -0.7928 -0.0703
 5063SOL     OW26650   4.659   1.354   5.951  0.5633 -0.0378  0.9243
 5063SOL    HW126651   4.582   1.369   5.897  0.3383  0.8602  1.4765
 5063SOL    HW226652   4.631   1.334   6.040 -0.4063  1.6425  0.9986
 5064SOL     OW26653   0.926   2.420   7.586  0.2112  0.2238  0.1211
 5064SOL    HW126654   0.893   2.508   7.574  3.3685  1.5181  0.7556
 5064SOL    HW226655   0.905   2.389   7.674 -1.3740  2.4248  0.5159
 5065SOL     OW26656   2.884   2.283   0.647  0.3546 -0.1817 -1.0290
 5065SOL    HW126657   2.820   2.323   0.705  2.4098  0.4320  0.8051
 5065SOL    HW226658   2.883   2.192   0.677  0.6485 -0.0364 -0.5791
 5066SOL     OW26659   1.739   2.926   5.586 -0.3149 -0.3316 -0.1056
 5066SOL    HW126660   1.759   2.833   5.576  0.9421 -0.0765 -0.0080
 5066SOL    HW226661   1.807   2.958   5.645 -0.1332  0.9453 -1.0202
 5067SOL     OW26662   2.614   0.772  16.694 -0.2446  0.3079 -0.5954
 5067SOL    HW126663   2.677   0.744  16.761 -1.1788 -1.0745 -0.2842
 5067SOL    HW226664   2.606   0.867  16.694 -0.3487  0.3043 -0.0271
 5068SOL     OW26665   4.210   3.654   7.275  0.4774 -0.4730  0.8559
 5068SOL    HW126666   4.140   3.709   7.309  0.2295 -0.6183  0.5850
 5068SOL    HW226667   4.173   3.565   7.277  1.4854 -0.8774  1.5647
 5069SOL     OW26668   3.105   0.475   5.648 -0.0414 -0.0025 -0.1022
 5069SOL    HW126669   3.010   0.474   5.660 -0.1914 -0.5618 -1.3034
 5069SOL    HW226670   3.115   0.526   5.568  0.5394 -1.1704 -0.7757
 5070SOL     OW26671   0.827   3.895   4.833  0.1449 -0.0283  0.3262
 5070SOL    HW126672   0.811   3.935   4.747 -2.4342 -2.0335 -0.1162
 5070SOL    HW226673   0.898   3.833   4.815  0.3198  0.4855 -0.7525
 5071SOL     OW26674   0.575   4.658   4.449 -0.1971  0.6513 -0.5618
 5071SOL    HW126675   0.657   4.684   4.490  0.3769 -1.0901 -0.6135
 5071SOL    HW226676   0.600   4.620   4.365 -0.0061 -0.1576 -0.1381
 5072SOL     OW26677   1.683   1.095   6.939  0.3680 -0.0764 -0.3472
 5072SOL    HW126678   1.647   1.143   7.013  1.1268  0.3551 -0.2566
 5072SOL    HW226679   1.773   1.085   6.971  0.2319 -0.2160 -0.0127
 5073SOL     OW26680   3.933   0.001   2.976 -0.0138  0.4120 -0.3803
 5073SOL    HW126681   4.005   0.061   2.957  1.2598 -0.0535  2.9713
 5073SOL    HW226682   3.996   4.656   3.001 -1.0295 -1.4925 -3.0141
 5074SOL     OW26683   4.437   4.167   8.065  0.5003 -0.2018 -0.2590
 5074SOL    HW126684   4.481   4.085   8.090  3.3552  0.5626 -2.7143
 5074SOL    HW226685   4.355   4.141   8.023 -0.1815  2.9316 -0.8444
 5075SOL     OW26686   1.604   3.976  12.892  0.4329 -0.9316 -0.3295
 5075SOL    HW126687   1.673   3.925  12.934 -1.6012 -2.2835  1.3716
 5075SOL    HW226688   1.645   3.982  12.806  0.8904  3.4260  0.2178
 5076SOL     OW26689   3.347   4.076  12.885 -0.1012  0.8029  0.2171
 5076SOL    HW126690   3.290   4.066  12.808 -0.2678 -2.5289  0.7725
 5076SOL    HW226691   3.413   4.139  12.856  1.9911 -1.7605 -0.6314
 5077SOL     OW26692   0.711   2.500  14.556  0.3199 -0.3285 -0.4927
 5077SOL    HW126693   0.716   2.529  14.465 -0.1352  1.4134  0.0252
 5077SOL    HW226694   0.791   2.544  14.586  0.8802 -1.0455 -0.9375
 5078SOL     OW26695   2.750   3.206   3.304  0.4660  0.3486 -0.0590
 5078SOL    HW126696   2.769   3.225   3.396 -0.1019 -1.4636  0.4224
 5078SOL    HW226697   2.690   3.132   3.305  0.0180  0.7509  2.6161
 5079SOL     OW26698   2.521   0.371   2.410 -0.1021 -0.3321 -0.1133
 5079SOL    HW126699   2.501   0.300   2.348  0.5299 -2.3198  1.9522
 5079SOL    HW226700   2.552   0.438   2.349 -1.7165 -3.3270 -4.2419
 5080SOL     OW26701   1.606   0.968   2.879 -0.0048  0.4211 -0.0203
 5080SOL    HW126702   1.630   0.988   2.789  0.4319  0.2941  0.0676
 5080SOL    HW226703   1.580   0.878   2.859  1.1295  0.1912 -0.4443
 5081SOL     OW26704   3.721   1.459  12.754 -0.0647  0.1327 -0.2228
 5081SOL    HW126705   3.675   1.503  12.825 -0.4912 -1.9674  0.8079
 5081SOL    HW226706   3.804   1.506  12.761 -0.0952  0.2011 -0.3270
 5082SOL     OW26707   1.873   4.509   3.991 -0.0143 -0.0022  0.1017
 5082SOL    HW126708   1.916   4.588   3.957 -1.3710  0.5435 -0.3207
 5082SOL    HW226709   1.922   4.443   3.941 -0.1539  0.4547 -0.6439
 5083SOL     OW26710   4.479   3.452   8.673 -0.4619  0.0878  0.4373
 5083SOL    HW126711   4.495   3.504   8.752 -0.4660 -0.0936  0.5585
 5083SOL    HW226712   4.432   3.379   8.714  2.7719 -1.7837  0.7704
 5084SOL     OW26713   3.195   1.995   8.363 -0.5000  0.1706  0.0561
 5084SOL    HW126714   3.124   1.969   8.303  1.3315 -2.4724 -0.9766
 5084SOL    HW226715   3.277   1.999   8.313 -1.1251  0.1145 -0.9884
 5085SOL     OW26716   2.477   3.087  14.736  0.1497 -0.1223  0.1494
 5085SOL    HW126717   2.539   3.153  14.707  0.7495 -0.3029  1.0247
 5085SOL    HW226718   2.481   3.104  14.830  0.7185  1.6551 -0.1990
 5086SOL     OW26719   3.314   3.504   3.000  0.4972 -0.2842  0.3798
 5086SOL    HW126720   3.367   3.540   3.071 -2.1395 -0.7081  2.5843
 5086SOL    HW226721   3.227   3.518   3.038 -0.0854  1.7065 -1.6731
 5087SOL     OW26722   0.231   0.300   6.775 -0.0607  0.1648  0.2639
 5087SOL    HW126723   0.286   0.243   6.722  1.5502 -0.6049  2.7828
 5087SOL    HW226724   0.201   0.356   6.703 -1.7334 -1.5969 -0.4005
 5088SOL     OW26725   3.911   2.332   5.973 -0.5041 -0.1820 -0.1798
 5088SOL    HW126726   3.880   2.254   6.020 -1.9319 -0.1554 -1.0902
 5088SOL    HW226727   3.975   2.297   5.911  1.0769 -2.8581  2.9374
 5089SOL     OW26728   3.354   2.359   7.300  0.2167 -0.2105  0.1755
 5089SOL    HW126729   3.448   2.366   7.283 -0.3190  1.4116 -2.1886
 5089SOL    HW226730   3.361   2.321   7.387  2.2572  0.4382  0.2855
 5090SOL     OW26731   3.305   3.246  15.929 -0.0393 -0.2610 -0.0354
 5090SOL    HW126732   3.314   3.334  15.891  0.0439 -0.1308  0.2843
 5090SOL    HW226733   3.393   3.210  15.938  0.6948  1.7907  1.0965
 5091SOL     OW26734   1.296   1.628  10.606 -0.9496  0.1782 -0.2323
 5091SOL    HW126735   1.322   1.673  10.526  1.7115 -0.9762  0.0055
 5091SOL    HW226736   1.365   1.563  10.619 -0.3285  1.0144  0.6124
 5092SOL     OW26737   0.321   0.892   2.168  0.1345 -0.3512  0.3550
 5092SOL    HW126738   0.277   0.816   2.130  1.4597 -0.3324 -1.2350
 5092SOL    HW226739   0.323   0.951   2.093 -1.4821  1.8362  2.0244
 5093SOL     OW26740   4.228   4.102  10.099 -0.0384  0.2941 -0.5187
 5093SOL    HW126741   4.316   4.118  10.132 -0.4546  2.3667 -0.4496
 5093SOL    HW226742   4.174   4.109  10.178  0.8005 -1.9367  0.2555
 5094SOL     OW26743   2.784   0.035   5.201  0.1770  0.3819 -0.5766
 5094SOL    HW126744   2.815   0.070   5.284 -0.8159  0.7145 -0.3452
 5094SOL    HW226745   2.752   4.672   5.226  0.5108  0.0162 -1.4021
 5095SOL     OW26746   3.333   1.102  10.045  0.1233 -0.2871  0.1211
 5095SOL    HW126747   3.331   1.114   9.950  1.7335 -1.9329 -0.1199
 5095SOL    HW226748   3.252   1.147  10.070  0.8135  1.5920 -1.0402
 5096SOL     OW26749   3.645   2.221   9.927 -0.5430  0.2663 -0.0205
 5096SOL    HW126750   3.661   2.138   9.972  2.2768 -0.5770 -2.5374
 5096SOL    HW226751   3.556   2.238   9.956 -0.8319  0.0883 -0.8185
 5097SOL     OW26752   1.579   2.946  16.686  0.5684 -0.4453 -0.0767
 5097SOL    HW126753   1.628   2.866  16.666 -2.9361 -2.8066  0.7599
 5097SOL    HW226754   1.602   2.960  16.778  4.9320 -0.5861 -1.1307
 5098SOL     OW26755   3.485   1.241   3.880  0.5740  0.0232  0.0826
 5098SOL    HW126756   3.413   1.233   3.818  1.0625  3.1939 -0.9031
 5098SOL    HW226757   3.441   1.283   3.953  0.3745 -1.2270  0.6795
 5099SOL     OW26758   2.452   1.081  13.542 -0.0820  0.3042 -0.6243
 5099SOL    HW126759   2.382   1.102  13.604  0.3863  0.5445 -0.1681
 5099SOL    HW226760   2.513   1.039  13.603 -0.8074 -2.3974 -1.7746
 5100SOL     OW26761   4.110   2.363  11.218 -0.3229  0.1703  0.0117
 5100SOL    HW126762   4.038   2.323  11.267 -0.3529  1.3756  0.9647
 5100SOL    HW226763   4.084   2.342  11.129 -4.3965  1.8748  0.8219
 5101SOL     OW26764   3.976   4.275   2.759  0.0222  0.4315  0.2585
 5101SOL    HW126765   3.882   4.294   2.751 -0.2497 -1.9298 -1.9949
 5101SOL    HW226766   3.988   4.213   2.687 -0.0581 -1.2444  1.6975
 5102SOL     OW26767   0.698   1.441  16.837 -0.3085  0.6878 -0.1741
 5102SOL    HW126768   0.702   1.514  16.899  1.6364  0.4917 -0.0576
 5102SOL    HW226769   0.627   1.481  16.786 -0.5736  3.5866  2.4476
 5103SOL     OW26770   4.490   2.554   5.414 -0.1772 -0.4294 -0.0654
 5103SOL    HW126771   4.568   2.587   5.459 -1.4969  1.4005  0.8569
 5103SOL    HW226772   4.513   2.461   5.420  1.7323  0.0379  0.0840
 5104SOL     OW26773   1.605   0.035   6.369 -0.8958  1.1116 -0.6103
 5104SOL    HW126774   1.568   0.011   6.454  0.3144  3.0274  0.4648
 5104SOL    HW226775   1.696   0.050   6.394  0.5256 -3.3316 -3.1264
 5105SOL     OW26776   0.505   1.812   5.225  0.6173 -0.1665 -0.0324
 5105SOL    HW126777   0.582   1.855   5.189 -1.5274  1.4672 -2.5971
 5105SOL    HW226778   0.442   1.882   5.242  0.2950 -0.5375  0.3213
 5106SOL     OW26779   4.110   2.740   8.785  0.4056 -0.7043 -0.7401
 5106SOL    HW126780   4.204   2.753   8.776  0.1865  0.7933 -0.9541
 5106SOL    HW226781   4.092   2.828   8.819 -1.7540 -0.9136 -1.3319
 5107SOL     OW26782   4.520   3.149   0.749 -0.1945 -0.6427  0.4415
 5107SOL    HW126783   4.426   3.166   0.750 -0.6158 -3.0388  1.8781
 5107SOL    HW226784   4.509   3.058   0.721  1.1960 -0.6934  0.0214
 5108SOL     OW26785   1.609   1.063   1.053 -0.0206 -0.0040  0.0691
 5108SOL    HW126786   1.704   1.059   1.063  0.0114  0.8770  0.1090
 5108SOL    HW226787   1.590   1.143   1.102 -2.2339 -0.3510 -0.2397
 5109SOL     OW26788   3.045   0.281   8.977  0.0114 -0.3861  0.0016
 5109SOL    HW126789   2.983   0.332   9.028 -1.8010 -2.4551 -0.1568
 5109SOL    HW226790   3.096   0.247   9.051  1.2350  0.8163 -0.2855
 5110SOL     OW26791   1.888   3.986   3.878 -0.8196  0.1086  0.0572
 5110SOL    HW126792   1.804   4.029   3.897 -0.8596  0.6408 -1.2999
 5110SOL    HW226793   1.886   3.904   3.927  0.6593  1.3113  2.1237
 5111SOL     OW26794   3.998   0.250  10.506  0.0668  0.0324 -0.3186
 5111SOL    HW126795   4.030   0.214  10.588 -1.1088  1.8884  0.9570
 5111SOL    HW226796   3.908   0.218  10.516  0.1134  0.3713  1.1830
 5112SOL     OW26797   0.036   0.808  15.055 -0.5125  0.6260  0.4880
 5112SOL    HW126798   0.128   0.814  15.032 -0.0520  2.2537  2.6742
 5112SOL    HW226799   0.042   0.776  15.145  0.5193 -0.6761 -0.0491
 5113SOL     OW26800   0.719   3.382  11.040 -0.2862 -0.1361 -0.0758
 5113SOL    HW126801   0.790   3.411  10.983  0.0153 -0.4569  0.1368
 5113SOL    HW226802   0.719   3.453  11.104  1.2882  1.7117 -2.1413
 5114SOL     OW26803   2.524   1.280   8.783 -0.6762  0.0177  0.5188
 5114SOL    HW126804   2.462   1.321   8.843  0.5047  0.2438  1.5866
 5114SOL    HW226805   2.540   1.194   8.822 -0.9230 -0.4645 -0.4512
 5115SOL     OW26806   2.874   0.629   4.553  0.4708  0.4306  0.3122
 5115SOL    HW126807   2.958   0.669   4.531  0.6991  0.1699  0.7007
 5115SOL    HW226808   2.854   0.558   4.492  1.8234  2.9289 -2.9758
 5116SOL     OW26809   2.209   4.092   9.737 -0.2760  0.2429 -0.5934
 5116SOL    HW126810   2.145   4.148   9.780 -0.3383 -1.8054  1.9693
 5116SOL    HW226811   2.177   4.005   9.760  0.2022  0.3852  0.6348
 5117SOL     OW26812   4.356   3.694  11.035 -0.0421 -0.2472  0.1179
 5117SOL    HW126813   4.339   3.734  10.950  0.0651  2.3075  1.2824
 5117SOL    HW226814   4.283   3.632  11.043  0.9186 -1.2128  1.3162
 5118SOL     OW26815   2.755   3.575   5.124 -0.1785 -0.0749 -0.4878
 5118SOL    HW126816   2.670   3.554   5.087 -1.2700  1.2218  1.2993
 5118SOL    HW226817   2.801   3.495   5.099  0.1033  0.4560 -1.6724
 5119SOL     OW26818   0.627   2.012   0.564  0.0002 -0.0055 -0.4594
 5119SOL    HW126819   0.658   1.939   0.511 -0.8581 -0.6882 -0.0270
 5119SOL    HW226820   0.539   1.978   0.583 -0.4328  1.3059 -0.1488
 5120SOL     OW26821   0.835   3.130   5.484 -0.1372  0.5385  0.1699
 5120SOL    HW126822   0.818   3.224   5.478  1.1497  0.6499 -1.6908
 5120SOL    HW226823   0.747   3.106   5.453 -0.2458 -0.2931  1.1343
 5121SOL     OW26824   0.864   0.339   2.121  0.0233  0.2530 -0.1858
 5121SOL    HW126825   0.868   0.255   2.075  0.0577 -0.4031  1.0268
 5121SOL    HW226826   0.777   0.366   2.092  0.5665  2.3337  0.1179
 5122SOL     OW26827   3.815   2.419   8.124 -0.1581 -0.1061 -0.3437
 5122SOL    HW126828   3.874   2.345   8.113 -0.9817 -0.7775 -0.2280
 5122SOL    HW226829   3.777   2.429   8.036  2.1949 -0.9349 -1.4456
 5123SOL     OW26830   3.453   2.511   0.588  0.2268  0.5928  0.0071
 5123SOL    HW126831   3.454   2.417   0.568  0.3512  0.9129 -1.5000
 5123SOL    HW226832   3.491   2.516   0.676 -0.1513  1.7162  0.0935
 5124SOL     OW26833   1.303   0.189  11.982  0.6161  0.0544  0.8075
 5124SOL    HW126834   1.253   0.175  11.902 -0.6054  1.8169  1.2800
 5124SOL    HW226835   1.342   0.101  11.975  1.9141  0.4758  2.7140
 5125SOL     OW26836   1.994   4.659   8.846  0.3390  0.7674  0.2219
 5125SOL    HW126837   1.940   4.675   8.923 -0.9151  0.6636 -0.6266
 5125SOL    HW226838   2.058   0.007   8.850  0.8256  0.3172  0.4756
 5126SOL     OW26839   1.414   2.426   6.146 -0.1631  0.0088 -0.4014
 5126SOL    HW126840   1.327   2.465   6.150 -1.2587 -2.3639 -1.0490
 5126SOL    HW226841   1.447   2.436   6.057  3.7405 -0.5071  1.0110
 5127SOL     OW26842   2.720   2.572  14.709  0.1822  0.0931  0.3477
 5127SOL    HW126843   2.726   2.642  14.773 -0.5855 -0.5373  1.1012
 5127SOL    HW226844   2.762   2.499  14.755  0.9611 -0.6102 -1.4472
 5128SOL     OW26845   2.705   3.700   7.468  0.5293 -0.2941  0.5254
 5128SOL    HW126846   2.749   3.749   7.399 -1.0426 -1.4041 -1.2681
 5128SOL    HW226847   2.768   3.715   7.539  2.5789 -0.2494 -1.3297
 5129SOL     OW26848   3.760   4.413  13.290  0.2341 -0.7854  0.5797
 5129SOL    HW126849   3.777   4.422  13.197 -0.7965  1.4546  0.6008
 5129SOL    HW226850   3.792   4.329  13.323  1.5423  0.0009  1.2898
 5130SOL     OW26851   0.527   0.984   0.011  0.4333 -0.5734 -0.2036
 5130SOL    HW126852   0.535   0.939  17.620  0.4744  0.0349 -0.5227
 5130SOL    HW226853   0.471   0.920   0.055  0.6041 -0.7801 -0.2850
 5131SOL     OW26854   2.876   3.173   0.620 -0.2942  0.3422 -0.6863
 5131SOL    HW126855   2.847   3.176   0.712 -2.3233 -0.6065 -1.2909
 5131SOL    HW226856   2.958   3.125   0.626 -0.5283  0.1812  1.2768
 5132SOL     OW26857   2.918   2.947   2.851  0.2443  0.4959 -0.3299
 5132SOL    HW126858   2.823   2.952   2.860  0.2067 -0.9592  0.0344
 5132SOL    HW226859   2.926   2.903   2.766 -0.4166  0.8279 -0.5738
 5133SOL     OW26860   0.044   3.761   5.677  0.0042 -0.5714  0.2546
 5133SOL    HW126861   0.017   3.711   5.600 -1.0105  1.8134 -0.9419
 5133SOL    HW226862   0.139   3.774   5.671 -0.0363 -1.1436 -1.6947
 5134SOL     OW26863   1.894   0.828   9.499  0.1022  0.0468 -0.3495
 5134SOL    HW126864   1.929   0.886   9.432  1.5020  2.0838  2.1224
 5134SOL    HW226865   1.876   0.750   9.446 -0.7037  0.7506 -1.1046
 5135SOL     OW26866   3.233   1.452   6.417  0.2367  0.1280 -0.2263
 5135SOL    HW126867   3.278   1.535   6.402  0.7242 -0.2587 -0.9296
 5135SOL    HW226868   3.287   1.423   6.490 -2.6247 -0.4758  1.6350
 5136SOL     OW26869   0.665   0.945   8.210  0.2097 -0.4745  0.6594
 5136SOL    HW126870   0.579   0.925   8.174  0.8869 -0.3861 -0.9830
 5136SOL    HW226871   0.722   0.952   8.134  1.4651 -2.4442  1.4105
 5137SOL     OW26872   1.404   0.940   9.968 -0.3150  1.0090  0.6462
 5137SOL    HW126873   1.448   0.873   9.915 -1.5756 -1.3858  2.6231
 5137SOL    HW226874   1.427   0.919  10.059 -1.3273  0.3392  0.7441
 5138SOL     OW26875   3.181   4.104  11.508  0.3097 -0.1776  0.0973
 5138SOL    HW126876   3.193   4.119  11.414 -1.7549  0.5106 -0.0601
 5138SOL    HW226877   3.217   4.017  11.526  0.6601  0.3903  2.1167
 5139SOL     OW26878   0.415   4.541   3.198 -0.0035 -0.1738  0.0051
 5139SOL    HW126879   0.409   4.635   3.215 -0.2926 -0.3314  0.7840
 5139SOL    HW226880   0.481   4.516   3.263 -0.5872  0.8714  1.0085
 5140SOL     OW26881   0.138   1.327   3.167  0.7027  0.0303 -0.4745
 5140SOL    HW126882   0.201   1.386   3.125 -1.4938  1.7654 -1.2996
 5140SOL    HW226883   0.063   1.387   3.174  0.1578 -0.6802 -0.2468
 5141SOL     OW26884   2.820   3.730   5.351  0.4403 -0.1601  0.1536
 5141SOL    HW126885   2.770   3.798   5.307  2.1796  2.1203  1.6609
 5141SOL    HW226886   2.815   3.655   5.292  0.7810  0.9859 -1.3454
 5142SOL     OW26887   0.777   1.166   7.430  0.0676  0.4571  0.5573
 5142SOL    HW126888   0.789   1.248   7.382 -0.9415 -1.2269 -2.5506
 5142SOL    HW226889   0.852   1.113   7.402  0.2630  0.7430  0.5490
 5143SOL     OW26890   3.525   2.922   3.359 -0.0437 -0.5071  0.0609
 5143SOL    HW126891   3.618   2.923   3.382 -0.2174  0.1839  0.7202
 5143SOL    HW226892   3.516   3.017   3.350  1.2075 -0.3704  0.1974
 5144SOL     OW26893   3.739   2.729   8.084  0.2948 -0.1039 -0.3603
 5144SOL    HW126894   3.708   2.785   8.155 -0.6542 -0.4563 -0.4868
 5144SOL    HW226895   3.658   2.678   8.074  0.2623 -0.5342  2.0542
 5145SOL     OW26896   3.192   0.255  12.066  0.1695 -0.3853  0.5752
 5145SOL    HW126897   3.103   0.224  12.052 -0.1851  2.4386 -3.6207
 5145SOL    HW226898   3.190   0.350  12.052  1.6621 -0.7807 -2.4157
 5146SOL     OW26899   2.102   2.552   7.422 -0.5224 -0.1673  0.6386
 5146SOL    HW126900   2.146   2.622   7.373 -1.7104  0.3561  0.3213
 5146SOL    HW226901   2.151   2.559   7.504 -0.7640 -3.5278  1.0471
 5147SOL     OW26902   2.558   4.442   5.901 -0.9695 -0.2552  0.3530
 5147SOL    HW126903   2.482   4.486   5.940  0.3482  0.9372  1.6364
 5147SOL    HW226904   2.539   4.448   5.808 -0.5804 -1.2233  0.2190
 5148SOL     OW26905   2.565   4.443  12.044  0.2350 -0.5138  0.3304
 5148SOL    HW126906   2.540   4.383  12.114  4.1343 -0.5850  1.6319
 5148SOL    HW226907   2.480   4.449  11.999 -0.5457  1.8281  2.1414
 5149SOL     OW26908   4.002   0.647   9.029  0.0350  0.7606 -0.2186
 5149SOL    HW126909   3.918   0.656   8.985 -0.3326  1.1421  0.5613
 5149SOL    HW226910   3.984   0.708   9.101  1.6993  1.3540 -0.3086
 5150SOL     OW26911   2.641   0.244   2.166  0.2148  0.0487  0.1226
 5150SOL    HW126912   2.679   0.195   2.093 -2.0517  0.0936 -1.0834
 5150SOL    HW226913   2.623   0.327   2.121 -1.3113 -0.7599 -0.7651
 5151SOL     OW26914   3.493   3.648   2.267 -0.0400 -0.1885 -0.2534
 5151SOL    HW126915   3.564   3.617   2.323  2.8598 -0.5814 -4.1431
 5151SOL    HW226916   3.441   3.700   2.328 -0.0210  0.9197 -1.1903
 5152SOL     OW26917   3.334   1.745   8.464 -0.5642 -0.0407  0.0813
 5152SOL    HW126918   3.328   1.841   8.460  1.9142  0.2186  1.7864
 5152SOL    HW226919   3.409   1.731   8.406 -0.1619 -1.4914  0.9287
 5153SOL     OW26920   0.411   0.223  10.535 -0.1076  0.9935  0.4776
 5153SOL    HW126921   0.323   0.221  10.496  0.0141  0.7932  0.2175
 5153SOL    HW226922   0.446   0.171  10.463 -0.0502  0.1518  1.1139
 5154SOL     OW26923   3.243   4.154   9.719  0.0470 -0.0184 -0.3434
 5154SOL    HW126924   3.302   4.124   9.650 -0.2684  0.9340 -1.0308
 5154SOL    HW226925   3.170   4.193   9.670 -1.0600 -2.7088 -0.8483
 5155SOL     OW26926   1.698   0.597   3.658 -0.9346  0.0657 -0.1428
 5155SOL    HW126927   1.635   0.666   3.678 -1.3542 -0.5265  0.5937
 5155SOL    HW226928   1.644   0.529   3.699 -0.8153  0.2140  0.2640
 5156SOL     OW26929   2.231   1.021   6.481  0.6597  0.1032 -0.1462
 5156SOL    HW126930   2.286   1.070   6.542  0.8929 -0.3333 -0.0084
 5156SOL    HW226931   2.276   1.017   6.396 -0.5534 -1.1556 -0.7216
 5157SOL     OW26932   4.658   3.552   5.942 -0.2236 -0.1653  0.3389
 5157SOL    HW126933   4.625   3.637   5.910  0.4104  0.2248  0.7210
 5157SOL    HW226934   4.585   3.495   5.918  0.4970 -0.2342 -1.7146
 5158SOL     OW26935   2.420   2.912   4.418 -0.1687  0.1497 -0.1153
 5158SOL    HW126936   2.342   2.953   4.455  1.0361  1.3859  1.0565
 5158SOL    HW226937   2.463   2.917   4.503  0.6395 -0.3319 -0.4881
 5159SOL     OW26938   4.032   2.905   8.253  0.1297  0.2557 -0.5303
 5159SOL    HW126939   3.958   2.963   8.274 -0.8605 -2.1661  2.6945
 5159SOL    HW226940   3.990   2.846   8.191  1.0766  0.7395 -1.6348
 5160SOL     OW26941   1.138   1.668   1.927  0.1922 -0.7692 -0.1164
 5160SOL    HW126942   1.125   1.744   1.869  0.3423  0.2840  1.2212
 5160SOL    HW226943   1.053   1.625   1.918 -1.2144  2.1741 -0.8235
 5161SOL     OW26944   0.041   2.986   5.338  0.1213  0.0886  0.2147
 5161SOL    HW126945   0.058   3.046   5.410  3.2948 -0.2288 -0.2807
 5161SOL    HW226946   0.120   2.932   5.333  1.8677  2.9395 -2.7949
 5162SOL     OW26947   3.934   0.066   4.615 -0.4618 -0.3431 -0.3847
 5162SOL    HW126948   3.950   0.159   4.603  1.2378 -0.4595  0.9578
 5162SOL    HW226949   3.838   0.061   4.617 -0.4728 -0.5652 -1.9932
 5163SOL     OW26950   0.207   0.487   2.259 -0.0025 -0.2423 -0.1834
 5163SOL    HW126951   0.140   0.474   2.193  0.7235  0.3169 -1.0229
 5163SOL    HW226952   0.221   0.404   2.305 -1.5844 -0.9647 -1.0190
 5164SOL     OW26953   3.044   3.685   1.780  0.0368 -0.0388  0.3665
 5164SOL    HW126954   3.054   3.765   1.729 -0.5845 -2.1612 -3.0746
 5164SOL    HW226955   2.966   3.652   1.736 -0.0976 -0.7272  1.1323
 5165SOL     OW26956   2.502   0.193   7.603  0.3121 -0.0845 -0.0648
 5165SOL    HW126957   2.519   0.101   7.584 -1.4055 -0.4416  0.1467
 5165SOL    HW226958   2.569   0.218   7.667  0.9236  1.9460 -1.5110
 5166SOL     OW26959   4.338   2.686   5.986 -0.3436  0.2727 -0.1064
 5166SOL    HW126960   4.283   2.611   5.963  0.0743 -0.0390 -0.0891
 5166SOL    HW226961   4.323   2.702   6.079  0.5852  0.6614 -0.0255
 5167SOL     OW26962   1.352   3.058   6.317 -0.4449  0.6907  0.0940
 5167SOL    HW126963   1.344   3.116   6.241 -1.4779  0.9796  0.4098
 5167SOL    HW226964   1.320   3.118   6.385 -1.9387  1.8137 -1.5967
 5168SOL     OW26965   2.129   2.446   2.937 -0.1457  0.2724  0.0502
 5168SOL    HW126966   2.086   2.379   2.885 -0.3047  3.1716 -3.5534
 5168SOL    HW226967   2.133   2.522   2.879  0.1203 -0.4961 -0.9194
 5169SOL     OW26968   0.311   2.557   6.502 -0.2745  0.2403 -0.5239
 5169SOL    HW126969   0.273   2.645   6.498 -1.7278 -0.3231  0.8903
 5169SOL    HW226970   0.229   2.512   6.482  0.0256 -0.7048  0.3736
 5170SOL     OW26971   1.329   2.644   7.324 -0.1525  0.2835 -0.0256
 5170SOL    HW126972   1.248   2.691   7.305 -0.0052  0.6559  0.2626
 5170SOL    HW226973   1.364   2.629   7.237  0.7072 -2.8582  0.8756
 5171SOL     OW26974   2.959   3.930   4.180 -0.6420 -0.7959 -0.2023
 5171SOL    HW126975   2.895   3.924   4.109 -0.6278 -1.9491 -0.1190
 5171SOL    HW226976   2.938   4.015   4.219  2.0764 -0.5473  0.7202
 5172SOL     OW26977   3.825   1.221   4.717 -0.6458 -0.8201  0.2901
 5172SOL    HW126978   3.830   1.312   4.745 -1.7996 -1.1401  1.5383
 5172SOL    HW226979   3.838   1.237   4.623 -0.1797  0.0307  0.5059
 5173SOL     OW26980   3.386   0.778   1.411 -0.2636  0.5197  0.1845
 5173SOL    HW126981   3.350   0.852   1.361 -0.3140  0.6719  0.4477
 5173SOL    HW226982   3.313   0.716   1.406  1.1637 -1.1320 -0.1960
 5174SOL     OW26983   1.139   0.095   6.805  0.0012  0.2294 -0.3915
 5174SOL    HW126984   1.233   0.111   6.815 -0.3608  1.4256  1.1266
 5174SOL    HW226985   1.124   0.041   6.883  0.5674 -1.5493 -1.5049
 5175SOL     OW26986   0.231   2.938   7.524  0.3743 -0.3831 -0.6113
 5175SOL    HW126987   0.235   2.886   7.604  0.4286  0.4609 -0.0675
 5175SOL    HW226988   0.138   2.940   7.504 -0.2772  0.5336  2.5638
 5176SOL     OW26989   4.017   4.223   5.611  0.0787 -0.3512 -0.1524
 5176SOL    HW126990   3.986   4.186   5.529 -0.9424  0.4088 -0.1054
 5176SOL    HW226991   4.110   4.204   5.607  0.5739  1.3399  3.0640
 5177SOL     OW26992   1.084   3.172   7.089  0.0739 -0.8669 -0.6460
 5177SOL    HW126993   1.052   3.247   7.038  1.4066 -0.2462 -0.5755
 5177SOL    HW226994   1.049   3.170   7.178  2.1183 -1.2945  0.1493
 5178SOL     OW26995   3.506   1.920   3.624 -0.2887 -0.2977  0.3369
 5178SOL    HW126996   3.463   1.837   3.602 -1.4642  0.6497 -0.9656
 5178SOL    HW226997   3.587   1.891   3.666 -0.2416  0.2991  0.6507
 5179SOL     OW26998   3.142   3.702   2.040 -0.3567  0.1655 -0.1480
 5179SOL    HW126999   3.183   3.620   2.067 -1.1650  0.8893  3.2873
 5179SOL    HW227000   3.132   3.692   1.946 -2.6264  0.4616  0.0648
 5180SOL     OW27001   4.399   1.064   8.528  0.3380  0.3062 -0.5509
 5180SOL    HW127002   4.333   0.999   8.555  0.3076 -0.4102 -2.2775
 5180SOL    HW227003   4.470   1.037   8.585  1.0849  0.7191 -1.2863
 5181SOL     OW27004   3.863   0.192   6.164  0.4748 -0.5034 -0.2615
 5181SOL    HW127005   3.917   0.178   6.242  0.1285  0.4357  0.1583
 5181SOL    HW227006   3.819   0.277   6.176 -0.0548 -0.7183 -0.7209
 5182SOL     OW27007   0.020   0.734   7.450  0.0196  0.2576  0.3266
 5182SOL    HW127008   0.090   0.680   7.414 -1.3631  0.3459 -2.5099
 5182SOL    HW227009   0.071   0.815   7.444  1.7995 -0.8658  0.2797
 5183SOL     OW27010   3.780   4.256   7.340  0.3892 -0.1347  0.9620
 5183SOL    HW127011   3.696   4.300   7.352 -0.3162 -0.5912 -2.3056
 5183SOL    HW227012   3.830   4.306   7.405 -0.5131 -0.1761  1.7045
 5184SOL     OW27013   2.276   2.930   1.945 -0.3578 -0.1092  0.4201
 5184SOL    HW127014   2.370   2.936   1.964 -0.5502 -1.1630  1.6796
 5184SOL    HW227015   2.280   2.848   1.897  0.6585 -0.5811  1.2948
 5185SOL     OW27016   4.307   3.979  10.984 -0.7102  0.8916 -0.0284
 5185SOL    HW127017   4.324   3.959  10.892 -2.4902  3.2723 -0.8861
 5185SOL    HW227018   4.392   3.969  11.026 -1.0641 -0.6181  0.3151
 5186SOL     OW27019   0.003   3.697  14.423  0.1126  0.1135  0.1291
 5186SOL    HW127020   4.669   3.621  14.422 -1.2800  1.1421  1.7328
 5186SOL    HW227021   0.043   3.680  14.337  0.9402 -0.2004  0.5765
 5187SOL     OW27022   3.132   1.801   6.880  0.1674 -0.1143  0.0355
 5187SOL    HW127023   3.061   1.817   6.942 -1.5542 -0.7411 -1.7884
 5187SOL    HW227024   3.178   1.721   6.905  0.7257  0.1503 -0.1379
 5188SOL     OW27025   3.431   2.424  10.788 -0.3485 -0.4886 -0.4418
 5188SOL    HW127026   3.434   2.458  10.877 -1.6193  1.1317 -1.0060
 5188SOL    HW227027   3.385   2.495  10.742  0.6027  0.8275  0.6353
 5189SOL     OW27028   4.379   2.981  10.110  0.2017  0.0552  0.0130
 5189SOL    HW127029   4.413   3.070  10.106  0.4036  0.0338  1.3414
 5189SOL    HW227030   4.446   2.934  10.059  1.0663  0.2754  0.9641
 5190SOL     OW27031   4.136   0.180   7.136  0.0474 -0.2771 -0.4447
 5190SOL    HW127032   4.209   0.129   7.169  1.3754  1.5208 -0.5927
 5190SOL    HW227033   4.142   0.162   7.042  0.8528 -0.6201 -0.3169
 5191SOL     OW27034   0.234   3.561   5.089 -0.2119 -0.0352  0.2570
 5191SOL    HW127035   0.305   3.624   5.080 -0.5878  0.2148 -0.8592
 5191SOL    HW227036   0.273   3.515   5.164 -1.5575  0.2419  1.1322
 5192SOL     OW27037   2.277   1.232   4.922  0.1991  0.2032 -0.2583
 5192SOL    HW127038   2.217   1.197   4.987 -0.9405  2.6450 -0.0302
 5192SOL    HW227039   2.330   1.298   4.967  0.2122  0.3015 -0.4189
 5193SOL     OW27040   2.654   1.764   1.177  0.4342 -0.0658 -0.8843
 5193SOL    HW127041   2.693   1.803   1.255  0.2391 -0.7347 -0.4507
 5193SOL    HW227042   2.575   1.818   1.176 -0.2151 -0.9029  2.9247
 5194SOL     OW27043   3.742   0.769  16.543 -0.0608  0.0698 -0.1837
 5194SOL    HW127044   3.711   0.851  16.581 -0.1416 -0.4528  0.8636
 5194SOL    HW227045   3.822   0.756  16.593 -1.1289  1.3942  1.8789
 5195SOL     OW27046   1.830   3.888  13.027 -0.1548  0.0040 -0.3628
 5195SOL    HW127047   1.817   3.815  13.088 -0.5927 -0.5710 -1.1474
 5195SOL    HW227048   1.863   3.961  13.080 -1.5382  0.1045  0.3724
 5196SOL     OW27049   3.672   2.917   9.177 -0.2148  0.1620  0.6315
 5196SOL    HW127050   3.714   3.003   9.176 -0.6089  0.3784  2.8383
 5196SOL    HW227051   3.742   2.867   9.135  1.8453  1.6129  2.3240
 5197SOL     OW27052   3.315   1.024   3.760 -0.4919  0.5755 -0.3651
 5197SOL    HW127053   3.268   0.947   3.729  3.0894 -1.0652 -1.7452
 5197SOL    HW227054   3.330   1.073   3.679  1.6740 -0.4153 -0.5547
 5198SOL     OW27055   0.706   2.077   3.999  0.4556  0.1510 -0.2291
 5198SOL    HW127056   0.721   1.983   3.999  0.1020  0.0914 -0.5573
 5198SOL    HW227057   0.666   2.089   3.913 -0.4661  0.5150  0.2544
 5199SOL     OW27058   2.269   4.552   9.036 -0.3257  0.1861  0.3735
 5199SOL    HW127059   2.226   4.486   9.089  0.5461 -0.7428 -0.0772
 5199SOL    HW227060   2.275   4.510   8.950  0.7234  0.6000  0.2355
 5200SOL     OW27061   0.960   2.668   8.847 -0.0103 -0.0016 -0.1569
 5200SOL    HW127062   1.055   2.665   8.841 -0.0285 -1.4299  0.3913
 5200SOL    HW227063   0.934   2.599   8.785  1.6456 -0.5710 -0.2129
 5201SOL     OW27064   1.528   0.037  10.934 -0.3638  0.3057  0.2591
 5201SOL    HW127065   1.444   4.719  10.956 -0.8667  0.5493 -1.1797
 5201SOL    HW227066   1.557   0.070  11.019  0.5722 -0.8882  0.3957
 5202SOL     OW27067   3.139   0.473  15.593 -0.2572 -0.2111 -0.2889
 5202SOL    HW127068   3.187   0.552  15.618 -0.7619  0.0336 -0.0978
 5202SOL    HW227069   3.213   0.412  15.588  1.9651  2.4964 -0.4090
 5203SOL     OW27070   1.008   3.717   4.762 -0.7895 -0.3955 -0.3537
 5203SOL    HW127071   1.018   3.736   4.669  0.4889  0.9308  0.0582
 5203SOL    HW227072   1.100   3.695   4.777 -0.8884 -1.0027 -0.6833
 5204SOL     OW27073   4.330   0.333   7.801  0.9733 -0.4230  0.1214
 5204SOL    HW127074   4.391   0.347   7.874 -1.2497  0.3998  1.8443
 5204SOL    HW227075   4.253   0.378   7.835  2.0279  0.5744  1.1725
 5205SOL     OW27076   0.655   3.573   3.299 -0.6651 -0.2376 -0.1873
 5205SOL    HW127077   0.712   3.517   3.247  0.3743  1.3982 -0.8334
 5205SOL    HW227078   0.600   3.507   3.340  0.1084 -0.5596  0.3278
 5206SOL     OW27079   4.064   1.791   7.340  0.0407  0.3150  0.3081
 5206SOL    HW127080   4.026   1.845   7.270  0.6129  0.0089 -0.2399
 5206SOL    HW227081   3.985   1.765   7.388 -0.2054  0.1665 -0.1778
 5207SOL     OW27082   3.888   0.423  12.195 -0.4450  0.1720  0.0268
 5207SOL    HW127083   3.882   0.328  12.182  1.2600 -0.2499  2.4577
 5207SOL    HW227084   3.965   0.447  12.143 -0.3395  2.1414  1.1084
 5208SOL     OW27085   4.341   3.423   6.171  0.3825 -0.8395 -0.4289
 5208SOL    HW127086   4.362   3.340   6.213 -0.1577 -0.5455  0.4266
 5208SOL    HW227087   4.315   3.383   6.087 -2.0998 -0.5223  0.1826
 5209SOL     OW27088   0.467   2.143  12.524 -0.0082 -0.0149  0.2258
 5209SOL    HW127089   0.537   2.208  12.522  0.7950 -0.8830  0.2196
 5209SOL    HW227090   0.444   2.144  12.617  0.1742 -0.7242  0.2719
 5210SOL     OW27091   2.950   2.315   4.878  0.4633  0.2335 -0.0723
 5210SOL    HW127092   2.949   2.268   4.794  1.7501  1.6241 -0.8679
 5210SOL    HW227093   2.940   2.250   4.947  0.2640 -1.7830 -1.9862
 5211SOL     OW27094   1.867   1.676  11.899  0.1770 -0.3802  0.2596
 5211SOL    HW127095   1.892   1.605  11.958 -2.7164 -1.9288 -0.3771
 5211SOL    HW227096   1.836   1.631  11.821 -2.5678  1.7555  0.1397
 5212SOL     OW27097   1.377   0.804   8.212 -0.1558  0.1341 -0.2429
 5212SOL    HW127098   1.384   0.841   8.125  0.0645  0.9031  0.1077
 5212SOL    HW227099   1.459   0.756   8.220 -1.7945 -2.5746  0.5026
 5213SOL     OW27100   1.229   0.564  11.906 -0.3901  0.2565 -0.6506
 5213SOL    HW127101   1.178   0.635  11.945 -0.7760  0.3853 -1.3833
 5213SOL    HW227102   1.182   0.498  11.956  1.6517 -0.7735 -0.0808
 5214SOL     OW27103   1.159   3.344  17.099  0.5282 -0.0215 -0.2839
 5214SOL    HW127104   1.182   3.297  17.019 -1.2922 -1.0686 -0.1904
 5214SOL    HW227105   1.067   3.317  17.100  0.8502 -1.0292  1.2885
 5215SOL     OW27106   3.020   4.366   7.339  0.3312 -0.0016  0.3163
 5215SOL    HW127107   3.011   4.401   7.251  1.3166  1.2957  0.7342
 5215SOL    HW227108   3.029   4.271   7.326  0.9375  0.1920 -0.6243
 5216SOL     OW27109   4.113   1.543   3.016 -0.0735  0.1808 -0.4355
 5216SOL    HW127110   4.124   1.516   2.925 -2.1369 -2.5672  0.1577
 5216SOL    HW227111   4.049   1.615   3.018  1.8290  1.8430 -0.2071
 5217SOL     OW27112   2.221   3.506  16.027  0.6264  0.1847  0.7890
 5217SOL    HW127113   2.305   3.533  15.989 -0.6811  3.0166 -0.1189
 5217SOL    HW227114   2.235   3.413  16.041 -3.4267 -0.5449 -0.0259
 5218SOL     OW27115   3.984   1.526  13.236  0.0786  0.0656  0.1726
 5218SOL    HW127116   3.929   1.586  13.186  0.1511 -0.7890 -0.9126
 5218SOL    HW227117   4.058   1.522  13.176 -1.4971 -2.1160 -1.6172
 5219SOL     OW27118   1.735   3.173   7.178  0.0784  0.0057 -0.1863
 5219SOL    HW127119   1.828   3.173   7.200  0.4839  0.0719 -1.9056
 5219SOL    HW227120   1.693   3.173   7.264 -2.0207  0.2223 -1.2050
 5220SOL     OW27121   2.222   3.166  14.670 -0.2447  0.0314  0.4935
 5220SOL    HW127122   2.317   3.158  14.679 -0.1617  0.6123  0.0823
 5220SOL    HW227123   2.196   3.113  14.746  1.0276 -3.1440 -1.2757
 5221SOL     OW27124   4.335   3.635   1.009  0.3482  0.1010 -0.3038
 5221SOL    HW127125   4.422   3.611   0.976  0.9977 -0.4525  1.8368
 5221SOL    HW227126   4.339   3.730   1.024  2.7809 -0.0579  0.1353
 5222SOL     OW27127   1.603   3.359   1.576  0.1993  0.8161  0.6250
 5222SOL    HW127128   1.593   3.450   1.548  0.2288  0.8683  0.7870
 5222SOL    HW227129   1.612   3.374   1.670 -4.0457  1.5629  0.9387
 5223SOL     OW27130   3.567   4.634   9.581 -0.3281 -0.2466  0.3481
 5223SOL    HW127131   3.528   4.601   9.500 -1.2167  1.4542  0.0612
 5223SOL    HW227132   3.652   4.590   9.580  0.5009  1.3611  0.0229
 5224SOL     OW27133   0.862   0.982   4.481 -0.6813 -0.1248 -0.2596
 5224SOL    HW127134   0.888   0.941   4.564 -0.0132  1.2687  0.2081
 5224SOL    HW227135   0.879   1.073   4.503 -0.2477 -0.3241  0.2194
 5225SOL     OW27136   4.517   1.984   5.486  0.2023  0.5445  0.2588
 5225SOL    HW127137   4.444   1.946   5.439  0.8162 -0.1406 -0.1487
 5225SOL    HW227138   4.482   2.032   5.561  1.0967  0.5961  0.6504
 5226SOL     OW27139   0.733   2.868   7.023 -0.5839  0.2879  0.6288
 5226SOL    HW127140   0.637   2.862   7.017 -0.3025 -2.2902 -1.2429
 5226SOL    HW227141   0.741   2.959   6.994  0.6466 -0.0873 -0.1814
 5227SOL     OW27142   1.789   3.678  17.299 -0.0558  0.6384 -0.0911
 5227SOL    HW127143   1.716   3.617  17.312  1.3355 -1.0273  0.0333
 5227SOL    HW227144   1.759   3.730  17.224 -2.0901  0.3211  0.5133
 5228SOL     OW27145   3.698   4.683   4.874  0.4443 -0.6076 -0.1942
 5228SOL    HW127146   3.756   4.679   4.950  1.9343  1.0465 -1.2363
 5228SOL    HW227147   3.692   4.594   4.842  0.1552 -0.3084 -0.9724
 5229SOL     OW27148   3.158   2.117   9.101 -0.0955  0.1728  0.0269
 5229SOL    HW127149   3.070   2.129   9.064 -1.0673 -1.0196  1.9485
 5229SOL    HW227150   3.164   2.171   9.180 -1.2591  1.4223 -0.7472
 5230SOL     OW27151   0.846   0.941  11.035  0.5540  0.6737 -0.4845
 5230SOL    HW127152   0.907   1.011  11.060 -0.7169  0.8162  2.2487
 5230SOL    HW227153   0.770   0.953  11.092  2.8257  1.9979  2.2601
 5231SOL     OW27154   4.253   1.891   5.392  0.5263 -0.1976 -0.9013
 5231SOL    HW127155   4.185   1.829   5.363  0.5331 -0.7800  0.3526
 5231SOL    HW227156   4.204   1.950   5.449  1.3935 -0.6283  0.2718
 5232SOL     OW27157   2.605   4.003   9.487  0.0918 -0.3761 -0.0613
 5232SOL    HW127158   2.512   4.012   9.505  0.2120 -0.2361  0.4965
 5232SOL    HW227159   2.619   3.957   9.570 -0.6506 -1.6021 -0.6088
 5233SOL     OW27160   4.315   3.631   2.860 -0.1989  0.0676  0.6061
 5233SOL    HW127161   4.404   3.659   2.879  0.2233 -0.2112 -1.0288
 5233SOL    HW227162   4.269   3.715   2.862  0.8664  0.7088 -2.4697
 5234SOL     OW27163   2.918   1.344  17.036  0.0972 -0.0442  0.0899
 5234SOL    HW127164   2.862   1.344  17.113  1.3941  0.4134  1.0381
 5234SOL    HW227165   2.976   1.274  17.067  1.7101  1.3775  0.2979
 5235SOL     OW27166   3.287   1.369   5.012 -0.5012 -0.0125 -1.0787
 5235SOL    HW127167   3.192   1.360   5.023 -0.4951  0.3473 -0.7247
 5235SOL    HW227168   3.303   1.403   5.100 -0.2824  1.1741 -1.5829
 5236SOL     OW27169   0.060   4.218   5.102 -0.5291  0.0531  0.5939
 5236SOL    HW127170   0.024   4.306   5.107  2.2850  1.1405  1.4161
 5236SOL    HW227171   0.081   4.192   5.191 -0.9589 -1.7937  0.1631
 5237SOL     OW27172   2.386   4.234   4.754  0.0758 -0.1115 -0.8552
 5237SOL    HW127173   2.430   4.197   4.677  2.6169  1.5704 -0.1946
 5237SOL    HW227174   2.455   4.283   4.798  1.5767 -0.5165 -2.7508
 5238SOL     OW27175   2.357   2.741   8.635  0.5487 -0.0423  0.3078
 5238SOL    HW127176   2.330   2.770   8.722 -1.4702  3.5910 -1.5224
 5238SOL    HW227177   2.405   2.823   8.622 -0.6500  0.6819  0.4174
 5239SOL     OW27178   4.021   1.829   5.801  0.0666 -0.8238  0.0285
 5239SOL    HW127179   4.113   1.802   5.804 -0.1192 -1.4223  0.4175
 5239SOL    HW227180   3.984   1.809   5.887  1.9589 -1.2364  0.7498
 5240SOL     OW27181   0.263   4.437   5.253 -0.0955  0.0324  0.0889
 5240SOL    HW127182   0.292   4.528   5.241 -1.1943  0.7220  2.7482
 5240SOL    HW227183   0.196   4.442   5.321  0.9051  1.0913  1.0059
 5241SOL     OW27184   2.570   0.173   5.058 -0.1948  0.2744  0.3174
 5241SOL    HW127185   2.644   0.139   5.107 -0.0123 -0.4769 -0.4729
 5241SOL    HW227186   2.597   0.253   5.013  0.0698  0.7850  1.3878
 5242SOL     OW27187   2.887   3.870   8.674  0.2877  0.1458  0.4088
 5242SOL    HW127188   2.887   3.805   8.604  2.4004  2.2866 -1.6127
 5242SOL    HW227189   2.878   3.803   8.741  0.7300  0.0062  0.3298
 5243SOL     OW27190   1.278   3.635   4.774  0.0191 -0.2601  0.0020
 5243SOL    HW127191   1.318   3.699   4.834  0.6936 -1.5549  0.9246
 5243SOL    HW227192   1.300   3.674   4.690 -1.5731  1.8560  0.5650
 5244SOL     OW27193   3.932   4.155  16.890 -0.1963  0.2265 -0.1177
 5244SOL    HW127194   3.989   4.153  16.813 -0.1938  1.4774 -0.1519
 5244SOL    HW227195   3.884   4.073  16.882  1.8543 -0.9789  0.0407
 5245SOL     OW27196   1.152   2.805   5.658  0.4774  0.3860  0.0252
 5245SOL    HW127197   1.219   2.819   5.725  0.8409  0.1654 -0.2929
 5245SOL    HW227198   1.202   2.746   5.602 -0.1635 -1.0137  0.9284
 5246SOL     OW27199   2.605   1.101  14.895 -1.0821  0.5706  0.4236
 5246SOL    HW127200   2.606   1.069  14.985  2.8033  0.3309  0.3300
 5246SOL    HW227201   2.523   1.150  14.898 -0.9792  0.8126 -0.5342
 5247SOL     OW27202   1.384   1.090  15.654 -0.2938  0.6287  0.3949
 5247SOL    HW127203   1.461   1.134  15.689 -1.0731  0.9716  1.6945
 5247SOL    HW227204   1.303   1.132  15.686  0.0557 -0.1080  2.2512
 5248SOL     OW27205   4.137   1.563   6.302 -0.0422  0.4941  0.2329
 5248SOL    HW127206   4.057   1.574   6.354 -0.5804  0.0207 -0.4772
 5248SOL    HW227207   4.102   1.501   6.238  1.6849  0.0334 -0.2399
 5249SOL     OW27208   1.535   4.054   6.899  0.1826  0.1812 -0.3735
 5249SOL    HW127209   1.542   4.006   6.981 -1.4272  0.2038 -0.2248
 5249SOL    HW227210   1.526   3.987   6.831  0.5565  0.0740 -0.3126
 5250SOL     OW27211   2.585   2.625   4.094 -0.2621 -0.3118 -0.4236
 5250SOL    HW127212   2.656   2.586   4.146 -0.5186  0.5697  0.5777
 5250SOL    HW227213   2.630   2.656   4.016 -0.1933 -0.1140 -0.3052
 5251SOL     OW27214   1.149   1.918   2.940  0.3758 -0.2770 -0.2422
 5251SOL    HW127215   1.084   1.918   3.011 -0.9902 -1.5171 -1.5068
 5251SOL    HW227216   1.087   1.924   2.868  0.2763 -1.3832 -0.2549
 5252SOL     OW27217   3.758   3.886  11.134 -0.0383 -0.4454  0.0274
 5252SOL    HW127218   3.726   3.893  11.044 -1.5765 -1.0369  0.5166
 5252SOL    HW227219   3.672   3.866  11.173 -0.2900  0.1329 -0.2275
 5253SOL     OW27220   1.684   3.173   8.562 -0.7477 -0.0997  0.1498
 5253SOL    HW127221   1.599   3.175   8.606 -0.0435  1.0800  1.4753
 5253SOL    HW227222   1.650   3.142   8.478  0.6680  1.0303 -0.8476
 5254SOL     OW27223   1.417   3.489   6.163 -0.3774 -0.2762 -0.0270
 5254SOL    HW127224   1.447   3.538   6.087 -1.6517 -0.2270 -0.5064
 5254SOL    HW227225   1.413   3.557   6.230  0.3880  0.1212 -0.3907
 5255SOL     OW27226   4.091   0.244   5.294  0.0113 -0.2271  0.0933
 5255SOL    HW127227   4.089   0.311   5.363  1.7649  1.8544 -1.8814
 5255SOL    HW227228   4.161   0.184   5.319 -0.4074 -0.8510 -0.2313
 5256SOL     OW27229   0.538   2.824  15.281 -0.1992  0.3271 -0.0531
 5256SOL    HW127230   0.562   2.903  15.232 -0.8533 -0.8814 -2.3292
 5256SOL    HW227231   0.446   2.809  15.260  0.0597 -0.0146 -0.9557
 5257SOL     OW27232   1.540   1.141   5.215  0.2607 -0.1904 -0.5586
 5257SOL    HW127233   1.451   1.173   5.205 -0.0861 -1.0537 -0.2796
 5257SOL    HW227234   1.526   1.076   5.284 -1.0301  1.2768  0.5349
 5258SOL     OW27235   2.342   2.245  16.343 -0.6177 -0.1706 -0.0147
 5258SOL    HW127236   2.342   2.172  16.281  1.4049 -1.1655  1.1684
 5258SOL    HW227237   2.422   2.292  16.319 -0.3643 -1.1077 -1.0043
 5259SOL     OW27238   2.691   2.894   4.345 -0.0093  0.1864 -0.3978
 5259SOL    HW127239   2.673   2.829   4.413  1.9214  0.8794  0.8002
 5259SOL    HW227240   2.625   2.868   4.281  0.6504 -1.7344 -0.2957
 5260SOL     OW27241   3.708   0.205  12.769 -0.1249 -0.4552 -0.0603
 5260SOL    HW127242   3.715   0.230  12.677 -0.1800 -1.5254 -0.3532
 5260SOL    HW227243   3.768   0.272  12.801 -1.1930  1.8648 -2.9083
 5261SOL     OW27244   1.515   3.218  13.041 -0.5671  0.0107 -0.8462
 5261SOL    HW127245   1.455   3.230  12.966 -2.7786  0.9700  1.0792
 5261SOL    HW227246   1.600   3.233  12.999  0.4452 -1.2076  0.7755
 5262SOL     OW27247   4.382   0.265   5.394 -0.9765 -0.1868 -0.1000
 5262SOL    HW127248   4.419   0.280   5.307  3.3495 -0.0738  1.7229
 5262SOL    HW227249   4.389   0.170   5.406  1.8891 -0.0038 -0.1972
 5263SOL     OW27250   0.543   2.067  10.665  0.1632  0.2288  0.0245
 5263SOL    HW127251   0.574   1.989  10.712 -1.4740 -0.3123  0.2191
 5263SOL    HW227252   0.574   2.057  10.575  0.7986 -0.2423  0.2901
 5264SOL     OW27253   3.487   1.944  15.121  0.2065  0.3114  0.2744
 5264SOL    HW127254   3.406   1.987  15.148 -1.5820 -1.8149 -1.6833
 5264SOL    HW227255   3.465   1.856  15.092 -4.2774  1.4369  0.2321
 5265SOL     OW27256   0.596   0.847   2.579  0.4029  0.0279 -0.1629
 5265SOL    HW127257   0.582   0.754   2.597 -1.2299  0.5663  1.3582
 5265SOL    HW227258   0.637   0.845   2.493 -0.0557 -4.3788 -0.2917
 5266SOL     OW27259   4.656   0.727   5.205 -0.4207  0.2254 -0.2320
 5266SOL    HW127260   4.702   0.782   5.141 -0.6586 -1.3239 -1.7558
 5266SOL    HW227261   4.612   0.670   5.142 -1.0744 -1.4504  1.7329
 5267SOL     OW27262   1.591   1.464   2.593  0.2495  0.5822  0.3708
 5267SOL    HW127263   1.618   1.373   2.582  2.0756  0.7569  3.6744
 5267SOL    HW227264   1.506   1.466   2.548  1.4890 -0.9954 -2.0596
 5268SOL     OW27265   2.138   0.848  14.177 -0.6281 -0.2953 -0.5287
 5268SOL    HW127266   2.163   0.941  14.183 -0.5018 -0.3906  0.3415
 5268SOL    HW227267   2.216   0.812  14.219  1.1687  2.0322 -1.8006
 5269SOL     OW27268   2.202   2.241   6.561  0.4026  0.4352 -0.4368
 5269SOL    HW127269   2.151   2.288   6.628 -1.3320 -0.1142 -1.3780
 5269SOL    HW227270   2.170   2.296   6.490  0.8324 -0.3441 -1.2203
 5270SOL     OW27271   0.382   1.910   7.992  0.5372 -0.6905  0.1168
 5270SOL    HW127272   0.355   1.861   8.069 -0.3561  0.6384  0.6670
 5270SOL    HW227273   0.294   1.947   7.995  0.3023 -1.2482  0.0861
 5271SOL     OW27274   1.810   0.559   9.403  0.0725  0.6693 -0.1857
 5271SOL    HW127275   1.741   0.574   9.468  0.3347  0.5884  0.1091
 5271SOL    HW227276   1.773   0.557   9.315  0.6732  2.1337 -0.4774
 5272SOL     OW27277   2.825   3.906   3.947 -0.9170 -0.0391 -0.5131
 5272SOL    HW127278   2.895   3.864   3.898  0.5948  0.4370  1.2241
 5272SOL    HW227279   2.804   3.991   3.910  4.1062  1.7509  0.6902
 5273SOL     OW27280   1.417   3.483  14.756  0.4409 -0.8139  0.2068
 5273SOL    HW127281   1.508   3.515  14.760 -0.0236  0.3191  1.7501
 5273SOL    HW227282   1.375   3.526  14.830  0.9301 -0.9844  0.5828
 5274SOL     OW27283   1.093   3.679   4.102 -0.3649  0.0627  0.3178
 5274SOL    HW127284   1.089   3.642   4.190 -1.1636 -0.0590  0.2314
 5274SOL    HW227285   1.041   3.613   4.056 -0.5715  1.5944 -1.6445
 5275SOL     OW27286   1.976   0.887  11.178 -0.3210  0.3780 -0.0412
 5275SOL    HW127287   2.060   0.893  11.133 -0.7495  1.4312 -0.7154
 5275SOL    HW227288   1.972   0.801  11.219  2.0920  1.7364  3.0283
 5276SOL     OW27289   4.054   2.664   1.690  0.1148 -0.0988 -0.2802
 5276SOL    HW127290   4.030   2.626   1.606  0.5248  0.2559 -0.5580
 5276SOL    HW227291   3.991   2.611   1.738  0.2658 -1.8848 -2.0724
 5277SOL     OW27292   3.493   1.189   5.115  0.3989  0.3432  0.2813
 5277SOL    HW127293   3.438   1.228   5.048 -0.1225  0.6036  0.8729
 5277SOL    HW227294   3.497   1.096   5.092 -0.8129 -0.5647  3.7878
 5278SOL     OW27295   1.757   3.265   5.131 -0.5688 -0.1112 -0.3040
 5278SOL    HW127296   1.711   3.181   5.140  2.5143 -1.4671  3.1549
 5278SOL    HW227297   1.685   3.325   5.152  0.0331  0.5503 -0.1288
 5279SOL     OW27298   1.221   4.688   0.816 -0.0133 -0.2306 -0.0357
 5279SOL    HW127299   1.217   4.652   0.728  0.9620 -2.2931  0.7624
 5279SOL    HW227300   1.309   4.671   0.850 -0.5961  0.1363  1.6577
 5280SOL     OW27301   4.192   2.700   2.177  0.3150 -0.1012  0.0584
 5280SOL    HW127302   4.182   2.626   2.117  0.8900  2.3307 -3.0294
 5280SOL    HW227303   4.140   2.768   2.132 -0.4637 -0.4068  0.4949
 5281SOL     OW27304   3.430   3.361   4.091  0.2786  0.1284  0.1393
 5281SOL    HW127305   3.387   3.446   4.092  0.9161  0.4467  0.5094
 5281SOL    HW227306   3.502   3.382   4.151 -0.4747 -0.8845  1.4081
 5282SOL     OW27307   2.033   2.848   1.982  0.0040 -0.2785 -0.0405
 5282SOL    HW127308   1.982   2.921   2.017 -0.3596  0.4805 -2.2009
 5282SOL    HW227309   2.111   2.896   1.957 -0.2423 -0.0686 -0.4011
 5283SOL     OW27310   4.555   2.882  15.285 -0.4613 -1.2673  0.1205
 5283SOL    HW127311   4.619   2.827  15.330 -1.6354 -2.6937  0.0066
 5283SOL    HW227312   4.608   2.916  15.212  0.9902 -0.7678  1.3949
 5284SOL     OW27313   1.807   0.372   6.250  0.3589 -0.1666 -0.0087
 5284SOL    HW127314   1.733   0.382   6.309 -0.7142 -2.1904 -0.9985
 5284SOL    HW227315   1.867   0.439   6.282 -0.5214  1.1469 -1.0923
 5285SOL     OW27316   4.087   2.904   3.770  0.7509  0.6756 -0.5601
 5285SOL    HW127317   4.047   2.988   3.746  0.2287  0.6358  0.1723
 5285SOL    HW227318   4.158   2.904   3.705  0.5486  1.6131 -0.7831
 5286SOL     OW27319   3.355   3.487   1.917 -0.6178 -0.2093 -0.1067
 5286SOL    HW127320   3.421   3.422   1.892  0.2803  1.1709 -1.3597
 5286SOL    HW227321   3.325   3.455   2.002 -0.0419  0.3940  0.3206
 5287SOL     OW27322   2.108   3.427   9.695  0.1358 -0.3314 -0.2358
 5287SOL    HW127323   2.157   3.501   9.730 -0.4813  0.5112 -1.1229
 5287SOL    HW227324   2.028   3.430   9.747  0.1512  2.5880 -0.3361
 5288SOL     OW27325   3.731   2.597   3.982 -0.4668 -0.0855 -0.0119
 5288SOL    HW127326   3.717   2.684   4.019 -0.1122  0.2341 -0.6321
 5288SOL    HW227327   3.743   2.629   3.893  0.8709  0.5323  0.3891
 5289SOL     OW27328   3.115   1.925   7.320  0.2568 -0.1201  0.7749
 5289SOL    HW127329   3.069   2.001   7.284 -1.5368 -0.8751  1.4569
 5289SOL    HW227330   3.204   1.956   7.336  0.2581 -0.8501  2.1867
 5290SOL     OW27331   0.117   0.417   8.188 -0.5288  0.7091  0.1770
 5290SOL    HW127332   0.125   0.368   8.269 -0.3731  0.1815 -0.1549
 5290SOL    HW227333   0.041   0.474   8.201  0.2704  1.3026  2.2293
 5291SOL     OW27334   1.963   2.939   6.561 -0.0667  0.1088  0.2703
 5291SOL    HW127335   1.925   2.880   6.627 -0.8013  2.3388  1.8776
 5291SOL    HW227336   2.053   2.909   6.563  0.2533  1.1638  1.6188
 5292SOL     OW27337   2.912   0.444   6.193 -0.2191 -0.0589 -0.3158
 5292SOL    HW127338   2.935   0.366   6.142 -1.0799 -0.8363  0.4892
 5292SOL    HW227339   2.963   0.434   6.273 -1.4594  2.2751  0.7515
 5293SOL     OW27340   1.231   1.538   9.253 -0.1282 -0.3332 -0.5565
 5293SOL    HW127341   1.237   1.494   9.337 -0.8850 -0.9961 -0.8498
 5293SOL    HW227342   1.160   1.485   9.216  0.1254 -0.3746 -0.9942
 5294SOL     OW27343   3.683   0.666   6.062 -0.2500 -0.4781  0.3753
 5294SOL    HW127344   3.590   0.671   6.043  0.1242  1.6244 -0.8172
 5294SOL    HW227345   3.716   0.631   5.979 -0.7279  1.3192 -0.5621
 5295SOL     OW27346   2.827   0.727  10.480  0.3547  0.3398 -0.1825
 5295SOL    HW127347   2.741   0.686  10.467 -0.7982  3.2464 -1.6303
 5295SOL    HW227348   2.889   0.658  10.457 -2.2596 -1.5223 -1.6438
 5296SOL     OW27349   1.852   1.973   8.188 -0.4375 -0.6096  0.7714
 5296SOL    HW127350   1.904   1.967   8.108  0.5630 -0.1429  1.3791
 5296SOL    HW227351   1.916   1.956   8.258  0.0651 -2.1702 -0.0713
 5297SOL     OW27352   0.434   2.186   2.324  0.0887  0.2395 -0.1598
 5297SOL    HW127353   0.392   2.184   2.410 -0.4239 -0.0574 -0.4141
 5297SOL    HW227354   0.401   2.271   2.296  0.4800  0.2298 -0.6695
 5298SOL     OW27355   3.394   3.604   8.525  0.1418  0.3676  0.2504
 5298SOL    HW127356   3.316   3.576   8.572  0.2527 -0.6384 -0.1702
 5298SOL    HW227357   3.466   3.555   8.565 -0.2287  0.8363  1.4742
 5299SOL     OW27358   3.699   1.105   1.117  0.3739  0.4767  0.6322
 5299SOL    HW127359   3.727   1.184   1.072  0.7386 -0.6591 -1.1559
 5299SOL    HW227360   3.644   1.061   1.053 -0.0400 -2.1348  2.7487
 5300SOL     OW27361   3.747   3.613   7.162 -0.1808  0.3859  0.4377
 5300SOL    HW127362   3.662   3.621   7.205 -0.1733 -0.9871  0.6939
 5300SOL    HW227363   3.780   3.534   7.205  3.9106  0.6158 -2.2646
 5301SOL     OW27364   0.221   3.627   3.676  0.2706 -0.3432  0.0738
 5301SOL    HW127365   0.195   3.535   3.672  3.7579 -1.4961  3.2946
 5301SOL    HW227366   0.311   3.615   3.705 -0.1468  2.0789  2.4187
 5302SOL     OW27367   3.649   3.812  12.533  0.2032  0.1912  0.1301
 5302SOL    HW127368   3.600   3.855  12.463  0.4325 -2.4589 -1.7029
 5302SOL    HW227369   3.586   3.816  12.605  0.6856  1.3322  0.4859
 5303SOL     OW27370   0.615   2.819   2.058  0.7175  0.0231 -0.3916
 5303SOL    HW127371   0.591   2.747   2.000 -1.5863  1.6622 -1.4707
 5303SOL    HW227372   0.565   2.899   2.039  3.0448  1.9189  1.5073
 5304SOL     OW27373   3.882   1.905   5.559 -0.3498  0.2482  0.2557
 5304SOL    HW127374   3.950   1.972   5.552  0.6608 -1.0281 -2.3792
 5304SOL    HW227375   3.851   1.887   5.470  0.2184  3.5203 -0.6209
 5305SOL     OW27376   1.017   2.609   3.672  0.2302 -0.0170  0.0366
 5305SOL    HW127377   1.073   2.685   3.656 -0.5807  0.2992 -1.2469
 5305SOL    HW227378   1.066   2.547   3.727 -0.0761 -1.5094 -1.3736
 5306SOL     OW27379   2.512   2.730  14.228 -0.0322 -0.3061 -0.2463
 5306SOL    HW127380   2.577   2.775  14.174  1.2746 -0.5105  1.1563
 5306SOL    HW227381   2.469   2.679  14.159  0.8796  0.3332 -1.2899
 5307SOL     OW27382   2.665   3.542   7.071  0.3971  0.0931 -0.4178
 5307SOL    HW127383   2.708   3.566   7.153  2.9114  0.4932 -1.8732
 5307SOL    HW227384   2.588   3.600   7.066 -1.2290 -2.0012  0.1538
 5308SOL     OW27385   2.002   0.376   5.675  0.1241  0.0903  0.3626
 5308SOL    HW127386   1.962   0.411   5.595 -0.2644  0.4021  0.6899
 5308SOL    HW227387   1.946   0.301   5.693 -0.1427 -0.2405 -1.8823
 5309SOL     OW27388   4.444   2.843  17.427 -0.0997 -0.1251  0.3784
 5309SOL    HW127389   4.357   2.862  17.463 -0.4215 -2.7977  1.0475
 5309SOL    HW227390   4.424   2.844  17.333 -1.4547  0.9848  0.6841
 5310SOL     OW27391   3.515   1.908   6.157 -0.3164  0.5211  0.1022
 5310SOL    HW127392   3.507   1.938   6.067  2.2657 -3.2534 -1.3974
 5310SOL    HW227393   3.515   1.814   6.137  1.4120  0.1508  1.8179
 5311SOL     OW27394   3.455   2.292   8.254  0.3669 -0.1991  0.5919
 5311SOL    HW127395   3.511   2.243   8.314 -1.2706 -3.0599 -0.2010
 5311SOL    HW227396   3.416   2.215   8.213 -0.8706 -0.8460  2.9949
 5312SOL     OW27397   2.613   4.463  17.544  0.1278 -0.1623  0.2747
 5312SOL    HW127398   2.689   4.513  17.573  0.0931  0.3046 -0.4204
 5312SOL    HW227399   2.585   4.536  17.488 -1.6450 -0.7226  0.4502
 5313SOL     OW27400   2.466   1.761  15.411  0.2798  0.0577  0.4626
 5313SOL    HW127401   2.377   1.797  15.416 -0.7461 -2.3632 -0.1763
 5313SOL    HW227402   2.476   1.719  15.496 -1.4054  1.7818  1.5316
 5314SOL     OW27403   0.455   2.899   6.640 -0.0990 -0.4729  0.4792
 5314SOL    HW127404   0.487   2.965   6.702  2.4160 -0.1077 -1.2014
 5314SOL    HW227405   0.454   2.822   6.698 -2.2714 -0.9166 -0.1605
 5315SOL     OW27406   0.431   2.693  11.001  0.3290  0.0567 -0.0070
 5315SOL    HW127407   0.335   2.693  11.003  0.2824  1.2459 -1.6094
 5315SOL    HW227408   0.443   2.675  10.907  1.3320 -2.3472  0.5712
 5316SOL     OW27409   1.687   0.152   4.532 -1.1525  1.0153  0.6539
 5316SOL    HW127410   1.728   0.123   4.450 -3.5775  0.8384 -0.5006
 5316SOL    HW227411   1.617   0.199   4.486 -0.9026 -0.3887 -1.1814
 5317SOL     OW27412   0.112   3.775   4.357  0.4273  0.2489 -0.1726
 5317SOL    HW127413   0.166   3.753   4.433 -0.2374  0.3664  0.3430
 5317SOL    HW227414   0.024   3.778   4.395  0.8349  2.4025  0.6152
 5318SOL     OW27415   4.384   0.130  10.373 -0.3547  0.2797 -0.2858
 5318SOL    HW127416   4.422   0.143  10.460 -2.0183 -2.2557  0.8130
 5318SOL    HW227417   4.462   0.090  10.335 -0.3122  0.4514 -0.3831
 5319SOL     OW27418   0.483   0.428   5.644  0.2200  0.0936 -0.4090
 5319SOL    HW127419   0.553   0.479   5.604 -1.5125  1.5465 -1.5964
 5319SOL    HW227420   0.403   0.481   5.637  0.2858  0.4571  1.5089
 5320SOL     OW27421   4.544   2.536   1.578  0.3123  0.0458  0.1464
 5320SOL    HW127422   4.632   2.498   1.569  0.1010 -0.4128  0.0029
 5320SOL    HW227423   4.538   2.562   1.670 -1.2267 -4.0597  1.1920
 5321SOL     OW27424   3.878   2.346   7.129  0.3997 -0.2751  0.0235
 5321SOL    HW127425   3.940   2.356   7.201  0.3020  0.4622  0.0076
 5321SOL    HW227426   3.795   2.344   7.178  0.5601  0.7754  0.3565
 5322SOL     OW27427   1.920   3.713  12.810  0.2043 -0.8559 -0.3348
 5322SOL    HW127428   1.889   3.766  12.883 -0.8941  0.0456 -1.4573
 5322SOL    HW227429   1.990   3.660  12.849  0.7399  0.1668  0.0823
 5323SOL     OW27430   2.372   1.007   3.117  0.5952 -0.3586 -0.3156
 5323SOL    HW127431   2.400   0.916   3.106 -2.4080 -1.0938 -1.9825
 5323SOL    HW227432   2.385   1.041   3.028 -0.6902  1.5898  0.2483
 5324SOL     OW27433   0.776   1.996   5.414 -0.3636 -0.5021  0.3161
 5324SOL    HW127434   0.802   1.976   5.324 -1.6958  0.5916 -0.3188
 5324SOL    HW227435   0.710   1.930   5.437 -0.0630 -0.1155  2.2481
 5325SOL     OW27436   3.640   1.443  13.401 -0.0649  0.4073  0.3675
 5325SOL    HW127437   3.668   1.411  13.486 -1.3540 -0.6434  0.3837
 5325SOL    HW227438   3.633   1.367  13.344 -0.8340 -0.6873  1.9324
 5326SOL     OW27439   2.912   1.931   4.502  0.4212 -0.2985 -0.3278
 5326SOL    HW127440   2.884   1.841   4.516 -1.1264  0.2791  0.2908
 5326SOL    HW227441   2.974   1.922   4.429  1.7731  0.0060  0.7836
 5327SOL     OW27442   1.088   3.049  13.170 -0.3142  0.4163 -0.2457
 5327SOL    HW127443   1.027   2.977  13.156 -1.6118  1.4405  0.1514
 5327SOL    HW227444   1.030   3.119  13.139 -0.6000  0.3745  0.1906
 5328SOL     OW27445   4.206   0.655   1.292  0.2667 -0.1559  0.2643
 5328SOL    HW127446   4.292   0.697   1.282  0.0317  0.5144  1.0517
 5328SOL    HW227447   4.172   0.643   1.203  0.1240  1.4848  0.0872
 5329SOL     OW27448   2.083   3.202   2.139 -0.1530 -0.8109  0.0154
 5329SOL    HW127449   2.005   3.240   2.178  0.2734  0.2727 -0.1817
 5329SOL    HW227450   2.037   3.161   2.066  0.4758 -0.6435 -0.4804
 5330SOL     OW27451   4.345   1.366   9.267 -0.1811 -0.0294  0.2099
 5330SOL    HW127452   4.357   1.311   9.344  0.8114 -3.3591 -2.3236
 5330SOL    HW227453   4.357   1.456   9.297 -2.8324 -0.1471  1.6567
 5331SOL     OW27454   2.962   1.256   6.332  0.0705  0.0650  0.0434
 5331SOL    HW127455   2.936   1.229   6.420  0.3054  2.1790  0.7441
 5331SOL    HW227456   2.948   1.348   6.351 -1.0556  0.2245 -1.5154
 5332SOL     OW27457   3.131   3.659  11.375  0.3629 -0.0425 -0.0296
 5332SOL    HW127458   3.078   3.582  11.396  1.3401 -0.7180 -0.0745
 5332SOL    HW227459   3.186   3.620  11.307  2.1359  0.2688  1.2195
 5333SOL     OW27460   3.953   1.703   2.345 -0.1075 -0.3607  0.4285
 5333SOL    HW127461   4.021   1.645   2.311  0.6355  0.2695  0.8546
 5333SOL    HW227462   3.873   1.651   2.338  0.6600 -1.1269 -3.1112
 5334SOL     OW27463   1.771   4.398   8.135 -0.0870  0.1398  0.0379
 5334SOL    HW127464   1.845   4.453   8.109  2.0447 -2.2747  1.0612
 5334SOL    HW227465   1.715   4.431   8.065 -0.1686  0.9156  0.4724
 5335SOL     OW27466   1.976   1.954   8.917 -0.0287 -0.5657  0.0658
 5335SOL    HW127467   2.011   1.946   8.828  0.7998 -0.4427  0.3788
 5335SOL    HW227468   1.990   2.047   8.935 -0.2583 -0.0268 -2.4991
 5336SOL     OW27469   3.620   1.905  10.822 -0.2666 -0.5386 -0.2753
 5336SOL    HW127470   3.618   1.852  10.742  1.4909  1.3252 -1.5529
 5336SOL    HW227471   3.632   1.833  10.885  0.0182 -1.5557 -1.4872
 5337SOL     OW27472   3.349   4.032   7.903 -0.1052 -0.2059 -0.4094
 5337SOL    HW127473   3.384   3.945   7.886  1.6080  0.6837 -1.4169
 5337SOL    HW227474   3.390   4.096   7.845 -0.8103 -1.6400 -2.4794
 5338SOL     OW27475   2.430   2.195   5.019  0.1280 -0.6470  0.2262
 5338SOL    HW127476   2.376   2.269   4.993  0.4110 -0.3510  0.4743
 5338SOL    HW227477   2.509   2.193   4.964 -0.5220 -0.8645 -0.6905
 5339SOL     OW27478   0.654   3.841  15.892 -0.1373  0.0454 -0.3585
 5339SOL    HW127479   0.737   3.881  15.917 -1.0101  1.3646  0.4675
 5339SOL    HW227480   0.611   3.839  15.978 -0.1404 -3.6071 -0.4691
 5340SOL     OW27481   0.572   2.179   8.910 -0.6465  0.8995 -0.0830
 5340SOL    HW127482   0.553   2.177   8.816  0.1044 -0.3646 -0.2076
 5340SOL    HW227483   0.664   2.154   8.913  0.0244  3.6682  1.7194
 5341SOL     OW27484   1.174   3.310   2.196 -0.7088  0.2082 -0.4245
 5341SOL    HW127485   1.245   3.354   2.241 -0.0951 -1.1790 -0.0485
 5341SOL    HW227486   1.100   3.367   2.219 -0.1211  0.4199  0.9150
 5342SOL     OW27487   4.362   3.098  12.002  0.2506  0.0646  0.7346
 5342SOL    HW127488   4.365   3.042  11.925  0.0183  0.6004  0.3327
 5342SOL    HW227489   4.373   3.187  11.969 -0.9696 -0.5279 -1.2398
 5343SOL     OW27490   2.415   4.249  14.543 -0.3045  0.3592 -0.2042
 5343SOL    HW127491   2.427   4.192  14.619  0.6092  1.0706  0.1940
 5343SOL    HW227492   2.480   4.218  14.480 -0.4887  1.3386 -0.8720
 5344SOL     OW27493   4.709   4.699   3.944  0.6870  0.0212 -0.0310
 5344SOL    HW127494   0.064   0.012   3.901  0.9603 -2.8356 -1.8997
 5344SOL    HW227495   4.687   4.638   3.874 -1.3782 -0.4540  1.0310
 5345SOL     OW27496   2.229   4.536   4.933  0.2045  0.7060 -0.2270
 5345SOL    HW127497   2.234   4.478   5.009  3.6417  1.8422  0.4205
 5345SOL    HW227498   2.275   4.612   4.968 -0.8470  1.2101  0.0243
 5346SOL     OW27499   2.576   3.554   3.887  0.3582  0.5537 -0.0089
 5346SOL    HW127500   2.501   3.512   3.845  1.2125  1.1365 -2.1004
 5346SOL    HW227501   2.540   3.615   3.951  1.5714  1.1799  0.0809
 5347SOL     OW27502   3.223   2.703   8.224 -0.0522 -0.1158  0.4800
 5347SOL    HW127503   3.188   2.622   8.260 -2.8186  0.8353 -0.0636
 5347SOL    HW227504   3.268   2.727   8.304 -0.6590  2.1000  0.1477
 5348SOL     OW27505   3.724   0.228   2.688  0.0452 -0.1831 -0.1711
 5348SOL    HW127506   3.701   0.270   2.605 -0.6806  1.5591  0.9113
 5348SOL    HW227507   3.815   0.204   2.671  0.6481  0.9494  1.4705
 5349SOL     OW27508   3.302   0.739  10.208 -0.1380 -0.2251 -0.3188
 5349SOL    HW127509   3.214   0.776  10.223  0.2252  0.9320 -1.1022
 5349SOL    HW227510   3.345   0.766  10.289 -0.1783  0.7682 -0.6279
 5350SOL     OW27511   2.225   1.999   3.642 -0.1926  0.1414  0.3407
 5350SOL    HW127512   2.195   2.044   3.721 -2.7200 -0.7108 -0.1490
 5350SOL    HW227513   2.168   2.035   3.575 -0.1612  0.0034  0.2391
 5351SOL     OW27514   0.889   3.878   1.882 -0.0974  0.0457 -0.6374
 5351SOL    HW127515   0.964   3.856   1.938 -0.4945 -1.7319 -0.8028
 5351SOL    HW227516   0.928   3.950   1.832  0.7828  0.6058  0.8359
 5352SOL     OW27517   2.909   0.940  16.487  0.7356  0.1655  0.2895
 5352SOL    HW127518   2.852   0.967  16.416 -0.5917 -0.7236  1.0063
 5352SOL    HW227519   2.896   1.021  16.537  0.6968 -0.1545  0.7984
 5353SOL     OW27520   2.629   4.346   6.924 -0.3268 -0.0553  0.1557
 5353SOL    HW127521   2.688   4.386   6.859  0.9848 -1.3887  0.5116
 5353SOL    HW227522   2.666   4.258   6.922 -0.4038 -0.1080  1.6336
 5354SOL     OW27523   3.418   0.673   9.703 -0.7088 -0.8724 -0.0233
 5354SOL    HW127524   3.453   0.598   9.752  0.2930 -0.6049 -0.3480
 5354SOL    HW227525   3.391   0.731   9.775  2.0424 -0.4090  0.6276
 5355SOL     OW27526   3.671   3.614   9.194  0.4667 -0.3568  0.1009
 5355SOL    HW127527   3.588   3.648   9.226  0.9132 -0.0063  0.8947
 5355SOL    HW227528   3.726   3.621   9.272 -0.0979 -0.6805  0.5228
 5356SOL     OW27529   4.019   0.213   1.766  0.0543  0.4970  0.5928
 5356SOL    HW127530   4.114   0.212   1.776  0.3224  0.0603 -1.9889
 5356SOL    HW227531   4.001   0.121   1.782 -0.8364  0.9457  2.1263
 5357SOL     OW27532   1.675   0.741  10.984  0.1893  0.1468 -0.3842
 5357SOL    HW127533   1.728   0.739  11.064  0.2179  0.7618 -0.3848
 5357SOL    HW227534   1.625   0.660  10.981 -1.9742  1.5075 -0.8825
 5358SOL     OW27535   1.821   3.852   8.887  0.1844 -0.3329 -0.1364
 5358SOL    HW127536   1.738   3.818   8.854 -0.6278  1.6925 -0.1748
 5358SOL    HW227537   1.807   3.946   8.879  0.7494 -0.2027  0.4394
 5359SOL     OW27538   2.382   4.274   5.677  0.2430 -0.2406  0.2150
 5359SOL    HW127539   2.476   4.261   5.684  0.1365 -0.2464  1.5822
 5359SOL    HW227540   2.374   4.368   5.658 -0.0651 -0.8907 -2.9660
 5360SOL     OW27541   4.120   0.155   3.773  0.4739  0.3044  0.0702
 5360SOL    HW127542   4.072   0.109   3.842 -1.2410  2.0241  0.0261
 5360SOL    HW227543   4.040   0.199   3.742 -0.4894 -1.7635 -0.3683
 5361SOL     OW27544   0.894   0.937   2.050  0.2037 -0.2776  0.1189
 5361SOL    HW127545   0.873   1.006   1.986  1.3488 -1.1386 -1.1860
 5361SOL    HW227546   0.911   0.871   1.983  0.6544  0.3050 -0.3397
 5362SOL     OW27547   1.126   0.698   7.138  0.2307 -0.2577 -0.4557
 5362SOL    HW127548   1.119   0.650   7.221 -1.4635  0.3404 -0.2672
 5362SOL    HW227549   1.207   0.747   7.153 -0.6302  1.0781 -0.2175
 5363SOL     OW27550   2.603   4.555  15.093  0.1724  0.7138 -0.1314
 5363SOL    HW127551   2.518   4.559  15.050  0.1594  1.0470 -0.0744
 5363SOL    HW227552   2.652   4.634  15.068  0.8562  0.8489  1.5906
 5364SOL     OW27553   2.255   3.328   6.022 -0.4377 -0.4072  0.2277
 5364SOL    HW127554   2.240   3.413   6.062  0.5820 -1.4041  2.7426
 5364SOL    HW227555   2.254   3.267   6.096  0.7246 -1.5558 -0.7149
 5365SOL     OW27556   3.762   0.687   8.241  0.3468 -0.2602  0.0624
 5365SOL    HW127557   3.802   0.646   8.164 -0.8592 -1.4873  0.0970
 5365SOL    HW227558   3.668   0.667   8.231  0.6734 -1.3379 -0.8383
 5366SOL     OW27559   2.560   0.115   6.272  0.3929  1.3590 -0.5419
 5366SOL    HW127560   2.537   0.202   6.303 -0.7805  1.1362 -0.7701
 5366SOL    HW227561   2.505   0.095   6.196 -1.3764  0.6372  0.9243
 5367SOL     OW27562   3.183   4.683  10.725 -0.5636 -0.2218 -0.2806
 5367SOL    HW127563   3.092   4.663  10.703 -0.6793 -0.0297  0.0129
 5367SOL    HW227564   3.186   0.056  10.734  1.9211 -0.4906  1.7400
 5368SOL     OW27565   0.139   0.332   8.450  0.7060  0.2643  0.5786
 5368SOL    HW127566   0.174   0.367   8.531 -1.6122 -0.4990  1.9215
 5368SOL    HW227567   0.082   0.261   8.478 -0.5380 -0.3525 -3.4789
 5369SOL     OW27568   1.673   0.297   7.719 -0.0435 -0.3427  0.2098
 5369SOL    HW127569   1.736   0.365   7.696 -1.0231  0.5173  0.1094
 5369SOL    HW227570   1.738   0.239   7.759  0.0704 -1.1059 -1.0877
 5370SOL     OW27571   2.313   0.660   7.448 -0.3190  0.0855 -0.0156
 5370SOL    HW127572   2.346   0.660   7.358  0.9340  1.0750  0.4381
 5370SOL    HW227573   2.376   0.601   7.489 -1.2045 -0.7286  0.1791
 5371SOL     OW27574   4.432   3.384   1.771  1.0757 -0.1947 -0.8067
 5371SOL    HW127575   4.443   3.297   1.734  1.8678 -0.0180 -1.0092
 5371SOL    HW227576   4.422   3.441   1.695 -3.7487  0.4317  0.3354
 5372SOL     OW27577   4.587   0.783   3.466 -0.2912 -0.2837 -0.1644
 5372SOL    HW127578   4.673   0.818   3.444  0.1527 -1.4053 -0.2441
 5372SOL    HW227579   4.604   0.721   3.538 -2.1729 -1.4274 -0.7043
 5373SOL     OW27580   0.431   2.010   4.985  0.2044 -0.2024  0.1926
 5373SOL    HW127581   0.480   2.086   5.016 -0.1501 -0.0114  0.2856
 5373SOL    HW227582   0.364   2.011   5.053  0.0363 -0.0973  0.0241
 5374SOL     OW27583   1.047   0.015   8.118  0.2509 -0.1285  0.7622
 5374SOL    HW127584   1.068   0.043   8.029  0.5085 -2.1892  0.1639
 5374SOL    HW227585   1.115   0.062   8.165  0.1990 -0.1599  0.8672
 5375SOL     OW27586   3.373   1.617   6.723  0.4839  0.5196  0.4327
 5375SOL    HW127587   3.318   1.688   6.692  2.4059  3.0192  2.7580
 5375SOL    HW227588   3.442   1.682   6.737  2.2799 -1.2235 -0.2821
 5376SOL     OW27589   2.973   2.748   8.579  0.7607  0.1399  0.5974
 5376SOL    HW127590   3.056   2.743   8.625  1.2340 -0.9259 -0.3713
 5376SOL    HW227591   2.906   2.774   8.643  0.1246  1.7877 -0.7340
 5377SOL     OW27592   1.483   1.011   1.873 -0.5085  0.7186 -0.1042
 5377SOL    HW127593   1.573   1.033   1.898 -0.8325 -0.0402  1.6759
 5377SOL    HW227594   1.493   1.038   1.781 -0.6769 -1.8972 -0.8786
 5378SOL     OW27595   0.090   0.558   5.372 -0.3296  0.1077  0.0793
 5378SOL    HW127596   0.058   0.617   5.305  1.2236  1.9486  0.9728
 5378SOL    HW227597   0.055   0.471   5.352 -0.7079 -0.0695  1.5323
 5379SOL     OW27598   4.413   2.675   3.623 -0.0134 -0.1330 -0.3619
 5379SOL    HW127599   4.361   2.608   3.668  0.9415 -0.5895  0.0721
 5379SOL    HW227600   4.422   2.633   3.538  0.1472 -0.3768 -0.2242
 5380SOL     OW27601   3.378   4.393  11.012 -0.3944  0.2087  0.0806
 5380SOL    HW127602   3.402   4.423  10.925 -2.6747 -0.7348 -0.8987
 5380SOL    HW227603   3.310   4.332  10.983 -1.0713  1.0688 -0.1226
 5381SOL     OW27604   2.745   1.973   7.013 -0.0788 -0.4973 -0.0777
 5381SOL    HW127605   2.657   1.954   6.980 -0.0706  1.7618 -1.3970
 5381SOL    HW227606   2.723   1.986   7.105  0.7999 -1.9155  0.3243
 5382SOL     OW27607   0.711   4.207   5.978  0.3149 -0.3896 -0.3772
 5382SOL    HW127608   0.634   4.237   6.027 -0.3490 -1.3791 -0.7932
 5382SOL    HW227609   0.694   4.243   5.892  1.5970  0.9010 -0.0786
 5383SOL     OW27610   0.374   2.546   7.752  0.0144 -0.2634 -0.1591
 5383SOL    HW127611   0.450   2.527   7.807 -0.4806 -0.5959  0.4109
 5383SOL    HW227612   0.409   2.557   7.664 -0.6293  1.6198 -0.1726
 5384SOL     OW27613   0.622   0.962   3.767 -0.8792 -0.3391 -0.1897
 5384SOL    HW127614   0.635   0.867   3.758  0.9378 -0.2972  2.2992
 5384SOL    HW227615   0.645   0.985   3.677  0.1530 -1.5475 -0.2432
 5385SOL     OW27616   1.197   2.095   5.136  0.4313 -0.4748  0.0540
 5385SOL    HW127617   1.182   2.087   5.230 -2.7824  0.8466 -0.3296
 5385SOL    HW227618   1.155   2.013   5.110 -1.3529  0.0533  1.3164
 5386SOL     OW27619   1.343   0.354   7.994  0.5708 -0.3120 -0.3049
 5386SOL    HW127620   1.289   0.415   7.943 -0.0058 -2.3475 -2.1385
 5386SOL    HW227621   1.380   0.303   7.922  0.6235 -1.0646  0.2541
 5387SOL     OW27622   2.337   0.280  17.236 -0.6023 -0.0900 -0.2363
 5387SOL    HW127623   2.371   0.217  17.172  4.2111  1.1931  1.0543
 5387SOL    HW227624   2.410   0.335  17.263 -0.9223 -0.3716  1.2201
 5388SOL     OW27625   1.607   2.788   8.535  0.5675 -0.5535 -0.8430
 5388SOL    HW127626   1.545   2.815   8.602 -0.3139  1.3904 -2.4483
 5388SOL    HW227627   1.558   2.819   8.459  1.1822  0.4466 -0.8293
 5389SOL     OW27628   1.268   1.603  12.768 -0.5729 -0.1245  0.0173
 5389SOL    HW127629   1.334   1.571  12.707 -0.8551  0.2991 -0.5010
 5389SOL    HW227630   1.188   1.554  12.748 -0.5222 -0.4605  0.6379
 5390SOL     OW27631   0.341   3.951   6.441 -0.4480 -0.0893 -0.5575
 5390SOL    HW127632   0.406   3.984   6.503  1.0857  0.2531 -2.3564
 5390SOL    HW227633   0.322   4.037   6.403  3.8672  1.0234 -0.1895
 5391SOL     OW27634   2.349   2.548   2.298 -0.4311 -0.1640  0.0185
 5391SOL    HW127635   2.269   2.595   2.276 -1.3389 -1.9248 -0.3998
 5391SOL    HW227636   2.299   2.475   2.334  0.6635 -0.2751  1.3385
 5392SOL     OW27637   0.755   4.665   6.559  0.3608 -0.2092 -0.3661
 5392SOL    HW127638   0.753   0.026   6.606  0.3231 -0.4258  0.0165
 5392SOL    HW227639   0.848   4.643   6.559  0.2213 -0.8771  3.8962
 5393SOL     OW27640   1.540   0.619   7.829 -0.4386 -0.2004  0.1492
 5393SOL    HW127641   1.635   0.619   7.837 -0.4014 -1.2965 -0.2487
 5393SOL    HW227642   1.521   0.682   7.760  0.6639 -1.2917 -1.1502
 5394SOL     OW27643   2.123   0.736   7.792  0.3276  0.2337  0.2799
 5394SOL    HW127644   2.110   0.653   7.746  1.0647  0.5895 -0.5613
 5394SOL    HW227645   2.190   0.783   7.742 -1.4548  0.7932 -1.6139
 5395SOL     OW27646   0.070   1.179  14.956 -0.4940  0.5417  0.2110
 5395SOL    HW127647   4.705   1.177  14.919  0.6600 -1.1898 -2.3879
 5395SOL    HW227648   0.115   1.101  14.923  0.2970  1.4697 -0.8879
 5396SOL     OW27649   3.066   1.444  11.495 -0.1486 -0.0192 -0.3084
 5396SOL    HW127650   3.085   1.526  11.449 -1.5838 -1.1712 -2.9408
 5396SOL    HW227651   3.040   1.478  11.581  2.5740 -0.6355  0.7486
 5397SOL     OW27652   0.033   2.168  11.576 -0.6054  0.4087 -0.4168
 5397SOL    HW127653   0.112   2.215  11.600  0.5470 -3.3769  3.1259
 5397SOL    HW227654   0.052   2.074  11.578  2.4982  0.9430 -3.7739
 5398SOL     OW27655   3.602   0.345   5.974 -0.2397  0.0797  0.0960
 5398SOL    HW127656   3.540   0.410   6.007 -1.1994  0.1517 -1.8693
 5398SOL    HW227657   3.575   0.261   6.012 -0.5072 -0.1394 -0.5708
 5399SOL     OW27658   0.359   0.154   6.595 -0.8050 -0.5754 -0.2382
 5399SOL    HW127659   0.416   0.204   6.537 -1.4998  0.1824 -0.2773
 5399SOL    HW227660   0.285   0.139   6.535 -1.8334 -3.9876  1.8896
 5400SOL     OW27661   3.831   3.512  13.443  0.2826 -0.3896  0.4872
 5400SOL    HW127662   3.760   3.575  13.437  1.0202  0.3760 -0.2914
 5400SOL    HW227663   3.835   3.475  13.355  0.7279 -2.1241  1.2326
 5401SOL     OW27664   4.010   3.868   5.564  0.0406  0.2589 -0.1079
 5401SOL    HW127665   3.925   3.910   5.566  0.1108  0.4485 -1.0357
 5401SOL    HW227666   4.026   3.851   5.657 -0.8391  1.5739  0.2770
 5402SOL     OW27667   3.641   2.155   6.769  0.1502 -0.2736  0.0611
 5402SOL    HW127668   3.629   2.245   6.801  1.0687 -0.0904 -0.1057
 5402SOL    HW227669   3.553   2.119   6.776  0.1623 -0.7150 -1.9580
 5403SOL     OW27670   2.812   4.623   6.601 -0.0712 -0.1278  0.2837
 5403SOL    HW127671   2.842   4.676   6.527 -0.7174  0.3170  0.3434
 5403SOL    HW227672   2.724   4.600   6.571 -0.6492  2.8437 -0.2681
 5404SOL     OW27673   0.209   3.762   1.283  0.0941 -0.3215  0.6594
 5404SOL    HW127674   0.124   3.750   1.241 -0.9725  0.6272  2.5080
 5404SOL    HW227675   0.232   3.676   1.317  1.7086 -0.2620 -0.3057
 5405SOL     OW27676   2.786   3.297   8.389 -0.6320 -0.5063 -0.1695
 5405SOL    HW127677   2.831   3.212   8.382  0.3279 -0.0480  0.4635
 5405SOL    HW227678   2.827   3.348   8.320  0.9630 -1.3571  0.1362
 5406SOL     OW27679   2.289   2.124   6.828 -0.8951  0.2062 -0.0060
 5406SOL    HW127680   2.347   2.197   6.850 -0.8764  0.6688 -1.5379
 5406SOL    HW227681   2.265   2.144   6.737 -0.7378  0.3188 -0.0219
 5407SOL     OW27682   3.522   2.620   7.125 -0.1562 -0.4965  0.4195
 5407SOL    HW127683   3.617   2.611   7.130 -0.0374 -0.9080 -2.6477
 5407SOL    HW227684   3.518   2.699   7.072 -0.5878 -0.6687  0.1999
 5408SOL     OW27685   2.199   1.698   1.404  0.1980  0.0427 -0.3193
 5408SOL    HW127686   2.255   1.729   1.333  3.6771 -1.8993  1.5089
 5408SOL    HW227687   2.214   1.753   1.481 -2.3547  2.2109 -1.4052
 5409SOL     OW27688   3.641   4.385  11.645 -0.0256  0.1775 -0.5332
 5409SOL    HW127689   3.717   4.420  11.598  0.6137 -0.5226 -0.0200
 5409SOL    HW227690   3.597   4.342  11.572  0.0776 -0.7609 -0.0375
 5410SOL     OW27691   3.218   2.708   1.375  0.1366  0.1110 -0.4696
 5410SOL    HW127692   3.256   2.736   1.458  0.8966 -1.3663 -0.3116
 5410SOL    HW227693   3.297   2.686   1.325  0.9273  2.5389 -0.2635
 5411SOL     OW27694   0.685   3.650   5.719 -0.2276  0.6862 -0.1574
 5411SOL    HW127695   0.619   3.675   5.784  0.0271  1.4087 -0.1793
 5411SOL    HW227696   0.728   3.575   5.759 -0.2848  1.3956  1.2280
 5412SOL     OW27697   0.494   2.533  15.927  0.0451  0.5852  0.1285
 5412SOL    HW127698   0.440   2.587  15.870 -0.7937  0.1973  0.5497
 5412SOL    HW227699   0.571   2.533  15.871 -1.7936 -1.5671 -2.3966
 5413SOL     OW27700   3.675   1.787  13.611  0.5558  0.0039  0.0229
 5413SOL    HW127701   3.742   1.744  13.557  2.6320  0.7017  2.0586
 5413SOL    HW227702   3.598   1.756  13.563 -1.1743  1.5033  1.8345
 5414SOL     OW27703   2.283   2.715  12.732 -0.2680  0.0364 -0.0771
 5414SOL    HW127704   2.312   2.805  12.750 -0.4007  0.0188  0.2268
 5414SOL    HW227705   2.363   2.671  12.763 -2.0548 -1.6032  2.1524
 5415SOL     OW27706   1.980   1.808   9.169  0.5411  0.1940 -0.3669
 5415SOL    HW127707   1.959   1.833   9.080 -1.1590  0.1289  0.0192
 5415SOL    HW227708   1.903   1.849   9.208  0.7190  1.3755 -1.2643
 5416SOL     OW27709   2.044   0.553  10.480 -0.2237 -0.3838  0.0182
 5416SOL    HW127710   2.092   0.472  10.460 -0.2912 -0.1324 -1.1796
 5416SOL    HW227711   2.075   0.561  10.570  1.1873 -0.9008 -0.4289
 5417SOL     OW27712   4.442   4.587   1.660  0.5582  0.0041 -0.0166
 5417SOL    HW127713   4.465   4.649   1.591 -0.6864 -0.7453 -1.0958
 5417SOL    HW227714   4.463   4.503   1.620 -1.5194 -1.3579  1.7451
 5418SOL     OW27715   2.741   1.290   5.651 -0.2863 -0.1545 -0.2166
 5418SOL    HW127716   2.691   1.338   5.717 -1.2629  1.2666 -1.9913
 5418SOL    HW227717   2.821   1.271   5.700 -1.0818  0.0906  1.1470
 5419SOL     OW27718   2.985   3.322   1.570  0.0534 -0.7416  0.5638
 5419SOL    HW127719   3.028   3.334   1.655  0.3352  0.9265  0.1954
 5419SOL    HW227720   2.927   3.399   1.573  1.8559  0.6626 -0.2634
 5420SOL     OW27721   2.295   3.418  14.176  1.1835  0.2922  0.3216
 5420SOL    HW127722   2.206   3.383  14.173  1.4955 -0.5216  0.8657
 5420SOL    HW227723   2.281   3.498  14.227 -0.9073 -0.3724  0.7714
 5421SOL     OW27724   2.335   0.661  14.129 -0.5169 -0.8702 -0.4639
 5421SOL    HW127725   2.242   0.670  14.107 -0.3691  1.8789  0.0411
 5421SOL    HW227726   2.376   0.623  14.051  0.7276  0.3745 -0.4160
 5422SOL     OW27727   2.160   3.967  16.566  0.1989 -0.4079  0.0861
 5422SOL    HW127728   2.231   3.903  16.570  0.8228  0.2840  0.0437
 5422SOL    HW227729   2.153   3.991  16.473  1.3980 -0.0866  0.0871
 5423SOL     OW27730   1.706   2.388   7.763 -0.4287 -0.5692 -0.0048
 5423SOL    HW127731   1.773   2.329   7.730 -0.1040 -0.6531  0.7932
 5423SOL    HW227732   1.734   2.407   7.853 -1.1405 -0.2559  0.1553
 5424SOL     OW27733   2.024   2.324   8.770  0.1814  0.1743 -0.2730
 5424SOL    HW127734   2.047   2.417   8.779 -0.6714  0.4930 -1.4467
 5424SOL    HW227735   2.109   2.292   8.740 -0.5536 -0.3431 -1.7652
 5425SOL     OW27736   3.300   4.508   3.736 -0.0173 -0.2602  0.5057
 5425SOL    HW127737   3.317   4.531   3.828  1.1408 -2.7183  0.9144
 5425SOL    HW227738   3.338   4.587   3.699 -0.4280 -1.5751 -2.7246
 5426SOL     OW27739   3.102   2.906   9.422 -0.0538 -0.3028 -0.2740
 5426SOL    HW127740   3.010   2.880   9.426  0.2605 -0.8054  3.4533
 5426SOL    HW227741   3.106   2.945   9.509  0.4137  1.0681 -0.9132
 5427SOL     OW27742   3.383   0.216   8.096  1.0063  0.4112 -0.1906
 5427SOL    HW127743   3.374   0.260   8.181  0.2881 -0.6050  0.2634
 5427SOL    HW227744   3.356   0.129   8.127  1.4053  0.5299  0.4907
 5428SOL     OW27745   2.538   3.876   4.679 -0.2496 -0.4032  0.1371
 5428SOL    HW127746   2.450   3.845   4.701  0.0535 -1.6172 -0.3282
 5428SOL    HW227747   2.515   3.929   4.602 -1.4214  0.0937  0.8254
 5429SOL     OW27748   3.816   3.827   2.744 -0.1643 -0.0129  0.3059
 5429SOL    HW127749   3.736   3.778   2.763 -0.6999  0.4173 -0.8231
 5429SOL    HW227750   3.831   3.872   2.827 -1.0781 -0.0142  0.4721
 5430SOL     OW27751   4.635   3.087  16.470  0.5175 -0.4342 -0.2247
 5430SOL    HW127752   4.602   3.006  16.431  0.7903 -0.5600 -0.1879
 5430SOL    HW227753   4.564   3.143  16.437 -0.6471 -2.4822 -1.1996
 5431SOL     OW27754   0.470   0.612   2.985  0.5681 -0.0121  0.3828
 5431SOL    HW127755   0.384   0.647   2.962  0.2734  0.2365  1.8628
 5431SOL    HW227756   0.490   0.556   2.910 -1.5956  0.4054 -0.5191
 5432SOL     OW27757   1.839   3.356   1.397 -0.0343 -0.3590 -0.2771
 5432SOL    HW127758   1.792   3.435   1.369  3.5000  1.3747 -1.3095
 5432SOL    HW227759   1.791   3.345   1.479 -0.3703  0.2269 -0.3924
 5433SOL     OW27760   4.477   2.184   0.225  0.5946  0.0789 -0.1401
 5433SOL    HW127761   4.557   2.207   0.178  0.9812 -1.1363 -0.0884
 5433SOL    HW227762   4.416   2.184   0.151  1.8013 -1.5467 -1.1388
 5434SOL     OW27763   1.455   3.828  17.507  0.4518  0.0453 -0.1891
 5434SOL    HW127764   1.446   3.905  17.450  1.0093 -0.5110 -1.0174
 5434SOL    HW227765   1.382   3.779  17.471 -0.7773 -0.3941  2.9542
 5435SOL     OW27766   2.245   2.635   4.752  0.6147  0.4667  0.2552
 5435SOL    HW127767   2.170   2.695   4.750  1.3530  1.4207  0.7495
 5435SOL    HW227768   2.250   2.606   4.661  1.0824 -1.2347  0.8187
 5436SOL     OW27769   1.218   1.685   7.340 -0.1699 -0.6544  0.2574
 5436SOL    HW127770   1.129   1.687   7.307 -0.7632  3.6185  2.1948
 5436SOL    HW227771   1.251   1.764   7.296 -1.9863 -1.1709 -2.0359
 5437SOL     OW27772   3.946   1.930  15.027 -0.8173  0.1695 -0.3159
 5437SOL    HW127773   4.003   1.930  15.104 -0.5590  0.4796 -0.5082
 5437SOL    HW227774   4.007   1.967  14.963  0.1098 -1.1112 -0.1802
 5438SOL     OW27775   3.782   0.552  10.360  0.9337  0.1225 -0.3575
 5438SOL    HW127776   3.790   0.479  10.298  1.1552 -0.1705  0.0156
 5438SOL    HW227777   3.694   0.526  10.386  1.4244  0.1607  1.3357
 5439SOL     OW27778   4.615   2.223   6.189  0.1256  0.4602 -0.2497
 5439SOL    HW127779   4.526   2.258   6.181 -0.3672 -1.2947 -2.2993
 5439SOL    HW227780   4.665   2.305   6.181 -1.2462  1.3496  0.1956
 5440SOL     OW27781   2.009   3.798  15.721 -0.2689  0.0460 -0.6667
 5440SOL    HW127782   1.954   3.769  15.794  1.4722  1.9517  1.3963
 5440SOL    HW227783   1.943   3.815  15.654 -2.1947  2.4192  1.8809
 5441SOL     OW27784   3.572   0.942   5.054 -0.1596 -0.5001  0.6100
 5441SOL    HW127785   3.627   0.976   4.984  0.6678  0.5622  1.7888
 5441SOL    HW227786   3.578   0.847   5.039 -2.6320 -0.6742  0.5779
 5442SOL     OW27787   3.256   0.042  12.376 -1.1606 -0.9787  0.4998
 5442SOL    HW127788   3.177   0.088  12.404  1.5800  3.4689  0.8620
 5442SOL    HW227789   3.244   4.676  12.410 -1.4344 -1.5077 -0.9735
 5443SOL     OW27790   4.652   3.648   6.290 -0.6763 -0.1928 -0.2171
 5443SOL    HW127791   4.646   3.566   6.339  3.2438  0.7180  1.7650
 5443SOL    HW227792   4.657   3.607   6.203 -0.0697 -2.0818  0.7164
 5444SOL     OW27793   0.164   3.920  15.312 -0.3038  0.0377  0.0158
 5444SOL    HW127794   0.097   3.986  15.293  0.5979  0.2497 -2.3631
 5444SOL    HW227795   0.128   3.834  15.293  0.3276 -0.4863  1.1764
 5445SOL     OW27796   3.117   2.718  15.686 -0.2214  0.2409  0.2158
 5445SOL    HW127797   3.148   2.793  15.634 -0.5649  1.9716  2.4865
 5445SOL    HW227798   3.041   2.676  15.646 -0.6458  0.9887  0.2273
 5446SOL     OW27799   1.647   1.849   7.466  0.0844  0.1789 -0.5844
 5446SOL    HW127800   1.697   1.842   7.385  2.0280 -2.3449  0.8489
 5446SOL    HW227801   1.656   1.767   7.514 -2.0363  0.7562  0.8495
 5447SOL     OW27802   4.296   2.456   1.077  0.5550 -0.5055 -0.1615
 5447SOL    HW127803   4.315   2.449   0.984  1.2962 -1.2927  0.0518
 5447SOL    HW227804   4.204   2.481   1.066  0.5459 -1.4180 -2.1412
 5448SOL     OW27805   3.130   3.645   1.432  0.0072 -0.2228  0.5270
 5448SOL    HW127806   3.132   3.588   1.355  0.1028  0.4585  0.0298
 5448SOL    HW227807   3.037   3.633   1.452 -0.2090 -1.5372 -1.2966
 5449SOL     OW27808   2.031   2.824  10.401 -0.0566  0.1451  0.3117
 5449SOL    HW127809   1.954   2.881  10.404 -1.6739 -2.1491  3.3848
 5449SOL    HW227810   2.100   2.883  10.372  0.4682 -0.7795 -0.3422
 5450SOL     OW27811   4.116   4.473   8.550  0.6929 -0.3065  0.5916
 5450SOL    HW127812   4.036   4.426   8.572 -0.2721  0.3309 -1.4836
 5450SOL    HW227813   4.181   4.409   8.577 -0.3265 -2.1874 -1.3739
 5451SOL     OW27814   0.772   0.853   3.315  0.2327 -0.4927 -0.2224
 5451SOL    HW127815   0.733   0.852   3.228  1.2310  1.4551 -0.6848
 5451SOL    HW227816   0.754   0.761   3.333  1.8456 -0.2939  2.4364
 5452SOL     OW27817   3.010   3.563  10.848  0.3130  0.1436  0.2087
 5452SOL    HW127818   3.088   3.511  10.830 -0.0359 -0.2251 -0.2546
 5452SOL    HW227819   2.948   3.493  10.866  0.0504  0.3331  0.0503
 5453SOL     OW27820   0.883   1.136   5.359  0.8750  0.3698  0.0558
 5453SOL    HW127821   0.899   1.177   5.444  1.3370 -0.2182  0.2514
 5453SOL    HW227822   0.914   1.046   5.363 -3.2214 -1.0679 -1.4994
 5454SOL     OW27823   2.920   0.451   7.136  0.4876  0.3410  0.4228
 5454SOL    HW127824   3.015   0.445   7.121  0.5897 -0.4325  1.3911
 5454SOL    HW227825   2.917   0.531   7.083  1.3880  0.2228  0.1866
 5455SOL     OW27826   0.120   4.253  12.142 -0.2285  0.4397 -0.3062
 5455SOL    HW127827   0.092   4.162  12.153  0.7685  0.0037 -1.2452
 5455SOL    HW227828   0.194   4.258  12.202  1.5254  1.2526 -2.5370
 5456SOL     OW27829   1.544   4.204   5.601  0.0913 -0.1261  0.6794
 5456SOL    HW127830   1.540   4.114   5.567  1.2451  0.5100 -1.1558
 5456SOL    HW227831   1.468   4.249   5.563  1.3984  1.1137 -0.4310
 5457SOL     OW27832   4.521   3.160  14.936 -0.4203  0.2085  0.2035
 5457SOL    HW127833   4.550   3.083  14.885 -2.3356 -1.4834  1.7023
 5457SOL    HW227834   4.469   3.196  14.865 -0.3489 -1.0284 -0.4861
 5458SOL     OW27835   0.279   3.017  13.517 -0.2835  0.5030 -0.3215
 5458SOL    HW127836   0.250   3.056  13.600 -0.2749 -1.2366  0.5114
 5458SOL    HW227837   0.274   3.089  13.454  0.9770 -0.0260 -1.0126
 5459SOL     OW27838   2.187   0.333   2.390 -0.8915  0.9475 -0.0312
 5459SOL    HW127839   2.235   0.300   2.315  1.6530  0.2194  1.9315
 5459SOL    HW227840   2.107   0.291   2.359  0.3177 -0.6850 -0.9214
 5460SOL     OW27841   2.002   2.623   7.937 -0.6208  0.1114 -0.2226
 5460SOL    HW127842   1.935   2.557   7.954  0.2930 -0.4965  1.0553
 5460SOL    HW227843   2.067   2.589   7.999  2.6044  2.8571 -2.0677
 5461SOL     OW27844   1.096   3.526   5.091  0.4962 -0.3780  0.5991
 5461SOL    HW127845   1.114   3.608   5.138  1.3918 -1.1889  1.6608
 5461SOL    HW227846   1.181   3.487   5.108  0.9953 -0.4492 -2.0883
 5462SOL     OW27847   1.287   0.746   3.501  0.7274  0.1469  0.2751
 5462SOL    HW127848   1.251   0.662   3.529 -0.8359  1.1990  1.3801
 5462SOL    HW227849   1.308   0.722   3.411  1.9309  1.0928  0.3078
 5463SOL     OW27850   0.105   3.544   2.322 -0.5866 -0.2611 -0.2550
 5463SOL    HW127851   0.098   3.625   2.271  3.9846 -0.3194 -0.9780
 5463SOL    HW227852   0.139   3.577   2.405 -1.7145 -1.5333  0.6954
 5464SOL     OW27853   3.863   3.241   5.188  0.3661 -0.1640  0.8838
 5464SOL    HW127854   3.803   3.208   5.255  1.7943 -2.3755  1.0798
 5464SOL    HW227855   3.827   3.200   5.109 -1.8113  1.7784  0.8635
 5465SOL     OW27856   3.240   0.989   8.640  0.4430  0.0595  0.6859
 5465SOL    HW127857   3.225   0.894   8.642 -0.8611  0.1922 -3.1927
 5465SOL    HW227858   3.157   1.022   8.607 -0.6364  0.0169  3.3918
 5466SOL     OW27859   0.800   3.473  14.890 -0.0550  0.1327 -0.5007
 5466SOL    HW127860   0.797   3.502  14.981  2.0025 -4.7204  1.1405
 5466SOL    HW227861   0.762   3.385  14.900  1.1565 -0.1607  1.6002
 5467SOL     OW27862   0.244   4.710   4.277 -0.0804 -0.2576  0.7681
 5467SOL    HW127863   0.168   4.652   4.266  0.9762 -1.4492 -0.3460
 5467SOL    HW227864   0.298   4.663   4.212  0.0387  0.5838  0.2509
 5468SOL     OW27865   2.650   1.136   6.900 -0.1614  0.2878  0.4434
 5468SOL    HW127866   2.722   1.153   6.839 -0.2440  1.0084  0.5553
 5468SOL    HW227867   2.597   1.208   6.867 -1.5390 -0.1533  1.7269
 5469SOL     OW27868   0.581   2.068   6.844  0.7238  0.1692  0.1832
 5469SOL    HW127869   0.642   2.045   6.914  0.8594 -0.3273 -0.0978
 5469SOL    HW227870   0.579   1.981   6.802 -1.4008  0.1361  0.3465
 5470SOL     OW27871   4.629   0.984  12.492 -0.8501 -0.3318  0.2161
 5470SOL    HW127872   4.646   0.988  12.398 -0.0859 -0.7384  0.3364
 5470SOL    HW227873   4.619   1.076  12.514 -2.5153 -0.4276 -0.1259
 5471SOL     OW27874   4.167   1.175   3.286  0.3570 -0.1659 -0.4922
 5471SOL    HW127875   4.159   1.081   3.270 -1.0443 -0.0945 -0.2339
 5471SOL    HW227876   4.170   1.182   3.381 -2.1501 -1.5603 -0.2873
 5472SOL     OW27877   4.008   0.006   8.245  1.1687  0.6964 -0.2256
 5472SOL    HW127878   4.046   0.068   8.183 -1.8306  3.4541  0.6629
 5472SOL    HW227879   4.043   4.654   8.198  1.0655  0.4716  0.0617
 5473SOL     OW27880   2.370   1.165   4.397 -0.3222 -0.6143 -0.3756
 5473SOL    HW127881   2.395   1.103   4.329 -0.8263  0.0615 -1.1793
 5473SOL    HW227882   2.423   1.243   4.377 -1.1272  0.2059  0.7342
 5474SOL     OW27883   0.006   1.161   0.828 -0.5328 -0.2786  0.0775
 5474SOL    HW127884   0.058   1.110   0.766 -1.1664 -1.0736  0.2024
 5474SOL    HW227885   4.666   1.195   0.765 -0.8332 -1.3880 -0.2238
 5475SOL     OW27886   3.644   3.308   6.792 -0.5152 -0.6601  0.0763
 5475SOL    HW127887   3.597   3.242   6.843 -1.7663 -0.3592 -0.6853
 5475SOL    HW227888   3.726   3.303   6.841  0.6511  0.2066 -1.8155
 5476SOL     OW27889   4.551   0.250   7.217  0.3842 -0.5979  0.1507
 5476SOL    HW127890   4.492   0.176   7.204 -0.6543  0.2852 -0.1754
 5476SOL    HW227891   4.569   0.260   7.310  1.7197 -0.3616 -0.1209
 5477SOL     OW27892   1.791   1.732  14.223 -0.4118 -0.1689  0.5374
 5477SOL    HW127893   1.853   1.765  14.158 -0.9706 -1.3458 -0.5807
 5477SOL    HW227894   1.786   1.644  14.186  2.4633 -1.1327  2.4530
 5478SOL     OW27895   1.084   1.982   6.214  0.0348  0.3115  0.6342
 5478SOL    HW127896   1.169   1.964   6.254 -0.7579 -0.7408  1.8599
 5478SOL    HW227897   1.040   1.900   6.236 -0.6911 -0.1184 -2.3211
 5479SOL     OW27898   4.122   2.099   7.587  0.2853 -0.3218  0.2074
 5479SOL    HW127899   4.157   2.010   7.577 -1.3458 -0.6273 -2.8600
 5479SOL    HW227900   4.142   2.137   7.501 -0.0916 -0.8923 -0.1301
 5480SOL     OW27901   4.676   1.829   4.580 -0.2946 -0.6949 -0.0048
 5480SOL    HW127902   0.037   1.857   4.543  0.8635 -0.0998  3.0263
 5480SOL    HW227903   4.618   1.894   4.541 -1.3029 -1.8141 -0.3721
 5481SOL     OW27904   1.193   1.755   1.073 -0.4306 -0.3165 -0.0086
 5481SOL    HW127905   1.141   1.802   1.008  1.5611  1.6125 -0.2060
 5481SOL    HW227906   1.133   1.740   1.146 -1.2196  1.8829 -0.2070
 5482SOL     OW27907   1.557   0.856   6.567 -0.8060 -0.1929  0.4452
 5482SOL    HW127908   1.522   0.910   6.496 -0.1804 -1.8026 -1.0769
 5482SOL    HW227909   1.549   0.770   6.525  2.0525  0.3321 -1.1233
 5483SOL     OW27910   4.306   2.819   6.707 -0.4627 -0.0199  0.0751
 5483SOL    HW127911   4.283   2.726   6.716 -2.6277  0.7490  2.3378
 5483SOL    HW227912   4.339   2.831   6.796 -0.4899  0.1122  0.0670
 5484SOL     OW27913   3.657   2.047  13.706 -0.2377  0.2811 -0.1959
 5484SOL    HW127914   3.594   2.085  13.645  3.2370  2.3776 -2.4233
 5484SOL    HW227915   3.665   1.956  13.677  2.6228  0.8988 -1.3193
 5485SOL     OW27916   1.737   2.008   7.680 -0.0532  0.3469 -0.2099
 5485SOL    HW127917   1.662   2.066   7.691 -0.1620 -0.3925  3.2141
 5485SOL    HW227918   1.701   1.957   7.608  0.0814 -0.3061  0.1791
 5486SOL     OW27919   2.668   4.328  11.192 -0.6008  0.0994 -0.0049
 5486SOL    HW127920   2.653   4.334  11.097 -1.3966 -0.5732  0.0696
 5486SOL    HW227921   2.645   4.417  11.219  0.7950  1.0456 -1.9401
 5487SOL     OW27922   4.262   0.981   1.487  0.7046 -0.1169 -0.1759
 5487SOL    HW127923   4.190   1.039   1.512  1.6146  1.0211 -0.1962
 5487SOL    HW227924   4.251   0.899   1.534 -0.8499 -0.4114 -1.0334
 5488SOL     OW27925   2.523   1.838   7.224  0.1159  0.4953  0.1684
 5488SOL    HW127926   2.469   1.834   7.145  2.9708  0.1355 -1.7354
 5488SOL    HW227927   2.548   1.749   7.247  1.3052  0.6001 -0.7275
 5489SOL     OW27928   0.343   0.891   6.536 -0.5300 -0.1142  0.1138
 5489SOL    HW127929   0.373   0.980   6.555  0.2181 -0.6743  1.6158
 5489SOL    HW227930   0.416   0.846   6.579  0.6329  0.5858 -1.1656
 5490SOL     OW27931   0.375   4.296  11.965 -0.0790 -0.2483 -0.2777
 5490SOL    HW127932   0.284   4.297  11.936 -0.4541  3.3359  0.9909
 5490SOL    HW227933   0.386   4.204  11.990  1.1683  0.0965  0.4696
 5491SOL     OW27934   4.327   0.553   7.068 -0.4507  0.3915  0.2432
 5491SOL    HW127935   4.376   0.595   6.998 -1.1037 -0.3906 -0.6925
 5491SOL    HW227936   4.384   0.566   7.143  1.3796  2.5107 -1.5230
 5492SOL     OW27937   2.282   3.682  14.305 -0.0718 -0.0576  0.3725
 5492SOL    HW127938   2.370   3.646  14.319 -0.8076 -1.2985  1.8245
 5492SOL    HW227939   2.284   3.747  14.235  0.7997  1.6409  1.9759
 5493SOL     OW27940   1.114   3.701   5.529 -0.0469 -0.0971 -0.2450
 5493SOL    HW127941   1.164   3.779   5.552  0.0756 -0.3261  0.2781
 5493SOL    HW227942   1.146   3.692   5.439  0.0230  0.7197 -0.2997
 5494SOL     OW27943   3.994   1.870   4.581 -0.0984 -0.4989  0.5324
 5494SOL    HW127944   3.953   1.916   4.507  1.1006 -0.2143  0.0551
 5494SOL    HW227945   3.913   1.857   4.631 -2.4283  1.0096 -2.8838
 5495SOL     OW27946   1.229   0.172   8.220 -0.1244  0.0994 -0.2536
 5495SOL    HW127947   1.233   0.230   8.296 -3.1180 -2.6046  1.9581
 5495SOL    HW227948   1.240   0.239   8.153 -0.1970 -0.0963 -0.4577
 5496SOL     OW27949   2.933   0.224   7.825  0.1420 -0.4285 -0.2039
 5496SOL    HW127950   2.838   0.236   7.823  0.6393  3.2694 -2.2117
 5496SOL    HW227951   2.936   0.154   7.760  0.0120 -0.0621 -0.6081
 5497SOL     OW27952   2.113   4.013   3.324  0.3739  0.2482  0.4770
 5497SOL    HW127953   2.128   3.938   3.267  1.3044 -3.6041  5.7233
 5497SOL    HW227954   2.085   3.975   3.408 -0.3299  0.5420  0.3664
 5498SOL     OW27955   0.248   0.328   4.812 -0.3153 -0.3681 -0.1458
 5498SOL    HW127956   0.208   0.348   4.897  2.9714  0.9419  1.0837
 5498SOL    HW227957   0.283   0.416   4.795  0.6421 -0.3838  1.7279
 5499SOL     OW27958   3.041   4.612   3.418 -0.1746 -0.3959  0.4100
 5499SOL    HW127959   3.086   4.686   3.378 -0.5060 -0.1553  0.4831
 5499SOL    HW227960   3.015   4.656   3.499  1.0925 -0.3935  0.8200
 5500SOL     OW27961   1.348   4.465   1.294  0.0275  0.2897 -0.2373
 5500SOL    HW127962   1.275   4.434   1.240  0.1104 -0.9194  0.3343
 5500SOL    HW227963   1.309   4.546   1.326 -0.5618  0.2886 -0.9478
 5501SOL     OW27964   0.057   0.034   1.689 -0.5300 -0.2793  0.1159
 5501SOL    HW127965   0.100   4.674   1.710  1.1154  1.2477  2.7210
 5501SOL    HW227966   0.054   0.024   1.593  1.6405  1.4328 -0.1214
 5502SOL     OW27967   3.087   3.048   6.703  0.1084 -0.4702 -0.1880
 5502SOL    HW127968   3.027   3.109   6.746 -0.4795 -0.1664 -1.4513
 5502SOL    HW227969   3.168   3.073   6.747  0.7765  0.1462 -1.7655
 5503SOL     OW27970   0.926   4.378   5.707  0.3055 -0.3640 -0.3110
 5503SOL    HW127971   0.861   4.308   5.703 -0.9823  0.9062 -1.3096
 5503SOL    HW227972   1.001   4.321   5.724 -0.0339 -0.7445 -0.0876
 5504SOL     OW27973   0.636   3.526  10.288  0.1096  0.1465 -0.5355
 5504SOL    HW127974   0.691   3.484  10.222  0.1016  0.1030 -0.5144
 5504SOL    HW227975   0.579   3.573  10.228 -1.4217  1.3684  1.8561
 5505SOL     OW27976   2.819   0.679  16.854  0.1489  0.7209  0.3084
 5505SOL    HW127977   2.854   0.756  16.899 -2.3167  2.1518 -0.2251
 5505SOL    HW227978   2.872   0.677  16.774  0.0865 -0.9724  0.3154
 5506SOL     OW27979   0.641   3.467   6.450  0.1651  0.4933 -0.1779
 5506SOL    HW127980   0.711   3.528   6.475 -1.6263  2.6371 -0.3817
 5506SOL    HW227981   0.584   3.535   6.416 -1.4074  0.2130  1.9131
 5507SOL     OW27982   0.320   1.124   4.015 -0.3925 -0.0653  0.1263
 5507SOL    HW127983   0.334   1.181   3.940 -1.1504  1.2931  1.0140
 5507SOL    HW227984   0.266   1.182   4.068 -0.2591  0.0318  0.1559
 5508SOL     OW27985   1.652   4.518  13.088  0.0192  0.0168  0.4045
 5508SOL    HW127986   1.600   4.449  13.046 -1.9689  0.6248  1.8760
 5508SOL    HW227987   1.590   4.552  13.152  1.9516  0.4490  2.0369
 5509SOL     OW27988   3.740   4.467  13.015  0.6600 -0.0467  0.0552
 5509SOL    HW127989   3.781   4.517  12.944 -1.8222  2.3505  0.3344
 5509SOL    HW227990   3.675   4.530  13.046  1.0196 -1.2937  3.3264
 5510SOL     OW27991   4.271   0.136   5.844 -0.0668 -0.4682  0.1225
 5510SOL    HW127992   4.322   0.177   5.774  0.1158 -0.1785  0.4260
 5510SOL    HW227993   4.313   0.050   5.849 -0.1990 -0.6888 -2.3753
 5511SOL     OW27994   2.199   4.108   5.789 -0.3725  0.1553 -0.2650
 5511SOL    HW127995   2.260   4.180   5.769  0.5018 -0.5822 -0.2408
 5511SOL    HW227996   2.260   4.044   5.826 -1.3004  0.1180  1.1846
 5512SOL     OW27997   0.231   1.382  16.779  0.6309  0.5129 -0.1440
 5512SOL    HW127998   0.319   1.346  16.790 -0.3016 -1.3200  1.3564
 5512SOL    HW227999   0.218   1.414  16.868  1.8458  1.8747 -0.4559
 5513SOL     OW28000   3.250   3.897  12.676  0.3629 -0.7712 -1.0531
 5513SOL    HW128001   3.271   3.828  12.614  2.7011 -0.7440 -0.2758
 5513SOL    HW228002   3.185   3.950  12.629  0.7247 -1.2582 -2.0845
 5514SOL     OW28003   4.153   4.507   2.963 -0.2351  0.4097  0.3406
 5514SOL    HW128004   4.239   4.507   3.005 -1.7740  2.2189  3.5232
 5514SOL    HW228005   4.133   4.414   2.972  0.2378  0.4871  2.1294
 5515SOL     OW28006   2.299   0.927   8.399  0.1514  0.3565  0.1877
 5515SOL    HW128007   2.394   0.923   8.388  0.4711 -0.0272  3.2355
 5515SOL    HW228008   2.278   0.834   8.396  0.9354  0.2453 -2.1988
 5516SOL     OW28009   1.529   4.453  13.354  0.3288  0.3063  0.0830
 5516SOL    HW128010   1.613   4.446  13.400  0.1224 -2.4348  0.0231
 5516SOL    HW228011   1.479   4.379  13.390 -0.2406  0.1516 -1.0417
 5517SOL     OW28012   4.192   4.706   5.347 -0.0098 -0.0315  0.5748
 5517SOL    HW128013   4.110   4.658   5.361 -0.5115  1.4106  2.6607
 5517SOL    HW228014   4.218   4.696   5.256  2.5793  0.0248  1.3087
 5518SOL     OW28015   1.371   4.583   4.174  0.4082 -0.3325 -0.0137
 5518SOL    HW128016   1.462   4.601   4.148 -0.2588 -0.9143 -2.7518
 5518SOL    HW228017   1.336   4.564   4.087 -0.3007 -1.9829  0.6285
 5519SOL     OW28018   0.117   4.231   5.718  0.0618  0.0169  0.2439
 5519SOL    HW128019   0.039   4.285   5.725  1.9035  2.4382  2.0541
 5519SOL    HW228020   0.086   4.156   5.667  0.8954 -0.6477  0.7115
 5520SOL     OW28021   0.880   2.111  11.945  0.4653  0.0538 -0.0086
 5520SOL    HW128022   0.875   2.016  11.936 -0.7858  0.2066 -0.9317
 5520SOL    HW228023   0.807   2.130  11.887  0.8283 -2.9210 -1.4375
 5521SOL     OW28024   2.835   3.301   8.682  0.3567  0.1410 -0.2165
 5521SOL    HW128025   2.893   3.367   8.721 -0.5656  2.1049 -2.2345
 5521SOL    HW228026   2.854   3.298   8.589  2.7483 -0.3193  0.2715
 5522SOL     OW28027   1.555   3.508  17.264 -0.3093 -0.0043  0.0782
 5522SOL    HW128028   1.462   3.498  17.288 -0.7892  2.1623 -0.8858
 5522SOL    HW228029   1.552   3.571  17.192  0.4073 -1.3677 -1.1336
 5523SOL     OW28030   3.041   1.975  15.465 -0.2331 -0.5064 -0.5411
 5523SOL    HW128031   3.109   2.015  15.519 -2.4194 -1.8004  3.2365
 5523SOL    HW228032   3.083   1.899  15.426  0.9859  0.3217 -0.8278
 5524SOL     OW28033   3.036   3.696   2.723 -0.0464 -0.3048  0.0433
 5524SOL    HW128034   3.082   3.779   2.732 -0.0807 -0.4710  1.6709
 5524SOL    HW228035   3.021   3.677   2.815  0.0102  1.6187  0.4456
 5525SOL     OW28036   4.701   3.410   1.286  0.4522 -0.0545  0.6027
 5525SOL    HW128037   4.608   3.429   1.273  0.5381  0.0589  0.1555
 5525SOL    HW228038   0.015   3.496   1.266 -0.1759  0.0774 -0.0111
 5526SOL     OW28039   0.045   0.144   9.584 -0.0353  0.0692  0.8522
 5526SOL    HW128040   0.101   0.066   9.592  1.3360  0.8131 -1.6322
 5526SOL    HW228041   0.084   0.186   9.660  2.9336  0.0622 -0.6525
 5527SOL     OW28042   2.113   1.881  11.944  0.0061 -0.0546  0.9020
 5527SOL    HW128043   2.031   1.885  11.895  0.2531  1.6121  0.6110
 5527SOL    HW228044   2.135   1.974  11.948  0.9724 -0.1385 -2.8736
 5528SOL     OW28045   0.008   4.552   2.699  0.1905 -0.0952 -0.2312
 5528SOL    HW128046   4.690   4.478   2.744 -0.5629  1.2309  1.2752
 5528SOL    HW228047   0.093   4.524   2.732  0.9391  2.3754 -0.0376
 5529SOL     OW28048   3.559   1.241  13.212  0.1960  0.1291 -0.4296
 5529SOL    HW128049   3.550   1.157  13.257  0.0960 -0.9895 -2.5437
 5529SOL    HW228050   3.586   1.211  13.126  1.9553 -1.5445  0.7164
 5530SOL     OW28051   1.445   3.055   0.958 -0.5740 -0.1394 -0.2390
 5530SOL    HW128052   1.483   3.012   0.881  1.7940 -0.7351  1.2565
 5530SOL    HW228053   1.462   3.005   1.038  0.8968 -0.5316 -0.7990
 5531SOL     OW28054   1.106   2.966  15.267 -0.3566  0.3161  0.2400
 5531SOL    HW128055   1.074   2.926  15.348  0.6458  1.1361  1.0288
 5531SOL    HW228056   1.024   3.011  15.244 -0.0354  0.2484 -1.0134
 5532SOL     OW28057   2.585   3.361   0.957  0.2221 -0.0437  0.1037
 5532SOL    HW128058   2.605   3.454   0.967  0.9970 -0.2249  0.1918
 5532SOL    HW228059   2.506   3.379   0.905 -0.4874  0.3546  1.3069
 5533SOL     OW28060   3.052   1.108   9.190  0.1791  0.1469  0.6661
 5533SOL    HW128061   3.014   1.084   9.105  0.9684  2.4026 -0.3605
 5533SOL    HW228062   3.035   1.035   9.249  0.3669 -0.2482  0.2324
 5534SOL     OW28063   2.170   3.728  13.249  0.6106  0.1305 -0.5745
 5534SOL    HW128064   2.238   3.692  13.306  1.5137  0.2799 -1.5733
 5534SOL    HW228065   2.105   3.660  13.266  1.5566 -0.7546 -0.5310
 5535SOL     OW28066   0.124   0.642   7.837 -0.5647 -0.2445  0.1446
 5535SOL    HW128067   0.035   0.636   7.872  0.3276 -0.9759  2.3190
 5535SOL    HW228068   0.120   0.585   7.761 -1.7353  0.1952 -0.1149
 5536SOL     OW28069   0.105   2.371   6.446 -0.6138 -0.6291  0.2248
 5536SOL    HW128070   0.041   2.439   6.468  0.1585  0.4856 -0.9374
 5536SOL    HW228071   0.047   2.298   6.464 -1.6662 -0.3660 -2.0829
 5537SOL     OW28072   2.806   2.681   6.895 -0.6303 -0.4595 -0.0374
 5537SOL    HW128073   2.808   2.688   6.990 -0.3722  0.6536 -0.1179
 5537SOL    HW228074   2.867   2.608   6.883 -1.8652 -0.8105 -4.3142
 5538SOL     OW28075   4.230   4.462   8.927 -0.1883 -0.7207  0.2361
 5538SOL    HW128076   4.303   4.439   8.986 -1.0878 -2.0243  0.8431
 5538SOL    HW228077   4.284   4.509   8.863 -2.0179 -2.0703 -2.2883
 5539SOL     OW28078   4.111   2.145   7.276 -0.0901 -0.4487 -0.3500
 5539SOL    HW128079   4.059   2.067   7.258 -2.4277  1.2821 -1.1041
 5539SOL    HW228080   4.146   2.154   7.187 -1.0589  0.1860 -0.6658
 5540SOL     OW28081   3.032   2.607   2.442 -0.0223  0.3130  0.5859
 5540SOL    HW128082   3.110   2.656   2.468  0.3516  0.2380 -0.4044
 5540SOL    HW228083   3.069   2.528   2.401  1.5777  1.0218  0.6704
 5541SOL     OW28084   4.129   4.609   0.008 -0.5604  0.0306 -0.2144
 5541SOL    HW128085   4.074   4.549   0.059 -0.1078  0.4555  0.7812
 5541SOL    HW228086   4.096   4.602  17.612 -0.7576  1.8751 -0.2967
 5542SOL     OW28087   0.606   2.581   8.460 -0.0623 -0.1401  0.1564
 5542SOL    HW128088   0.619   2.492   8.429  1.7239  0.3355 -0.4578
 5542SOL    HW228089   0.514   2.583   8.434 -1.0294 -1.2847  3.5642
 5543SOL     OW28090   4.491   3.229   2.398  0.1790  0.0423  0.0168
 5543SOL    HW128091   4.422   3.226   2.332 -0.7901  1.6754  0.9640
 5543SOL    HW228092   4.523   3.311   2.360  0.6531 -0.7164 -1.2163
 5544SOL     OW28093   3.419   2.572   8.806 -0.3615 -0.0810 -0.3316
 5544SOL    HW128094   3.512   2.586   8.790 -0.8076  2.8473 -0.4422
 5544SOL    HW228095   3.416   2.483   8.841 -3.1964  0.8897  1.9137
 5545SOL     OW28096   1.913   1.381   6.366  0.4965 -0.3470  0.4052
 5545SOL    HW128097   1.998   1.355   6.402  1.2349 -0.7928 -1.6633
 5545SOL    HW228098   1.869   1.299   6.343  2.4117 -1.5489  0.9833
 5546SOL     OW28099   4.007   0.782   1.937 -0.1575  0.3862  0.3283
 5546SOL    HW128100   3.916   0.783   1.967 -0.5029 -1.3115 -0.6350
 5546SOL    HW228101   4.053   0.818   2.012  1.8852 -0.9346 -0.3033
 5547SOL     OW28102   0.616   1.772   5.848  0.9361 -0.1402 -0.2209
 5547SOL    HW128103   0.530   1.731   5.858  0.4556  1.2822  1.4759
 5547SOL    HW228104   0.619   1.828   5.926 -0.9219 -0.4398  0.0735
 5548SOL     OW28105   1.698   1.876  11.928  0.1802  0.3912 -0.1656
 5548SOL    HW128106   1.737   1.789  11.930  1.0075  0.7756  0.3132
 5548SOL    HW228107   1.721   1.896  12.018  0.3452  0.1611 -0.1577
 5549SOL     OW28108   1.231   1.803  11.890 -0.9239  0.0208  0.1715
 5549SOL    HW128109   1.324   1.791  11.875 -0.1080  2.9339  2.9413
 5549SOL    HW228110   1.213   1.769  11.978 -2.1936 -1.1785 -0.5444
 5550SOL     OW28111   3.726   1.107   8.694 -1.1704  0.1117 -0.0748
 5550SOL    HW128112   3.779   1.146   8.624 -0.2259 -1.3574 -0.1888
 5550SOL    HW228113   3.664   1.055   8.642 -0.0220 -2.1669  0.8051
 5551SOL     OW28114   3.173   3.829  10.592  0.2956  0.7512 -0.2396
 5551SOL    HW128115   3.234   3.835  10.518 -0.1406  0.7846 -0.5941
 5551SOL    HW228116   3.148   3.737  10.578 -2.1322  1.0458  2.1870
 5552SOL     OW28117   2.215   0.127   4.647 -0.7533 -0.0710 -0.0453
 5552SOL    HW128118   2.130   0.149   4.685 -0.4274 -0.8533  1.1438
 5552SOL    HW228119   2.210   0.170   4.562 -0.7966 -0.4307 -0.2247
 5553SOL     OW28120   2.315   0.875  15.739  0.2730 -0.5198 -0.1893
 5553SOL    HW128121   2.377   0.804  15.722  1.3157  0.7164 -1.5395
 5553SOL    HW228122   2.244   0.855  15.677 -0.2145  0.3652  0.0815
 5554SOL     OW28123   2.669   4.423   1.849 -0.0806 -0.2781  0.1253
 5554SOL    HW128124   2.630   4.337   1.836  0.3782 -0.6495  1.2018
 5554SOL    HW228125   2.691   4.451   1.760  0.4277  0.6501  0.5330
 5555SOL     OW28126   0.096   3.941  15.995 -0.4821  0.7347  0.5234
 5555SOL    HW128127   0.040   3.984  16.059  1.6215 -1.0449  3.5543
 5555SOL    HW228128   0.153   3.887  16.049  0.3097 -0.0116 -1.0280
 5556SOL     OW28129   0.002   0.376   4.138  0.4306 -0.5002 -0.1495
 5556SOL    HW128130   0.085   0.333   4.156  0.7739  0.5914  0.8746
 5556SOL    HW228131   0.036   0.411   4.056 -3.3586  0.9212 -1.1060
 5557SOL     OW28132   2.350   3.241  16.065  0.8816  0.1497 -0.3841
 5557SOL    HW128133   2.323   3.263  16.154 -0.4071 -0.8879 -0.5185
 5557SOL    HW228134   2.423   3.183  16.087  1.9826  1.9877  0.7330
 5558SOL     OW28135   3.280   1.257   9.130 -0.0804 -0.1377 -0.0372
 5558SOL    HW128136   3.201   1.231   9.177  0.3731 -0.3960  0.5715
 5558SOL    HW228137   3.289   1.188   9.064 -3.6607 -0.7598  0.1436
 5559SOL     OW28138   3.067   1.675   6.618  0.6383 -0.0330 -0.1231
 5559SOL    HW128139   3.032   1.722   6.542  0.4882 -1.5103 -0.9697
 5559SOL    HW228140   3.043   1.737   6.687 -2.6752  1.0791 -2.2722
 5560SOL     OW28141   0.781   3.575  16.050 -1.3714 -0.0879 -0.7838
 5560SOL    HW128142   0.823   3.652  16.011  1.3157  0.0580  2.3497
 5560SOL    HW228143   0.759   3.534  15.967  0.1368 -2.7680  0.1284
 5561SOL     OW28144   4.251   0.624  12.975  0.0423  0.6827 -0.4067
 5561SOL    HW128145   4.210   0.653  12.893  0.6401  1.0768 -0.5720
 5561SOL    HW228146   4.288   0.703  13.014  2.9964 -1.0012  0.2442
 5562SOL     OW28147   2.584   4.021   0.391  0.1157  0.7888  0.4430
 5562SOL    HW128148   2.617   3.937   0.361 -2.3791 -0.5793  1.5194
 5562SOL    HW228149   2.515   4.035   0.326  0.0195 -2.9687 -0.2638
 5563SOL     OW28150   2.785   1.671   6.783 -0.1823 -0.3810  0.1938
 5563SOL    HW128151   2.846   1.744   6.769 -0.4408  0.0954  1.6181
 5563SOL    HW228152   2.712   1.716   6.825  0.9554  0.4777  1.2538
 5564SOL     OW28153   1.120   3.320   5.997 -0.1866  0.2838  0.2126
 5564SOL    HW128154   1.087   3.231   5.992  0.3067  0.0518  1.0385
 5564SOL    HW228155   1.040   3.371   5.981  2.0857  3.8457  0.1433
 5565SOL     OW28156   4.091   4.235   3.418 -0.5546 -0.3753  0.0056
 5565SOL    HW128157   4.028   4.283   3.472 -0.6182  2.4252 -2.5818
 5565SOL    HW228158   4.046   4.232   3.333  0.1887  1.3885 -0.4384
 5566SOL     OW28159   1.445   4.006  15.326 -0.0407 -0.0385  0.3388
 5566SOL    HW128160   1.484   3.919  15.328  2.2156  0.8440 -3.1227
 5566SOL    HW228161   1.494   4.052  15.393 -0.9046 -0.9583  1.5886
 5567SOL     OW28162   1.460   2.004   5.170 -0.8621  0.1615 -0.6449
 5567SOL    HW128163   1.498   2.003   5.258  0.6152  0.2277 -1.2782
 5567SOL    HW228164   1.412   2.087   5.167  0.8070  1.1830  0.8940
 5568SOL     OW28165   1.964   1.747   5.596 -0.3802 -0.0729 -0.3930
 5568SOL    HW128166   1.972   1.676   5.661 -1.3630 -1.0817 -1.3921
 5568SOL    HW228167   1.983   1.826   5.647  0.2780 -0.3957 -0.1294
 5569SOL     OW28168   1.728   1.324   7.414 -0.2129 -0.3744  0.3026
 5569SOL    HW128169   1.801   1.272   7.381 -0.0758 -0.3258  0.5304
 5569SOL    HW228170   1.756   1.408   7.380  0.8255 -0.6285  0.5439
 5570SOL     OW28171   0.933   3.519   5.945  0.5891 -0.2336 -0.1894
 5570SOL    HW128172   0.953   3.570   5.866  0.9069  0.0206  0.0566
 5570SOL    HW228173   0.870   3.565   6.000  1.3093 -0.5381  0.8725
 5571SOL     OW28174   3.577   4.345   9.241  0.4924 -0.0482  0.2727
 5571SOL    HW128175   3.619   4.332   9.326  1.4724  0.8115 -0.0818
 5571SOL    HW228176   3.568   4.440   9.246  0.0671 -0.0125 -1.1380
 5572SOL     OW28177   1.373   3.859   4.959  0.1987  0.1959 -0.1367
 5572SOL    HW128178   1.281   3.884   4.971  0.5584  0.8385  1.3306
 5572SOL    HW228179   1.405   3.872   5.048  0.8753 -0.9117 -0.2219
 5573SOL     OW28180   4.717   3.866   2.694 -0.3894 -0.2458  0.6471
 5573SOL    HW128181   0.036   3.868   2.608  1.7797  0.1762  1.7237
 5573SOL    HW228182   4.645   3.926   2.672 -0.8167 -1.4283 -1.2181
 5574SOL     OW28183   0.577   2.071   7.147  0.4048 -0.2486  0.2946
 5574SOL    HW128184   0.484   2.067   7.171  0.7996 -0.9373  1.7137
 5574SOL    HW228185   0.609   2.122   7.222  1.0997  0.2532 -0.3437
 5575SOL     OW28186   4.301   4.388  10.076 -0.2114 -0.0422  0.5892
 5575SOL    HW128187   4.219   4.417  10.115  0.1603 -0.4853  1.7080
 5575SOL    HW228188   4.279   4.300  10.047  0.2027  0.0806 -0.0960
 5576SOL     OW28189   3.760   1.927   2.577  0.1509  0.5434 -0.2381
 5576SOL    HW128190   3.736   1.999   2.519 -1.0935  1.2489  1.1168
 5576SOL    HW228191   3.712   1.945   2.659 -1.1789  1.1923 -1.1557
 5577SOL     OW28192   1.021   3.953   2.770 -0.4379 -0.2562  0.2763
 5577SOL    HW128193   0.998   3.869   2.809 -2.0936  0.8603  1.6862
 5577SOL    HW228194   1.027   3.923   2.679 -0.3781  0.4706  0.0411
 5578SOL     OW28195   2.934   0.094   2.755 -0.0578  0.2589  0.0503
 5578SOL    HW128196   2.927   0.189   2.761 -0.4779  0.1398  1.3551
 5578SOL    HW228197   3.029   0.086   2.748  0.0578  0.4330  1.5692
 5579SOL     OW28198   1.443   0.840  14.538 -0.3955 -0.9334  0.2592
 5579SOL    HW128199   1.518   0.875  14.489  0.3962 -2.1922  0.5668
 5579SOL    HW228200   1.480   0.766  14.587 -0.4196 -0.6600  0.6895
 5580SOL     OW28201   2.619   0.256  16.035 -0.2632  0.3082 -0.2426
 5580SOL    HW128202   2.600   0.274  15.943  2.6601 -1.2686 -1.1551
 5580SOL    HW228203   2.538   0.284  16.078 -0.7866 -0.3838 -0.7620
 5581SOL     OW28204   1.216   2.226   1.036 -0.4048  0.5050 -0.1229
 5581SOL    HW128205   1.277   2.155   1.016 -0.9680  0.0301 -0.1580
 5581SOL    HW228206   1.241   2.292   0.971  0.2640 -0.2202 -0.5903
 5582SOL     OW28207   0.173   2.638   7.461  0.2045  0.0798 -0.0762
 5582SOL    HW128208   0.267   2.656   7.458  0.5068 -1.2031  2.3105
 5582SOL    HW228209   0.166   2.572   7.392  1.3712 -1.3116  1.1481
 5583SOL     OW28210   0.642   2.929   4.533  0.1272  0.3473  1.0795
 5583SOL    HW128211   0.639   2.984   4.455 -2.8772  0.6150  1.3871
 5583SOL    HW228212   0.715   2.871   4.513 -0.2379  0.1116  0.4279
 5584SOL     OW28213   3.454   2.247   9.192  0.1749  0.3569  0.0352
 5584SOL    HW128214   3.363   2.222   9.207  0.0395  0.7100 -0.1899
 5584SOL    HW228215   3.450   2.342   9.184 -0.1446  0.4805  1.5476
 5585SOL     OW28216   0.255   0.820   5.465  0.2832 -0.5066 -0.1557
 5585SOL    HW128217   0.230   0.776   5.384  1.0306 -0.0933 -0.6132
 5585SOL    HW228218   0.178   0.876   5.455  0.4039 -0.1904  0.6992
 5586SOL     OW28219   4.085   0.301   8.571  0.1881 -0.3721 -0.1083
 5586SOL    HW128220   4.031   0.372   8.536  1.8438 -1.0313 -3.9763
 5586SOL    HW228221   4.013   0.246   8.601  0.6567 -0.5254  0.7344
 5587SOL     OW28222   2.709   1.245   8.380  0.0048 -0.1132 -0.2068
 5587SOL    HW128223   2.685   1.327   8.337  2.2026  0.1315 -0.9910
 5587SOL    HW228224   2.634   1.190   8.400 -1.2430  2.2000  1.4420
 5588SOL     OW28225   2.464   2.949  14.415 -0.4741 -0.2528 -0.3673
 5588SOL    HW128226   2.472   2.886  14.344 -0.7765 -1.3823  0.5825
 5588SOL    HW228227   2.519   2.894  14.471  0.6224 -0.4021 -1.6030
 5589SOL     OW28228   4.571   2.261   2.179  0.4418  0.4496 -0.2235
 5589SOL    HW128229   4.511   2.187   2.192  0.9268  0.5534  2.7008
 5589SOL    HW228230   4.593   2.277   2.271 -1.2510 -0.2561  0.3183
 5590SOL     OW28231   3.170   1.971   1.307 -0.0508  0.2138 -0.0750
 5590SOL    HW128232   3.112   2.039   1.341  1.9573  1.3229  1.1225
 5590SOL    HW228233   3.128   1.935   1.229 -1.5546  0.4480  0.6197
 5591SOL     OW28234   1.425   2.972  16.449  0.2724 -0.6392  0.6304
 5591SOL    HW128235   1.333   2.998  16.443  0.0210 -1.4415  0.9790
 5591SOL    HW228236   1.452   2.994  16.538  1.0106 -3.2034  1.0336
 5592SOL     OW28237   1.345   0.729   2.030 -0.3647 -0.4143 -0.3381
 5592SOL    HW128238   1.331   0.702   1.939  1.6247 -1.7491 -0.2430
 5592SOL    HW228239   1.307   0.815   2.051  0.0952 -0.3823  0.3808
 5593SOL     OW28240   3.211   4.457  16.559  0.0081  0.4024 -0.1691
 5593SOL    HW128241   3.300   4.448  16.526 -0.3994 -0.8679 -0.9192
 5593SOL    HW228242   3.186   4.524  16.496  1.6737 -0.3576 -1.6279
 5594SOL     OW28243   4.042   3.442   2.219  0.4690 -0.4859 -0.1995
 5594SOL    HW128244   4.043   3.535   2.197  0.5021 -0.7280 -1.2267
 5594SOL    HW228245   3.991   3.408   2.145  0.3157  0.7607 -0.6752
 5595SOL     OW28246   1.106   1.356   0.473  0.0584 -0.0227  0.0991
 5595SOL    HW128247   1.114   1.299   0.550 -4.0028 -0.5880  0.1327
 5595SOL    HW228248   1.187   1.340   0.426  1.0000  1.4858  1.2085
 5596SOL     OW28249   1.298   3.710  13.505  0.4013 -0.0247 -0.1046
 5596SOL    HW128250   1.358   3.763  13.559 -0.1774  1.8796 -1.3494
 5596SOL    HW228251   1.239   3.785  13.492  0.5079 -0.1378 -1.1716
 5597SOL     OW28252   2.522   2.743   6.468  0.3023  0.4947 -0.3470
 5597SOL    HW128253   2.534   2.772   6.558 -0.4858 -0.8948  0.1981
 5597SOL    HW228254   2.454   2.677   6.483 -0.1192  1.3144  1.2843
 5598SOL     OW28255   4.268   1.681   6.086  0.1338  0.2786  0.1753
 5598SOL    HW128256   4.342   1.716   6.135 -0.6836  1.3923  0.6081
 5598SOL    HW228257   4.220   1.639   6.158  2.0277  1.8552  2.3720
 5599SOL     OW28258   0.815   4.585  14.798  0.2069 -0.0145 -0.5863
 5599SOL    HW128259   0.840   4.630  14.717 -0.0277  0.6109 -0.3085
 5599SOL    HW228260   0.873   4.509  14.793  1.3742  0.7707  1.0373
 5600SOL     OW28261   1.489   0.932   6.824  0.1087 -0.1670  0.0903
 5600SOL    HW128262   1.557   1.000   6.829  1.7738 -1.8152 -0.1233
 5600SOL    HW228263   1.512   0.902   6.736 -0.3757 -2.1739  0.6545
 5601SOL     OW28264   0.545   4.400   9.420 -0.6448 -0.4163 -0.2197
 5601SOL    HW128265   0.494   4.333   9.375  1.1227 -0.6387 -1.8543
 5601SOL    HW228266   0.474   4.458   9.449  1.0520  1.9706 -0.7773
 5602SOL     OW28267   4.122   1.524   2.745  0.1533  0.0245 -0.2371
 5602SOL    HW128268   4.170   1.585   2.690 -0.3591  0.9568  0.3551
 5602SOL    HW228269   4.194   1.460   2.744 -1.2040 -1.5043 -1.0831
 5603SOL     OW28270   1.429   2.131   4.465 -0.0600 -0.1052 -0.1488
 5603SOL    HW128271   1.481   2.135   4.384 -2.1169 -1.3637 -1.5352
 5603SOL    HW228272   1.437   2.220   4.500 -0.0961  0.0845 -0.6123
 5604SOL     OW28273   3.523   3.978   5.123 -0.1335 -0.6879 -0.0917
 5604SOL    HW128274   3.482   3.996   5.039  1.0631 -2.7193 -1.1326
 5604SOL    HW228275   3.452   3.937   5.173  0.2843 -2.9884 -1.3608
 5605SOL     OW28276   1.760   1.081   3.970  0.0503 -0.3514 -0.0456
 5605SOL    HW128277   1.842   1.131   3.975 -0.5600  0.5396  1.1075
 5605SOL    HW228278   1.749   1.090   3.876 -0.2968 -1.9941 -0.1655
 5606SOL     OW28279   3.980   3.444  16.576 -0.4170  0.2455 -0.1774
 5606SOL    HW128280   3.912   3.463  16.511  0.6337  0.8514 -1.0841
 5606SOL    HW228281   3.983   3.534  16.609  0.2325 -0.5665  2.0258
 5607SOL     OW28282   3.671   1.200   7.223 -0.1045  0.1402  0.3375
 5607SOL    HW128283   3.748   1.209   7.279  1.1396 -1.2944 -1.1395
 5607SOL    HW228284   3.599   1.195   7.287 -0.7337 -2.0536 -0.5154
 5608SOL     OW28285   0.634   0.874  16.364 -0.3741  0.1291 -0.5781
 5608SOL    HW128286   0.589   0.953  16.332  2.7233  2.0232 -0.2555
 5608SOL    HW228287   0.671   0.849  16.279  0.1833  1.0380 -0.6022
 5609SOL     OW28288   3.289   1.904   4.023 -0.3581 -0.4446 -0.1857
 5609SOL    HW128289   3.383   1.886   4.023 -0.4786 -1.1131  1.9276
 5609SOL    HW228290   3.297   1.989   4.066 -1.9111 -1.0933  1.3844
 5610SOL     OW28291   2.005   4.267   7.560  0.4662 -0.1820  0.2894
 5610SOL    HW128292   1.938   4.310   7.612 -0.6908 -0.6806 -0.7893
 5610SOL    HW228293   2.069   4.260   7.632 -0.6053  0.0335  1.2626
 5611SOL     OW28294   3.252   2.396   6.812 -0.5278 -0.1550  0.3750
 5611SOL    HW128295   3.287   2.446   6.886  1.3843  0.1597 -0.7151
 5611SOL    HW228296   3.249   2.468   6.749  2.3704 -0.0777  0.3215
 5612SOL     OW28297   2.790   2.275   2.066  0.4503 -0.1282 -0.5579
 5612SOL    HW128298   2.726   2.249   2.131  0.2565  0.1239 -0.6453
 5612SOL    HW228299   2.820   2.190   2.035  1.4413  1.1897 -3.2781
 5613SOL     OW28300   0.943   0.200  11.321  0.3913  0.2115  0.4197
 5613SOL    HW128301   0.885   0.267  11.357  0.5486  2.3302 -3.2954
 5613SOL    HW228302   0.909   0.121  11.363 -1.9397  1.8785  1.6653
 5614SOL     OW28303   3.683   2.470   3.526 -0.3750 -0.2014  0.0730
 5614SOL    HW128304   3.631   2.501   3.600 -0.4967  1.1629 -0.5922
 5614SOL    HW228305   3.612   2.439   3.470 -1.7479 -0.7978  2.1261
 5615SOL     OW28306   1.473   0.033   4.993 -0.1059 -0.1570 -0.0556
 5615SOL    HW128307   1.446   4.681   4.941 -1.2540  0.5971 -0.5468
 5615SOL    HW228308   1.523   0.086   4.931 -1.6516  2.1175  0.6405
 5616SOL     OW28309   2.790   1.501   0.048 -0.2550  0.4214  0.1621
 5616SOL    HW128310   2.814   1.590   0.077 -0.6098  1.0368 -1.4332
 5616SOL    HW228311   2.801   1.448   0.127  0.2170 -0.7851 -0.7246
 5617SOL     OW28312   0.332   3.270   2.860 -0.2262  0.1893 -0.0508
 5617SOL    HW128313   0.401   3.318   2.907  0.6719  1.2483 -2.4217
 5617SOL    HW228314   0.382   3.206   2.809  0.2853  0.8195 -0.3492
 5618SOL     OW28315   0.800   3.461   5.401  0.2661 -0.2068 -0.6937
 5618SOL    HW128316   0.841   3.454   5.487 -3.1067  1.3866  1.0270
 5618SOL    HW228317   0.851   3.538   5.372  0.9434 -0.8579 -1.2500
 5619SOL     OW28318   3.499   1.286   9.480 -0.0337  0.4820  0.1003
 5619SOL    HW128319   3.534   1.251   9.562  1.1781  1.0355 -0.1672
 5619SOL    HW228320   3.561   1.356   9.458  2.0510 -0.2896  3.4923
 5620SOL     OW28321   2.357   0.598   5.058 -0.2986 -0.0091 -0.3216
 5620SOL    HW128322   2.326   0.560   4.976 -0.0676 -0.5378 -0.1665
 5620SOL    HW228323   2.430   0.653   5.030 -0.0382  0.1869  0.7425
 5621SOL     OW28324   3.333   0.272   8.886 -0.7375  0.3017  0.0738
 5621SOL    HW128325   3.313   0.334   8.956 -1.8913  2.9690 -2.5987
 5621SOL    HW228326   3.289   0.312   8.811  1.1556  1.4065 -0.4525
 5622SOL     OW28327   0.764   3.716   1.712  0.0058 -0.4257 -0.5931
 5622SOL    HW128328   0.813   3.776   1.768 -0.7427 -1.2576  0.9568
 5622SOL    HW228329   0.768   3.764   1.630 -0.3747  2.3089  0.9961
 5623SOL     OW28330   0.486   1.118  10.946 -0.2996 -0.0286  0.5263
 5623SOL    HW128331   0.392   1.113  10.966 -0.1903 -0.5102  0.9084
 5623SOL    HW228332   0.507   1.036  10.991  2.3269 -0.0440 -0.7027
 5624SOL     OW28333   3.149   2.498   4.996 -0.4475  0.0104  0.6049
 5624SOL    HW128334   3.120   2.547   5.072 -3.3269  0.8493 -1.0315
 5624SOL    HW228335   3.067   2.467   4.956 -0.4316  0.4546  0.2132
 5625SOL     OW28336   4.350   3.790   7.559  0.0159 -0.2903 -0.0998
 5625SOL    HW128337   4.280   3.763   7.499 -1.3811 -0.4591  1.6103
 5625SOL    HW228338   4.302   3.837   7.628  0.3084 -0.3521  0.1444
 5626SOL     OW28339   3.956   4.122   5.367  0.1695 -0.0793  0.4202
 5626SOL    HW128340   4.007   4.076   5.300  0.6426  0.0578  0.6861
 5626SOL    HW228341   3.901   4.055   5.408  0.4785 -0.7574 -0.2657
 5627SOL     OW28342   3.812   3.317  11.015  0.3053  0.3530  0.4942
 5627SOL    HW128343   3.894   3.270  11.000  0.0934  0.0913  0.1606
 5627SOL    HW228344   3.817   3.353  11.104 -2.2030 -1.2153  1.2786
 5628SOL     OW28345   0.033   0.778  17.272  0.1454 -0.4160 -0.6153
 5628SOL    HW128346   4.708   0.739  17.199  0.4116 -1.4903 -0.2159
 5628SOL    HW228347   0.085   0.842  17.224 -0.1670 -0.4036 -0.9288
 5629SOL     OW28348   2.663   1.637   4.845 -0.1989 -0.0052 -0.5088
 5629SOL    HW128349   2.731   1.690   4.803 -0.8129  2.6997  1.9348
 5629SOL    HW228350   2.694   1.552   4.812 -2.3538 -0.9354 -0.1490
 5630SOL     OW28351   2.587   2.555   3.599 -0.5553 -0.2828  0.9454
 5630SOL    HW128352   2.611   2.495   3.528 -2.6769 -0.9842  0.8337
 5630SOL    HW228353   2.640   2.630   3.572 -1.4218  0.1151  0.3404
 5631SOL     OW28354   0.406   3.965   3.820 -0.6667 -0.0139 -0.5385
 5631SOL    HW128355   0.488   3.971   3.771  0.7411  1.3778  2.0125
 5631SOL    HW228356   0.347   4.016   3.765 -0.7513 -0.6387 -1.0299
 5632SOL     OW28357   2.662   0.362   5.695  0.8041  0.6667  0.3711
 5632SOL    HW128358   2.607   0.372   5.772  0.2213  0.1750  0.0138
 5632SOL    HW228359   2.603   0.329   5.627  0.6271  0.8676  0.4264
 5633SOL     OW28360   2.757   4.392   7.399 -0.8059  0.2761 -0.3720
 5633SOL    HW128361   2.852   4.396   7.394 -0.8554  1.3870 -0.4337
 5633SOL    HW228362   2.731   4.404   7.307  0.3134  2.6370 -0.3741
 5634SOL     OW28363   0.154   2.711   4.056 -0.1356  0.4854  0.3758
 5634SOL    HW128364   0.152   2.617   4.039 -2.4842  0.2449  1.9584
 5634SOL    HW228365   0.182   2.724   4.146 -0.3375 -1.7927  0.7764
 5635SOL     OW28366   3.803   0.635   3.976  0.1301  0.1169 -0.2433
 5635SOL    HW128367   3.877   0.689   3.948 -0.1607  0.8168  0.3200
 5635SOL    HW228368   3.852   0.555   3.995 -0.4574  0.0453  0.9641
 5636SOL     OW28369   4.394   3.769  17.606 -0.2251 -0.4771 -0.6174
 5636SOL    HW128370   4.461   3.818  17.557 -1.8684  1.0000 -1.3822
 5636SOL    HW228371   4.316   3.801  17.560 -1.0925 -1.4916  0.1475
 5637SOL     OW28372   3.728   0.192  10.520 -0.2856 -0.1566 -0.2083
 5637SOL    HW128373   3.691   0.212  10.435  1.8500 -0.7244 -1.2739
 5637SOL    HW228374   3.652   0.189  10.578  0.5407  0.3456  0.9240
 5638SOL     OW28375   1.049   4.249   6.719 -0.3887  0.1231 -0.4953
 5638SOL    HW128376   1.025   4.208   6.803 -0.6518  1.1968 -0.0421
 5638SOL    HW228377   1.028   4.342   6.731  0.3742  0.1388  0.7647
 5639SOL     OW28378   1.438   2.780   2.084  0.0024  0.0492 -0.6512
 5639SOL    HW128379   1.343   2.769   2.094 -0.4277  3.3834 -0.9727
 5639SOL    HW228380   1.474   2.710   2.139  1.7281  1.2679 -0.2587
 5640SOL     OW28381   1.632   0.778   7.009 -0.0555  0.0161  0.8309
 5640SOL    HW128382   1.579   0.839   6.959 -0.0158 -1.2888 -0.8027
 5640SOL    HW228383   1.702   0.838   7.036 -1.6766  1.8903  0.8788
 5641SOL     OW28384   0.771   1.500   2.679  0.0635  0.0712  0.1281
 5641SOL    HW128385   0.680   1.519   2.657  0.0312 -0.4292 -0.1688
 5641SOL    HW228386   0.760   1.466   2.768  0.9555 -0.6286 -0.0257
 5642SOL     OW28387   2.094   0.230   7.761 -0.3653 -0.6039  0.4156
 5642SOL    HW128388   2.076   0.198   7.673 -0.9332  1.0086 -0.0573
 5642SOL    HW228389   2.029   0.301   7.764  0.0769 -0.2266  1.2516
 5643SOL     OW28390   2.918   1.883   4.848  0.4068 -0.1684  0.1465
 5643SOL    HW128391   2.925   1.815   4.782 -2.5450 -1.1203  0.8057
 5643SOL    HW228392   2.917   1.829   4.927  0.2331  0.6873  0.7250
 5644SOL     OW28393   3.989   0.589   1.681  0.2963 -0.3761 -0.1502
 5644SOL    HW128394   3.928   0.654   1.646  1.2548  0.5583 -0.1011
 5644SOL    HW228395   4.058   0.644   1.717  0.0466 -0.3678  0.3135
 5645SOL     OW28396   2.226   4.401  14.962 -0.2376  0.0311 -0.1394
 5645SOL    HW128397   2.265   4.450  15.035 -2.6512  0.7885  0.6492
 5645SOL    HW228398   2.135   4.428  14.975 -1.0655 -1.0129 -3.8571
 5646SOL     OW28399   1.936   2.598   1.958  0.0231 -0.1130 -0.3828
 5646SOL    HW128400   1.914   2.563   1.872 -0.8051  1.1904 -0.6902
 5646SOL    HW228401   1.962   2.689   1.948  1.6148 -0.5965 -0.6798
 5647SOL     OW28402   4.434   2.586   2.317  0.3545  0.4890  1.0737
 5647SOL    HW128403   4.392   2.535   2.387 -0.6622  1.5909  1.2604
 5647SOL    HW228404   4.358   2.616   2.267  0.1944 -0.8961  0.4614
 5648SOL     OW28405   3.178   0.162   7.208 -0.6749  0.0434 -0.4290
 5648SOL    HW128406   3.170   0.234   7.146 -4.1399 -1.2554 -1.5087
 5648SOL    HW228407   3.152   0.085   7.158 -0.0136 -1.4119  1.4609
 5649SOL     OW28408   0.284   4.664   9.966 -0.4659  0.3231 -0.1082
 5649SOL    HW128409   0.364   4.708   9.992 -0.2501 -1.5549  2.4149
 5649SOL    HW228410   0.235   0.020   9.944  0.3363  0.7938 -0.1894
 5650SOL     OW28411   4.323   2.117   2.845 -0.4775 -0.2328 -0.1799
 5650SOL    HW128412   4.293   2.029   2.823 -1.4474  0.0123  0.1875
 5650SOL    HW228413   4.236   2.156   2.852  0.1836  1.3484 -0.9190
 5651SOL     OW28414   3.761   2.942   0.407  0.0539  0.3153 -0.4742
 5651SOL    HW128415   3.775   2.998   0.484  1.2877  0.2050 -0.6111
 5651SOL    HW228416   3.685   2.893   0.436  0.4882  0.1732  0.4194
 5652SOL     OW28417   1.698   2.999   5.166 -0.1795  0.2105 -0.0599
 5652SOL    HW128418   1.691   2.934   5.097  0.1542  1.1474 -0.9806
 5652SOL    HW228419   1.639   2.965   5.233  0.8484  0.7179  1.1022
 5653SOL     OW28420   0.426   3.495   4.524 -0.1027  0.1823 -0.2035
 5653SOL    HW128421   0.519   3.487   4.544 -0.2389  1.5393  0.9982
 5653SOL    HW228422   0.395   3.571   4.573  2.4946  2.1184 -1.5462
 5654SOL     OW28423   0.657   1.539   7.269  0.2349 -0.5509 -0.1552
 5654SOL    HW128424   0.614   1.493   7.197 -2.4350  0.4872  0.8113
 5654SOL    HW228425   0.672   1.475   7.339 -1.4506 -0.4486  0.2932
 5655SOL     OW28426   3.774   0.909   3.227  0.4111  0.3484 -0.0232
 5655SOL    HW128427   3.766   1.004   3.230 -0.2169  0.3011 -0.2678
 5655SOL    HW228428   3.868   0.906   3.248  0.0697 -0.2728  1.3614
 5656SOL     OW28429   1.501   3.383   4.367  0.4394  0.0524  0.5629
 5656SOL    HW128430   1.591   3.354   4.356  0.5009  1.5558 -2.7481
 5656SOL    HW228431   1.471   3.309   4.420 -2.2772  0.8770  0.1877
 5657SOL     OW28432   0.382   3.137   5.176  0.0696  0.2100 -0.1182
 5657SOL    HW128433   0.288   3.148   5.162 -0.0802 -0.2064  0.5454
 5657SOL    HW228434   0.399   3.068   5.112  2.0345 -0.5538  1.2187
 5658SOL     OW28435   2.529   2.952   8.605  0.1050 -0.0150  0.0504
 5658SOL    HW128436   2.607   2.898   8.592 -0.0544 -0.4915  1.0579
 5658SOL    HW228437   2.565   3.013   8.670 -0.0299 -0.6705  0.7364
 5659SOL     OW28438   0.847   1.682  15.695  0.4097 -0.4630 -0.2234
 5659SOL    HW128439   0.776   1.684  15.759  0.1023 -1.1940 -0.5501
 5659SOL    HW228440   0.868   1.770  15.663 -0.5699 -0.4159 -0.7119
 5660SOL     OW28441   3.213   1.093  13.103  0.1596  0.1742  0.7866
 5660SOL    HW128442   3.236   1.011  13.060  1.6724  0.4922  0.9763
 5660SOL    HW228443   3.208   1.153  13.029 -0.8171 -1.4243 -0.4295
 5661SOL     OW28444   2.816   1.477   3.930  0.5312 -0.2556 -0.1980
 5661SOL    HW128445   2.758   1.440   3.997 -2.9584 -0.0802 -3.1125
 5661SOL    HW228446   2.814   1.414   3.858  0.5985 -0.5105  0.0251
 5662SOL     OW28447   0.989   1.268  15.438  0.1364 -0.1636 -0.2646
 5662SOL    HW128448   1.047   1.324  15.489 -0.4742 -0.2436  0.5022
 5662SOL    HW228449   1.022   1.293  15.351 -0.6383  0.4009 -0.4026
 5663SOL     OW28450   2.480   1.697   5.940 -0.0922  0.5441 -0.4959
 5663SOL    HW128451   2.486   1.730   5.850  2.1568  0.1604 -0.4896
 5663SOL    HW228452   2.406   1.636   5.939 -1.0760  1.7734 -1.9065
 5664SOL     OW28453   0.233   0.634   0.958  0.0240  0.0272  0.9134
 5664SOL    HW128454   0.247   0.657   1.050  0.3203 -0.7779  1.0655
 5664SOL    HW228455   0.162   0.571   0.960 -0.1993  0.3412  3.0464
 5665SOL     OW28456   3.784   4.097   9.982 -0.3341  0.2866 -0.6380
 5665SOL    HW128457   3.706   4.095   9.927  0.5751 -0.3314 -1.9031
 5665SOL    HW228458   3.777   4.181  10.027 -1.5945  0.4406 -1.1299
 5666SOL     OW28459   2.835   3.919  12.581 -0.1334  0.3300  0.1399
 5666SOL    HW128460   2.864   3.829  12.594 -0.7270  0.1098 -0.1003
 5666SOL    HW228461   2.785   3.938  12.660  1.4022  3.4392  0.3886
 5667SOL     OW28462   2.197   0.265   8.081 -0.0873  0.0029 -0.0810
 5667SOL    HW128463   2.158   0.251   7.994  0.5548 -0.2081 -0.3375
 5667SOL    HW228464   2.178   0.180   8.120  1.7218 -0.4991 -0.3044
 5668SOL     OW28465   0.106   2.482   3.238 -0.0853 -0.4030 -0.2044
 5668SOL    HW128466   0.033   2.421   3.224 -0.4762  0.2547 -0.9739
 5668SOL    HW228467   0.059   2.559   3.207  2.1656  1.6734  1.6264
 5669SOL     OW28468   0.436   4.708   7.552 -0.5232 -0.7319 -0.3678
 5669SOL    HW128469   0.382   0.064   7.549  0.2500 -0.1961 -0.0849
 5669SOL    HW228470   0.368   4.646   7.525 -3.5156  1.1634  2.7181
 5670SOL     OW28471   0.943   2.824   5.230 -0.7269 -0.0420 -0.0085
 5670SOL    HW128472   0.875   2.810   5.295 -0.9127  0.5732 -0.0708
 5670SOL    HW228473   0.903   2.903   5.192  1.2031  2.4031  3.0885
 5671SOL     OW28474   2.688   0.446  12.271  0.1140  0.3525 -0.4530
 5671SOL    HW128475   2.689   0.358  12.307 -0.3801  0.3328 -0.4874
 5671SOL    HW228476   2.598   0.466  12.245  0.7764  1.6571 -1.7928
 5672SOL     OW28477   3.912   2.246   8.890  0.3602  0.0192 -0.1622
 5672SOL    HW128478   3.927   2.331   8.848 -2.6966  1.0629  0.8451
 5672SOL    HW228479   3.875   2.277   8.972  2.6862 -1.3848  1.4064
 5673SOL     OW28480   0.920   3.990   1.170  0.3149  0.1530  0.0539
 5673SOL    HW128481   0.859   3.918   1.156 -0.4438  0.4898  1.6569
 5673SOL    HW228482   0.924   4.021   1.079 -0.9416 -0.4608 -0.2190
 5674SOL     OW28483   2.739   0.768  13.071 -0.8784 -0.2506  0.4349
 5674SOL    HW128484   2.735   0.798  12.980  1.4883 -2.5748 -0.4371
 5674SOL    HW228485   2.807   0.822  13.109 -1.0602 -0.2781  0.7970
 5675SOL     OW28486   0.977   0.458  13.061  0.1081  0.4740 -0.0728
 5675SOL    HW128487   1.007   0.547  13.082  2.8400  0.0283 -2.0138
 5675SOL    HW228488   0.977   0.420  13.149  0.7797  1.7473  0.4820
 5676SOL     OW28489   0.085   2.357   2.069 -0.0100  0.1325 -0.1436
 5676SOL    HW128490   0.060   2.430   2.012 -1.0057 -0.9108 -1.0404
 5676SOL    HW228491   0.005   2.306   2.084 -0.0357  0.0037 -0.7108
 5677SOL     OW28492   4.057   4.365  13.084  0.0590  0.7099  0.4649
 5677SOL    HW128493   4.108   4.339  13.160  0.4360 -1.1736 -0.4456
 5677SOL    HW228494   4.041   4.459  13.094  1.6125  0.9026  1.1642
 5678SOL     OW28495   1.122   4.291  12.869 -0.3721 -0.4761 -0.1336
 5678SOL    HW128496   1.182   4.360  12.896 -2.4255  0.7543  1.3167
 5678SOL    HW228497   1.182   4.217  12.864  0.0626 -0.2063  1.3021
 5679SOL     OW28498   1.497   1.066   4.896  0.2698 -0.2154  0.1629
 5679SOL    HW128499   1.561   1.001   4.865  1.2981  0.0160  1.8052
 5679SOL    HW228500   1.486   1.027   4.983  0.4049  0.8104  0.6341
 5680SOL     OW28501   3.357   2.310   8.870  0.1828  0.3400  0.1602
 5680SOL    HW128502   3.368   2.260   8.952  1.3629 -1.1300 -0.8865
 5680SOL    HW228503   3.263   2.326   8.873  0.0809 -0.5355  2.0685
 5681SOL     OW28504   4.341   1.301  12.357 -0.2381 -0.2869 -0.5148
 5681SOL    HW128505   4.365   1.334  12.444  0.4865 -1.0771 -0.4125
 5681SOL    HW228506   4.314   1.213  12.381  0.6454 -0.0980  1.2062
 5682SOL     OW28507   1.023   0.877   8.168 -0.3802 -0.3250  0.2364
 5682SOL    HW128508   1.054   0.805   8.113 -1.2835  0.1339 -0.8670
 5682SOL    HW228509   1.039   0.848   8.258  0.0016  0.0368  0.2863
 5683SOL     OW28510   3.186   3.138   4.439  0.0576 -0.0453  0.8502
 5683SOL    HW128511   3.208   3.231   4.449 -0.1608 -0.0049  0.9528
 5683SOL    HW228512   3.095   3.133   4.412  0.5887  1.1968 -1.1609
 5684SOL     OW28513   4.660   2.429   4.246 -0.4863  0.0149  1.0971
 5684SOL    HW128514   4.713   2.489   4.300  0.4650  0.2598 -0.0935
 5684SOL    HW228515   4.681   2.342   4.278 -1.7385 -0.2104  1.3000
 5685SOL     OW28516   1.416   3.092  13.467 -0.3247 -0.1764 -0.4904
 5685SOL    HW128517   1.461   3.136  13.540 -1.6354  2.4477 -1.2336
 5685SOL    HW228518   1.364   3.025  13.512  1.3511 -0.9184  0.3107
 5686SOL     OW28519   1.338   2.371  11.970 -0.3263  0.2719  0.9242
 5686SOL    HW128520   1.380   2.310  11.909  0.0564 -0.0307  1.4878
 5686SOL    HW228521   1.272   2.316  12.013 -1.5232  1.9641  1.2534
 5687SOL     OW28522   3.919   0.781  16.760  0.3760  0.0391 -0.8573
 5687SOL    HW128523   4.014   0.788  16.747  0.5233  0.8421  0.6927
 5687SOL    HW228524   3.909   0.750  16.850  0.3388  2.1524 -0.1420
 5688SOL     OW28525   1.530   0.776  16.570 -0.4325 -0.0656 -0.4653
 5688SOL    HW128526   1.523   0.852  16.513 -1.5023  0.7840  0.8285
 5688SOL    HW228527   1.440   0.769  16.602 -1.0531  1.7449 -1.8550
 5689SOL     OW28528   0.350   3.398   5.289 -0.3118  0.2222 -0.3052
 5689SOL    HW128529   0.412   3.400   5.362  0.4641 -1.2368 -0.9348
 5689SOL    HW228530   0.375   3.318   5.242 -1.1737  0.2642 -0.8206
 5690SOL     OW28531   2.692   2.398   3.406  0.7652 -0.1707 -0.3427
 5690SOL    HW128532   2.717   2.373   3.317 -0.3501 -1.6335 -0.2406
 5690SOL    HW228533   2.758   2.341   3.446 -0.6039 -0.1056  1.9986
 5691SOL     OW28534   1.168   2.897  14.910  0.1551  0.1320 -0.1084
 5691SOL    HW128535   1.243   2.939  14.867 -1.0166  1.6276 -0.7234
 5691SOL    HW228536   1.200   2.811  14.936  0.6081 -0.1016 -1.4281
 5692SOL     OW28537   3.355   1.066   3.488  0.2497  0.1563  0.4885
 5692SOL    HW128538   3.294   1.096   3.420 -0.9614 -0.8134  1.1509
 5692SOL    HW228539   3.435   1.039   3.443 -0.7391 -0.6003 -0.7992
 5693SOL     OW28540   2.600   0.696   4.109  0.6920 -0.4170 -0.5189
 5693SOL    HW128541   2.670   0.732   4.055 -0.0161  0.0302 -1.1441
 5693SOL    HW228542   2.646   0.694   4.192 -0.4212  2.3671  0.1647
 5694SOL     OW28543   1.459   3.713   9.227  0.4130 -0.2436 -0.4341
 5694SOL    HW128544   1.419   3.773   9.164 -0.4304 -0.6231 -0.2626
 5694SOL    HW228545   1.504   3.650   9.170 -2.4471 -1.9643 -0.8185
 5695SOL     OW28546   1.590   2.576  17.337 -0.0181  0.0168 -0.8355
 5695SOL    HW128547   1.538   2.531  17.404  1.4438 -1.9768 -1.0389
 5695SOL    HW228548   1.674   2.563  17.382 -0.3058 -0.3759 -0.4022
 5696SOL     OW28549   3.452   1.484   2.686  0.7729  0.2434 -0.0715
 5696SOL    HW128550   3.511   1.539   2.635  1.1269  2.0859  2.3113
 5696SOL    HW228551   3.381   1.465   2.625  0.6874 -0.6351  0.3105
 5697SOL     OW28552   0.824   1.970  14.702 -0.4005 -0.8988  0.3098
 5697SOL    HW128553   0.822   1.985  14.607  1.5596  0.9815  0.5530
 5697SOL    HW228554   0.816   1.875  14.699  2.3112 -1.1783  1.9503
 5698SOL     OW28555   2.743   0.446  10.575  0.4128  0.2984  0.0051
 5698SOL    HW128556   2.773   0.357  10.590 -1.0064 -0.2074 -0.0918
 5698SOL    HW228557   2.696   0.455  10.658  1.8339  1.3761  0.6980
 5699SOL     OW28558   0.535   1.384  12.585 -0.2539  0.1876 -0.0000
 5699SOL    HW128559   0.563   1.293  12.593 -0.2491  0.1555 -0.3757
 5699SOL    HW228560   0.610   1.436  12.613  0.1511 -0.8940  0.9159
 5700SOL     OW28561   4.571   2.679   4.753  0.0873 -0.4723 -0.2057
 5700SOL    HW128562   4.552   2.679   4.847  3.3789 -1.4822  0.4516
 5700SOL    HW228563   4.495   2.723   4.716  0.6324  1.3881  0.8792
 5701SOL     OW28564   0.582   3.076   5.382  0.0195 -0.3315 -0.4156
 5701SOL    HW128565   0.529   3.111   5.310 -0.6656 -2.7223 -1.0849
 5701SOL    HW228566   0.514   3.066   5.449 -0.4342  2.4736 -0.4612
 5702SOL     OW28567   2.326   4.712   6.416  0.0639 -0.2749 -0.5013
 5702SOL    HW128568   2.245   0.008   6.464  1.4316  1.2685  1.2012
 5702SOL    HW228569   2.328   0.055   6.346  0.2171  0.9847  0.6752
 5703SOL     OW28570   0.519   3.463   3.009  0.7904  0.0809  0.1624
 5703SOL    HW128571   0.526   3.548   2.966 -1.2757  0.4252  0.4962
 5703SOL    HW228572   0.613   3.445   3.012  0.4586 -1.9742 -1.7394
 5704SOL     OW28573   4.132   3.475  12.457 -0.4508  0.5688 -0.1114
 5704SOL    HW128574   4.068   3.528  12.505  0.8526 -0.4318  2.7917
 5704SOL    HW228575   4.099   3.478  12.367 -0.9786  0.3551  0.0698
 5705SOL     OW28576   3.902   3.872   6.232  0.1823  0.1686  0.2806
 5705SOL    HW128577   3.981   3.853   6.284 -0.2082 -1.9355  0.1093
 5705SOL    HW228578   3.847   3.926   6.288 -1.8435 -0.1001 -1.4443
 5706SOL     OW28579   1.870   4.367   6.058  0.7530  0.3099 -0.0389
 5706SOL    HW128580   1.910   4.280   6.062 -2.3363 -1.1368 -0.4665
 5706SOL    HW228581   1.846   4.381   6.150  1.5633 -0.9468  0.3656
 5707SOL     OW28582   2.331   0.858   4.909  0.1079 -0.7322 -0.1367
 5707SOL    HW128583   2.269   0.918   4.867  1.0805  1.8396  2.0981
 5707SOL    HW228584   2.336   0.798   4.835 -1.8617  0.0585 -0.9172
 5708SOL     OW28585   0.174   0.727   2.013 -0.2755  0.6561  0.2378
 5708SOL    HW128586   0.196   0.647   1.965 -0.9390  0.3807  0.3883
 5708SOL    HW228587   0.080   0.732   1.994 -0.3320 -0.3572  0.2446
 5709SOL     OW28588   4.078   4.528  11.461 -0.9306 -0.7366 -0.2003
 5709SOL    HW128589   4.103   4.558  11.548  1.0981  0.4286 -1.1717
 5709SOL    HW228590   4.160   4.533  11.411 -0.1913  0.6297  1.1493
 5710SOL     OW28591   4.457   1.962   7.566 -0.4059  0.4944 -1.1673
 5710SOL    HW128592   4.521   1.900   7.531 -1.8835 -1.8530  0.3088
 5710SOL    HW228593   4.375   1.913   7.555 -0.5454  0.5372 -0.2530
 5711SOL     OW28594   3.473   4.512  15.235 -0.4053 -0.4862  0.4362
 5711SOL    HW128595   3.543   4.565  15.274  1.1759 -1.4232 -1.1472
 5711SOL    HW228596   3.428   4.481  15.313 -0.8613 -1.8499 -0.3704
 5712SOL     OW28597   0.505   4.681  17.231 -0.5658  0.1781  0.1234
 5712SOL    HW128598   0.502   4.684  17.135  2.0547  0.6163  0.0541
 5712SOL    HW228599   0.426   4.638  17.262 -0.7130  0.7396  0.5303
 5713SOL     OW28600   1.447   2.379   9.445  0.1872  0.6897  0.2871
 5713SOL    HW128601   1.419   2.295   9.483 -0.4321  1.5870  1.8347
 5713SOL    HW228602   1.443   2.365   9.350  0.4380 -0.9871  0.5136
 5714SOL     OW28603   0.456   4.112   2.021  0.0794  0.6364  0.8178
 5714SOL    HW128604   0.423   4.025   2.001  0.6477  0.4738  0.6105
 5714SOL    HW228605   0.398   4.123   2.097 -1.1281  1.5270 -0.2509
 5715SOL     OW28606   4.627   1.751   1.492  0.1760 -0.3415  0.3209
 5715SOL    HW128607   4.698   1.688   1.505  0.0353 -0.0075  2.6324
 5715SOL    HW228608   4.633   1.819   1.559 -0.0861 -0.0962  0.0949
 5716SOL     OW28609   0.903   2.423   8.236  0.2786  0.9942 -0.0237
 5716SOL    HW128610   0.948   2.484   8.294  0.6655 -1.2122  2.0119
 5716SOL    HW228611   0.972   2.395   8.175 -1.4206 -2.0211 -0.5449
 5717SOL     OW28612   0.515   1.104  16.278  0.0291 -0.3569  0.6335
 5717SOL    HW128613   0.447   1.164  16.245  1.0392  0.4208 -0.0222
 5717SOL    HW228614   0.587   1.166  16.290  0.5755 -1.3269  2.3557
 5718SOL     OW28615   3.857   2.243  14.882  0.9378 -0.1054 -0.2950
 5718SOL    HW128616   3.839   2.179  14.951  2.1776  0.4683  0.5556
 5718SOL    HW228617   3.804   2.200  14.815  0.1349 -0.9349  0.8952
 5719SOL     OW28618   2.463   0.254   0.172 -0.3960 -0.3994  0.1566
 5719SOL    HW128619   2.406   0.328   0.155  2.6708  1.6213 -1.3289
 5719SOL    HW228620   2.424   0.181   0.124 -1.9014  1.2320 -1.0908
 5720SOL     OW28621   4.302   1.805   9.034  0.0731 -0.2947 -0.0298
 5720SOL    HW128622   4.379   1.765   8.993  0.3336 -0.3214  0.4803
 5720SOL    HW228623   4.341   1.805   9.121  1.1281  0.0167 -0.5029
 5721SOL     OW28624   2.989   0.289   0.639  0.5675 -0.1647 -0.2312
 5721SOL    HW128625   2.960   0.356   0.702 -1.3666  0.0812 -1.3907
 5721SOL    HW228626   2.916   0.294   0.577  0.2442  0.1398  0.1680
 5722SOL     OW28627   4.547   0.711   6.404 -0.4688 -0.2226  0.8015
 5722SOL    HW128628   4.536   0.714   6.499  0.9089 -0.6576  0.9706
 5722SOL    HW228629   4.616   0.645   6.394 -0.0913  0.0836  1.3770
 5723SOL     OW28630   2.477   3.802  15.584 -0.4863  0.3864  0.2203
 5723SOL    HW128631   2.525   3.720  15.576 -1.7637 -0.1808 -1.6515
 5723SOL    HW228632   2.553   3.847  15.621  0.6112 -0.4603 -0.9843
 5724SOL     OW28633   2.193   4.571  10.126  0.4725  0.3714  0.2837
 5724SOL    HW128634   2.205   4.501  10.061 -0.7290 -0.5038  1.0110
 5724SOL    HW228635   2.282   4.597  10.148  1.1436 -0.7002 -1.1581
 5725SOL     OW28636   3.556   0.925   8.856  0.5332  0.3486  0.0136
 5725SOL    HW128637   3.589   0.930   8.946 -0.7691 -0.9322  0.5535
 5725SOL    HW228638   3.629   0.969   8.812  0.9410  1.5592  1.9033
 5726SOL     OW28639   1.350   2.720   3.201 -0.4382  0.3936 -0.1400
 5726SOL    HW128640   1.266   2.680   3.177 -1.1985  0.5472  2.2304
 5726SOL    HW228641   1.403   2.679   3.133 -1.7617 -0.0870 -0.8811
 5727SOL     OW28642   3.053   2.694   5.201 -0.5043  0.0287 -0.1509
 5727SOL    HW128643   3.020   2.775   5.161  0.9329  0.8530  0.3340
 5727SOL    HW228644   3.098   2.722   5.280 -0.8146  1.7749 -0.5997
 5728SOL     OW28645   2.233   0.069  15.021 -0.0431 -0.5301 -0.0238
 5728SOL    HW128646   2.181   0.006  15.071  0.7702 -0.4448  0.9382
 5728SOL    HW228647   2.302   0.019  14.976  0.3633  0.4714 -0.5187
 5729SOL     OW28648   0.456   3.676   1.978  0.0136 -0.1584  0.4238
 5729SOL    HW128649   0.458   3.672   1.882  1.6654  0.9725  0.4086
 5729SOL    HW228650   0.486   3.587   1.996 -0.4211 -0.2270  0.8057
 5730SOL     OW28651   0.720   2.670   3.755  0.3173 -0.2872  0.0019
 5730SOL    HW128652   0.704   2.589   3.803  0.3554  0.1824  0.8102
 5730SOL    HW228653   0.807   2.656   3.719 -0.4519 -0.0885 -1.9489
 5731SOL     OW28654   1.918   0.979   4.215  0.1612 -0.4511 -0.1688
 5731SOL    HW128655   1.856   0.971   4.143 -0.0421 -2.6440  0.2510
 5731SOL    HW228656   1.995   0.952   4.165 -0.1727 -2.3058  0.3121
 5732SOL     OW28657   0.940   3.583   2.605  0.2339  0.4130  0.0994
 5732SOL    HW128658   0.885   3.509   2.581  1.2460 -0.2018 -0.3181
 5732SOL    HW228659   0.987   3.591   2.522  2.3624 -3.2564  0.9408
 5733SOL     OW28660   2.492   4.525   9.598  0.2994  0.1530 -0.0749
 5733SOL    HW128661   2.494   4.448   9.654  0.8371 -0.1286 -0.4808
 5733SOL    HW228662   2.469   4.485   9.513  0.1108  2.7506 -1.2498
 5734SOL     OW28663   2.716   2.596   3.020 -0.2186  0.5016 -1.0810
 5734SOL    HW128664   2.773   2.566   2.949  2.5443  0.0876  1.3058
 5734SOL    HW228665   2.781   2.592   3.091 -2.4622 -0.0247  0.9474
 5735SOL     OW28666   0.753   4.242  14.811 -0.5724 -0.4453 -0.5651
 5735SOL    HW128667   0.731   4.206  14.896 -0.0729  1.9610  0.5844
 5735SOL    HW228668   0.669   4.277  14.781 -0.4253  1.0790  0.8070
 5736SOL     OW28669   0.551   0.396   2.815  0.0990 -0.5872  0.1584
 5736SOL    HW128670   0.629   0.341   2.825  2.4772  2.9667  0.9691
 5736SOL    HW228671   0.530   0.392   2.722 -2.4923 -3.1561  0.8301
 5737SOL     OW28672   3.557   4.398   2.909 -0.4011  0.1049 -0.4511
 5737SOL    HW128673   3.625   4.396   2.842  2.1703  1.1600  2.1009
 5737SOL    HW228674   3.522   4.485   2.887 -0.7353 -0.1596 -0.9545
 5738SOL     OW28675   1.458   3.351   7.549  0.3955 -0.5295  0.4214
 5738SOL    HW128676   1.551   3.344   7.571  0.4630 -0.3266  0.1995
 5738SOL    HW228677   1.416   3.271   7.580 -2.1987  0.1584 -1.3684
 5739SOL     OW28678   4.498   3.328  15.293  0.1772 -0.0552 -0.2142
 5739SOL    HW128679   4.458   3.241  15.299 -0.1409  0.0593 -0.6719
 5739SOL    HW228680   4.508   3.344  15.199 -1.9551 -1.9858 -0.7829
 5740SOL     OW28681   3.707   2.860   4.110 -0.4615 -0.7265 -0.3191
 5740SOL    HW128682   3.796   2.892   4.128  0.1336 -2.3818 -0.3329
 5740SOL    HW228683   3.658   2.939   4.089 -0.4070 -0.8974 -1.0707
 5741SOL     OW28684   2.240   0.806   9.351 -0.4472 -0.1217 -0.5477
 5741SOL    HW128685   2.259   0.727   9.402 -1.9579  0.3659  0.7634
 5741SOL    HW228686   2.196   0.846   9.426  2.0471  1.5744 -0.0042
 5742SOL     OW28687   1.414   0.452  11.190 -0.0662 -0.1808 -0.0419
 5742SOL    HW128688   1.392   0.518  11.256 -1.8018  0.4448 -1.2457
 5742SOL    HW228689   1.326   0.436  11.157  0.1693 -1.2073 -0.1554
 5743SOL     OW28690   1.218   2.987   8.035 -0.2738  0.0218 -0.2684
 5743SOL    HW128691   1.205   3.001   8.128  1.5286 -1.4369  0.2015
 5743SOL    HW228692   1.294   2.930   8.039 -0.1804  0.1102 -0.7140
 5744SOL     OW28693   2.280   3.207   6.278 -0.2587 -0.2137  0.2600
 5744SOL    HW128694   2.215   3.260   6.323  0.6598  0.3385  0.9362
 5744SOL    HW228695   2.348   3.214   6.345 -0.5021 -0.2079  0.5042
 5745SOL     OW28696   3.935   2.394  10.076 -0.0457 -0.2353  0.0824
 5745SOL    HW128697   3.993   2.458  10.116 -2.2336  2.2036 -0.6098
 5745SOL    HW228698   3.905   2.342  10.150 -1.6042 -0.6951 -0.8572
 5746SOL     OW28699   1.617   3.544   5.113  0.1865  0.4535 -0.5140
 5746SOL    HW128700   1.525   3.520   5.123 -0.3734  1.2075 -4.0509
 5746SOL    HW228701   1.623   3.555   5.018  0.7901  2.2294 -0.2708
 5747SOL     OW28702   1.471   2.538  15.299  0.0013 -0.6811 -0.1424
 5747SOL    HW128703   1.517   2.513  15.219  0.1750  0.6810 -0.4561
 5747SOL    HW228704   1.385   2.562  15.264  0.3116 -0.2331 -0.5980
 5748SOL     OW28705   0.697   0.555   5.542 -0.1326 -0.5310  0.5555
 5748SOL    HW128706   0.757   0.592   5.606 -2.5456  0.4935  2.2284
 5748SOL    HW228707   0.753   0.518   5.474 -0.4871 -0.4973  0.2434
 5749SOL     OW28708   0.109   0.850   6.430 -0.2715 -0.1504  0.9609
 5749SOL    HW128709   0.144   0.786   6.369  1.3486  2.2241 -0.5969
 5749SOL    HW228710   0.188   0.858   6.484  0.4176  1.3353 -0.2734
 5750SOL     OW28711   3.061   0.368  15.291 -0.2604  0.3869 -0.1812
 5750SOL    HW128712   3.085   0.376  15.199  0.1910 -1.1020 -0.1980
 5750SOL    HW228713   3.109   0.438  15.336  0.1848  0.5619 -0.9154
 5751SOL     OW28714   3.490   4.154   1.757 -0.7567  0.1208 -0.6316
 5751SOL    HW128715   3.457   4.189   1.674 -1.5713  1.7772  0.3731
 5751SOL    HW228716   3.423   4.168   1.824 -0.9997  1.4905 -1.1619
 5752SOL     OW28717   3.221   3.532   7.149 -0.4327 -0.1969 -0.2758
 5752SOL    HW128718   3.231   3.547   7.243 -2.3136  1.7773 -0.4101
 5752SOL    HW228719   3.232   3.623   7.125  2.7686 -1.0878 -2.1452
 5753SOL     OW28720   2.581   0.651   2.316 -0.3163 -0.2996 -0.5651
 5753SOL    HW128721   2.560   0.730   2.265  2.4342  0.5211 -0.4044
 5753SOL    HW228722   2.609   0.689   2.399 -0.5470  0.5575 -0.8772
 5754SOL     OW28723   0.202   1.803   2.940  0.5076 -0.1732  0.4941
 5754SOL    HW128724   0.210   1.715   2.978 -0.5445 -0.2345  0.5716
 5754SOL    HW228725   0.187   1.860   3.015  2.1137  0.7458  0.1154
 5755SOL     OW28726   1.909   1.246   9.408 -0.4188 -0.0111  0.3140
 5755SOL    HW128727   1.830   1.227   9.458 -0.5386  2.3318  1.0124
 5755SOL    HW228728   1.971   1.175   9.427  0.3967  0.9866  1.4148
 5756SOL     OW28729   0.199   0.285  10.081 -0.1868  0.0600  0.7256
 5756SOL    HW128730   0.196   0.211  10.141  0.5298  0.7853  1.6432
 5756SOL    HW228731   0.104   0.293  10.074  0.0313  3.9237  2.4402
 5757SOL     OW28732   4.408   1.667   7.889  0.0782  0.4805  0.0801
 5757SOL    HW128733   4.334   1.695   7.835  0.2126 -1.4719 -1.1160
 5757SOL    HW228734   4.454   1.750   7.899 -1.3588  0.8691  3.5959
 5758SOL     OW28735   3.852   3.076   0.155 -0.1137 -0.2788  0.0742
 5758SOL    HW128736   3.822   3.012   0.219 -0.1085  2.8080  3.1604
 5758SOL    HW228737   3.816   3.163   0.173 -0.2057 -0.5696  1.2411
 5759SOL     OW28738   0.620   1.447   6.651  0.0454 -0.1559 -0.2988
 5759SOL    HW128739   0.648   1.537   6.670 -0.7763  0.0432 -0.0557
 5759SOL    HW228740   0.558   1.434   6.723  0.3340 -0.5809 -0.1277
 5760SOL     OW28741   4.370   4.134  15.228 -0.4791 -0.3777 -0.4852
 5760SOL    HW128742   4.319   4.086  15.162  0.0262 -0.9915 -0.4229
 5760SOL    HW228743   4.354   4.224  15.198  0.4891  0.0244  0.1799
 5761SOL     OW28744   3.072   1.731   9.185  0.1708  0.0237 -0.8452
 5761SOL    HW128745   2.976   1.726   9.187  0.2314 -0.5361  1.2017
 5761SOL    HW228746   3.097   1.721   9.093 -1.8897 -0.0651 -1.4082
 5762SOL     OW28747   0.389   4.278   0.174  0.6178  0.1148  0.0610
 5762SOL    HW128748   0.400   4.280   0.269 -0.2217 -1.3632  0.1915
 5762SOL    HW228749   0.304   4.323   0.172 -0.9448 -2.7795  0.7918
 5763SOL     OW28750   3.104   1.426  17.380 -0.0207 -0.6493 -0.1409
 5763SOL    HW128751   3.134   1.455  17.294  0.4000  1.5990  0.7751
 5763SOL    HW228752   3.057   1.503  17.410  1.1043 -0.1813  0.4291
 5764SOL     OW28753   2.759   1.205   9.528 -0.7076 -0.6160 -0.0660
 5764SOL    HW128754   2.757   1.254   9.610 -2.1747  0.5090 -0.7733
 5764SOL    HW228755   2.854   1.192   9.536 -0.9646 -1.8442  0.8946
 5765SOL     OW28756   1.388   3.656  17.097  0.5798 -0.1999 -0.0752
 5765SOL    HW128757   1.319   3.593  17.079  0.7604  0.3093 -2.6007
 5765SOL    HW228758   1.334   3.732  17.116 -0.3332 -1.0545  0.7467
 5766SOL     OW28759   1.032   4.437  12.642  0.2941 -0.4008  0.0791
 5766SOL    HW128760   1.044   4.372  12.573  0.6413 -1.1193  0.8148
 5766SOL    HW228761   1.026   4.376  12.714  1.9463 -0.1495  0.4483
 5767SOL     OW28762   2.911   0.770   3.700 -0.4997 -0.8784  0.0158
 5767SOL    HW128763   2.853   0.722   3.641 -0.1923 -1.0462 -0.1525
 5767SOL    HW228764   2.961   0.831   3.645 -2.5738 -0.4962 -1.4321
 5768SOL     OW28765   3.759   2.170   0.255  0.6528  0.0442 -0.0010
 5768SOL    HW128766   3.851   2.150   0.234  0.9602  0.8554  0.5859
 5768SOL    HW228767   3.709   2.089   0.241  0.3533 -0.0484  1.5641
 5769SOL     OW28768   0.121   3.394   9.465 -0.0035  1.0346  0.5739
 5769SOL    HW128769   0.153   3.347   9.388  0.3440  0.5010  1.0362
 5769SOL    HW228770   0.121   3.487   9.442  2.2378  1.2043  1.1615
 5770SOL     OW28771   2.041   3.782  10.427  0.0154 -0.5798  0.4816
 5770SOL    HW128772   2.127   3.770  10.387 -0.5772  1.4960 -1.4380
 5770SOL    HW228773   1.993   3.846  10.373  1.2695  0.5833  0.7386
 5771SOL     OW28774   4.436   1.709   9.774  0.2924  0.1299  0.5941
 5771SOL    HW128775   4.500   1.724   9.705  0.0558 -1.5965 -0.0100
 5771SOL    HW228776   4.468   1.767   9.843  0.0710  0.2502  0.5957
 5772SOL     OW28777   2.807   2.516   6.502  0.4888 -0.1445 -0.4519
 5772SOL    HW128778   2.808   2.448   6.435 -0.4366 -2.7453  2.1650
 5772SOL    HW228779   2.842   2.588   6.449  3.2605 -2.2403 -1.4829
 5773SOL     OW28780   1.477   3.210  16.643  0.2712 -0.2227 -0.3421
 5773SOL    HW128781   1.509   3.238  16.558  0.5324  0.3723 -0.0481
 5773SOL    HW228782   1.519   3.124  16.648  1.4526  0.2509 -2.2675
 5774SOL     OW28783   4.371   2.161   3.423  0.5242 -0.4191 -0.1745
 5774SOL    HW128784   4.370   2.068   3.401  2.3113 -0.3736 -0.4275
 5774SOL    HW228785   4.322   2.173   3.504  0.6410 -0.6461 -0.0712
 5775SOL     OW28786   4.174   0.061  16.155 -0.0590 -0.1841  0.0619
 5775SOL    HW128787   4.186   0.075  16.249  0.5303 -0.2180 -0.0084
 5775SOL    HW228788   4.092   0.013  16.161  0.8727 -1.7712  0.1909
 5776SOL     OW28789   0.978   1.356   9.111 -0.2648  0.1868 -0.1884
 5776SOL    HW128790   0.901   1.310   9.078 -0.5701  1.3302 -1.0843
 5776SOL    HW228791   1.029   1.367   9.030  1.2865  1.8934  1.0126
 5777SOL     OW28792   0.993   0.600   4.930  0.0856  0.4326 -0.2474
 5777SOL    HW128793   0.930   0.566   4.866  1.1389  0.3702 -1.2710
 5777SOL    HW228794   0.951   0.682   4.952  0.7432  0.3288  1.3664
 5778SOL     OW28795   4.006   1.950   1.917 -0.6606  0.3437 -0.0142
 5778SOL    HW128796   3.945   1.912   1.981  2.0291 -0.4637  2.0417
 5778SOL    HW228797   4.082   1.892   1.921 -1.4317 -0.8034 -2.0572
 5779SOL     OW28798   4.281   1.568   4.993  0.1280  0.3162  0.7247
 5779SOL    HW128799   4.292   1.637   5.058  0.8830 -0.7538  1.7246
 5779SOL    HW228800   4.373   1.555   4.972 -0.2245 -1.6607  0.3435
 5780SOL     OW28801   0.916   2.427   8.698 -0.4010  0.1309  0.6861
 5780SOL    HW128802   1.007   2.414   8.674 -0.9173 -2.3901  0.1282
 5780SOL    HW228803   0.913   2.366   8.771  3.2123  1.4051  1.8980
 5781SOL     OW28804   0.735   0.151   5.051 -0.1596 -0.0732 -0.2878
 5781SOL    HW128805   0.646   0.153   5.016  0.7217 -1.7182 -2.6656
 5781SOL    HW228806   0.724   0.177   5.142 -0.2627 -0.4999 -0.1771
 5782SOL     OW28807   3.105   2.453   8.904  0.3483 -0.2185 -0.3569
 5782SOL    HW128808   3.078   2.402   8.981 -0.4112  1.8391  0.7338
 5782SOL    HW228809   3.048   2.425   8.832 -1.2005  0.6950  0.5150
 5783SOL     OW28810   3.493   1.536  16.774  0.0829 -0.3952 -0.1447
 5783SOL    HW128811   3.454   1.577  16.851 -0.7332 -1.9899  0.2939
 5783SOL    HW228812   3.587   1.545  16.791  0.2725  2.4970 -2.7057
 5784SOL     OW28813   0.988   1.449  12.977  0.2563 -0.2980 -0.0129
 5784SOL    HW128814   0.897   1.429  12.957  0.9986 -2.5934 -1.1175
 5784SOL    HW228815   1.034   1.403  12.907 -0.7565  0.3741 -1.1017
 5785SOL     OW28816   1.990   3.371   5.909  0.0878  0.3218 -0.0941
 5785SOL    HW128817   1.948   3.357   5.994 -1.5634 -1.6705 -1.2342
 5785SOL    HW228818   2.084   3.377   5.926  0.0986  0.3020 -0.1458
 5786SOL     OW28819   0.081   2.035   2.226  0.3817  0.0975  0.3592
 5786SOL    HW128820   0.098   2.124   2.258 -0.3251  0.3915 -0.0873
 5786SOL    HW228821   0.078   1.986   2.308 -1.6678 -1.8513 -0.8816
 5787SOL     OW28822   3.543   1.917   4.123 -0.4668  0.4584  0.3056
 5787SOL    HW128823   3.555   1.844   4.184  1.8455  2.5974  2.4316
 5787SOL    HW228824   3.629   1.954   4.101  0.4554 -0.2881  2.6734
 5788SOL     OW28825   1.380   1.243   7.162  0.3373  0.4089  0.7111
 5788SOL    HW128826   1.447   1.307   7.139  0.2403  0.6745  1.1683
 5788SOL    HW228827   1.347   1.282   7.243 -0.5151  2.2625 -0.5262
 5789SOL     OW28828   3.773   0.636   6.474  0.5312 -0.0345  0.6948
 5789SOL    HW128829   3.682   0.661   6.487  0.4483 -0.0182  0.1188
 5789SOL    HW228830   3.771   0.542   6.488  0.7979 -0.6317 -3.1948
 5790SOL     OW28831   0.827   4.348   6.541  1.0255  0.3995  0.0088
 5790SOL    HW128832   0.901   4.383   6.492  0.3226  1.0715 -0.5772
 5790SOL    HW228833   0.850   4.255   6.543 -1.5321 -0.2183 -0.0046
 5791SOL     OW28834   2.442   4.158  11.196 -0.4549 -0.2129 -0.5276
 5791SOL    HW128835   2.422   4.118  11.280  1.4410  0.5487  0.2976
 5791SOL    HW228836   2.529   4.192  11.216 -0.9923 -0.0403  1.4262
 5792SOL     OW28837   4.352   2.775   4.643 -0.3220 -0.5522 -0.0703
 5792SOL    HW128838   4.328   2.710   4.578 -1.2801 -0.0149 -0.2556
 5792SOL    HW228839   4.391   2.844   4.589 -0.5294  1.0283  1.7938
 5793SOL     OW28840   3.543   0.096  15.689  0.1793 -0.2442 -0.8076
 5793SOL    HW128841   3.639   0.104  15.695  0.0937  0.6395 -0.6345
 5793SOL    HW228842   3.535   0.035  15.615  0.9280  1.5416 -2.3515
 5794SOL     OW28843   4.425   3.025   1.805 -0.0460  0.8330 -0.0073
 5794SOL    HW128844   4.376   2.946   1.787 -0.4032  0.8082  1.0384
 5794SOL    HW228845   4.439   3.022   1.900  0.6173 -0.7787 -0.1583
 5795SOL     OW28846   0.338   2.186   6.942  0.2661 -0.1048  0.0415
 5795SOL    HW128847   0.339   2.274   6.905  0.4783 -0.2716 -0.3480
 5795SOL    HW228848   0.421   2.155   6.905  0.1325  0.5593 -0.8118
 5796SOL     OW28849   4.145   1.858   4.865  0.4848  0.2339  0.5602
 5796SOL    HW128850   4.077   1.819   4.921  0.0468  1.8162  1.1350
 5796SOL    HW228851   4.190   1.911   4.930  0.7853  0.2839  0.3086
 5797SOL     OW28852   2.661   1.820   6.441  0.8238  0.2354 -0.3560
 5797SOL    HW128853   2.581   1.769   6.453  1.3086  0.1944  2.6611
 5797SOL    HW228854   2.648   1.904   6.486 -1.5384 -0.0254 -0.5379
 5798SOL     OW28855   0.197   3.387  16.217 -0.1316  0.2073  0.0635
 5798SOL    HW128856   0.113   3.368  16.259  0.1604 -1.3041 -0.0644
 5798SOL    HW228857   0.242   3.307  16.242  0.4455  0.9625  1.4424
 5799SOL     OW28858   2.497   2.732   3.094  0.1269 -0.6052 -0.8249
 5799SOL    HW128859   2.511   2.816   3.051  1.0552 -0.6015 -0.5090
 5799SOL    HW228860   2.560   2.671   3.056  0.6318 -1.3372  1.1850
 5800SOL     OW28861   3.554   3.729   6.927  0.1185 -0.0638  0.5031
 5800SOL    HW128862   3.632   3.717   6.981  0.0685  0.0664  0.6028
 5800SOL    HW228863   3.576   3.806   6.874 -3.2573  0.8391  0.3936
 5801SOL     OW28864   2.745   0.933   5.613 -0.5963  0.3429  0.1535
 5801SOL    HW128865   2.680   0.977   5.668 -0.9148  0.0956 -0.0204
 5801SOL    HW228866   2.752   0.846   5.651  2.3252 -0.0109 -1.2318
 5802SOL     OW28867   0.972   1.726   3.434 -0.7736 -0.0392 -0.3702
 5802SOL    HW128868   0.988   1.676   3.354 -2.0442 -2.2347  0.7510
 5802SOL    HW228869   0.897   1.778   3.406  1.5256  1.8662 -3.0179
 5803SOL     OW28870   2.943   3.187   6.937 -0.4844  0.0953 -0.6116
 5803SOL    HW128871   2.992   3.268   6.928 -0.2832 -0.0492 -0.8148
 5803SOL    HW228872   2.870   3.211   6.995  0.2457  3.0373 -0.9454
 5804SOL     OW28873   2.882   4.408   3.431 -0.3810 -0.2011  0.3751
 5804SOL    HW128874   2.856   4.428   3.521 -0.0257  1.6842  0.0640
 5804SOL    HW228875   2.935   4.486   3.415 -0.2776 -0.2028  0.7190
 5805SOL     OW28876   0.154   2.514   5.067  0.4515  0.3168  0.1277
 5805SOL    HW128877   0.148   2.605   5.096  0.3769  1.0135 -2.1149
 5805SOL    HW228878   0.176   2.520   4.974 -2.4149 -3.7899 -0.8236
 5806SOL     OW28879   2.477   0.691   4.423  0.1339  0.1885  0.7055
 5806SOL    HW128880   2.539   0.759   4.394  0.4469 -0.3998  0.0010
 5806SOL    HW228881   2.399   0.725   4.379 -0.5750 -0.0194  1.8187
 5807SOL     OW28882   0.516   0.751   7.547 -0.0513 -0.1831 -0.1599
 5807SOL    HW128883   0.492   0.771   7.638 -0.1994  3.4587 -0.9910
 5807SOL    HW228884   0.572   0.826   7.525 -1.2592  1.2490  1.6451
 5808SOL     OW28885   0.843   1.822   0.832  0.1071 -0.5142 -0.3331
 5808SOL    HW128886   0.769   1.767   0.857 -0.4881  0.7793  0.7356
 5808SOL    HW228887   0.885   1.833   0.918  1.2584  3.6600 -1.4722
 5809SOL     OW28888   0.181   1.462   5.884 -0.2024  0.1155 -0.4661
 5809SOL    HW128889   0.197   1.387   5.827 -0.8955  0.8520 -1.6072
 5809SOL    HW228890   0.095   1.435   5.916 -1.7625 -0.3454 -5.0953
 5810SOL     OW28891   2.474   0.874  10.687  0.1490  0.2182  0.0734
 5810SOL    HW128892   2.434   0.933  10.751 -0.2927  0.1668 -0.1493
 5810SOL    HW228893   2.525   0.938  10.637 -3.1395  1.8758 -1.1628
 5811SOL     OW28894   1.554   1.177  17.613  0.1702 -0.0612  0.1730
 5811SOL    HW128895   1.619   1.233  17.655  0.0594  1.4114 -1.6319
 5811SOL    HW228896   1.550   1.099  17.668 -1.7316  0.8953  1.4145
 5812SOL     OW28897   3.977   1.279   5.129  0.5652 -0.4373 -0.2158
 5812SOL    HW128898   3.962   1.291   5.223  0.3911 -0.2647 -0.2655
 5812SOL    HW228899   3.885   1.283   5.102  0.3160 -2.3924  0.3160
 5813SOL     OW28900   2.860   3.880  13.962  0.1904 -0.3933 -0.4213
 5813SOL    HW128901   2.927   3.837  13.910  1.6562  1.1980  0.1698
 5813SOL    HW228902   2.913   3.876  14.042  1.9066 -0.3054 -1.5664
 5814SOL     OW28903   2.306   3.852  14.077 -0.4318  0.1218  0.2698
 5814SOL    HW128904   2.349   3.917  14.023  1.7035 -1.1576  0.4214
 5814SOL    HW228905   2.364   3.776  14.067  1.5456  1.9192 -1.6702
 5815SOL     OW28906   2.959   0.785   5.451  0.1477 -0.5260 -0.1005
 5815SOL    HW128907   2.894   0.788   5.381  1.5448 -0.1128 -1.3751
 5815SOL    HW228908   2.905   0.785   5.530  2.1491 -0.2179  1.2805
 5816SOL     OW28909   2.525   1.689   0.116 -0.0654  0.4053 -0.0011
 5816SOL    HW128910   2.509   1.783   0.125  0.1125  0.5963 -1.5801
 5816SOL    HW228911   2.615   1.678   0.146  0.3497  1.3113 -0.9116
 5817SOL     OW28912   1.943   0.831   9.153  0.1448  0.1880  0.9965
 5817SOL    HW128913   1.887   0.853   9.079  0.7210 -2.5923 -0.2731
 5817SOL    HW228914   1.905   0.898   9.210 -2.1308 -0.0514 -0.2356
 5818SOL     OW28915   1.754   0.322  16.923  0.4143 -0.0078  0.1930
 5818SOL    HW128916   1.781   0.412  16.941 -1.3261  0.2084  1.7257
 5818SOL    HW228917   1.705   0.320  16.841  0.4320  0.4574  0.1737
 5819SOL     OW28918   3.266   0.955   1.262 -0.4124 -0.5405  0.5601
 5819SOL    HW128919   3.295   1.015   1.193  0.5747 -2.6690 -0.8569
 5819SOL    HW228920   3.195   0.911   1.217  0.9875 -0.6417 -1.5404
 5820SOL     OW28921   1.073   0.186   4.697 -0.4284 -0.2903 -0.3452
 5820SOL    HW128922   1.049   0.094   4.686 -1.3062  0.0574 -1.3191
 5820SOL    HW228923   1.127   0.186   4.776 -2.1615 -1.9340  0.8494
 5821SOL     OW28924   4.087   4.617   4.476 -0.1882 -0.3004  0.1120
 5821SOL    HW128925   4.031   4.675   4.528 -0.8611  0.5590 -1.5955
 5821SOL    HW228926   4.169   4.615   4.525  0.1404 -0.0588 -0.4302
 5822SOL     OW28927   1.319   0.946   5.071 -0.8210 -0.1934  0.1412
 5822SOL    HW128928   1.290   0.871   5.122 -0.5336 -1.6441 -1.8250
 5822SOL    HW228929   1.269   1.019   5.107 -0.6811  1.3485 -2.7826
 5823SOL     OW28930   3.850   1.777   2.069  0.3523 -0.8361 -0.7184
 5823SOL    HW128931   3.841   1.787   2.164 -0.4532  0.5051 -0.9312
 5823SOL    HW228932   3.917   1.711   2.052 -0.0536 -1.6260  0.7394
 5824SOL     OW28933   4.581   4.046   2.949 -0.3767  0.1377 -0.2433
 5824SOL    HW128934   4.592   4.093   2.867 -2.0574  0.1602 -0.4573
 5824SOL    HW228935   4.488   4.054   2.968 -0.1999  1.0497  0.2490
 5825SOL     OW28936   0.021   2.651   8.646  0.0079  0.0506 -0.0491
 5825SOL    HW128937   4.703   2.574   8.685 -0.9220  0.7365  0.3137
 5825SOL    HW228938   0.102   2.659   8.696  0.6411 -0.3602 -1.0065
 5826SOL     OW28939   1.335   2.075   3.248 -0.2658 -0.7689 -0.1288
 5826SOL    HW128940   1.374   1.994   3.282 -2.7864 -0.9205  2.3527
 5826SOL    HW228941   1.342   2.066   3.153  1.4349  0.9344 -0.1845
 5827SOL     OW28942   1.768   2.242   6.433 -0.0243 -1.1847  0.3288
 5827SOL    HW128943   1.686   2.212   6.473 -1.1138 -0.8743 -1.6659
 5827SOL    HW228944   1.784   2.325   6.479 -1.5320 -0.2845 -0.7724
 5828SOL     OW28945   2.419   1.063   9.067  0.3868 -0.1092  0.4416
 5828SOL    HW128946   2.332   1.029   9.084  0.8753 -0.9067  1.3373
 5828SOL    HW228947   2.404   1.147   9.111  1.0430 -0.0143  0.4892
 5829SOL     OW28948   3.047   3.528   9.643  0.3954 -0.5230  0.3481
 5829SOL    HW128949   3.114   3.574   9.593 -1.1796 -1.0954 -2.2885
 5829SOL    HW228950   3.026   3.599   9.704  2.3164 -1.2827  1.8945
 5830SOL     OW28951   2.211   3.345   4.802 -0.1135 -0.1967 -0.0452
 5830SOL    HW128952   2.274   3.277   4.777 -0.3240 -0.3779 -0.0798
 5830SOL    HW228953   2.155   3.299   4.864 -0.4637  1.8030  1.1436
 5831SOL     OW28954   2.395   4.026   7.708  0.3152  0.2712  0.2437
 5831SOL    HW128955   2.351   3.949   7.744  1.1464 -1.7412 -3.0030
 5831SOL    HW228956   2.428   4.050   7.794 -0.5558 -1.0065  0.9385
 5832SOL     OW28957   1.970   4.685   7.329  0.7019  0.3407  0.0059
 5832SOL    HW128958   1.877   4.668   7.347  0.3289  0.8184 -1.4996
 5832SOL    HW228959   2.009   4.598   7.335 -0.4161 -0.0616  1.5461
 5833SOL     OW28960   0.038   3.378  15.355 -0.4423 -0.5677  0.2775
 5833SOL    HW128961   4.672   3.351  15.333 -0.9003  0.0551  1.3652
 5833SOL    HW228962   0.080   3.370  15.270 -0.1252 -0.5954  0.4355
 5834SOL     OW28963   2.959   0.539   9.368 -0.2830 -0.0970  0.2772
 5834SOL    HW128964   2.883   0.583   9.406 -0.3533  2.0891 -2.3482
 5834SOL    HW228965   3.026   0.547   9.435 -0.7355  1.0393  0.6003
 5835SOL     OW28966   1.201   0.170   0.272  0.2955  0.3873 -0.3069
 5835SOL    HW128967   1.125   0.195   0.325  0.8425  1.1121  0.1380
 5835SOL    HW228968   1.165   0.133   0.192 -0.1813  0.7774 -0.2723
 5836SOL     OW28969   2.116   0.805   6.368 -0.7164 -0.7681 -0.2581
 5836SOL    HW128970   2.155   0.880   6.412  0.4271 -1.2615 -0.4346
 5836SOL    HW228971   2.172   0.795   6.291 -0.1231 -0.1882  0.1026
 5837SOL     OW28972   0.447   4.050  16.174  0.5893  0.4061  0.1894
 5837SOL    HW128973   0.380   4.117  16.161  1.1856  0.8345 -0.6220
 5837SOL    HW228974   0.508   4.085  16.110 -1.5327  1.5639 -1.2107
 5838SOL     OW28975   3.317   1.906  13.504  0.2790  0.3112  0.2875
 5838SOL    HW128976   3.280   1.829  13.547  0.8804 -1.0124 -1.5592
 5838SOL    HW228977   3.397   1.871  13.464 -0.0659 -0.6355  0.4504
 5839SOL     OW28978   3.375   2.064   7.442  0.0253  0.5202 -0.1482
 5839SOL    HW128979   3.404   2.063   7.533 -1.0724 -1.3295  0.1955
 5839SOL    HW228980   3.448   2.010   7.413 -0.0144  0.6308 -0.4530
 5840SOL     OW28981   2.011   3.352   5.065  0.6791 -0.1703 -0.0961
 5840SOL    HW128982   2.071   3.282   5.088  0.6656 -0.3800 -0.6915
 5840SOL    HW228983   1.932   3.327   5.113  0.5068  1.8090  0.6579
 5841SOL     OW28984   2.637   1.457   3.655  0.1345 -0.2192 -0.4798
 5841SOL    HW128985   2.700   1.513   3.610  0.1550 -0.9865 -1.4354
 5841SOL    HW228986   2.643   1.385   3.591  2.2355 -0.2828 -0.2341
 5842SOL     OW28987   1.608   2.359   0.886  0.0354  0.4469  0.0700
 5842SOL    HW128988   1.614   2.263   0.886  0.1233  0.4604 -2.5755
 5842SOL    HW228989   1.673   2.372   0.817  0.6463 -0.0622  0.5471
 5843SOL     OW28990   3.761   4.652   7.739 -0.0905  0.5326  0.0661
 5843SOL    HW128991   3.678   4.693   7.761 -0.3552 -0.4149  0.8475
 5843SOL    HW228992   3.752   4.643   7.644  1.2478 -0.0749 -0.0125
 5844SOL     OW28993   4.346   1.675   2.634  0.0812 -0.1648 -0.1302
 5844SOL    HW128994   4.386   1.721   2.560 -2.0640 -0.2370 -1.3319
 5844SOL    HW228995   4.423   1.636   2.674 -1.0063 -3.1072 -0.9582
 5845SOL     OW28996   1.450   2.629   7.827  0.4360 -0.2806 -0.1824
 5845SOL    HW128997   1.527   2.572   7.828  0.2857 -0.4681  1.4326
 5845SOL    HW228998   1.377   2.568   7.817  2.2554 -2.2345 -1.2989
 5846SOL     OW28999   3.526   2.762  16.853  0.1859  0.2729  0.3228
 5846SOL    HW129000   3.555   2.681  16.894  3.2640  0.5435 -1.3123
 5846SOL    HW229001   3.581   2.769  16.775 -0.5375  0.1258 -0.2068
 5847SOL     OW29002   4.286   1.265   2.477 -0.0838 -0.0721  0.8873
 5847SOL    HW129003   4.249   1.257   2.565  0.0606 -0.5146  0.9082
 5847SOL    HW229004   4.380   1.275   2.494  0.6052 -1.4624 -2.1921
 5848SOL     OW29005   1.627   2.547   4.629 -0.0248 -0.0629  0.2872
 5848SOL    HW129006   1.666   2.487   4.693  1.4723  0.0527 -0.5147
 5848SOL    HW229007   1.560   2.491   4.590 -1.3453  2.2747 -0.8122
 5849SOL     OW29008   4.212   3.814  15.268  0.2496  0.1100  0.1060
 5849SOL    HW129009   4.205   3.876  15.196  3.9279  0.1807 -0.1878
 5849SOL    HW229010   4.124   3.779  15.252 -0.3195  0.5050  2.4045
 5850SOL     OW29011   4.721   3.670  16.212 -0.0921 -0.5856 -0.0739
 5850SOL    HW129012   4.677   3.633  16.135 -0.3613  0.6979 -0.5330
 5850SOL    HW229013   4.652   3.724  16.250  0.0601 -0.0525 -0.5663
 5851SOL     OW29014   4.000   0.230   5.039  0.0633 -0.1219 -0.1631
 5851SOL    HW129015   4.022   0.270   5.124  0.9119  1.6719 -1.2361
 5851SOL    HW229016   3.943   0.160   5.073 -0.9455  0.2557 -1.0980
 5852SOL     OW29017   0.668   0.543  15.950 -0.3344 -0.0219  0.1559
 5852SOL    HW129018   0.722   0.474  15.911  0.3084  0.6384 -0.1175
 5852SOL    HW229019   0.698   0.617  15.897 -0.0835 -0.5713 -0.4704
 5853SOL     OW29020   1.069   1.491   8.103 -0.1756 -0.5952 -0.2775
 5853SOL    HW129021   1.067   1.587   8.109  3.1759 -0.4940 -1.1102
 5853SOL    HW229022   1.082   1.470   8.196  1.6756 -0.9624 -0.6183
 5854SOL     OW29023   2.928   1.341   4.757  0.0440 -0.4442  0.3544
 5854SOL    HW129024   2.984   1.341   4.835 -0.3035  0.8963  0.6191
 5854SOL    HW229025   2.862   1.280   4.789 -1.3977  0.5387 -0.7274
 5855SOL     OW29026   1.259   2.150  17.198  0.3006  0.4088 -0.4054
 5855SOL    HW129027   1.305   2.203  17.263  3.6705 -0.3446 -2.1437
 5855SOL    HW229028   1.253   2.064  17.240  3.0409  0.7402  0.6718
 5856SOL     OW29029   4.289   2.600   8.592  0.2389  0.3361  0.1327
 5856SOL    HW129030   4.212   2.578   8.645  0.3894  0.8987  0.5810
 5856SOL    HW229031   4.269   2.683   8.549  1.4594  0.9638  0.7924
 5857SOL     OW29032   2.289   1.955   5.823 -0.7862 -0.2066  0.0390
 5857SOL    HW129033   2.327   1.940   5.736 -0.9223  1.5710 -0.3347
 5857SOL    HW229034   2.216   1.893   5.827 -0.0346 -0.9025  2.7695
 5858SOL     OW29035   4.007   1.618  11.713 -0.1045  0.2499  0.6057
 5858SOL    HW129036   3.977   1.609  11.622 -2.2008  1.9080  1.1495
 5858SOL    HW229037   4.072   1.549  11.722 -0.5166  0.1018  2.3457
 5859SOL     OW29038   3.866   1.410  14.382 -0.0961  0.1647  0.1388
 5859SOL    HW129039   3.861   1.499  14.348  0.8470  0.3973  0.6279
 5859SOL    HW229040   3.796   1.417  14.447 -0.6616 -2.2689 -0.2212
 5860SOL     OW29041   3.568   4.495   4.430 -0.1555  0.0913  0.4510
 5860SOL    HW129042   3.592   4.588   4.423 -2.2854  0.4867 -1.6876
 5860SOL    HW229043   3.654   4.453   4.422  0.1647  0.5071  1.7287
 5861SOL     OW29044   0.059   2.106   5.214 -0.8349  0.0493 -0.0388
 5861SOL    HW129045   0.009   2.187   5.205  0.4521  0.5953 -2.2483
 5861SOL    HW229046   0.142   2.148   5.191 -0.5894  0.6801  1.9794
 5862SOL     OW29047   1.143   0.423  13.625 -0.2285  0.0236  0.2797
 5862SOL    HW129048   1.073   0.487  13.616  1.4589  1.7059 -0.7703
 5862SOL    HW229049   1.089   0.349  13.653 -0.6153  1.5390  3.4765
 5863SOL     OW29050   4.353   0.259   3.013 -0.0858  0.5418  0.3462
 5863SOL    HW129051   4.405   0.337   2.997 -0.9955  0.9920 -0.3933
 5863SOL    HW229052   4.409   0.186   2.985  0.2529  0.1683  1.9977
 5864SOL     OW29053   4.402   2.546  16.438  0.0250  0.5377 -0.1975
 5864SOL    HW129054   4.387   2.464  16.485  0.0245 -0.3769 -1.8226
 5864SOL    HW229055   4.477   2.575  16.491 -0.5047 -0.3856  1.0595
 5865SOL     OW29056   1.061   3.041   7.828 -0.1670  0.5629 -0.7996
 5865SOL    HW129057   1.125   3.023   7.897 -0.4450 -0.7345 -0.8894
 5865SOL    HW229058   1.042   3.132   7.852 -0.9980  0.5473 -1.3890
 5866SOL     OW29059   0.290   4.314   8.592 -0.1810  0.2490  0.0030
 5866SOL    HW129060   0.232   4.289   8.664 -1.5139  0.5490 -0.9797
 5866SOL    HW229061   0.350   4.375   8.636 -0.8452  0.8080  0.1354
 5867SOL     OW29062   2.935   2.447   6.829 -0.3223 -0.3406 -0.4016
 5867SOL    HW129063   3.027   2.443   6.854  0.1633  3.0970 -1.6580
 5867SOL    HW229064   2.893   2.390   6.894  2.1019 -1.8175 -0.1465
 5868SOL     OW29065   3.603   3.206   2.023 -0.6206  0.0676  0.0945
 5868SOL    HW129066   3.651   3.129   1.994  0.1715  0.1283  1.2181
 5868SOL    HW229067   3.573   3.246   1.942  0.6534 -1.6949 -1.2288
 5869SOL     OW29068   2.921   3.558   2.930 -0.2744 -0.6333  0.4208
 5869SOL    HW129069   2.968   3.476   2.938 -0.6341 -0.7637  1.2691
 5869SOL    HW229070   2.873   3.554   3.013  0.0421 -2.0610  0.5232
 5870SOL     OW29071   0.682   2.274  14.668 -0.0715  0.1446  0.6638
 5870SOL    HW129072   0.739   2.315  14.733  1.8453 -4.7629  2.0582
 5870SOL    HW229073   0.694   2.342  14.601 -1.1503  1.3047  1.6638
 5871SOL     OW29074   2.247   4.172   8.933 -0.4026  0.4652 -0.9900
 5871SOL    HW129075   2.189   4.202   8.863  0.6475  0.2055 -1.9874
 5871SOL    HW229076   2.313   4.133   8.876  0.5632  0.4791  0.1221
 5872SOL     OW29077   0.055   4.029   4.133 -0.0768 -0.2175 -0.4046
 5872SOL    HW129078   0.012   4.042   4.217  0.9533 -1.6731  0.3497
 5872SOL    HW229079   4.714   4.075   4.078 -1.1808 -0.6626  0.5117
 5873SOL     OW29080   1.954   3.015   7.985 -0.1465 -0.7896 -0.0311
 5873SOL    HW129081   2.033   2.996   7.934 -0.4820 -2.7336  0.1881
 5873SOL    HW229082   1.982   3.025   8.076 -3.1024 -2.0283  1.0040
 5874SOL     OW29083   1.242   1.213  10.904  0.1348 -0.4177 -0.0675
 5874SOL    HW129084   1.156   1.236  10.940  0.2861 -0.1222  0.1068
 5874SOL    HW229085   1.240   1.267  10.825  1.1057  0.2071  0.3307
 5875SOL     OW29086   3.899   0.044  15.120  0.0720 -0.1770 -0.2265
 5875SOL    HW129087   3.850   0.125  15.108  1.5791  0.8603  0.6175
 5875SOL    HW229088   3.934   0.065  15.207  0.6939 -0.4071 -0.4271
 5876SOL     OW29089   0.251   0.775   2.840 -0.2450  0.2205  0.1437
 5876SOL    HW129090   0.276   0.727   2.761 -2.6872  0.9953 -1.1166
 5876SOL    HW229091   0.156   0.771   2.827 -0.1918  1.1471 -0.5393
 5877SOL     OW29092   3.380   4.474   2.495 -0.0160  0.2117 -0.1299
 5877SOL    HW129093   3.452   4.537   2.489  0.1666 -0.0060 -0.2319
 5877SOL    HW229094   3.311   4.540   2.489  1.7667  1.9324 -1.8614
 5878SOL     OW29095   1.404   4.696  14.778  0.4153  0.0398 -0.2635
 5878SOL    HW129096   1.349   4.690  14.700 -0.6633 -0.1479  0.5254
 5878SOL    HW229097   1.448   0.057  14.761  1.6464 -0.2975  1.3350
 5879SOL     OW29098   3.514   2.309   4.844 -0.5699  0.2640 -0.0460
 5879SOL    HW129099   3.601   2.304   4.803  0.0938 -0.7768  1.4714
 5879SOL    HW229100   3.478   2.368   4.779  1.0134  2.7750  1.3747
 5880SOL     OW29101   2.606   3.191  12.044  0.2035 -0.0011  0.0521
 5880SOL    HW129102   2.669   3.139  11.994  2.0027  2.0310  0.1893
 5880SOL    HW229103   2.660   3.270  12.046 -0.8031  0.7527 -1.8717
 5881SOL     OW29104   1.061   2.659   4.376 -0.2441  0.3577  0.2744
 5881SOL    HW129105   1.123   2.727   4.399  0.6075 -0.0858 -0.7093
 5881SOL    HW229106   0.979   2.678   4.421  1.3185  1.3115  2.6953
 5882SOL     OW29107   1.753   2.523   5.215  0.1264  0.3958  0.2716
 5882SOL    HW129108   1.678   2.579   5.195 -0.6260 -1.0514 -0.9919
 5882SOL    HW229109   1.819   2.587   5.239 -0.0298  0.7963 -0.3611
 5883SOL     OW29110   1.745   3.596   9.295  0.3140 -0.4889  0.0124
 5883SOL    HW129111   1.709   3.543   9.225 -0.9484 -1.1898  1.1923
 5883SOL    HW229112   1.826   3.549   9.314 -0.0279 -1.3248 -0.6170
 5884SOL     OW29113   1.014   2.395   4.227 -0.6271 -0.0826 -0.2831
 5884SOL    HW129114   1.076   2.441   4.284  0.3376  0.0561 -1.4444
 5884SOL    HW229115   1.075   2.331   4.191 -1.9341 -0.3502 -2.0175
 5885SOL     OW29116   3.395   0.972  14.932 -0.1798  0.3160 -0.4798
 5885SOL    HW129117   3.329   0.906  14.911 -0.1220  0.0971  0.0336
 5885SOL    HW229118   3.444   0.968  14.850 -0.4831 -1.3062 -0.5735
 5886SOL     OW29119   0.452   2.656   1.915  0.5001  0.0787  0.2616
 5886SOL    HW129120   0.391   2.728   1.930  0.4101  0.2002 -0.7455
 5886SOL    HW229121   0.393   2.592   1.875  1.5778 -0.3480 -0.6255
 5887SOL     OW29122   1.363   3.712   4.495 -0.2043  0.0065  0.0918
 5887SOL    HW129123   1.444   3.701   4.545  1.0958 -0.6453 -2.1482
 5887SOL    HW229124   1.368   3.798   4.453 -0.8697 -0.2517 -0.4979
 5888SOL     OW29125   3.189   1.633   8.685  0.0399 -0.1803  0.3400
 5888SOL    HW129126   3.218   1.671   8.602  4.2949 -1.1679  1.3627
 5888SOL    HW229127   3.102   1.610   8.651  0.4962 -0.9379 -0.3243
 5889SOL     OW29128   2.475   0.482   2.113 -0.4933  0.2090  0.6522
 5889SOL    HW129129   2.518   0.544   2.173  0.0740 -1.1588  1.6609
 5889SOL    HW229130   2.403   0.543   2.097 -0.3791 -0.1723 -1.3082
 5890SOL     OW29131   4.377   3.884  14.968  0.2702  0.2726  0.2547
 5890SOL    HW129132   4.299   3.923  15.007  0.8329  1.4737  0.1688
 5890SOL    HW229133   4.361   3.900  14.875  1.0456  1.4815  0.3271
 5891SOL     OW29134   0.633   1.784  12.995  0.0965 -0.7663 -0.1134
 5891SOL    HW129135   0.713   1.833  12.980  1.1508 -1.9640  1.6013
 5891SOL    HW229136   0.586   1.796  12.912 -0.8661 -0.2485  0.4978
 5892SOL     OW29137   4.122   2.057   1.191  0.0475  0.5842 -0.5467
 5892SOL    HW129138   4.073   1.990   1.239 -0.3579  0.6041 -0.9319
 5892SOL    HW229139   4.213   2.036   1.212  0.1679  2.5576  0.8921
 5893SOL     OW29140   0.201   1.025   8.047 -0.0568 -0.0265 -0.2615
 5893SOL    HW129141   0.223   1.115   8.073  1.1244  0.1385 -1.7977
 5893SOL    HW229142   0.157   0.995   8.126 -1.2885 -0.5134 -1.1479
 5894SOL     OW29143   3.778   2.797   0.773  0.1826 -0.0930  0.1636
 5894SOL    HW129144   3.699   2.837   0.737 -0.5762 -2.1015 -0.4448
 5894SOL    HW229145   3.770   2.827   0.863 -0.9518 -0.6819  0.2666
 5895SOL     OW29146   3.848   0.623   1.324 -0.2520 -0.2158  0.0601
 5895SOL    HW129147   3.790   0.699   1.333  0.6040  0.4249  0.1812
 5895SOL    HW229148   3.931   0.668   1.337 -0.4191  0.7802 -2.3844
 5896SOL     OW29149   4.256   2.430   0.098 -0.5969  0.4956 -0.0558
 5896SOL    HW129150   4.206   2.486   0.038  0.2471 -0.0235 -1.2403
 5896SOL    HW229151   4.331   2.414   0.040 -0.7267  1.9032 -0.6108
 5897SOL     OW29152   0.734   1.910   5.132 -0.4603  0.6323 -0.6702
 5897SOL    HW129153   0.830   1.913   5.129 -0.4603  1.8162  0.5608
 5897SOL    HW229154   0.718   1.962   5.054  0.0172  1.6798 -0.0717
 5898SOL     OW29155   2.861   0.666   8.506 -0.4207  0.4495 -0.5212
 5898SOL    HW129156   2.766   0.665   8.516 -0.3011  0.3971  0.5932
 5898SOL    HW229157   2.870   0.572   8.523  1.5067  1.0532  1.8313
 5899SOL     OW29158   3.526   2.840   0.628  0.2351  0.3172  0.9538
 5899SOL    HW129159   3.492   2.854   0.717 -1.0746 -2.1309  0.8396
 5899SOL    HW229160   3.500   2.749   0.611 -1.4501  0.8725  0.5211
 5900SOL     OW29161   2.922   2.477   2.157  0.5788 -0.2656 -0.4445
 5900SOL    HW129162   2.874   2.559   2.154  1.2613  0.1609  0.5134
 5900SOL    HW229163   2.865   2.408   2.121 -2.2443  1.6033  0.4378
 5901SOL     OW29164   2.606   3.514   8.977 -0.3386  0.4384  0.0328
 5901SOL    HW129165   2.517   3.481   8.962  0.4830 -1.4929 -0.6007
 5901SOL    HW229166   2.654   3.432   8.985 -0.8906 -0.1373 -2.8936
 5902SOL     OW29167   0.024   3.691  15.281  0.2678 -0.7284 -0.3508
 5902SOL    HW129168   0.038   3.620  15.344  1.1483 -0.5900 -0.3839
 5902SOL    HW229169   4.654   3.712  15.286 -0.0148 -1.8211 -0.8537
 5903SOL     OW29170   0.509   3.786   5.490 -0.1466  0.4399 -0.2932
 5903SOL    HW129171   0.518   3.691   5.479 -1.4887  0.1435  1.1730
 5903SOL    HW229172   0.600   3.806   5.515 -0.2101 -0.1957  0.4566
 5904SOL     OW29173   2.495   3.880  11.878 -0.0610 -0.2176 -0.0514
 5904SOL    HW129174   2.570   3.939  11.868 -0.4080  0.0556 -1.0594
 5904SOL    HW229175   2.433   3.912  11.943  0.8879 -0.3405  0.9131
 5905SOL     OW29176   4.385   0.988   6.369  0.4784 -0.1459 -0.0446
 5905SOL    HW129177   4.339   0.915   6.326 -0.6025  0.8425 -0.5442
 5905SOL    HW229178   4.320   1.058   6.360  0.2094 -0.3108  0.6462
 5906SOL     OW29179   0.325   1.301   2.104  0.3424  0.2679 -0.0421
 5906SOL    HW129180   0.271   1.295   2.025 -0.8515 -2.3425  0.9959
 5906SOL    HW229181   0.278   1.280   2.184  1.2140 -1.0453  0.1178
 5907SOL     OW29182   4.586   2.376   3.193  0.2256  0.1677  0.0828
 5907SOL    HW129183   4.588   2.315   3.120  0.2755 -0.3820  0.5450
 5907SOL    HW229184   4.513   2.429   3.163  0.7215  0.4775 -0.5771
 5908SOL     OW29185   4.062   1.012   6.645  0.4486 -0.2491  0.5611
 5908SOL    HW129186   4.023   0.987   6.729 -1.9402  0.7296 -0.2566
 5908SOL    HW229187   4.023   0.949   6.585 -1.2877  0.9662  0.4073
 5909SOL     OW29188   4.620   0.124   2.356 -0.1460 -0.2070  0.1037
 5909SOL    HW129189   4.534   0.152   2.325  0.8520  1.8440 -0.7901
 5909SOL    HW229190   4.616   0.157   2.446  0.0994 -1.5225  0.5989
 5910SOL     OW29191   1.257   2.144   8.781  0.5055  0.3101 -0.2507
 5910SOL    HW129192   1.242   2.117   8.872  0.7611 -0.5473 -0.4616
 5910SOL    HW229193   1.319   2.077   8.751  1.2715 -0.0899  2.2182
 5911SOL     OW29194   2.878   4.403   5.789  0.1633 -0.3201 -0.3529
 5911SOL    HW129195   2.858   4.357   5.870  1.6348 -2.0403 -0.9499
 5911SOL    HW229196   2.960   4.362   5.761  0.2538  0.0218 -0.5908
 5912SOL     OW29197   1.947   2.766  11.206 -0.4871 -0.8104  0.5757
 5912SOL    HW129198   1.974   2.857  11.196 -1.5946 -0.3272  1.9898
 5912SOL    HW229199   1.968   2.740  11.295 -1.9783  1.6043  1.6324
 5913SOL     OW29200   3.096   4.576  16.914 -0.3876 -0.3043 -0.4629
 5913SOL    HW129201   3.139   4.634  16.852 -1.1039  0.2345 -0.4603
 5913SOL    HW229202   3.157   4.578  16.987 -2.5654 -0.0724  1.3720
 5914SOL     OW29203   3.698   1.433  16.211  0.1177 -0.0295 -0.2672
 5914SOL    HW129204   3.725   1.466  16.125  2.5993 -0.5502  0.3144
 5914SOL    HW229205   3.603   1.434  16.208  0.0473  0.2536  2.1371
 5915SOL     OW29206   3.001   2.328   3.861  0.0191  0.2289  0.4347
 5915SOL    HW129207   2.962   2.248   3.895  2.6387 -0.5775  1.5919
 5915SOL    HW229208   3.063   2.307   3.792 -0.5148 -0.9139  0.3056
 5916SOL     OW29209   2.961   2.818   1.899  0.2597 -0.5158 -0.4179
 5916SOL    HW129210   3.053   2.846   1.897 -0.2612  1.2184 -0.3625
 5916SOL    HW229211   2.975   2.735   1.852 -3.4768  0.2507 -2.9090
 5917SOL     OW29212   3.868   0.387   4.835 -0.2203 -0.4998  0.4185
 5917SOL    HW129213   3.832   0.318   4.890 -0.2052 -1.3189 -0.5929
 5917SOL    HW229214   3.892   0.459   4.893  0.3296 -1.3260  1.2064
 5918SOL     OW29215   0.408   1.809   6.300  0.0055  0.1036  0.3232
 5918SOL    HW129216   0.457   1.871   6.354 -0.4948 -0.2754  1.2161
 5918SOL    HW229217   0.347   1.776   6.366 -2.1789 -0.0117 -1.7567
 5919SOL     OW29218   1.230   2.030   1.849  0.2527  0.3759 -0.0418
 5919SOL    HW129219   1.253   2.074   1.767  2.7218  1.0020  0.9909
 5919SOL    HW229220   1.187   1.950   1.819  0.4450  0.4123 -0.4099
 5920SOL     OW29221   3.260   3.527   5.562  0.6312  0.3905 -0.5187
 5920SOL    HW129222   3.294   3.488   5.481  1.4477 -1.0902  0.5423
 5920SOL    HW229223   3.211   3.606   5.541 -1.9480 -0.7167  1.4148
 5921SOL     OW29224   4.278   4.069   1.716 -0.2559  0.9977 -0.4033
 5921SOL    HW129225   4.348   4.034   1.660 -0.6129  2.0103 -1.4611
 5921SOL    HW229226   4.216   3.996   1.706 -0.8895  1.5930 -0.7666
 5922SOL     OW29227   0.787   0.602   7.324 -0.1352 -0.0498 -0.0497
 5922SOL    HW129228   0.864   0.608   7.380 -2.3960  0.0170  3.0825
 5922SOL    HW229229   0.814   0.653   7.247 -0.4016  1.7903  1.0826
 5923SOL     OW29230   1.676   4.586  10.509 -0.2876  0.5446  0.2670
 5923SOL    HW129231   1.733   4.645  10.461 -0.1372  0.8477  0.8248
 5923SOL    HW229232   1.751   4.541  10.548  0.7886 -0.6505 -3.1978
 5924SOL     OW29233   3.388   3.573  17.135  0.2861 -0.4537  0.3367
 5924SOL    HW129234   3.364   3.499  17.191 -0.1135 -0.7682 -0.2575
 5924SOL    HW229235   3.305   3.617  17.123 -0.2678 -0.8957  2.4518
 5925SOL     OW29236   3.383   3.739   7.699  0.1025  0.0805 -0.0955
 5925SOL    HW129237   3.435   3.795   7.643  0.8700 -0.7118 -0.1760
 5925SOL    HW229238   3.442   3.666   7.718 -1.3809 -0.9593  0.5762
 5926SOL     OW29239   3.121   2.816   4.525 -0.0478  0.4019 -0.0230
 5926SOL    HW129240   3.168   2.890   4.488 -0.3238  0.1019 -0.9976
 5926SOL    HW229241   3.052   2.800   4.460 -0.4436  3.8123 -0.4296
 5927SOL     OW29242   4.400   1.431   4.435 -0.2390  0.5480  0.9249
 5927SOL    HW129243   4.476   1.428   4.494 -0.7901 -0.7810  1.5840
 5927SOL    HW229244   4.416   1.506   4.378 -0.2131 -0.1075  0.0684
 5928SOL     OW29245   1.112   0.125  16.089 -0.1221 -0.4146 -0.0230
 5928SOL    HW129246   1.120   0.100  15.997 -0.1962 -2.6908  0.5896
 5928SOL    HW229247   1.149   0.213  16.081 -1.5149  0.0505 -1.1935
 5929SOL     OW29248   0.074   2.232   8.842 -0.0958  0.2490  0.0201
 5929SOL    HW129249   4.703   2.219   8.830 -0.3655  0.3487  2.0168
 5929SOL    HW229250   0.088   2.311   8.791 -0.2449  0.0446 -0.3371
 5930SOL     OW29251   3.278   3.767  11.143 -0.1335 -0.1636  0.2738
 5930SOL    HW129252   3.246   3.788  11.055  0.0517  0.7639  0.4377
 5930SOL    HW229253   3.247   3.676  11.145  0.0083 -0.2316 -0.4530
 5931SOL     OW29254   2.557   4.557   9.058  0.0531  0.2195 -0.4161
 5931SOL    HW129255   2.545   4.479   9.002 -1.7911 -1.0582  1.7426
 5931SOL    HW229256   2.474   4.598   9.034  1.2520  2.3371 -0.9300
 5932SOL     OW29257   4.252   2.583   0.374 -0.1875 -0.1358  0.5593
 5932SOL    HW129258   4.159   2.598   0.357 -0.4233 -1.4705  0.7228
 5932SOL    HW229259   4.236   2.545   0.461  0.5660  0.8961  1.1561
 5933SOL     OW29260   2.810   3.878   3.416 -0.2620 -0.1036 -0.1928
 5933SOL    HW129261   2.877   3.829   3.369  1.0154  0.0053  1.5533
 5933SOL    HW229262   2.867   3.932   3.470  2.1496 -1.9703 -0.8792
 5934SOL     OW29263   0.008   3.072   7.141  0.5816 -0.2025 -0.5038
 5934SOL    HW129264   0.080   3.079   7.078  0.1232  1.5128 -0.8430
 5934SOL    HW229265   0.047   2.997   7.186 -0.4054 -0.7392 -0.5444
 5935SOL     OW29266   0.763   0.601  10.728  0.0010  0.1152  0.1977
 5935SOL    HW129267   0.808   0.675  10.687 -0.6086  0.4771  0.1766
 5935SOL    HW229268   0.674   0.636  10.731  0.3131  0.8637  0.6006
 5936SOL     OW29269   0.984   2.052   7.646  0.5935 -0.7390 -0.4993
 5936SOL    HW129270   0.960   1.995   7.720 -2.3449 -1.0771 -1.7261
 5936SOL    HW229271   1.052   2.102   7.691  0.4362 -0.2543 -0.8086
 5937SOL     OW29272   4.178   0.684   8.431  0.0012  0.2903  0.1257
 5937SOL    HW129273   4.222   0.760   8.471  0.6804 -1.3012  2.3911
 5937SOL    HW229274   4.154   0.731   8.351  0.1982  0.3206  0.0834
 5938SOL     OW29275   1.922   1.256   2.643 -0.2445  0.7074 -0.3535
 5938SOL    HW129276   1.961   1.322   2.586 -0.2426  0.9057 -0.1241
 5938SOL    HW229277   1.932   1.303   2.726  2.3271 -2.8609  1.3437
 5939SOL     OW29278   4.136   4.109   6.871  0.2414  0.0992 -0.6155
 5939SOL    HW129279   4.124   4.035   6.931  0.2291  0.3704 -0.2868
 5939SOL    HW229280   4.161   4.171   6.939 -0.2271 -2.0991  1.5789
 5940SOL     OW29281   1.890   1.795   5.997  0.5004  0.3700  0.3321
 5940SOL    HW129282   1.887   1.731   6.069 -0.6813  1.5295  1.3317
 5940SOL    HW229283   1.834   1.860   6.041  0.2300 -0.9868  1.9991
 5941SOL     OW29284   2.718   1.267   7.895 -0.1482  0.5935  0.5676
 5941SOL    HW129285   2.631   1.302   7.913  0.2515  3.1357 -2.5289
 5941SOL    HW229286   2.770   1.324   7.952 -0.0573  0.5079  0.5700
 5942SOL     OW29287   3.202   2.625   7.566 -0.1173  0.1678 -0.4058
 5942SOL    HW129288   3.117   2.580   7.571 -0.9987  1.9853  0.7002
 5942SOL    HW229289   3.175   2.701   7.515 -0.7383  1.0436  1.2232
 5943SOL     OW29290   1.142   1.635  13.215 -0.3051 -0.7751 -0.3224
 5943SOL    HW129291   1.231   1.664  13.237 -0.6744  0.9235 -1.0187
 5943SOL    HW229292   1.101   1.707  13.264 -1.5742 -0.9939 -1.0722
 5944SOL     OW29293   3.077   2.527   0.293 -0.0780  0.3309 -0.1013
 5944SOL    HW129294   3.144   2.462   0.316 -0.9501 -0.4935  0.1097
 5944SOL    HW229295   3.061   2.503   0.202  1.9056 -0.8484 -0.1392
 5945SOL     OW29296   3.198   0.020   4.267  0.3237  0.7269 -0.0774
 5945SOL    HW129297   3.147   0.031   4.348  1.1819  0.7333  0.4628
 5945SOL    HW229298   3.238   4.658   4.286 -2.7714 -0.6187  0.5926
 5946SOL     OW29299   1.390   2.833  13.593 -0.1282  0.2617 -0.7921
 5946SOL    HW129300   1.391   2.835  13.688 -2.1357  0.4988 -0.7828
 5946SOL    HW229301   1.381   2.740  13.572 -0.0186  0.6138 -2.4310
 5947SOL     OW29302   0.457   4.706  15.114 -0.6519  0.3175 -0.0718
 5947SOL    HW129303   0.400   4.640  15.154 -2.3162  1.0165 -1.2844
 5947SOL    HW229304   0.411   4.711  15.031 -2.6393  1.0528  1.0891
 5948SOL     OW29305   1.664   4.202  14.494 -0.3404  0.3006 -0.1806
 5948SOL    HW129306   1.730   4.272  14.493  0.1675 -0.1873 -1.4698
 5948SOL    HW229307   1.677   4.173  14.584 -0.4042  2.3875  0.5005
 5949SOL     OW29308   4.691   4.159   4.353 -0.2462 -0.1487 -0.1340
 5949SOL    HW129309   4.596   4.167   4.353 -0.2947 -0.7205 -1.3377
 5949SOL    HW229310   4.721   4.223   4.418  2.2430 -0.0802 -1.3108
 5950SOL     OW29311   0.391   2.800   7.253  0.2778 -0.1179 -0.6212
 5950SOL    HW129312   0.481   2.777   7.277  0.1996 -0.5462 -0.7403
 5950SOL    HW229313   0.398   2.817   7.159  0.9959 -0.5466 -0.6424
 5951SOL     OW29314   3.146   3.667   6.033  0.5821  0.8548  0.0284
 5951SOL    HW129315   3.155   3.710   6.118 -1.0843 -2.3213  1.8241
 5951SOL    HW229316   3.079   3.599   6.041  0.8088  0.2302 -3.1334
 5952SOL     OW29317   0.800   3.853   1.488 -0.1291 -0.4871 -0.2747
 5952SOL    HW129318   0.756   3.928   1.448 -0.3672  0.3745  1.5982
 5952SOL    HW229319   0.882   3.873   1.442 -1.3531  0.4496 -2.0361
 5953SOL     OW29320   3.209   0.330   7.455 -0.5860 -0.0296  0.3114
 5953SOL    HW129321   3.209   0.257   7.393 -1.0076  1.0671 -0.9901
 5953SOL    HW229322   3.284   0.378   7.421  0.9138 -1.2640  1.8591
 5954SOL     OW29323   2.803   3.254   2.032 -0.0006 -0.3019 -0.2415
 5954SOL    HW129324   2.847   3.250   2.118  0.6765  4.3345 -0.3813
 5954SOL    HW229325   2.815   3.341   1.995  0.0514 -0.6253 -0.9678
 5955SOL     OW29326   3.776   3.082   3.537  0.7846  0.6516 -0.4890
 5955SOL    HW129327   3.802   2.990   3.533  0.3862  0.5283 -0.2659
 5955SOL    HW229328   3.856   3.118   3.500  2.1563  0.0878  1.9270
 5956SOL     OW29329   0.527   4.485   2.757 -0.8069 -0.1790  0.1356
 5956SOL    HW129330   0.620   4.466   2.744 -0.8522 -0.2076 -0.1522
 5956SOL    HW229331   0.505   4.542   2.683  0.6519  1.0609  0.6568
 5957SOL     OW29332   0.859   1.608   5.833 -0.2855 -0.0961  0.5707
 5957SOL    HW129333   0.848   1.576   5.922  0.4770 -0.3842  0.5582
 5957SOL    HW229334   0.779   1.660   5.827 -0.1106  0.0266 -0.6186
 5958SOL     OW29335   2.246   0.145   4.222  0.1075 -0.3755  0.6287
 5958SOL    HW129336   2.248   0.217   4.284  0.0106  1.1362 -1.1097
 5958SOL    HW229337   2.332   0.159   4.181  0.1452  1.2106  1.2290
 5959SOL     OW29338   1.247   1.708  13.794 -0.5058  0.0722 -0.5085
 5959SOL    HW129339   1.209   1.746  13.874 -0.9473  1.1708 -1.2340
 5959SOL    HW229340   1.342   1.701  13.807 -0.8552 -1.8977  0.8902
 5960SOL     OW29341   3.838   4.494  15.688  0.0733 -0.4886  0.1884
 5960SOL    HW129342   3.798   4.407  15.692 -0.8287 -0.0942 -0.2150
 5960SOL    HW229343   3.771   4.534  15.634  0.9918  0.6720 -0.0869
 5961SOL     OW29344   3.247   0.244  16.413 -0.0164 -0.1740 -0.5004
 5961SOL    HW129345   3.292   0.309  16.468  2.1914 -1.0473 -1.2583
 5961SOL    HW229346   3.218   0.292  16.336 -0.9018  0.1061  0.0152
 5962SOL     OW29347   3.943   0.329   9.638  0.7482 -0.2463  0.0572
 5962SOL    HW129348   4.003   0.369   9.575 -0.5902  1.1668 -0.3200
 5962SOL    HW229349   3.906   0.270   9.573  0.2369 -0.9831  1.0156
 5963SOL     OW29350   2.573   2.210   2.225 -0.0128 -0.2003  0.2849
 5963SOL    HW129351   2.518   2.171   2.157  0.9532 -3.9737  1.6868
 5963SOL    HW229352   2.556   2.160   2.305 -0.5354  0.2243  0.4386
 5964SOL     OW29353   2.671   0.641   9.142 -0.1408 -0.2567  0.2608
 5964SOL    HW129354   2.624   0.710   9.188  1.0960 -0.3468  1.6505
 5964SOL    HW229355   2.603   0.574   9.143  0.7512 -1.0590  4.3462
 5965SOL     OW29356   1.270   1.908   9.517 -0.7575 -0.2154 -0.0293
 5965SOL    HW129357   1.199   1.898   9.453 -0.1297  0.0690 -0.7604
 5965SOL    HW229358   1.234   1.862   9.594  1.2609 -1.0678  0.3967
 5966SOL     OW29359   0.304   1.255   8.140 -0.1496 -0.0463  0.0749
 5966SOL    HW129360   0.279   1.321   8.204 -0.9642 -1.1866  0.9279
 5966SOL    HW229361   0.382   1.299   8.105  0.1449  1.3212  2.4470
 5967SOL     OW29362   0.443   1.620  13.796  0.0066  0.2295 -0.6360
 5967SOL    HW129363   0.455   1.528  13.776 -1.5928 -0.0231 -0.4225
 5967SOL    HW229364   0.431   1.621  13.891  0.6232  2.4680 -0.5796
 5968SOL     OW29365   3.118   4.410  11.664 -0.4084  0.0216 -0.0596
 5968SOL    HW129366   3.092   4.456  11.585  0.0860  0.4684  0.0308
 5968SOL    HW229367   3.173   4.480  11.699 -0.4752 -1.2423  2.5907
 5969SOL     OW29368   4.697   4.112   3.327 -0.3227  0.2713  0.3017
 5969SOL    HW129369   0.053   4.087   3.376  0.0591  1.3195  0.2116
 5969SOL    HW229370   4.656   4.027   3.307  1.3066 -0.8249  1.5532
 5970SOL     OW29371   3.842   0.309   5.639  0.1235  0.0544 -0.7472
 5970SOL    HW129372   3.760   0.264   5.621 -0.8966  1.7093 -0.2661
 5970SOL    HW229373   3.911   0.243   5.632 -0.7537 -1.0828  1.1329
 5971SOL     OW29374   3.295   3.762   2.404 -0.3167  0.3661  0.0625
 5971SOL    HW129375   3.211   3.722   2.382  1.7606 -1.5798 -4.2458
 5971SOL    HW229376   3.290   3.852   2.371  0.4076  0.0078 -0.9918
 5972SOL     OW29377   4.590   3.906  17.404 -0.1630  0.4986 -0.3190
 5972SOL    HW129378   4.682   3.881  17.415 -1.5826 -4.3169  0.7825
 5972SOL    HW229379   4.581   3.841  17.333 -1.8771 -1.0817  1.3525
 5973SOL     OW29380   3.368   4.693   9.757 -0.1551 -0.2684 -0.0069
 5973SOL    HW129381   3.430   4.685   9.685  0.2401 -2.7378  0.6199
 5973SOL    HW229382   3.284   4.667   9.718  0.8189 -0.8634 -1.6986
 5974SOL     OW29383   1.000   4.533   8.672 -0.3426  0.2686  0.1862
 5974SOL    HW129384   0.928   4.573   8.623  0.1633  1.1179  0.1431
 5974SOL    HW229385   1.034   4.480   8.600 -1.8551  0.4471 -0.6802
 5975SOL     OW29386   2.617   4.282  17.343 -0.5326  0.1468  0.2853
 5975SOL    HW129387   2.523   4.274  17.328 -0.2921 -0.3701 -0.8980
 5975SOL    HW229388   2.624   4.353  17.407  1.6427  0.1124  0.0972
 5976SOL     OW29389   0.260   2.425  14.495 -0.4611 -0.3137 -0.1537
 5976SOL    HW129390   0.267   2.370  14.417 -0.6973 -1.0621  0.3602
 5976SOL    HW229391   0.288   2.508  14.456 -0.0422 -0.3819  0.0076
 5977SOL     OW29392   1.320   1.307  15.463 -0.3458 -0.1986  0.2212
 5977SOL    HW129393   1.362   1.329  15.379 -0.1466  0.8116  0.5812
 5977SOL    HW229394   1.378   1.234  15.482 -1.3397 -1.6920 -2.4635
 5978SOL     OW29395   0.716   2.525   4.959 -0.5155  0.0326  0.4338
 5978SOL    HW129396   0.726   2.513   4.864  0.2967 -1.6356  0.7257
 5978SOL    HW229397   0.656   2.599   4.962 -1.0935 -0.4993  2.0682
 5979SOL     OW29398   1.275   2.141   5.413  0.2371 -0.0436  0.7063
 5979SOL    HW129399   1.340   2.085   5.455  1.1893  0.5821  0.0836
 5979SOL    HW229400   1.271   2.211   5.478 -0.2315  0.4999  0.0927
 5980SOL     OW29401   0.342   1.267  16.096  0.0266  0.0200 -0.2145
 5980SOL    HW129402   0.308   1.329  16.160  0.0445  1.6061 -1.7330
 5980SOL    HW229403   0.260   1.235  16.058  1.1949  0.7767 -3.4278
 5981SOL     OW29404   1.046   3.302   1.430 -0.4681  0.2985  0.6704
 5981SOL    HW129405   0.964   3.265   1.398  0.4097  1.2963 -2.7082
 5981SOL    HW229406   1.009   3.379   1.473  0.0091  0.7385  0.2920
 5982SOL     OW29407   1.900   2.120   2.025 -0.5506  0.0843  0.5130
 5982SOL    HW129408   1.923   2.066   2.100  0.9071 -0.4658 -0.3314
 5982SOL    HW229409   1.882   2.202   2.071 -3.4212 -0.0005 -0.5008
 5983SOL     OW29410   0.894   1.656   5.461 -0.6944 -0.6656  0.0420
 5983SOL    HW129411   0.968   1.705   5.498 -0.5465 -0.4504 -0.5417
 5983SOL    HW229412   0.920   1.639   5.370 -0.3780  2.6966 -0.5053
 5984SOL     OW29413   1.783   0.353  10.009  0.1083  0.6146  0.4163
 5984SOL    HW129414   1.699   0.351   9.963 -0.5118 -0.4980  1.5797
 5984SOL    HW229415   1.834   0.297   9.950 -0.6555 -1.2204  1.4879
 5985SOL     OW29416   1.213   0.647  16.351  0.2962  0.6154 -0.0693
 5985SOL    HW129417   1.198   0.691  16.434  1.3713  1.4503 -0.3212
 5985SOL    HW229418   1.126   0.653  16.312 -0.2618  0.0072  1.1022
 5986SOL     OW29419   1.275   3.052   4.058  0.1716  0.1443  0.0089
 5986SOL    HW129420   1.184   3.071   4.082  0.2269 -1.0766  1.2376
 5986SOL    HW229421   1.267   2.977   3.998  0.5053  0.1322 -0.0164
 5987SOL     OW29422   2.163   1.824   4.682 -0.1617 -0.2707  0.1077
 5987SOL    HW129423   2.075   1.788   4.669 -0.6886  0.7880  0.7130
 5987SOL    HW229424   2.210   1.746   4.654  0.6145  0.3765 -0.3929
 5988SOL     OW29425   1.591   2.388   4.166  0.3246 -0.3704  0.2420
 5988SOL    HW129426   1.608   2.410   4.074 -1.6160 -0.7310 -0.1940
 5988SOL    HW229427   1.536   2.311   4.151 -1.7707  1.2136 -0.2029
 5989SOL     OW29428   2.362   2.540  14.093 -0.1534 -0.2096  0.7275
 5989SOL    HW129429   2.360   2.551  13.998  1.9145 -0.4394  0.6698
 5989SOL    HW229430   2.286   2.482  14.098  0.6485 -1.4013 -1.2248
 5990SOL     OW29431   3.156   0.848   6.995 -0.2220 -0.0815 -0.0312
 5990SOL    HW129432   3.159   0.823   7.088  4.2100  0.3903 -0.0331
 5990SOL    HW229433   3.077   0.801   6.968 -1.1795  1.5016  0.0102
 5991SOL     OW29434   1.359   1.683   8.953  0.3283  0.0459  0.1296
 5991SOL    HW129435   1.361   1.739   9.031 -0.3708  0.5290 -0.1996
 5991SOL    HW229436   1.265   1.674   8.939  0.3289 -1.6561  1.1658
 5992SOL     OW29437   1.672   1.976   9.631 -0.9690 -0.0615 -0.0877
 5992SOL    HW129438   1.672   2.007   9.722 -3.4349 -2.9355  0.8870
 5992SOL    HW229439   1.753   2.013   9.598 -0.2216 -0.1701  1.6101
 5993SOL     OW29440   0.745   1.054   4.950 -0.3043  0.2265  0.5337
 5993SOL    HW129441   0.821   1.095   4.992 -0.4061  0.3269  0.6188
 5993SOL    HW229442   0.676   1.065   5.015 -1.1717  0.2310 -0.3854
 5994SOL     OW29443   0.919   3.970   5.724  0.0719  0.3827 -0.0222
 5994SOL    HW129444   0.939   4.019   5.644  0.7496  0.2558  0.0718
 5994SOL    HW229445   0.900   4.040   5.787 -1.5401 -0.8306  0.8545
 5995SOL     OW29446   4.611   0.537   4.991  0.1971  0.6874  0.4722
 5995SOL    HW129447   4.566   0.478   4.930  2.2628  0.1450 -0.5308
 5995SOL    HW229448   4.679   0.577   4.937  1.1916 -1.3194  0.2569
 5996SOL     OW29449   4.278   1.812   1.445 -0.0919 -0.0765 -0.5361
 5996SOL    HW129450   4.286   1.889   1.388 -0.5689  0.5699  0.2665
 5996SOL    HW229451   4.188   1.783   1.433  0.7130 -2.7914  0.0683
 5997SOL     OW29452   2.188   4.279  17.216  0.0565  0.2154 -0.4360
 5997SOL    HW129453   2.164   4.316  17.300  0.2818 -0.0164 -0.2680
 5997SOL    HW229454   2.242   4.350  17.181 -1.2409  0.5688 -1.7075
 5998SOL     OW29455   3.704   4.386   5.698  0.6478  0.2757 -0.3353
 5998SOL    HW129456   3.664   4.356   5.616 -0.7540 -1.4655  0.9909
 5998SOL    HW229457   3.718   4.480   5.687 -0.1828  0.3596 -0.6520
 5999SOL     OW29458   3.054   3.733   5.784 -0.8020  0.1287 -0.0436
 5999SOL    HW129459   3.057   3.693   5.871 -1.3110 -2.2046 -1.0749
 5999SOL    HW229460   3.084   3.820   5.807 -0.4171  0.6751 -2.5633
 6000SOL     OW29461   2.839   0.314   5.424 -0.1287  0.0588  0.4817
 6000SOL    HW129462   2.891   0.235   5.443 -0.3654 -0.8337 -2.5313
 6000SOL    HW229463   2.750   0.295   5.452 -0.0781 -2.7510 -1.1954
 6001SOL     OW29464   3.277   2.718   4.853  0.6253  0.2520  0.2423
 6001SOL    HW129465   3.190   2.733   4.816  1.6369  1.4467 -1.6695
 6001SOL    HW229466   3.252   2.648   4.914 -0.8596 -1.3034 -2.1672
 6002SOL     OW29467   1.459   4.292   3.645 -0.2066 -0.0787  0.3107
 6002SOL    HW129468   1.397   4.356   3.680  1.2840  1.5661 -0.0499
 6002SOL    HW229469   1.403   4.216   3.658 -0.5508  0.1450  0.1413
 6003SOL     OW29470   2.947   1.732   2.869 -0.0257 -0.1213 -0.0583
 6003SOL    HW129471   2.940   1.702   2.779  0.5654  1.5602 -0.6679
 6003SOL    HW229472   2.937   1.650   2.917  1.7978 -1.0158 -1.1772
 6004SOL     OW29473   2.591   1.012  10.964 -0.1661  0.0733 -0.0918
 6004SOL    HW129474   2.561   1.098  10.934 -1.2549  0.6269  2.5902
 6004SOL    HW229475   2.676   1.042  10.998  0.9006 -1.9687 -0.9579
 6005SOL     OW29476   3.132   0.329  15.050  0.0028  0.2618 -0.2897
 6005SOL    HW129477   3.171   0.252  15.008 -0.4308  0.5551 -1.2178
 6005SOL    HW229478   3.124   0.384  14.972 -0.1953  1.7798  0.7888
 6006SOL     OW29479   1.354   0.768  17.340 -0.6320  0.4549 -0.1474
 6006SOL    HW129480   1.376   0.860  17.324  1.6588 -0.1353 -0.3883
 6006SOL    HW229481   1.430   0.721  17.306  0.8009  2.0669  0.8178
 6007SOL     OW29482   4.143   4.397  16.027 -0.1818  0.4935 -0.0756
 6007SOL    HW129483   4.141   4.326  16.091 -0.5775  0.5746  0.0034
 6007SOL    HW229484   4.112   4.346  15.952 -4.7335  1.3985  1.1942
 6008SOL     OW29485   3.203   0.010   5.589  0.0848 -0.4101  0.4158
 6008SOL    HW129486   3.292   0.038   5.565  0.0092 -0.6837 -0.1794
 6008SOL    HW229487   3.206   0.009   5.684  1.7262 -0.8388  0.3620
 6009SOL     OW29488   4.588   4.364   1.258  0.0594  0.4540 -0.5415
 6009SOL    HW129489   4.504   4.405   1.239 -1.3527 -1.5621  1.3344
 6009SOL    HW229490   4.587   4.302   1.186 -0.7021 -0.8651  0.5870
 6010SOL     OW29491   1.930   1.035   6.064 -0.2079  0.3945 -0.3057
 6010SOL    HW129492   1.860   1.096   6.086  0.9186  1.4737  0.2968
 6010SOL    HW229493   1.900   0.950   6.096 -0.4143  0.1875 -1.0479
 6011SOL     OW29494   0.546   2.459   8.735 -0.0695  1.0055 -0.0793
 6011SOL    HW129495   0.458   2.490   8.754 -0.0117 -0.3957  2.4334
 6011SOL    HW229496   0.588   2.542   8.711  0.9051  0.0471 -1.7663
 6012SOL     OW29497   0.212   3.164  14.846  0.1849 -0.5348  1.0791
 6012SOL    HW129498   0.267   3.088  14.868  1.5133 -0.2902 -1.4066
 6012SOL    HW229499   0.256   3.181  14.763 -0.2308 -0.2874  0.9148
 6013SOL     OW29500   4.549   0.391   4.768 -0.0506  0.2592  0.1846
 6013SOL    HW129501   4.625   0.343   4.736  1.0174  1.0083  1.6088
 6013SOL    HW229502   4.483   0.323   4.752 -0.2000  0.4232  0.1106
 6014SOL     OW29503   4.605   2.770   3.269  0.1354 -0.4385  0.3698
 6014SOL    HW129504   4.669   2.821   3.220 -0.7666  1.4298  1.1386
 6014SOL    HW229505   4.588   2.835   3.337 -0.3144  0.7009 -0.8215
 6015SOL     OW29506   4.418   3.135   4.049 -0.4302 -0.3704  0.7305
 6015SOL    HW129507   4.483   3.206   4.048 -1.8433  0.8978  0.0726
 6015SOL    HW229508   4.422   3.123   3.954 -0.7785  1.3502  0.4993
 6016SOL     OW29509   3.168   4.688  15.494  0.0011 -0.1077  0.6645
 6016SOL    HW129510   3.097   4.638  15.534  0.3213 -2.0281 -1.1372
 6016SOL    HW229511   3.138   0.050  15.525 -1.1458 -0.0875 -0.5299
 6017SOL     OW29512   4.106   4.171   0.461 -0.3410  0.2156 -0.3557
 6017SOL    HW129513   4.031   4.229   0.467 -1.2842 -1.1222  0.5800
 6017SOL    HW229514   4.145   4.196   0.377 -0.5745  1.9355  0.0682
 6018SOL     OW29515   0.327   3.085   6.475 -0.4671 -0.1860  0.2163
 6018SOL    HW129516   0.296   3.020   6.413 -4.0815  0.6596  1.1653
 6018SOL    HW229517   0.364   3.031   6.545 -1.7097  0.9548  1.7476
 6019SOL     OW29518   1.322   3.134   7.617 -0.2297 -0.2489  0.1429
 6019SOL    HW129519   1.327   3.089   7.701  1.7181 -0.5285 -0.1292
 6019SOL    HW229520   1.257   3.083   7.568  0.0795  0.7639 -1.3306
 6020SOL     OW29521   2.147   1.400   3.510 -0.2241  0.0767  0.3098
 6020SOL    HW129522   2.173   1.483   3.549 -2.0220  1.0642 -0.6269
 6020SOL    HW229523   2.055   1.383   3.529  0.0816 -2.1230 -0.0751
 6021SOL     OW29524   4.680   4.336   8.035 -0.3709 -0.0631 -0.4820
 6021SOL    HW129525   4.720   4.262   7.990 -1.2452  0.3385 -1.9110
 6021SOL    HW229526   4.616   4.291   8.090  2.0080 -1.6947  0.9149
 6022SOL     OW29527   0.256   4.117   2.871  0.2219 -0.6609  1.0024
 6022SOL    HW129528   0.211   4.140   2.953  0.0282  0.1469  0.6756
 6022SOL    HW229529   0.203   4.158   2.802  0.0976 -0.5838  1.1452
 6023SOL     OW29530   1.889   2.024   4.136 -0.2803 -0.0119 -0.7456
 6023SOL    HW129531   1.969   1.990   4.176 -0.9533 -0.7691 -0.0205
 6023SOL    HW229532   1.868   1.950   4.079  1.0255 -0.8338 -0.1528
 6024SOL     OW29533   3.738   3.187   8.019  0.1156 -0.0386 -0.5185
 6024SOL    HW129534   3.773   3.259   7.966  0.4641  1.0700  1.2387
 6024SOL    HW229535   3.659   3.151   7.979 -0.3504 -0.7629  1.0445
 6025SOL     OW29536   2.785   2.939   7.067 -0.3072 -0.4622  0.6182
 6025SOL    HW129537   2.709   2.942   7.009 -0.5503  0.4935  0.9853
 6025SOL    HW229538   2.855   2.974   7.012 -0.5371 -2.3971 -0.9026
 6026SOL     OW29539   3.462   2.519   3.944 -0.0928  0.6074  0.1998
 6026SOL    HW129540   3.418   2.502   4.027 -2.1419  2.5549 -0.5147
 6026SOL    HW229541   3.545   2.556   3.974  0.2695 -0.9557  1.0991
 6027SOL     OW29542   4.221   2.506   3.665 -0.2467  0.4126  0.5265
 6027SOL    HW129543   4.157   2.493   3.735 -1.1032 -1.5185 -0.6095
 6027SOL    HW229544   4.257   2.419   3.645  1.4959  0.9309  1.4466
 6028SOL     OW29545   3.644   4.360   3.160  0.2150 -0.1881 -0.1024
 6028SOL    HW129546   3.621   4.390   3.072  1.0820 -1.2952 -0.7104
 6028SOL    HW229547   3.629   4.266   3.171 -0.5616  0.2582  2.7846
 6029SOL     OW29548   0.156   1.977   7.683 -0.2450  0.0954  0.3149
 6029SOL    HW129549   0.241   2.008   7.716 -0.4051  2.0978 -1.1094
 6029SOL    HW229550   0.173   1.906   7.621  0.5917  0.9970 -0.5025
 6030SOL     OW29551   3.192   1.226   7.289  0.6131 -0.1754 -0.0283
 6030SOL    HW129552   3.235   1.214   7.204  2.7504  3.2202  0.5615
 6030SOL    HW229553   3.259   1.282   7.329 -0.1881  0.6658  0.1502
 6031SOL     OW29554   0.868   4.100  12.806  0.5459 -0.1417 -0.8115
 6031SOL    HW129555   0.904   4.070  12.723 -0.9828  1.1262 -1.9432
 6031SOL    HW229556   0.783   4.057  12.804  0.3329  0.2602 -0.3112
 6032SOL     OW29557   4.506   3.136  14.271 -0.5119  0.7524  0.1590
 6032SOL    HW129558   4.472   3.136  14.182  2.9544  1.5547 -1.1891
 6032SOL    HW229559   4.492   3.041  14.279  0.5535  0.4769 -1.1079
 6033SOL     OW29560   1.791   4.449  13.425  0.5404 -0.5485 -0.0065
 6033SOL    HW129561   1.849   4.513  13.465 -1.5152  1.3448 -0.0738
 6033SOL    HW229562   1.839   4.443  13.343 -0.1368  0.5161 -0.4694
 6034SOL     OW29563   1.734   4.092   9.155  0.0790 -0.4252 -0.1234
 6034SOL    HW129564   1.679   4.087   9.077 -0.6761 -0.7643  0.4395
 6034SOL    HW229565   1.696   4.020   9.205  0.7243 -0.7606 -0.1147
 6035SOL     OW29566   1.316   0.383   7.617  0.3890 -0.2869 -0.1416
 6035SOL    HW129567   1.233   0.340   7.638 -0.6399  0.4631 -2.6241
 6035SOL    HW229568   1.369   0.335   7.680  0.8531  3.0203  2.0007
 6036SOL     OW29569   1.898   2.563   8.618 -0.0788 -0.2602 -0.7418
 6036SOL    HW129570   1.920   2.628   8.551 -3.5575  0.4256 -1.2436
 6036SOL    HW229571   1.906   2.482   8.568  0.6076 -0.1923 -0.7423
 6037SOL     OW29572   1.570   2.095   9.295 -0.1886  0.1421  0.1809
 6037SOL    HW129573   1.509   2.081   9.368  0.2985 -2.0612  0.1882
 6037SOL    HW229574   1.536   2.023   9.241  0.4288  0.2246 -0.3050
 6038SOL     OW29575   4.691   3.216   8.501 -0.2673 -0.3403 -0.3183
 6038SOL    HW129576   4.615   3.252   8.455 -0.9926 -2.8231 -1.0932
 6038SOL    HW229577   4.647   3.197   8.583 -1.7646  3.7156 -0.2063
 6039SOL     OW29578   3.944   2.931  14.242 -0.2396  0.2740  0.1002
 6039SOL    HW129579   3.924   3.020  14.270  1.5933  0.2534  1.4601
 6039SOL    HW229580   3.902   2.879  14.310  2.3176 -0.5544  1.0564
 6040SOL     OW29581   4.309   2.804   9.081 -0.4983  0.2704  0.5481
 6040SOL    HW129582   4.350   2.863   9.144 -2.8214  0.9054  1.4882
 6040SOL    HW229583   4.365   2.810   9.004  0.4090 -1.5798  1.0753
 6041SOL     OW29584   4.716   3.728   8.117 -0.3860 -0.1280  0.1120
 6041SOL    HW129585   4.661   3.687   8.051 -0.5113  2.5338 -1.4350
 6041SOL    HW229586   4.682   3.673   8.189 -2.5817  0.9454 -0.0996
 6042SOL     OW29587   2.757   2.679  15.077  0.6673 -0.0554  0.5484
 6042SOL    HW129588   2.689   2.705  15.014 -1.5408  0.4907  3.1819
 6042SOL    HW229589   2.826   2.648  15.018 -0.4086 -1.6739  0.1191
 6043SOL     OW29590   3.192   0.612   6.737  0.2915  0.4820  0.1519
 6043SOL    HW129591   3.179   0.518   6.731 -0.4095  0.7479 -2.8390
 6043SOL    HW229592   3.170   0.646   6.824 -0.5225 -0.3263  0.2558
 6044SOL     OW29593   2.177   1.463  11.621  0.1585  0.4578 -0.3995
 6044SOL    HW129594   2.230   1.384  11.634 -0.0637 -0.1325 -2.9826
 6044SOL    HW229595   2.119   1.436  11.550 -1.1090  0.2592  0.7070
 6045SOL     OW29596   1.080   0.172   6.266  0.0879  0.4442 -0.1806
 6045SOL    HW129597   1.128   0.252   6.288 -0.0749  0.2725  0.7900
 6045SOL    HW229598   1.148   0.104   6.261  1.5556  2.1127 -3.1407
 6046SOL     OW29599   0.749   0.477   4.309 -0.6793 -0.6532  0.5418
 6046SOL    HW129600   0.805   0.402   4.290 -0.4785 -0.5609  0.7676
 6046SOL    HW229601   0.813   0.534   4.351 -0.8577 -0.7270  0.9111
 6047SOL     OW29602   2.516   4.398   4.936 -0.2629  0.0026  0.4841
 6047SOL    HW129603   2.527   4.490   4.911  0.8919  0.0496  1.1911
 6047SOL    HW229604   2.432   4.397   4.981  0.6327  3.4447  2.1818
 6048SOL     OW29605   2.643   1.332   2.787  0.0516  0.1807  1.1116
 6048SOL    HW129606   2.728   1.330   2.833 -0.6498  1.7394  2.4690
 6048SOL    HW229607   2.663   1.347   2.695  0.9445  0.2585  1.3077
 6049SOL     OW29608   1.843   0.015   7.782 -0.5001 -0.1055  0.4765
 6049SOL    HW129609   1.894   0.043   7.858 -2.0200  0.9281  1.0914
 6049SOL    HW229610   1.903   0.008   7.707  0.1053  4.6825  0.5404
 6050SOL     OW29611   1.639   2.123   5.391 -0.5128  0.2260 -0.3219
 6050SOL    HW129612   1.726   2.127   5.430 -1.0495  0.6881  0.8193
 6050SOL    HW229613   1.667   2.167   5.310 -1.9865 -0.3461 -1.1536
 6051SOL     OW29614   4.583   0.548   7.805 -0.6272  0.4731  0.1478
 6051SOL    HW129615   4.608   0.471   7.755  0.2774  2.1429 -1.9986
 6051SOL    HW229616   4.548   0.502   7.882  0.9205  5.1233  3.6442
 6052SOL     OW29617   2.816   0.802   2.894 -0.8448 -0.5913 -0.0713
 6052SOL    HW129618   2.730   0.833   2.866 -1.6671  0.0147  3.1432
 6052SOL    HW229619   2.802   0.716   2.933 -1.0479 -1.7303 -2.6054
 6053SOL     OW29620   1.941   0.484   8.425 -0.0130  0.0559 -0.6541
 6053SOL    HW129621   1.980   0.479   8.513 -0.5680 -0.0624 -0.4153
 6053SOL    HW229622   2.007   0.436   8.375 -1.8659 -1.7759 -1.3005
 6054SOL     OW29623   2.553   3.238  11.366  0.6617  0.6489 -0.4746
 6054SOL    HW129624   2.487   3.174  11.342  0.2999  0.9845 -0.3647
 6054SOL    HW229625   2.628   3.185  11.394 -1.5073 -1.6906  0.8379
 6055SOL     OW29626   1.916   3.453   4.840 -0.1552 -0.1235  0.0507
 6055SOL    HW129627   1.963   3.423   4.918 -1.8041  0.5152  1.2807
 6055SOL    HW229628   1.823   3.447   4.861 -0.8033  0.8266 -2.5900
 6056SOL     OW29629   0.618   0.038  10.743  0.6231 -0.2402  0.9466
 6056SOL    HW129630   0.700   0.002  10.710 -0.1523  0.8928 -2.1656
 6056SOL    HW229631   0.584   4.678  10.776  0.1627 -0.1177  0.7805
 6057SOL     OW29632   2.557   0.563   0.147 -0.5648 -0.5042 -0.1112
 6057SOL    HW129633   2.532   0.586   0.236  1.3190  3.4747 -0.6140
 6057SOL    HW229634   2.575   0.470   0.162  0.3907 -0.0035  1.7140
 6058SOL     OW29635   3.540   3.644   6.126  0.4148  0.5690  0.2501
 6058SOL    HW129636   3.542   3.611   6.216  0.8624  0.1983  0.1051
 6058SOL    HW229637   3.577   3.568   6.081 -1.5321 -1.6604  2.3844
 6059SOL     OW29638   1.288   1.654   0.468 -0.2292  0.0694 -0.4910
 6059SOL    HW129639   1.230   1.652   0.391  0.4468 -0.8745 -0.9810
 6059SOL    HW229640   1.232   1.651   0.545 -0.2302 -1.3167 -0.5455
 6060SOL     OW29641   0.461   2.325  15.258 -0.2211 -0.3077  0.0285
 6060SOL    HW129642   0.529   2.278  15.210  0.3788  2.5143 -1.8600
 6060SOL    HW229643   0.491   2.413  15.238 -0.5087 -0.1694  0.2162
 6061SOL     OW29644   4.204   3.421   4.670 -0.0145  0.2440 -0.0490
 6061SOL    HW129645   4.226   3.329   4.686  0.1315  0.0078 -1.5349
 6061SOL    HW229646   4.185   3.422   4.576  2.0384 -2.6111 -0.5088
 6062SOL     OW29647   2.071   1.956   0.187  0.5056  0.3396 -0.3738
 6062SOL    HW129648   1.989   1.953   0.137  0.4744 -0.4544 -0.2842
 6062SOL    HW229649   2.126   1.988   0.115  1.9620  1.5235  1.2789
 6063SOL     OW29650   3.646   3.586  11.152  0.4034  0.0200 -0.3678
 6063SOL    HW129651   3.722   3.570  11.208 -0.1565  0.3612  0.4970
 6063SOL    HW229652   3.614   3.671  11.183 -0.9157 -0.8167  0.5732
 6064SOL     OW29653   1.453   3.868  13.636  0.2160 -0.0770  0.0775
 6064SOL    HW129654   1.505   3.948  13.635  0.0204 -0.0097 -2.5705
 6064SOL    HW229655   1.391   3.888  13.707 -0.8852 -0.0237 -0.8993
 6065SOL     OW29656   2.519   4.577   3.524  0.4562 -0.3830  0.0390
 6065SOL    HW129657   2.613   4.594   3.533 -0.0035  1.1664  1.6905
 6065SOL    HW229658   2.487   4.653   3.475  0.3873  0.6620  1.7060
 6066SOL     OW29659   2.010   4.302   6.719 -0.0925 -0.0058  0.5166
 6066SOL    HW129660   1.962   4.291   6.637 -0.1099 -0.4192  0.5813
 6066SOL    HW229661   1.968   4.385   6.740 -0.6902 -0.1774  0.0202
 6067SOL     OW29662   4.318   3.779   8.142  0.1855  0.2934 -0.0048
 6067SOL    HW129663   4.399   3.812   8.181  0.0318 -0.7755  1.2321
 6067SOL    HW229664   4.256   3.843   8.176 -0.8206 -0.3743 -0.5558
 6068SOL     OW29665   0.754   1.826   6.486  0.4623 -0.6486  0.8593
 6068SOL    HW129666   0.782   1.916   6.505  0.2850  0.0467 -2.1571
 6068SOL    HW229667   0.759   1.782   6.571  0.2973  4.5008  3.5863
 6069SOL     OW29668   0.015   1.243  15.271 -0.2443 -0.4418 -0.4011
 6069SOL    HW129669   0.096   1.280  15.306 -0.5259  0.6338 -0.8621
 6069SOL    HW229670   0.022   1.238  15.176  1.8703  2.1407 -0.3714
 6070SOL     OW29671   4.166   1.450   7.937 -0.4588 -0.1025 -0.6222
 6070SOL    HW129672   4.151   1.528   7.991 -3.1454 -0.5414 -0.7612
 6070SOL    HW229673   4.187   1.385   8.004  2.0333 -0.3236 -1.6123
 6071SOL     OW29674   0.168   3.173  16.404  0.2935 -0.3805  0.2467
 6071SOL    HW129675   0.194   3.210  16.489  0.6740  1.0647 -0.5120
 6071SOL    HW229676   0.085   3.136  16.434  0.1975  1.0718  1.7737
 6072SOL     OW29677   4.405   0.580   5.203  0.3978 -0.1087 -0.6256
 6072SOL    HW129678   4.413   0.673   5.185 -0.1497  0.0958  0.1553
 6072SOL    HW229679   4.314   0.586   5.231  0.5415  3.4890 -1.0125
 6073SOL     OW29680   4.057   1.213   4.193  0.0598  0.3459 -0.5503
 6073SOL    HW129681   4.039   1.307   4.188 -0.7869  0.3426  2.5889
 6073SOL    HW229682   4.130   1.208   4.130  0.6818 -1.1290  0.3098
 6074SOL     OW29683   4.540   0.617   7.273 -0.2594  0.5576  0.0335
 6074SOL    HW129684   4.586   0.662   7.343  0.2632 -1.6000  1.0815
 6074SOL    HW229685   4.539   0.526   7.304 -1.2753  0.3042 -0.7260
 6075SOL     OW29686   2.738   3.068   9.477  0.1586  0.7326 -0.0193
 6075SOL    HW129687   2.740   3.163   9.465  0.7694  0.8464  0.9242
 6075SOL    HW229688   2.654   3.035   9.445  2.4811 -1.4886 -3.8897
 6076SOL     OW29689   4.607   4.287  13.600  0.2323  0.5138  0.1200
 6076SOL    HW129690   4.661   4.235  13.659  1.4382  1.3047 -0.2888
 6076SOL    HW229691   4.668   4.357  13.578  2.3242 -1.0051  1.1048
 6077SOL     OW29692   3.818   3.373   2.082 -0.2056  0.3797  0.4004
 6077SOL    HW129693   3.760   3.312   2.038 -0.6419  0.2914  1.1089
 6077SOL    HW229694   3.780   3.365   2.169 -0.1818  1.0893  0.4762
 6078SOL     OW29695   4.610   1.717  15.721  0.6620  0.2875 -0.0729
 6078SOL    HW129696   4.572   1.769  15.792 -0.8947 -1.5648  0.4663
 6078SOL    HW229697   4.540   1.718  15.656  1.0016  2.4409 -0.4123
 6079SOL     OW29698   3.807   4.316   9.758 -0.0442 -0.2953 -0.0636
 6079SOL    HW129699   3.725   4.266   9.751 -0.2350  0.2455 -1.7822
 6079SOL    HW229700   3.831   4.316   9.850  1.5677  2.2957 -0.4855
 6080SOL     OW29701   1.685   4.064  14.199  0.1380 -0.1151  0.0134
 6080SOL    HW129702   1.695   3.971  14.179 -1.1573 -0.2869  0.1390
 6080SOL    HW229703   1.671   4.060  14.294  2.0226  3.6950  0.4500
 6081SOL     OW29704   0.426   0.775   4.592  0.7148  0.6696 -0.3838
 6081SOL    HW129705   0.484   0.718   4.541  0.1086 -1.7409  1.5894
 6081SOL    HW229706   0.485   0.828   4.646  0.5688  0.2634  0.1643
 6082SOL     OW29707   3.798   0.872   4.558 -0.6525 -0.3529 -0.0410
 6082SOL    HW129708   3.846   0.796   4.591 -0.2877 -0.8677 -1.7351
 6082SOL    HW229709   3.850   0.888   4.479  1.8854 -1.0987  1.4476
 6083SOL     OW29710   3.755   2.816   3.821  0.2915 -0.2090  0.2897
 6083SOL    HW129711   3.769   2.824   3.727 -2.9279  1.8814  0.0015
 6083SOL    HW229712   3.779   2.903   3.854 -1.5881  0.3056  0.2826
 6084SOL     OW29713   2.091   4.551   6.057  0.3356  0.0065 -0.3245
 6084SOL    HW129714   2.033   4.475   6.049 -2.5705  2.1899  0.1506
 6084SOL    HW229715   2.026   4.621   6.064  0.4057  0.0910 -0.5242
 6085SOL     OW29716   2.517   3.354   2.403 -0.5877 -0.1869  0.4052
 6085SOL    HW129717   2.488   3.371   2.492  0.0349  0.4903  0.4886
 6085SOL    HW229718   2.456   3.286   2.375  2.2436 -1.1160 -3.5965
 6086SOL     OW29719   0.974   2.557   6.604 -0.1171  0.1417 -0.2499
 6086SOL    HW129720   0.953   2.640   6.645  1.9763  0.4806  0.1434
 6086SOL    HW229721   1.061   2.577   6.569  1.3795 -2.4246  1.9937
 6087SOL     OW29722   3.476   3.050   6.131 -0.5960 -0.4205 -0.3881
 6087SOL    HW129723   3.471   3.047   6.035  0.5194  2.9459 -0.5543
 6087SOL    HW229724   3.555   3.104   6.128  0.0857 -1.3033  1.6229
 6088SOL     OW29725   1.537   0.520   8.086  0.0210 -0.3321 -0.0391
 6088SOL    HW129726   1.525   0.569   8.005  0.1558 -1.2237 -0.5971
 6088SOL    HW229727   1.486   0.444   8.059  0.2540 -0.0540 -1.2764
 6089SOL     OW29728   3.967   1.726  16.811 -0.1298 -0.0694 -0.0709
 6089SOL    HW129729   3.962   1.811  16.767  0.9648  0.2594  0.4300
 6089SOL    HW229730   4.055   1.701  16.782  0.3626  0.2976  1.0787
 6090SOL     OW29731   2.048   2.437   4.768 -0.3338 -0.2511 -0.2931
 6090SOL    HW129732   2.060   2.343   4.780  3.0661 -0.0837 -2.0754
 6090SOL    HW229733   2.127   2.460   4.718 -0.6557 -2.4890 -1.8314
 6091SOL     OW29734   4.022   1.845   2.591 -0.4020 -0.3331 -0.6385
 6091SOL    HW129735   4.030   1.781   2.521 -2.5834  0.4800 -1.6451
 6091SOL    HW229736   3.929   1.867   2.585  0.2197  1.7962 -2.5466
 6092SOL     OW29737   3.236   0.551  11.399 -0.4879  0.0468  0.1044
 6092SOL    HW129738   3.189   0.530  11.480  0.3376  1.0000  0.8317
 6092SOL    HW229739   3.261   0.638  11.428 -1.4678  0.4275 -0.2075
 6093SOL     OW29740   0.080   0.933   8.314 -0.2892  0.3697  0.0172
 6093SOL    HW129741   0.043   0.894   8.393  0.3231  0.8627  0.5455
 6093SOL    HW229742   0.010   0.997   8.303  0.0999  1.1749  2.1170
 6094SOL     OW29743   4.251   0.421  12.585  0.8657  0.5359  0.1615
 6094SOL    HW129744   4.298   0.412  12.502 -0.6087  0.9440 -0.7306
 6094SOL    HW229745   4.289   0.352  12.639  0.1730 -0.0598 -0.1094
 6095SOL     OW29746   4.340   0.152   4.729 -0.4476 -0.4563 -0.0023
 6095SOL    HW129747   4.253   0.189   4.746 -0.5803  0.0509 -1.7468
 6095SOL    HW229748   4.344   0.159   4.634 -1.8129 -2.2371 -0.1791
 6096SOL     OW29749   0.261   0.288  14.884  0.3618  0.2760  0.2426
 6096SOL    HW129750   0.287   0.336  14.805  0.2674 -0.3509 -0.1658
 6096SOL    HW229751   0.266   0.357  14.950 -1.0860 -0.1313  0.7883
 6097SOL     OW29752   1.892   0.355  10.260 -0.7434 -0.1246  0.5892
 6097SOL    HW129753   1.981   0.371  10.227 -0.4511  0.5864  1.7177
 6097SOL    HW229754   1.845   0.387  10.183  0.5415  0.3603 -0.0014
 6098SOL     OW29755   0.357   1.086   7.821  0.2399  0.3150 -0.2169
 6098SOL    HW129756   0.318   1.023   7.760  1.8298 -3.0108  2.1870
 6098SOL    HW229757   0.322   1.051   7.903  1.5663  0.7255  0.5189
 6099SOL     OW29758   2.220   4.596   7.938  0.3231  0.3643  0.3145
 6099SOL    HW129759   2.257   4.684   7.938  0.3206  0.3819 -2.6037
 6099SOL    HW229760   2.255   4.548   7.862 -2.6565 -0.0474 -0.7987
 6100SOL     OW29761   1.012   1.133   2.194 -0.0783 -0.2633  0.7150
 6100SOL    HW129762   1.088   1.095   2.238 -0.3151 -2.5258 -0.8351
 6100SOL    HW229763   0.978   1.053   2.154  1.2972 -0.1420 -0.7007
 6101SOL     OW29764   1.021   1.199   4.572  0.1025 -0.0515  0.0494
 6101SOL    HW129765   1.096   1.184   4.629  0.1533  0.1183  0.0292
 6101SOL    HW229766   0.976   1.271   4.617  1.4093  1.7239 -1.4537
 6102SOL     OW29767   0.097   3.254   7.993  0.1026 -0.3429 -0.1981
 6102SOL    HW129768   0.143   3.248   8.077  1.2154  0.9626 -0.7180
 6102SOL    HW229769   0.010   3.217   8.004 -0.2208  1.0703  2.0333
 6103SOL     OW29770   1.424   3.805   3.480 -0.7006 -0.5100  0.0867
 6103SOL    HW129771   1.402   3.714   3.463 -1.8522 -0.0847 -0.6965
 6103SOL    HW229772   1.411   3.806   3.575  2.5893 -1.0808  0.5358
 6104SOL     OW29773   1.535   0.021  15.736 -0.7371 -0.1247  0.1055
 6104SOL    HW129774   1.503   4.684  15.669 -0.5559  0.4785 -0.5265
 6104SOL    HW229775   1.618   0.055  15.702 -0.1181 -1.6586  0.0819
 6105SOL     OW29776   0.221   1.748   6.482  0.1358  0.2218 -0.2631
 6105SOL    HW129777   0.259   1.681   6.539  1.1500 -0.0424 -1.2324
 6105SOL    HW229778   0.232   1.827   6.534 -0.0363 -0.1188  0.2952
 6106SOL     OW29779   2.297   3.647   4.907  0.3717 -0.4133 -0.2672
 6106SOL    HW129780   2.282   3.689   4.822  0.3803  2.4813  1.1717
 6106SOL    HW229781   2.231   3.579   4.893 -1.7098  1.4316  0.6142
 6107SOL     OW29782   3.510   0.157   7.541  0.4489  0.0118  0.0171
 6107SOL    HW129783   3.585   0.168   7.600  2.8327 -0.1701 -2.9609
 6107SOL    HW229784   3.473   0.245   7.550  0.0927 -0.1649  0.3152
 6108SOL     OW29785   1.771   1.917   9.325  0.3930  0.2863 -0.3600
 6108SOL    HW129786   1.704   1.985   9.319 -1.2329 -1.4385 -1.7769
 6108SOL    HW229787   1.838   1.959   9.378 -0.0950  2.6203 -1.6041
 6109SOL     OW29788   2.614   1.604   0.536 -0.8261 -0.8181  0.3237
 6109SOL    HW129789   2.587   1.609   0.628 -1.2483 -3.2751  0.3227
 6109SOL    HW229790   2.534   1.604   0.483 -0.4814 -0.0816 -0.1943
 6110SOL     OW29791   1.798   3.201  13.970  0.1064  0.2955 -0.9631
 6110SOL    HW129792   1.875   3.250  13.998 -0.4185 -0.2811  1.4688
 6110SOL    HW229793   1.736   3.210  14.041  1.2596 -1.3479  0.2659
 6111SOL     OW29794   3.576   0.066   6.004 -0.3991 -0.5452  0.2441
 6111SOL    HW129795   3.589   0.123   5.928  2.4851 -1.5133  0.0328
 6111SOL    HW229796   3.631   4.712   5.986  0.3099 -0.0511  0.3180
 6112SOL     OW29797   3.437   0.291   7.006 -0.2636 -0.0155 -0.0260
 6112SOL    HW129798   3.479   0.263   7.087  1.4308  1.7466 -0.3034
 6112SOL    HW229799   3.494   0.249   6.942  0.1732 -0.2801  0.5409
 6113SOL     OW29800   1.518   1.765   6.438 -0.1920  0.3793  0.4971
 6113SOL    HW129801   1.502   1.733   6.526  2.5364  2.2294  1.6839
 6113SOL    HW229802   1.613   1.779   6.445 -0.2824  1.1760  0.1536
 6114SOL     OW29803   2.467   1.074   4.796 -0.1930  0.2552  0.1040
 6114SOL    HW129804   2.450   0.982   4.818 -0.4256 -0.0040 -1.1532
 6114SOL    HW229805   2.400   1.123   4.843 -0.1348  0.7289 -0.3167
 6115SOL     OW29806   2.000   3.468  13.258 -0.4858 -0.1054  0.7413
 6115SOL    HW129807   2.001   3.412  13.336 -2.2123  0.9122  1.4949
 6115SOL    HW229808   1.985   3.404  13.190  0.3616 -0.4239  0.8484
 6116SOL     OW29809   2.553   0.281   3.798 -0.0414 -0.6851  0.3594
 6116SOL    HW129810   2.496   0.311   3.727  0.6550 -0.0802  0.0644
 6116SOL    HW229811   2.540   0.356   3.856 -1.2239 -0.6236  0.0118
 6117SOL     OW29812   2.632   2.960   2.198  0.2606  0.2582  0.2237
 6117SOL    HW129813   2.628   2.962   2.103  1.9373 -0.0824  0.1377
 6117SOL    HW229814   2.566   2.895   2.220  1.6171 -0.8766  0.9490
 6118SOL     OW29815   0.185   1.258   1.861 -0.5439  0.1014 -0.4391
 6118SOL    HW129816   0.179   1.348   1.830  0.4824  0.4232  0.3044
 6118SOL    HW229817   0.095   1.228   1.848  0.5271 -2.9261 -0.7250
 6119SOL     OW29818   0.271   0.138  15.725 -0.3585 -0.2232 -0.0263
 6119SOL    HW129819   0.242   0.229  15.714  2.6629  0.7194 -0.2387
 6119SOL    HW229820   0.314   0.141  15.811 -1.2185 -1.0947  0.4359
 6120SOL     OW29821   0.126   2.044   7.988  0.4314 -0.1911  0.3608
 6120SOL    HW129822   0.101   2.135   8.005  0.8849 -0.1422  0.7362
 6120SOL    HW229823   0.112   2.033   7.893  1.6917  0.0779  0.1454
 6121SOL     OW29824   3.928   3.968   2.030  0.5197 -0.2184  0.4330
 6121SOL    HW129825   4.021   3.992   2.031  0.3210  0.6260 -0.9718
 6121SOL    HW229826   3.914   3.986   1.937 -0.1588 -1.0765  0.3738
 6122SOL     OW29827   1.281   3.782   6.941 -0.4718  0.6199 -0.1491
 6122SOL    HW129828   1.226   3.832   7.002 -2.3284 -1.3603 -0.2103
 6122SOL    HW229829   1.285   3.695   6.980  4.1597  2.1397  2.7459
 6123SOL     OW29830   0.938   2.661  10.159 -0.9442  0.4135  0.1379
 6123SOL    HW129831   0.894   2.741  10.131 -2.4996 -0.6671 -0.5030
 6123SOL    HW229832   0.867   2.598  10.144 -1.5856  1.0071  0.6709
 6124SOL     OW29833   2.828   4.115   4.397  0.3978 -0.3248 -0.3317
 6124SOL    HW129834   2.864   4.203   4.390 -0.6982  0.1825  0.5057
 6124SOL    HW229835   2.841   4.089   4.488  1.7567  1.2586 -0.0917
 6125SOL     OW29836   4.458   2.232   8.828  0.1324 -0.0105  0.1816
 6125SOL    HW129837   4.369   2.264   8.810  0.1263 -0.6290 -0.9221
 6125SOL    HW229838   4.432   2.181   8.905 -0.8940 -0.6451 -0.5727
 6126SOL     OW29839   2.402   4.125  10.039 -0.3374 -0.0886 -0.4142
 6126SOL    HW129840   2.428   4.045  10.086  3.4812 -0.1103 -2.5909
 6126SOL    HW229841   2.482   4.144   9.990  0.1283  0.3726  0.5223
 6127SOL     OW29842   3.767   4.261   4.440  0.0255 -0.1128  0.3080
 6127SOL    HW129843   3.724   4.217   4.512  1.9198 -1.2177  0.7489
 6127SOL    HW229844   3.843   4.305   4.479 -1.3296  2.9085 -0.4233
 6128SOL     OW29845   2.756   3.715   9.589 -0.2775 -0.1771  0.0441
 6128SOL    HW129846   2.737   3.791   9.645 -2.4445  0.3922 -1.4895
 6128SOL    HW229847   2.839   3.680   9.623 -0.5769  0.7133  1.6845
 6129SOL     OW29848   1.884   2.703   6.720 -0.5918 -0.1298 -0.1404
 6129SOL    HW129849   1.801   2.699   6.766 -0.0798  0.8918  0.8518
 6129SOL    HW229850   1.938   2.632   6.756  0.6255  0.1910 -1.3179
 6130SOL     OW29851   4.128   3.633   1.871  0.2213 -0.0168  0.1573
 6130SOL    HW129852   4.051   3.682   1.841 -0.0072 -1.6037 -1.8061
 6130SOL    HW229853   4.092   3.552   1.906 -0.4650 -0.7867 -2.3448
 6131SOL     OW29854   0.328   1.038   1.850 -0.9960 -0.6059 -0.2119
 6131SOL    HW129855   0.280   1.120   1.837 -1.0918 -0.3536  1.7414
 6131SOL    HW229856   0.392   1.065   1.916 -0.3782  1.8004 -1.7776
 6132SOL     OW29857   1.881   3.621   6.824 -0.6463  0.0005 -0.2615
 6132SOL    HW129858   1.934   3.680   6.770 -1.7340  0.6182 -0.6492
 6132SOL    HW229859   1.924   3.536   6.832 -0.9127 -0.2983 -2.1835
 6133SOL     OW29860   4.120   2.489   1.438  0.3954  0.2645 -0.1179
 6133SOL    HW129861   4.057   2.515   1.371 -0.6753 -0.5979  0.5566
 6133SOL    HW229862   4.088   2.400   1.451  0.9205  0.3603  1.7395
 6134SOL     OW29863   3.206   3.968   7.155  0.1959  0.8777 -0.1758
 6134SOL    HW129864   3.172   4.040   7.101 -1.5315 -1.0627 -1.7018
 6134SOL    HW229865   3.143   3.901   7.128  2.0382 -0.2629 -1.7038
 6135SOL     OW29866   4.475   4.229   3.182  0.4259  0.0938  0.1779
 6135SOL    HW129867   4.418   4.210   3.256  1.2786 -0.4338  0.6860
 6135SOL    HW229868   4.559   4.220   3.226  0.1416 -1.2431  0.4488
 6136SOL     OW29869   1.526   0.708   2.706 -0.2005  0.0842 -0.5464
 6136SOL    HW129870   1.580   0.631   2.690 -0.3069  0.3096 -2.0441
 6136SOL    HW229871   1.510   0.739   2.616 -1.0954  1.7078  0.1639
 6137SOL     OW29872   4.040   1.628   8.088 -0.4614  0.3974  0.0572
 6137SOL    HW129873   4.049   1.718   8.121  0.5621  0.6534 -0.9590
 6137SOL    HW229874   3.968   1.596   8.142  0.8950 -0.3832  1.4080
 6138SOL     OW29875   2.343   0.032   5.392  0.0652 -0.0406 -0.3701
 6138SOL    HW129876   2.269   0.011   5.449 -0.2333 -0.9593 -1.1051
 6138SOL    HW229877   2.422   4.712   5.426  0.8496  0.8796 -1.0204
 6139SOL     OW29878   2.619   2.961   8.161  0.1472 -0.4112 -0.2821
 6139SOL    HW129879   2.673   3.031   8.197 -1.4268 -0.7134  2.6815
 6139SOL    HW229880   2.636   2.961   8.067 -0.9213  1.8413 -0.4676
 6140SOL     OW29881   1.624   2.893   5.966  0.4359 -0.1644  0.0169
 6140SOL    HW129882   1.630   2.976   6.013  0.8013 -0.6035  0.7530
 6140SOL    HW229883   1.691   2.845   6.015 -1.6567 -2.0850  1.0135
 6141SOL     OW29884   2.156   3.052  14.449  0.0561 -0.4246  0.6078
 6141SOL    HW129885   2.249   3.057  14.429  0.3236 -1.9996  1.4243
 6141SOL    HW229886   2.153   3.103  14.530  1.6086 -0.8146  0.9080
 6142SOL     OW29887   4.179   2.596   7.374 -0.2847  0.6341 -0.5522
 6142SOL    HW129888   4.198   2.627   7.462  0.5120 -2.1569  0.2668
 6142SOL    HW229889   4.244   2.526   7.364 -0.3375  0.6134 -0.7675
 6143SOL     OW29890   2.559   4.085   6.638  0.1026 -0.1156  0.0404
 6143SOL    HW129891   2.584   4.149   6.571 -0.3319  0.0459  0.0323
 6143SOL    HW229892   2.473   4.122   6.657  0.0047 -0.7064  0.7351
 6144SOL     OW29893   0.137   1.364   0.926  0.5764 -0.2778 -0.2339
 6144SOL    HW129894   0.141   1.348   1.020 -1.9326 -0.6832 -0.2146
 6144SOL    HW229895   0.088   1.295   0.883 -0.3116 -1.5110  2.7800
 6145SOL     OW29896   3.260   2.468   8.379 -0.2495 -0.5413 -0.3670
 6145SOL    HW129897   3.315   2.409   8.328 -0.4701 -0.0826 -1.1407
 6145SOL    HW229898   3.297   2.447   8.464 -0.6842  0.2959  0.0320
 6146SOL     OW29899   4.702   1.666   8.567  0.1381  0.1384 -0.3701
 6146SOL    HW129900   4.627   1.619   8.602 -0.1169  1.4385  0.7954
 6146SOL    HW229901   4.678   1.757   8.586  0.4506  0.2057 -0.3039
 6147SOL     OW29902   1.112   2.198   4.446  0.0864  0.3410 -0.6274
 6147SOL    HW129903   1.018   2.181   4.439  0.1316  0.8280 -2.5040
 6147SOL    HW229904   1.134   2.185   4.354 -0.8458  0.4202 -0.8602
 6148SOL     OW29905   2.164   4.718  13.939  0.4954 -0.0275  0.0734
 6148SOL    HW129906   2.194   4.649  13.998 -1.5459 -1.7313 -0.8674
 6148SOL    HW229907   2.206   0.075  13.971  0.0744 -0.6402  2.1673
 6149SOL     OW29908   3.459   2.403   3.173  0.6101 -0.3772  0.1233
 6149SOL    HW129909   3.533   2.452   3.211  0.3612 -0.8192  1.1890
 6149SOL    HW229910   3.483   2.411   3.081  0.9634 -2.3881  0.0468
 6150SOL     OW29911   2.136   4.623   6.652 -0.3528  0.8176  0.0852
 6150SOL    HW129912   2.043   4.609   6.673 -0.2224  1.3037  0.9898
 6150SOL    HW229913   2.150   4.710   6.689  0.5385  1.3999 -1.6193
 6151SOL     OW29914   3.473   1.403   0.822 -0.2916 -0.0041  0.6575
 6151SOL    HW129915   3.538   1.436   0.884  0.7952 -0.0427 -0.4493
 6151SOL    HW229916   3.520   1.332   0.778  1.3349  0.8699  0.9884
 6152SOL     OW29917   3.434   4.157  10.827  0.3885 -0.4001  0.0129
 6152SOL    HW129918   3.344   4.145  10.795  0.4582 -2.0914  0.4750
 6152SOL    HW229919   3.472   4.218  10.763  0.9821  0.2815  1.0267
 6153SOL     OW29920   0.659   2.455   6.970 -0.0342  0.2923  0.0613
 6153SOL    HW129921   0.651   2.400   6.892  0.5533  1.2381 -0.6617
 6153SOL    HW229922   0.737   2.416   7.010 -0.0398 -0.6628 -0.8403
 6154SOL     OW29923   0.993   0.923  12.674  0.6500  0.1434 -0.3910
 6154SOL    HW129924   0.915   0.908  12.727 -0.0896 -3.4127 -2.5420
 6154SOL    HW229925   0.969   1.015  12.659 -0.3978 -0.0327  0.2185
 6155SOL     OW29926   1.600   0.790   1.003 -1.0800 -0.6988 -0.2475
 6155SOL    HW129927   1.553   0.728   1.058 -2.8345 -0.0025 -0.9701
 6155SOL    HW229928   1.574   0.873   1.044  0.4405 -1.0530  1.4087
 6156SOL     OW29929   3.781   1.435   7.573 -0.3373 -0.0401  0.0128
 6156SOL    HW129930   3.796   1.431   7.668 -1.0791  0.1281  0.1329
 6156SOL    HW229931   3.691   1.403   7.577 -1.0713  2.1260  1.2260
 6157SOL     OW29932   4.056   2.616   3.886  0.1200  0.2581  0.4989
 6157SOL    HW129933   3.999   2.558   3.835  2.7462 -0.9367 -1.1146
 6157SOL    HW229934   4.043   2.700   3.843 -1.1278  0.3134  1.0041
 6158SOL     OW29935   4.165   4.284   4.761 -0.4077  0.2662 -0.0175
 6158SOL    HW129936   4.161   4.244   4.848 -1.7236 -0.9278 -0.6111
 6158SOL    HW229937   4.224   4.357   4.776 -0.6582  0.2347  1.1205
 6159SOL     OW29938   1.385   4.402  14.788 -0.1480 -0.0428  0.4185
 6159SOL    HW129939   1.377   4.498  14.788  0.5004  0.0159 -1.7805
 6159SOL    HW229940   1.291   4.387  14.797 -0.0257 -1.4117 -0.5687
 6160SOL     OW29941   2.568   3.022   3.303  0.5121 -0.0818 -0.1412
 6160SOL    HW129942   2.511   3.045   3.376 -0.0137 -1.7778 -0.0220
 6160SOL    HW229943   2.576   2.929   3.324 -1.3642 -0.0360  0.7228
 6161SOL     OW29944   2.584   2.240   4.298 -0.2882  0.1953  0.3737
 6161SOL    HW129945   2.627   2.225   4.214 -1.0165  2.0428 -0.3295
 6161SOL    HW229946   2.604   2.160   4.347  0.6075 -0.3952 -0.9464
 6162SOL     OW29947   1.227   3.958   7.923 -0.8740  0.3193  0.0739
 6162SOL    HW129948   1.284   3.966   8.000 -1.7452  0.5518  0.6992
 6162SOL    HW229949   1.197   3.868   7.935 -2.1589  0.6956 -0.2061
 6163SOL     OW29950   0.500   1.559  15.069 -0.0515 -0.6376 -0.3481
 6163SOL    HW129951   0.470   1.492  15.008  1.0297 -0.7803 -0.7296
 6163SOL    HW229952   0.585   1.589  15.037  0.2615 -0.6109  0.4978
 6164SOL     OW29953   1.119   0.600  17.280 -0.0891 -0.0706 -0.3925
 6164SOL    HW129954   1.190   0.646  17.325  0.1803  0.3247 -1.2234
 6164SOL    HW229955   1.114   0.652  17.200 -1.6478 -0.7083 -0.7149
 6165SOL     OW29956   3.868   2.569   1.958  0.0082  0.2083 -0.1338
 6165SOL    HW129957   3.822   2.618   2.025  1.0656  1.5223 -0.3831
 6165SOL    HW229958   3.874   2.479   1.991  0.6540  0.3807  0.2006
 6166SOL     OW29959   4.190   0.514   3.944  0.1323  0.2924 -0.2547
 6166SOL    HW129960   4.181   0.479   3.855 -2.8254  1.8482 -0.5601
 6166SOL    HW229961   4.262   0.456   3.968 -1.0849 -1.4659 -0.7847
 6167SOL     OW29962   3.895   2.504   5.426 -0.1907 -0.3376 -0.3945
 6167SOL    HW129963   3.958   2.433   5.440  1.3125  0.7841 -1.4578
 6167SOL    HW229964   3.926   2.537   5.341 -1.1314  0.6556 -0.3496
 6168SOL     OW29965   1.458   1.789  17.096 -0.6643 -0.7214 -0.8665
 6168SOL    HW129966   1.527   1.806  17.161 -1.3745  0.7625 -0.4859
 6168SOL    HW229967   1.386   1.844  17.127 -0.2552  0.0635 -1.3102
 6169SOL     OW29968   3.090   0.374   6.393 -0.5773 -0.0164  0.1766
 6169SOL    HW129969   3.167   0.377   6.336  0.0387 -0.0979  1.0050
 6169SOL    HW229970   3.122   0.390   6.482 -0.2181  0.8253 -0.1076
 6170SOL     OW29971   3.330   3.774   6.766  0.5374  0.1498 -0.3844
 6170SOL    HW129972   3.413   3.738   6.797  1.1913  0.3697 -1.8946
 6170SOL    HW229973   3.366   3.859   6.741  0.1415  0.9205  1.6783
 6171SOL     OW29974   3.410   2.821   1.581 -0.2499 -0.5118  0.0362
 6171SOL    HW129975   3.432   2.787   1.668  2.7072 -3.1430 -1.7317
 6171SOL    HW229976   3.433   2.913   1.591  1.0049 -0.3620 -4.1435
 6172SOL     OW29977   0.645   2.978   4.251 -0.1876 -0.0562 -0.4711
 6172SOL    HW129978   0.719   2.954   4.195  0.6000 -1.4809  1.1904
 6172SOL    HW229979   0.573   2.979   4.188 -1.7459 -1.1712  1.2826
 6173SOL     OW29980   2.717   0.830   4.330  0.5162 -0.1217  0.0348
 6173SOL    HW129981   2.809   0.805   4.331  1.1933  2.1775 -2.3675
 6173SOL    HW229982   2.724   0.925   4.320  0.6938 -0.2622 -1.2156
 6174SOL     OW29983   0.246   1.535   2.976 -0.3851  0.1076 -0.0679
 6174SOL    HW129984   0.169   1.500   2.931  0.6345 -0.7388 -1.1460
 6174SOL    HW229985   0.314   1.479   2.939 -0.6658 -0.2288 -0.0761
 6175SOL     OW29986   0.577   0.387   3.634  0.0840  0.5599 -0.1555
 6175SOL    HW129987   0.570   0.352   3.545 -2.6846 -0.3739  0.4273
 6175SOL    HW229988   0.487   0.420   3.641 -0.1747  0.3087 -2.3108
 6176SOL     OW29989   1.913   3.600  16.203  0.5523  0.0349  0.0122
 6176SOL    HW129990   2.004   3.604  16.175 -0.1869  1.1594 -2.2138
 6176SOL    HW229991   1.917   3.659  16.278  2.2067  0.9233 -0.7723
 6177SOL     OW29992   1.373   1.750   7.767  0.3595 -0.3781 -0.0587
 6177SOL    HW129993   1.420   1.679   7.724 -0.6532 -1.4992  0.6845
 6177SOL    HW229994   1.288   1.709   7.779 -0.9322  2.1224 -0.5602
 6178SOL     OW29995   2.762   1.564  13.145 -0.4053  0.7904  0.2260
 6178SOL    HW129996   2.825   1.633  13.129 -0.1875  0.3886 -0.6710
 6178SOL    HW229997   2.686   1.622  13.150 -0.5231  0.7858 -1.3900
 6179SOL     OW29998   4.146   2.468   5.935 -0.0089  0.6041  0.5416
 6179SOL    HW129999   4.071   2.526   5.929  1.3534  2.2743 -0.6099
 6179SOL    HW230000   4.112   2.400   5.993 -0.2475  0.8781  0.7219
 6180SOL     OW30001   3.913   4.254  12.448  0.1382 -0.2395 -0.2859
 6180SOL    HW130002   4.005   4.247  12.474  0.1719  3.9942  0.8302
 6180SOL    HW230003   3.885   4.176  12.496  1.9998 -0.2658  0.7830
 6181SOL     OW30004   4.689   2.252  14.204 -0.0990 -0.7067 -0.1396
 6181SOL    HW130005   4.613   2.265  14.148  2.1689 -1.1988 -3.3798
 6181SOL    HW230006   4.646   2.278  14.285  1.5274 -1.1141  0.8689
 6182SOL     OW30007   4.103   2.188   4.831  0.0831  0.5426 -0.0528
 6182SOL    HW130008   4.177   2.164   4.887 -1.6427  0.5181  2.2185
 6182SOL    HW230009   4.157   2.198   4.753 -0.2523 -1.9336 -0.6118
 6183SOL     OW30010   3.862   4.525   6.087  0.1480  0.4476  0.4499
 6183SOL    HW130011   3.958   4.527   6.079  0.2074 -0.2041  0.9839
 6183SOL    HW230012   3.850   4.561   6.175 -0.5027  1.1244  0.0898
 6184SOL     OW30013   1.557   4.380   0.215 -0.0435 -0.1528  0.2793
 6184SOL    HW130014   1.568   4.294   0.256 -2.9879  0.3884  2.2688
 6184SOL    HW230015   1.646   4.389   0.182  0.2106 -1.8962  0.4942
 6185SOL     OW30016   0.722   0.443  12.966 -0.2949  0.1662 -0.1404
 6185SOL    HW130017   0.808   0.459  13.004 -1.3842  4.6039  0.4549
 6185SOL    HW230018   0.698   0.360  13.009  2.8170 -1.1411 -0.9268
 6186SOL     OW30019   1.009   3.975  12.616 -0.1824  0.7192 -0.6572
 6186SOL    HW130020   1.098   3.994  12.585  0.7989 -2.3795  0.2123
 6186SOL    HW230021   0.973   3.974  12.528 -0.3103 -1.9358 -0.5787
 6187SOL     OW30022   2.669   1.104  14.424 -0.0951  0.6704 -0.5755
 6187SOL    HW130023   2.623   1.180  14.386  0.6395  1.9450  1.1227
 6187SOL    HW230024   2.659   1.119  14.518 -2.9443  0.1085 -0.7817
 6188SOL     OW30025   3.076   2.991   6.425 -0.1370 -0.1273  0.1766
 6188SOL    HW130026   3.105   3.065   6.371  1.9101  0.4810  2.1360
 6188SOL    HW230027   3.079   3.024   6.514 -1.2682 -0.2212  0.2462
 6189SOL     OW30028   1.993   2.082   5.748  0.4135  0.4015 -0.0867
 6189SOL    HW130029   2.063   2.073   5.814  0.3221  1.3663  0.1434
 6189SOL    HW230030   1.918   2.104   5.802 -0.6994 -2.0327 -0.6557
 6190SOL     OW30031   3.688   3.376   3.820 -0.1723  0.2360 -0.6483
 6190SOL    HW130032   3.703   3.414   3.734 -1.6174 -0.0997 -1.0338
 6190SOL    HW230033   3.773   3.387   3.864 -0.0571 -0.8383 -0.5960
 6191SOL     OW30034   4.233   3.216   0.788 -0.3486 -0.0368 -0.5806
 6191SOL    HW130035   4.198   3.131   0.814 -0.4595  0.2427  0.1875
 6191SOL    HW230036   4.222   3.266   0.868  0.0971 -1.1931  0.2027
 6192SOL     OW30037   4.677   1.317   1.681 -0.7580 -0.2122 -0.2060
 6192SOL    HW130038   4.663   1.400   1.726  0.9303  0.1000 -0.2527
 6192SOL    HW230039   4.586   1.297   1.659 -0.5191 -0.8227 -0.6500
 6193SOL     OW30040   0.923   1.649   9.091  0.0377 -0.1435 -0.1676
 6193SOL    HW130041   0.860   1.604   9.147 -1.1837  0.7583 -0.8089
 6193SOL    HW230042   0.856   1.702   9.047 -0.0764 -1.3690 -1.4569
 6194SOL     OW30043   2.992   3.669   4.263  0.1547  0.4403 -0.2210
 6194SOL    HW130044   2.965   3.638   4.177  0.0392  2.6418 -0.9572
 6194SOL    HW230045   2.992   3.763   4.246 -1.0579  0.3996 -0.4758
 6195SOL     OW30046   2.949   2.149   4.659  0.5373  0.6202  0.6090
 6195SOL    HW130047   2.869   2.179   4.617  0.8711  0.0016 -0.4450
 6195SOL    HW230048   2.948   2.059   4.628 -1.1720  1.5227 -1.9251
 6196SOL     OW30049   0.568   3.422   7.739 -0.1524  0.3820 -0.2571
 6196SOL    HW130050   0.474   3.406   7.744 -0.3751  1.2162 -2.0144
 6196SOL    HW230051   0.565   3.515   7.759 -0.9369  0.5288 -1.0811
 6197SOL     OW30052   4.441   3.546  11.657  0.1686 -0.6191 -0.0607
 6197SOL    HW130053   4.396   3.584  11.582  0.2440  0.3584  0.3882
 6197SOL    HW230054   4.530   3.561  11.623 -0.0012 -0.2977 -0.3566
 6198SOL     OW30055   3.279   4.515  10.378  0.0138  0.4253  0.0731
 6198SOL    HW130056   3.346   4.577  10.407 -0.9007  1.3863  0.1420
 6198SOL    HW230057   3.226   4.520  10.458  0.4370 -0.8928  0.4349
 6199SOL     OW30058   2.893   2.165   9.010 -0.1785 -0.1273 -0.2263
 6199SOL    HW130059   2.843   2.244   8.987  0.6415  0.2379 -0.7420
 6199SOL    HW230060   2.857   2.141   9.096 -1.6271 -1.1125 -1.1040
 6200SOL     OW30061   2.890   0.419   2.739  0.0888 -0.2441  0.4538
 6200SOL    HW130062   2.983   0.442   2.748  0.6147 -1.3243 -2.0198
 6200SOL    HW230063   2.879   0.443   2.647 -1.7547  0.0852  0.7615
 6201SOL     OW30064   1.562   2.249   9.838 -0.1126 -0.1629  0.2655
 6201SOL    HW130065   1.500   2.308   9.881  0.9349  0.3022  1.1494
 6201SOL    HW230066   1.593   2.185   9.902 -2.1676 -0.1763  1.2253
 6202SOL     OW30067   2.363   2.635   1.301 -0.3063  0.2140 -0.6940
 6202SOL    HW130068   2.415   2.558   1.282 -0.9901 -0.2498 -0.6911
 6202SOL    HW230069   2.426   2.707   1.298  0.5686 -0.6097 -1.7718
 6203SOL     OW30070   1.027   2.318   0.289 -0.1920 -0.2148 -0.3893
 6203SOL    HW130071   1.106   2.291   0.336  0.3472 -2.0081 -2.2964
 6203SOL    HW230072   0.996   2.234   0.256 -0.9552 -0.0827  0.0065
 6204SOL     OW30073   2.573   0.962   9.484 -0.0389  0.1381  0.3587
 6204SOL    HW130074   2.552   0.930   9.396  1.5954  0.5333 -0.1893
 6204SOL    HW230075   2.651   1.015   9.467 -0.0339  0.3015  0.8993
 6205SOL     OW30076   0.275   4.010   2.474 -0.5250 -0.1385 -0.1671
 6205SOL    HW130077   0.250   3.918   2.487 -1.8566  0.1414 -0.7489
 6205SOL    HW230078   0.357   3.987   2.431 -0.9174 -0.4059 -0.7771
 6206SOL     OW30079   2.088   3.530   5.474 -0.0351  0.1109  0.2986
 6206SOL    HW130080   2.132   3.501   5.395 -1.5159  0.6097 -0.6995
 6206SOL    HW230081   2.005   3.489   5.450  0.5413  0.1542 -1.7401
 6207SOL     OW30082   4.292   3.476   7.824  0.2660  0.7818 -0.2749
 6207SOL    HW130083   4.279   3.432   7.740  0.2718 -0.9829  0.6293
 6207SOL    HW230084   4.253   3.404   7.874  0.9869  0.2743 -0.4370
 6208SOL     OW30085   2.614   1.950   0.259  0.1016 -0.7966 -0.4391
 6208SOL    HW130086   2.708   1.962   0.272  0.4719 -2.5599 -1.5497
 6208SOL    HW230087   2.601   1.902   0.341  0.0030  0.2273  0.1382
 6209SOL     OW30088   1.545   2.156   7.786  0.3878  0.3308 -0.1231
 6209SOL    HW130089   1.543   2.251   7.796  0.2158  0.1405  1.7672
 6209SOL    HW230090   1.572   2.136   7.876 -0.0686  0.3412  0.0157
 6210SOL     OW30091   0.438   2.789   4.092 -0.8683  0.0491 -0.1969
 6210SOL    HW130092   0.526   2.784   4.055 -1.3737 -2.3698 -1.0592
 6210SOL    HW230093   0.393   2.721   4.042  0.8538 -0.6817 -0.7663
 6211SOL     OW30094   4.167   0.474   9.452 -0.2163  0.3700 -0.7507
 6211SOL    HW130095   4.237   0.527   9.414 -0.3558  0.6316 -0.6429
 6211SOL    HW230096   4.094   0.504   9.398 -1.7423 -1.5577  0.2574
 6212SOL     OW30097   2.757   2.191  10.400  0.7240  0.1267  0.1200
 6212SOL    HW130098   2.718   2.114  10.441 -0.4841 -0.4799 -2.1913
 6212SOL    HW230099   2.723   2.259  10.458 -1.0944 -0.5118 -0.2244
 6213SOL     OW30100   0.270   3.847  11.455 -0.1523 -0.4887 -0.0387
 6213SOL    HW130101   0.355   3.886  11.435  0.3526 -0.5100  2.0928
 6213SOL    HW230102   0.229   3.913  11.510 -2.5155 -1.1930 -0.9652
 6214SOL     OW30103   2.570   0.865   8.334  0.0584 -0.3380  0.3513
 6214SOL    HW130104   2.589   0.854   8.427 -1.4357 -1.7425  0.4996
 6214SOL    HW230105   2.636   0.811   8.291 -0.0208  0.0564 -0.2604
 6215SOL     OW30106   3.022   2.551   9.873  1.2565 -0.2433  0.8465
 6215SOL    HW130107   2.968   2.490   9.823 -0.7759  1.4365  0.9934
 6215SOL    HW230108   3.031   2.494   9.950  0.3549 -2.7906 -0.9365
 6216SOL     OW30109   0.410   2.873   2.308  0.4842  0.4432 -0.2223
 6216SOL    HW130110   0.428   2.921   2.227 -0.9996  0.3138 -0.6360
 6216SOL    HW230111   0.321   2.901   2.331 -0.4357 -2.7576  0.1443
 6217SOL     OW30112   1.062   2.362   7.020 -0.4332  0.9333 -0.1075
 6217SOL    HW130113   1.151   2.387   6.994  0.4603 -0.9311  1.1784
 6217SOL    HW230114   1.031   2.339   6.933  0.1017 -0.2412  0.0142
 6218SOL     OW30115   1.202   4.679   1.444  0.0301  0.0643  0.5952
 6218SOL    HW130116   1.111   4.687   1.414  0.2258 -1.4410 -0.4312
 6218SOL    HW230117   1.203   4.608   1.508  0.2298 -0.1186  0.3914
 6219SOL     OW30118   0.103   1.344   1.189 -0.1775 -0.1071  0.3368
 6219SOL    HW130119   0.068   1.257   1.209 -2.5268  0.1900 -2.4532
 6219SOL    HW230120   0.157   1.359   1.267  0.2087  1.3316 -0.2242
 6220SOL     OW30121   0.785   3.222   1.389 -0.0639 -0.2090  0.6921
 6220SOL    HW130122   0.786   3.135   1.349 -2.0353  0.3009 -0.4312
 6220SOL    HW230123   0.752   3.269   1.313  2.0154 -1.9777 -1.2928
 6221SOL     OW30124   2.221   0.949   2.089  0.9380 -0.0697  0.3090
 6221SOL    HW130125   2.140   0.944   2.141 -1.0760 -1.0161 -2.9368
 6221SOL    HW230126   2.188   1.005   2.019 -0.3426 -0.9329  0.2247
 6222SOL     OW30127   4.184   0.445   2.226 -0.0201 -0.9497  0.0026
 6222SOL    HW130128   4.135   0.365   2.205 -0.2123 -0.8433  0.0413
 6222SOL    HW230129   4.112   0.498   2.261  0.2688 -0.0229 -0.8345
 6223SOL     OW30130   4.346   4.125   3.478 -0.7025 -0.3616 -0.7289
 6223SOL    HW130131   4.272   4.182   3.501  0.5435  0.4941  1.1742
 6223SOL    HW230132   4.303   4.058   3.425 -1.6398  0.9750 -1.6655
 6224SOL     OW30133   1.898   3.604   3.675 -0.1710 -0.3616 -0.2186
 6224SOL    HW130134   1.877   3.514   3.647  1.4239 -0.7734 -0.0930
 6224SOL    HW230135   1.831   3.654   3.628 -0.9906 -0.0209  1.3040
 6225SOL     OW30136   2.619   3.654   5.686  0.0721 -0.3496  0.3938
 6225SOL    HW130137   2.692   3.592   5.682  1.0044  0.7261  0.7152
 6225SOL    HW230138   2.662   3.731   5.724 -2.0970  0.6572  0.8009
 6226SOL     OW30139   2.362   4.600  11.044 -0.6101 -0.0087 -0.3049
 6226SOL    HW130140   2.375   4.688  11.010  0.4023  1.0806  2.8888
 6226SOL    HW230141   2.442   4.552  11.021 -1.1701 -0.5348 -1.1174
 6227SOL     OW30142   2.014   3.870   9.870 -0.7038  0.4391 -0.7664
 6227SOL    HW130143   2.029   3.903   9.958  1.2372 -1.3028 -0.4405
 6227SOL    HW230144   1.971   3.789   9.894 -0.2936  0.0381 -1.3695
 6228SOL     OW30145   1.346   3.780  15.177  0.2837 -0.3716 -0.4153
 6228SOL    HW130146   1.369   3.868  15.146 -1.0924  0.8424  2.0089
 6228SOL    HW230147   1.276   3.789  15.241  2.0941 -1.2059  1.7066
 6229SOL     OW30148   2.758   0.143  12.299  0.4944 -0.7976 -0.1270
 6229SOL    HW130149   2.712   0.095  12.230  0.5317 -0.0151 -0.7084
 6229SOL    HW230150   2.800   0.079  12.355  1.5511 -0.1687 -0.2096
 6230SOL     OW30151   0.286   1.110   0.239 -0.1083  0.2065 -0.4346
 6230SOL    HW130152   0.309   1.038   0.298 -0.7392 -0.1117 -0.5832
 6230SOL    HW230153   0.247   1.056   0.170  3.2223  0.5206 -2.5676
 6231SOL     OW30154   0.039   2.063  13.940  0.4626  0.4520 -0.5247
 6231SOL    HW130155   4.708   2.033  13.867  1.2949 -0.9544 -0.5632
 6231SOL    HW230156   0.093   1.993  13.975  1.6619  1.6551  0.0461
 6232SOL     OW30157   1.766   3.914   8.316  0.4811  0.5958 -0.2154
 6232SOL    HW130158   1.774   3.843   8.252  0.0653  0.1999  0.1696
 6232SOL    HW230159   1.718   3.868   8.385  0.7100 -0.6566 -0.8910
 6233SOL     OW30160   0.293   2.223   3.231 -0.1779 -0.2008 -0.3646
 6233SOL    HW130161   0.250   2.308   3.222 -1.1949 -0.9198 -2.3263
 6233SOL    HW230162   0.283   2.202   3.324  3.6592  0.7540  0.2333
 6234SOL     OW30163   1.101   2.705   8.087  0.7253  0.5678  0.4011
 6234SOL    HW130164   1.136   2.704   7.998  0.7146  1.1406  0.3891
 6234SOL    HW230165   1.094   2.800   8.098  2.8834  0.6315  1.1261
 6235SOL     OW30166   4.266   3.253  11.301 -0.1354  0.3995 -0.3811
 6235SOL    HW130167   4.316   3.203  11.367  0.5840  1.4747 -0.1135
 6235SOL    HW230168   4.336   3.308  11.266 -1.3260  2.2837  0.2409
 6236SOL     OW30169   2.531   2.078  17.684 -0.3239  0.3167  0.1575
 6236SOL    HW130170   2.534   2.136   0.066 -0.2127  0.7444 -0.1730
 6236SOL    HW230171   2.440   2.051  17.691 -0.5672  0.9131 -0.6137
 6237SOL     OW30172   1.025   2.963   1.364  0.1934  0.4011 -0.2682
 6237SOL    HW130173   0.952   2.922   1.411 -0.2190 -0.4342 -1.6365
 6237SOL    HW230174   1.090   2.965   1.434 -1.0073  0.0067  0.8684
 6238SOL     OW30175   3.167   0.967   5.200 -0.0876 -0.1192 -0.1395
 6238SOL    HW130176   3.247   0.942   5.245 -1.7296 -0.5748  2.5084
 6238SOL    HW230177   3.156   1.053   5.239  1.0482 -0.4308  0.8563
 6239SOL     OW30178   3.788   3.083   8.313 -0.0369 -0.1193 -0.7093
 6239SOL    HW130179   3.712   3.026   8.305 -0.0133 -0.2681  0.0986
 6239SOL    HW230180   3.800   3.111   8.223  1.0467  2.1330  0.1286
 6240SOL     OW30181   1.472   1.855  16.830 -0.7344  0.4313  0.4081
 6240SOL    HW130182   1.456   1.946  16.855  0.6614  0.9593 -0.5890
 6240SOL    HW230183   1.450   1.804  16.907  1.6108 -0.7713  0.2753
 6241SOL     OW30184   0.644   1.159   3.226  0.6451  0.6794  0.2112
 6241SOL    HW130185   0.623   1.219   3.297 -1.9434 -0.2315  0.2026
 6241SOL    HW230186   0.728   1.193   3.195  0.3315 -0.1012 -1.5001
 6242SOL     OW30187   1.881   0.684   5.270  0.2497  0.0696 -0.3466
 6242SOL    HW130188   1.920   0.746   5.332  4.0232 -3.5752  0.8926
 6242SOL    HW230189   1.956   0.680   5.211 -0.8598 -0.8587 -1.7053
 6243SOL     OW30190   2.214   2.501   9.384  0.7637 -0.3442 -0.0666
 6243SOL    HW130191   2.140   2.484   9.442 -0.0633 -1.3431 -1.4118
 6243SOL    HW230192   2.182   2.493   9.294 -0.6420 -0.4285  0.4496
 6244SOL     OW30193   2.821   1.433   2.234 -0.6475  0.4055 -0.3152
 6244SOL    HW130194   2.867   1.498   2.181 -1.2518  0.2227 -1.0621
 6244SOL    HW230195   2.795   1.368   2.168 -2.0850  0.4237  0.2274
 6245SOL     OW30196   1.367   3.045   3.476  0.2794  0.2298 -0.1236
 6245SOL    HW130197   1.461   3.032   3.486  0.6700  3.8747  1.0918
 6245SOL    HW230198   1.358   3.012   3.387 -1.5945 -0.1000  0.1701
 6246SOL     OW30199   1.091   4.215   3.959 -0.5220  0.8299  0.3837
 6246SOL    HW130200   1.142   4.153   4.011 -0.6390  0.7784  0.4369
 6246SOL    HW230201   1.009   4.196   4.004 -0.7177 -2.0980 -1.1951
 6247SOL     OW30202   2.166   2.533  15.580  0.0506  0.0089  0.3405
 6247SOL    HW130203   2.107   2.478  15.529 -1.3229  4.8623 -3.2994
 6247SOL    HW230204   2.246   2.489  15.549 -0.7573 -1.1637 -0.0830
 6248SOL     OW30205   1.892   2.094   5.491  0.0778  0.0305 -0.5867
 6248SOL    HW130206   1.932   2.100   5.577 -1.6088 -0.6304  0.2534
 6248SOL    HW230207   1.972   2.108   5.440  0.8926  1.4095  1.0947
 6249SOL     OW30208   1.097   0.839  15.601  0.6889 -0.1393  0.0881
 6249SOL    HW130209   1.059   0.759  15.563 -4.3479  2.3033  0.0702
 6249SOL    HW230210   1.039   0.908  15.570 -0.7193 -0.6735  1.5231
 6250SOL     OW30211   0.118   3.789  15.040  0.1610 -0.1392 -0.4506
 6250SOL    HW130212   0.083   3.725  14.978 -0.4364 -1.7465  1.5505
 6250SOL    HW230213   0.125   3.742  15.123 -0.0659  1.4949  0.5000
 6251SOL     OW30214   0.411   2.063   8.590 -0.4566 -0.3682  0.4476
 6251SOL    HW130215   0.407   2.051   8.495  0.2446 -2.6374  0.6870
 6251SOL    HW230216   0.370   2.149   8.599  0.1964  0.0363 -0.4503
 6252SOL     OW30217   2.690   2.988   9.116 -0.3003 -0.1559  0.2885
 6252SOL    HW130218   2.673   2.901   9.080  0.2163 -0.3419  0.4965
 6252SOL    HW230219   2.637   2.974   9.195 -0.1993 -2.8400 -0.1160
 6253SOL     OW30220   3.344   2.192  12.798 -0.2231  0.0216 -0.0932
 6253SOL    HW130221   3.352   2.243  12.718  0.0192 -0.3143 -0.2849
 6253SOL    HW230222   3.421   2.216  12.850 -1.6401  0.5688  1.7125
 6254SOL     OW30223   2.025   0.688   2.269  0.0477  0.5715 -0.4782
 6254SOL    HW130224   2.101   0.697   2.212  0.6925  1.1375  0.4835
 6254SOL    HW230225   1.954   0.713   2.210 -0.2928 -1.8303 -1.0832
 6255SOL     OW30226   2.812   3.506   2.643  1.0091 -1.0119  1.0281
 6255SOL    HW130227   2.894   3.516   2.690  2.2629 -0.0161 -1.3795
 6255SOL    HW230228   2.776   3.422   2.673  1.8758 -1.5192  0.6311
 6256SOL     OW30229   0.965   1.016   6.550 -0.4290  0.2004  0.5034
 6256SOL    HW130230   0.982   1.002   6.457 -2.6019  2.1929 -0.1886
 6256SOL    HW230231   1.056   1.027   6.579 -0.0031 -2.6034  0.2679
 6257SOL     OW30232   2.989   1.878  15.915 -0.7759  0.4330  0.0132
 6257SOL    HW130233   2.991   1.785  15.934  0.9937  0.2037 -1.3315
 6257SOL    HW230234   3.034   1.866  15.831  2.8464  1.7829  1.7484
 6258SOL     OW30235   2.022   2.689  16.340  0.6343  0.0718 -0.6955
 6258SOL    HW130236   2.069   2.611  16.310  0.2232 -0.0968 -0.8963
 6258SOL    HW230237   2.011   2.750  16.267  0.4191  1.0741  0.1772
 6259SOL     OW30238   4.098   0.881   2.157  0.2688  0.1010 -0.1054
 6259SOL    HW130239   4.027   0.841   2.207 -0.0753  1.3458  0.3852
 6259SOL    HW230240   4.109   0.964   2.202 -0.5254  0.0149  0.2518
 6260SOL     OW30241   2.651   3.969   6.861  0.0683  0.3102 -0.1899
 6260SOL    HW130242   2.568   3.928   6.885 -0.5488  0.9860 -1.1884
 6260SOL    HW230243   2.626   4.023   6.786  0.4818  1.5135  0.5323
 6261SOL     OW30244   2.024   1.877   2.416  0.2905 -0.1091  0.3380
 6261SOL    HW130245   1.975   1.855   2.496  0.5595  0.6756  0.7275
 6261SOL    HW230246   2.101   1.924   2.448 -0.4816 -0.2237  2.3793
 6262SOL     OW30247   3.640   2.852   9.466  0.4139  0.1556 -0.1017
 6262SOL    HW130248   3.703   2.921   9.444  1.5868 -1.0473 -0.5105
 6262SOL    HW230249   3.634   2.825   9.375  1.4088  1.0678 -0.4371
 6263SOL     OW30250   4.337   4.444   8.040 -0.1845  0.0869  0.2674
 6263SOL    HW130251   4.298   4.446   8.127  2.2192  4.0398  1.2720
 6263SOL    HW230252   4.378   4.358   8.046  1.0397  0.6220 -0.3098
 6264SOL     OW30253   2.484   1.404   7.979  0.4761  0.6640 -0.4314
 6264SOL    HW130254   2.404   1.363   8.013 -0.0516 -1.0726 -3.7728
 6264SOL    HW230255   2.466   1.497   7.991 -0.3775  0.6469 -1.6109
 6265SOL     OW30256   4.074   3.027  16.812  0.1785  0.0225 -0.5659
 6265SOL    HW130257   4.074   3.106  16.867 -0.9705  1.5503 -2.7265
 6265SOL    HW230258   4.017   3.067  16.746 -0.2691  2.2844  1.1911
 6266SOL     OW30259   3.373   4.655   7.511  0.9276  0.7074 -0.5297
 6266SOL    HW130260   3.329   4.680   7.592  0.5252 -0.7965 -0.2807
 6266SOL    HW230261   3.433   0.006   7.499  0.7442  1.0572  0.6917
 6267SOL     OW30262   4.211   2.804  11.577  0.3226  0.0651 -0.5076
 6267SOL    HW130263   4.262   2.753  11.640  3.1222  1.0344 -1.9483
 6267SOL    HW230264   4.228   2.890  11.614 -1.2592 -0.1796  0.7538
 6268SOL     OW30265   1.945   2.657  11.445  0.5923 -0.6024 -0.4126
 6268SOL    HW130266   1.869   2.701  11.484 -0.0718  0.5650 -3.0189
 6268SOL    HW230267   2.009   2.654  11.516  0.3042 -0.6991 -0.1559
 6269SOL     OW30268   2.101   0.297   2.042 -0.5405 -0.3273  0.0161
 6269SOL    HW130269   2.085   0.389   2.019  0.8126  0.2292  1.2485
 6269SOL    HW230270   2.084   0.256   1.958  1.5053 -0.0949 -0.5236
 6270SOL     OW30271   4.224   0.733  12.360 -0.8334  0.4862 -0.5893
 6270SOL    HW130272   4.237   0.646  12.322  0.1509  1.4189 -2.3682
 6270SOL    HW230273   4.306   0.742  12.409 -0.0465  0.3235 -1.8825
 6271SOL     OW30274   0.713   2.266   4.848  0.4806  0.5882  0.0067
 6271SOL    HW130275   0.781   2.306   4.903  1.0324  2.3553 -1.9822
 6271SOL    HW230276   0.743   2.296   4.762 -1.1289  0.9498 -0.4296
 6272SOL     OW30277   3.684   1.690  11.007  0.3869  0.3084  0.1872
 6272SOL    HW130278   3.752   1.645  10.956  1.1675  0.2627  1.2610
 6272SOL    HW230279   3.606   1.635  11.004  1.7525 -1.6261  0.4228
 6273SOL     OW30280   0.327   2.235   1.997  0.0914  0.2875  0.0197
 6273SOL    HW130281   0.348   2.305   1.934 -0.4301 -0.3389 -0.8442
 6273SOL    HW230282   0.244   2.265   2.033 -1.3353 -3.9755  0.2357
 6274SOL     OW30283   2.629   0.689   4.999  0.0019 -0.1992 -0.2363
 6274SOL    HW130284   2.639   0.711   4.906 -2.8210  0.4758 -0.3752
 6274SOL    HW230285   2.613   0.772   5.045  0.3171 -0.4737  0.3575
 6275SOL     OW30286   3.774   1.540  16.821 -0.0006 -0.3083 -0.1090
 6275SOL    HW130287   3.841   1.603  16.848 -1.8641  1.7760 -0.2589
 6275SOL    HW230288   3.824   1.501  16.750  1.0924  0.2883  0.3375
 6276SOL     OW30289   0.242   0.586   7.437  0.0947 -0.1334 -0.1880
 6276SOL    HW130290   0.309   0.533   7.480  0.9178 -1.1580 -2.7795
 6276SOL    HW230291   0.299   0.642   7.386  1.4528 -0.9082  0.4815
 6277SOL     OW30292   2.318   0.448   9.719 -0.1049 -0.6716  0.5566
 6277SOL    HW130293   2.287   0.532   9.754 -0.0211 -0.7848  0.8961
 6277SOL    HW230294   2.239   0.401   9.694  1.0690 -2.5564  0.4039
 6278SOL     OW30295   3.422   2.471   7.639 -0.0832 -0.1583  0.1030
 6278SOL    HW130296   3.355   2.536   7.621 -0.3256 -0.6088 -0.6412
 6278SOL    HW230297   3.363   2.415   7.691 -1.1044 -2.1543 -3.2212
 6279SOL     OW30298   4.317   3.180   6.767  0.3536  0.0879  0.1142
 6279SOL    HW130299   4.367   3.260   6.749  0.2113  0.4314  1.1917
 6279SOL    HW230300   4.268   3.187   6.685 -1.1347 -0.2348  0.9865
 6280SOL     OW30301   4.347   1.233   3.074 -0.3130 -0.4345 -0.1750
 6280SOL    HW130302   4.320   1.234   3.166 -1.1013 -0.0396 -0.4108
 6280SOL    HW230303   4.273   1.189   3.032 -1.1966  1.6807 -0.8212
 6281SOL     OW30304   3.161   0.942   5.597 -0.7309 -0.1897  0.5444
 6281SOL    HW130305   3.102   0.941   5.521 -1.1381 -1.3531  0.8784
 6281SOL    HW230306   3.104   0.897   5.660  0.4415 -0.0281  1.7109
 6282SOL     OW30307   3.147   1.125  14.738 -0.1794 -0.3111 -0.2160
 6282SOL    HW130308   3.220   1.095  14.684  1.1297  2.3638  0.0497
 6282SOL    HW230309   3.088   1.166  14.675  0.3483  2.8043  1.3060
 6283SOL     OW30310   1.620   2.130   7.122 -0.0825  0.2620  0.9605
 6283SOL    HW130311   1.712   2.133   7.148  0.4861  0.6257 -1.1209
 6283SOL    HW230312   1.568   2.109   7.200  2.5474 -2.8829  1.8813
 6284SOL     OW30313   1.150   2.057   2.384 -0.5431  0.2874 -0.0564
 6284SOL    HW130314   1.063   2.063   2.345  0.5807  1.5992 -2.3535
 6284SOL    HW230315   1.145   1.972   2.428  0.5272 -0.1278 -0.7339
 6285SOL     OW30316   1.196   2.849  12.834  0.5551 -0.2320  0.0944
 6285SOL    HW130317   1.136   2.906  12.882 -0.0600 -0.0572 -0.8613
 6285SOL    HW230318   1.234   2.793  12.901  0.9164 -0.3518 -0.2117
 6286SOL     OW30319   1.530   0.571   5.374  0.1279  0.4169  0.3309
 6286SOL    HW130320   1.477   0.597   5.299 -1.2115 -0.0731  1.1042
 6286SOL    HW230321   1.599   0.512   5.342 -0.6973 -0.1397 -0.4391
 6287SOL     OW30322   1.807   0.682   7.624 -0.0886 -0.5567 -0.2000
 6287SOL    HW130323   1.861   0.743   7.573  0.5589 -0.4273  0.6285
 6287SOL    HW230324   1.782   0.617   7.560 -0.0236 -0.7467 -0.0334
 6288SOL     OW30325   3.118   0.458   3.620  1.1361 -0.0511  0.1592
 6288SOL    HW130326   3.160   0.376   3.594 -2.4731 -1.4260 -1.2847
 6288SOL    HW230327   3.179   0.493   3.685  0.6621  3.1571 -1.1573
 6289SOL     OW30328   2.371   4.536   6.743  0.0239 -0.0622 -0.4117
 6289SOL    HW130329   2.292   4.552   6.692  0.9026 -1.0891 -2.0874
 6289SOL    HW230330   2.432   4.596   6.700 -0.1336  0.3347 -0.0783
 6290SOL     OW30331   2.513   2.467   7.183 -0.6975 -0.9156 -0.0528
 6290SOL    HW130332   2.527   2.511   7.268 -2.3564 -2.6523  1.1106
 6290SOL    HW230333   2.484   2.378   7.202 -1.6619 -0.6952 -0.5190
 6291SOL     OW30334   1.143   1.860   5.732  0.2325 -0.1327 -0.1731
 6291SOL    HW130335   1.070   1.921   5.720 -1.6975 -2.5767 -0.8515
 6291SOL    HW230336   1.206   1.920   5.771  1.2001 -0.4151 -1.3047
 6292SOL     OW30337   0.611   3.241   7.269  0.3052 -0.0648 -0.8608
 6292SOL    HW130338   0.644   3.304   7.334 -3.2833  1.4837 -0.5094
 6292SOL    HW230339   0.562   3.175   7.318  1.9792 -1.0382 -0.4996
 6293SOL     OW30340   4.319   2.372   0.808  0.0587 -0.0470  0.1028
 6293SOL    HW130341   4.273   2.295   0.843 -0.5434 -0.1058 -0.8078
 6293SOL    HW230342   4.250   2.379   0.742  1.5825  1.8486 -1.2692
 6294SOL     OW30343   3.613   0.920   5.333  0.5257 -0.3899 -0.2254
 6294SOL    HW130344   3.549   0.849   5.330  2.9034 -2.5615  0.5172
 6294SOL    HW230345   3.615   0.947   5.242 -1.2073 -1.8547 -0.6884
 6295SOL     OW30346   0.322   1.448  16.318  0.3565  0.4563 -0.7108
 6295SOL    HW130347   0.390   1.423  16.380 -0.8402  2.3892  1.3869
 6295SOL    HW230348   0.260   1.489  16.378  2.0332 -0.3471  1.5807
 6296SOL     OW30349   2.427   3.505   8.410  0.2143  0.1416  0.5282
 6296SOL    HW130350   2.462   3.455   8.483 -2.9274  2.4217  3.5791
 6296SOL    HW230351   2.458   3.461   8.331  1.2675  1.4542  0.1980
 6297SOL     OW30352   2.752   1.947  16.142  0.5487  0.4203 -0.5630
 6297SOL    HW130353   2.830   1.922  16.093 -1.0813 -1.0866 -2.3828
 6297SOL    HW230354   2.718   1.859  16.162  0.5250  1.2064  2.9940
 6298SOL     OW30355   2.737   3.945  11.335 -0.3400 -0.4202  0.1031
 6298SOL    HW130356   2.715   3.932  11.427 -0.5208 -0.1951  0.0928
 6298SOL    HW230357   2.689   3.872  11.298  1.1654 -2.2032  1.6693
 6299SOL     OW30358   4.044   2.238   1.481 -0.6672  0.1051  0.2875
 6299SOL    HW130359   3.996   2.221   1.400 -0.3393  0.9563 -0.0883
 6299SOL    HW230360   4.041   2.155   1.529  1.3467 -0.5284 -0.6655
 6300SOL     OW30361   4.694   3.792  15.818 -0.3889 -0.5286  0.0645
 6300SOL    HW130362   4.656   3.852  15.754 -0.7063 -2.2525 -1.3447
 6300SOL    HW230363   0.026   3.849  15.873  0.8988 -0.8029 -0.9529
 6301SOL     OW30364   4.373   3.627   2.380  0.2361  0.1324 -0.1105
 6301SOL    HW130365   4.407   3.555   2.326 -0.6354 -0.9222  0.7372
 6301SOL    HW230366   4.306   3.587   2.436 -1.7535 -0.1262 -2.6716
 6302SOL     OW30367   0.831   0.814   1.646  0.1462 -0.1476  0.1877
 6302SOL    HW130368   0.855   0.895   1.691  1.4901 -0.2174 -0.3998
 6302SOL    HW230369   0.917   0.775   1.629  0.9289  1.3261  0.8339
 6303SOL     OW30370   4.151   0.905   3.240  0.0389  0.3453 -0.0202
 6303SOL    HW130371   4.223   0.841   3.239 -1.0780 -0.9526  2.5287
 6303SOL    HW230372   4.089   0.863   3.300 -0.6414 -0.6246 -1.4042
 6304SOL     OW30373   1.813   0.892   6.447  0.3457 -0.1141 -0.1579
 6304SOL    HW130374   1.884   0.882   6.511  2.5774 -0.1124 -2.6304
 6304SOL    HW230375   1.733   0.897   6.500  1.0163  0.5194  0.8041
 6305SOL     OW30376   0.988   0.815  14.774  0.5079 -0.0027  0.0689
 6305SOL    HW130377   0.963   0.857  14.856  0.5158 -1.4883  0.8337
 6305SOL    HW230378   0.908   0.763  14.763  0.9035 -0.9173  1.4422
 6306SOL     OW30379   0.084   2.885   3.119  0.1842 -0.8943 -0.3186
 6306SOL    HW130380   0.169   2.842   3.127 -0.5593 -2.2816  0.0875
 6306SOL    HW230381   0.095   2.964   3.065 -0.8147 -3.0879 -3.7530
 6307SOL     OW30382   3.441   1.850   5.383 -0.0100 -0.2851 -0.0590
 6307SOL    HW130383   3.444   1.945   5.385 -1.3283 -0.1906 -2.5501
 6307SOL    HW230384   3.398   1.850   5.469  0.2088  1.2446  0.0494
 6308SOL     OW30385   2.087   1.155   2.405  0.1512 -0.3502 -0.4447
 6308SOL    HW130386   2.049   1.068   2.395 -2.0110  0.4565  0.8897
 6308SOL    HW230387   2.035   1.182   2.480 -1.9226  0.6067 -2.2336
 6309SOL     OW30388   4.688   2.193   7.717  0.0396  0.1098  0.0833
 6309SOL    HW130389   0.032   2.262   7.710  1.5550 -1.4834 -1.2974
 6309SOL    HW230390   0.022   2.119   7.695  2.1489  0.9177  2.7455
 6310SOL     OW30391   2.934   1.730   6.096 -0.0095 -0.3370 -0.6981
 6310SOL    HW130392   2.878   1.807   6.109 -0.5150 -0.7865 -0.2190
 6310SOL    HW230393   2.881   1.650   6.101  1.0754 -0.9681  0.5309
 6311SOL     OW30394   2.950   1.027   2.986 -0.3627  0.2499  0.2195
 6311SOL    HW130395   3.033   0.999   3.025 -0.3069 -1.3496 -1.0167
 6311SOL    HW230396   2.919   0.953   2.933 -1.8258  2.3360 -1.8371
 6312SOL     OW30397   4.362   0.254   4.465 -0.6519 -0.5696  0.2665
 6312SOL    HW130398   4.394   0.204   4.390 -1.2097 -0.4643 -0.0411
 6312SOL    HW230399   4.348   0.340   4.424  0.6227  0.3512  1.7706
 6313SOL     OW30400   0.912   4.028  10.031  0.0894  0.2824 -0.0056
 6313SOL    HW130401   0.846   4.094  10.049  0.9317  1.4437 -1.2137
 6313SOL    HW230402   0.856   3.953  10.052 -1.1074  1.0619 -0.4506
 6314SOL     OW30403   3.687   0.566   5.186 -0.1177  0.1398  0.2044
 6314SOL    HW130404   3.606   0.568   5.135  0.1597 -0.8960 -0.2741
 6314SOL    HW230405   3.753   0.569   5.117  0.4804 -0.0375  0.7680
 6315SOL     OW30406   3.195   0.158  10.321  0.0806 -0.2129 -0.0111
 6315SOL    HW130407   3.149   0.242  10.320  0.5036  0.0469  1.6882
 6315SOL    HW230408   3.258   0.175  10.392  1.5542  0.3798 -1.4508
 6316SOL     OW30409   0.620   1.683   4.955 -0.4003  0.5119 -0.2182
 6316SOL    HW130410   0.598   1.720   5.040 -1.0394 -1.0769  0.3012
 6316SOL    HW230411   0.648   1.755   4.898 -1.7947  0.7309 -0.6130
 6317SOL     OW30412   2.967   1.487   5.552 -0.0142  0.2801 -0.1057
 6317SOL    HW130413   2.959   1.415   5.615  2.6665  0.7151  0.7241
 6317SOL    HW230414   2.977   1.565   5.606 -0.5996  0.1736  0.1510
 6318SOL     OW30415   0.427   3.403   6.156 -0.0844  0.3376  0.5378
 6318SOL    HW130416   0.376   3.395   6.237  0.5177 -1.5705  0.7253
 6318SOL    HW230417   0.364   3.444   6.097  1.6576 -0.6636 -2.0215
 6319SOL     OW30418   3.523   3.797   7.986  0.2503 -0.2119  0.2238
 6319SOL    HW130419   3.579   3.781   8.063 -0.6585 -1.5118  0.6141
 6319SOL    HW230420   3.450   3.741   8.013 -0.5737  0.2545 -1.0948
 6320SOL     OW30421   0.663   4.554   6.943 -0.4226  0.1019 -0.0788
 6320SOL    HW130422   0.572   4.526   6.935 -0.1458 -0.8311  0.0483
 6320SOL    HW230423   0.718   4.481   6.913 -2.0428 -0.9448 -0.4722
 6321SOL     OW30424   1.117   1.051   6.302  0.1199 -0.0062  0.3513
 6321SOL    HW130425   1.149   0.976   6.352 -1.0301  0.0701  1.2005
 6321SOL    HW230426   1.192   1.072   6.245  0.1754  1.7116  1.0366
 6322SOL     OW30427   4.206   2.005   4.291  0.0172  0.0041 -0.6689
 6322SOL    HW130428   4.210   1.927   4.346 -0.0576  1.6958  1.7616
 6322SOL    HW230429   4.172   2.067   4.356  2.3848 -0.2234  0.7675
 6323SOL     OW30430   2.551   2.276   6.920 -0.2690 -0.5482 -0.3353
 6323SOL    HW130431   2.564   2.313   6.833 -0.8351 -1.3386 -0.7509
 6323SOL    HW230432   2.468   2.317   6.947  0.9950  0.2235  2.4051
 6324SOL     OW30433   1.150   2.590   0.169 -0.1101  0.0863  0.1997
 6324SOL    HW130434   1.066   2.552   0.195 -0.6876  0.6163 -0.8956
 6324SOL    HW230435   1.137   2.594   0.074  0.5775 -0.2180  0.0933
 6325SOL     OW30436   0.666   0.977   7.589  0.5631  0.2791 -0.6903
 6325SOL    HW130437   0.703   1.015   7.510 -0.7431  1.3396 -0.8005
 6325SOL    HW230438   0.654   1.057   7.640 -0.8069  0.3956 -1.2075
 6326SOL     OW30439   0.027   4.309  13.269  0.0600  0.1250 -0.6306
 6326SOL    HW130440   0.023   4.335  13.177  1.6204 -1.0116 -1.0106
 6326SOL    HW230441   0.026   4.213  13.272 -0.5979  0.0779 -2.0704
 6327SOL     OW30442   0.373   3.780  17.550  0.1887  0.1909  0.0774
 6327SOL    HW130443   0.313   3.853  17.569 -1.2896 -0.8966 -0.4045
 6327SOL    HW230444   0.310   3.708  17.553  0.6662 -0.3172 -2.3168
 6328SOL     OW30445   1.403   1.660   5.355  0.4660 -0.6686  0.2061
 6328SOL    HW130446   1.396   1.618   5.440  1.1602  2.3839  1.7800
 6328SOL    HW230447   1.498   1.663   5.353  0.4372  0.3811  0.2135
 6329SOL     OW30448   1.511   0.521  15.172  0.4312 -0.3484 -0.2114
 6329SOL    HW130449   1.506   0.567  15.255  0.7700  0.3717 -0.5877
 6329SOL    HW230450   1.593   0.556  15.138  0.1127 -1.3803 -2.0647
 6330SOL     OW30451   3.124   0.775   3.921  0.5576 -0.1738  0.2721
 6330SOL    HW130452   3.110   0.785   4.015  2.0472 -0.6869  0.5469
 6330SOL    HW230453   3.035   0.787   3.886  1.3945  1.2628 -1.3688
 6331SOL     OW30454   3.872   2.150  15.865 -0.2552 -0.3262 -0.4982
 6331SOL    HW130455   3.793   2.202  15.850  0.4022  1.5051  2.3653
 6331SOL    HW230456   3.944   2.205  15.833 -0.9684  0.6041 -0.5060
 6332SOL     OW30457   2.453   0.015   4.640  0.0023 -0.1959 -0.0051
 6332SOL    HW130458   2.366   0.054   4.633  0.1284 -0.1506 -1.3826
 6332SOL    HW230459   2.459   4.695   4.555  2.4682  1.1611 -0.5054
 6333SOL     OW30460   1.647   3.570   4.017  0.4318 -0.6195  0.0390
 6333SOL    HW130461   1.646   3.484   3.976 -0.0030 -0.5830 -0.0307
 6333SOL    HW230462   1.556   3.584   4.042 -0.4380  1.7889 -4.3110
 6334SOL     OW30463   0.513   1.200   2.695  0.1202 -0.7991 -0.6497
 6334SOL    HW130464   0.536   1.250   2.616 -0.3904 -0.9199 -0.8756
 6334SOL    HW230465   0.425   1.175   2.668  1.0500 -2.6580 -1.9653
 6335SOL     OW30466   3.290   1.187   7.045 -0.3431 -0.3466  0.3964
 6335SOL    HW130467   3.338   1.264   7.014 -1.1672  0.4051  0.9664
 6335SOL    HW230468   3.261   1.161   6.957  0.6291  0.6762 -0.2233
 6336SOL     OW30469   4.319   2.453   5.732  0.1401 -0.7952 -0.5530
 6336SOL    HW130470   4.260   2.474   5.804  0.7514 -3.8154  0.8218
 6336SOL    HW230471   4.354   2.368   5.762  2.2517  0.8754  1.6936
 6337SOL     OW30472   0.995   3.301   7.847  0.1586  0.2880 -0.3565
 6337SOL    HW130473   0.925   3.312   7.783  0.5201 -0.7318 -0.9183
 6337SOL    HW230474   0.970   3.367   7.913  3.8386  1.4933 -0.1427
 6338SOL     OW30475   2.952   3.763  10.073 -0.2163  0.3184  0.3757
 6338SOL    HW130476   3.037   3.721  10.061 -1.0181 -1.2924  0.1667
 6338SOL    HW230477   2.979   3.817  10.146  0.0246  1.1300 -0.3223
 6339SOL     OW30478   0.585   4.567   8.505 -0.2253  0.3225 -0.3952
 6339SOL    HW130479   0.555   4.566   8.414 -0.6670 -0.0240 -0.2470
 6339SOL    HW230480   0.518   4.629   8.533  0.6888  2.3272 -2.6633
 6340SOL     OW30481   1.303   2.634  16.535 -0.7053  0.5154 -0.0770
 6340SOL    HW130482   1.247   2.659  16.462 -0.5151 -0.4879 -0.5718
 6340SOL    HW230483   1.244   2.645  16.609 -1.5338 -0.0252 -0.6629
 6341SOL     OW30484   4.089   4.602   3.607 -0.6562 -0.1676  0.2871
 6341SOL    HW130485   4.062   4.689   3.578 -1.8060 -0.6774 -0.1831
 6341SOL    HW230486   4.024   4.589   3.676 -2.0117 -0.6815 -1.0851
 6342SOL     OW30487   2.915   3.242   4.008 -0.2021 -0.1034 -0.6060
 6342SOL    HW130488   2.882   3.208   4.091 -1.0599  0.0785 -0.8635
 6342SOL    HW230489   2.984   3.298   4.044 -1.7368 -1.0010  3.7918
 6343SOL     OW30490   3.337   0.034   8.782 -0.5735  0.0008 -0.1053
 6343SOL    HW130491   3.348   0.114   8.834  0.9465  0.0747 -0.5288
 6343SOL    HW230492   3.421   4.712   8.794 -0.6303 -0.1177 -0.1608
 6344SOL     OW30493   0.044   0.461   0.966  0.2028 -0.5652  0.1215
 6344SOL    HW130494   0.097   0.391   0.928 -0.6981 -1.0816 -0.1785
 6344SOL    HW230495   0.019   0.426   1.051  1.4311  1.4069  1.2816
 6345SOL     OW30496   3.375   2.565   4.189 -0.3228 -0.3338  0.0247
 6345SOL    HW130497   3.403   2.628   4.256 -1.4111 -1.0729  1.1933
 6345SOL    HW230498   3.280   2.568   4.202 -0.4422 -1.2377 -0.6445
 6346SOL     OW30499   0.118   2.291   3.740  0.4026 -0.0461  0.4549
 6346SOL    HW130500   0.033   2.258   3.767 -0.0552  0.8566  0.0988
 6346SOL    HW230501   0.128   2.348   3.817 -3.0118  1.6199 -0.3535
 6347SOL     OW30502   3.667   2.064   7.298 -0.0399 -0.3973 -0.1337
 6347SOL    HW130503   3.710   1.979   7.284  1.6985  0.4690  0.0032
 6347SOL    HW230504   3.682   2.069   7.392 -2.0143  2.7438  0.0024
 6348SOL     OW30505   1.041   0.047  12.984 -0.6729 -0.5331 -0.3082
 6348SOL    HW130506   1.089   0.111  13.037 -0.8208 -1.1318  0.5386
 6348SOL    HW230507   1.098   4.693  12.983  1.8630  1.3131 -1.3279
 6349SOL     OW30508   2.495   4.249   8.490 -0.4986  0.1769 -0.0360
 6349SOL    HW130509   2.416   4.195   8.487 -1.5545  1.5319  2.7199
 6349SOL    HW230510   2.555   4.190   8.537 -0.5556  2.7086  3.2629
 6350SOL     OW30511   1.096   3.322   4.384  0.4764  0.1666 -0.0459
 6350SOL    HW130512   1.145   3.313   4.466  1.4970  0.0227 -0.6652
 6350SOL    HW230513   1.092   3.415   4.366 -0.3491 -0.3545 -2.5835
 6351SOL     OW30514   4.559   3.166   8.732 -0.6887  0.2367 -0.0561
 6351SOL    HW130515   4.475   3.198   8.765 -0.9147  0.8240 -1.1899
 6351SOL    HW230516   4.621   3.184   8.802  0.1051  0.4943 -0.8356
 6352SOL     OW30517   0.034   3.180   8.924  0.2366  1.0995  0.2641
 6352SOL    HW130518   0.118   3.216   8.895 -0.0595  2.9306  1.7194
 6352SOL    HW230519   0.002   3.263   8.960  0.4438  1.5622 -0.6261
 6353SOL     OW30520   4.221   3.534   2.582 -0.2223 -0.1000  0.0483
 6353SOL    HW130521   4.258   3.550   2.669  0.3548  0.9076 -0.3915
 6353SOL    HW230522   4.129   3.552   2.601 -0.1353 -0.0241  0.3987
 6354SOL     OW30523   2.188   0.307  16.466  0.1489 -0.4644  0.2016
 6354SOL    HW130524   2.211   0.275  16.553  1.3064 -0.3556 -0.0552
 6354SOL    HW230525   2.241   0.387  16.459  0.1048 -0.5465 -1.1562
 6355SOL     OW30526   3.494   2.167   3.962 -0.3426 -0.0928 -0.2061
 6355SOL    HW130527   3.563   2.135   4.020 -2.4620 -0.9730  1.8568
 6355SOL    HW230528   3.419   2.175   4.021 -0.6289 -0.8879 -0.4674
 6356SOL     OW30529   2.318   1.600   4.953 -0.2000  0.2251 -0.4938
 6356SOL    HW130530   2.340   1.651   4.875 -1.2612  0.5940 -0.5573
 6356SOL    HW230531   2.229   1.630   4.971 -0.0373 -0.1408  0.8571
 6357SOL     OW30532   1.936   3.046  13.464  0.0933  0.4599  0.0768
 6357SOL    HW130533   1.995   3.120  13.476  3.0978 -2.0737  0.9149
 6357SOL    HW230534   1.894   3.060  13.379  0.5185  0.0738 -0.1922
 6358SOL     OW30535   0.611   3.423  16.211 -0.0847  0.4260 -0.4541
 6358SOL    HW130536   0.688   3.415  16.268 -0.2994 -1.8194 -0.4832
 6358SOL    HW230537   0.638   3.464  16.130 -0.9425 -1.4745 -1.7060
 6359SOL     OW30538   3.345   1.331   3.622 -0.6047  0.1732 -0.1873
 6359SOL    HW130539   3.421   1.330   3.564  0.0237  0.2948  0.6321
 6359SOL    HW230540   3.310   1.249   3.587  0.0129  0.1753 -0.8189
 6360SOL     OW30541   4.045   3.386   1.626  0.3210  0.5900  0.3047
 6360SOL    HW130542   4.110   3.453   1.604  1.6501 -0.4775  0.9167
 6360SOL    HW230543   4.056   3.365   1.719 -0.9139 -0.2027  0.2642
 6361SOL     OW30544   3.900   0.740   6.911  0.3430  0.0548  0.7596
 6361SOL    HW130545   3.829   0.785   6.865  2.4382  2.7281  0.1408
 6361SOL    HW230546   3.902   0.786   6.995  2.4037  1.4292 -0.0641
 6362SOL     OW30547   2.769   2.015   7.682 -0.2683 -0.2540 -0.5486
 6362SOL    HW130548   2.849   1.976   7.647 -2.1698 -1.9814 -3.0167
 6362SOL    HW230549   2.703   1.949   7.661  1.2045 -1.5661 -1.0434
 6363SOL     OW30550   0.780   4.433  12.376  0.0028 -0.4003 -0.3108
 6363SOL    HW130551   0.735   4.466  12.298  0.0378  0.8286  0.1895
 6363SOL    HW230552   0.726   4.357  12.398 -1.2239  0.6390  0.2706
 6364SOL     OW30553   1.616   1.077   5.936  0.3955 -0.0709 -0.3352
 6364SOL    HW130554   1.655   1.021   5.869  2.7692 -2.6044  3.2193
 6364SOL    HW230555   1.580   1.013   5.997  0.8843 -1.6818 -1.7371
 6365SOL     OW30556   0.804   1.143   2.667  0.3516 -0.0859  0.2761
 6365SOL    HW130557   0.815   1.230   2.706 -1.8856  0.1101  0.5122
 6365SOL    HW230558   0.894   1.114   2.655 -0.0649 -1.0170 -0.5579
 6366SOL     OW30559   4.536   3.413  15.042  0.3015  0.2184 -0.4300
 6366SOL    HW130560   4.480   3.356  14.988 -1.2407  1.0183  0.3354
 6366SOL    HW230561   4.513   3.503  15.021  0.8366  0.9174  2.0275
 6367SOL     OW30562   1.808   1.708   1.383 -0.2157  0.4180 -0.5471
 6367SOL    HW130563   1.836   1.751   1.303  1.7530 -0.4967 -0.3566
 6367SOL    HW230564   1.799   1.773   1.453  3.0527  1.0143 -0.6901
 6368SOL     OW30565   1.454   3.651   5.552  0.0549 -0.1530  0.0944
 6368SOL    HW130566   1.430   3.563   5.582  0.4604 -1.0007 -2.0503
 6368SOL    HW230567   1.524   3.677   5.611  0.6591 -0.0622 -0.6747
 6369SOL     OW30568   3.850   3.126  15.578  0.4445  0.1558 -0.2836
 6369SOL    HW130569   3.867   3.125  15.484  0.9554 -1.6275 -0.1610
 6369SOL    HW230570   3.936   3.109  15.615  0.6476  0.4354 -0.6308
 6370SOL     OW30571   3.599   2.524  13.413 -0.0114  1.0870  0.4577
 6370SOL    HW130572   3.594   2.610  13.453  1.9166  1.6408 -0.4827
 6370SOL    HW230573   3.630   2.478  13.491  1.1702  0.5502 -0.3264
 6371SOL     OW30574   4.338   2.893   2.923  0.1231  0.0263 -0.2430
 6371SOL    HW130575   4.416   2.928   2.880 -1.1940 -1.2187 -3.6859
 6371SOL    HW230576   4.374   2.861   3.006  1.8723  1.0944 -0.6043
 6372SOL     OW30577   0.668   0.816   6.813  0.2128 -0.5873 -0.8547
 6372SOL    HW130578   0.664   0.897   6.763 -0.2123 -0.7251 -1.0365
 6372SOL    HW230579   0.753   0.824   6.858  0.0365 -0.6073 -0.5176
 6373SOL     OW30580   3.158   3.292   6.041 -0.4391 -0.0450  0.1746
 6373SOL    HW130581   3.087   3.356   6.045  0.6218  0.9246  3.1278
 6373SOL    HW230582   3.189   3.302   5.950  0.4384 -0.3858  0.4322
 6374SOL     OW30583   3.287   0.769   9.934  0.1722 -0.5106  0.2668
 6374SOL    HW130584   3.323   0.763  10.023 -0.6126  0.5069  0.6418
 6374SOL    HW230585   3.235   0.688   9.928  0.3284 -0.6900  1.2046
 6375SOL     OW30586   1.156   2.492   6.124 -0.1711  0.2825  0.1257
 6375SOL    HW130587   1.091   2.434   6.084 -1.2590  1.3602  0.3345
 6375SOL    HW230588   1.103   2.531   6.194 -0.7817  0.6613 -0.5433
 6376SOL     OW30589   2.419   0.190   0.584  0.1506  0.4166 -0.0081
 6376SOL    HW130590   2.351   0.147   0.636  0.2232  0.1499 -0.1336
 6376SOL    HW230591   2.385   0.279   0.585  0.9445  0.7161 -0.0857
 6377SOL     OW30592   3.003   3.679   9.259 -0.4122 -0.4796  0.4904
 6377SOL    HW130593   2.971   3.746   9.199  0.8697  1.5646  2.0868
 6377SOL    HW230594   2.944   3.605   9.243 -0.3252 -0.0725 -1.7290
 6378SOL     OW30595   3.025   2.528  10.967  0.1856 -0.4012 -0.1548
 6378SOL    HW130596   3.051   2.473  10.893  1.4020  0.0414 -0.0544
 6378SOL    HW230597   2.931   2.512  10.980  0.0654 -1.5719 -2.4417
 6379SOL     OW30598   2.246   0.308   1.221 -0.5149  0.6101 -0.0480
 6379SOL    HW130599   2.309   0.240   1.199 -0.6252  0.4081  0.2569
 6379SOL    HW230600   2.161   0.264   1.214 -0.9139  1.2818  0.6615
 6380SOL     OW30601   1.532   3.050   2.936  0.0108  0.3038  0.0435
 6380SOL    HW130602   1.604   3.107   2.962  0.3954  0.9345 -2.4283
 6380SOL    HW230603   1.508   3.086   2.851  2.4097  1.0117 -0.3394
 6381SOL     OW30604   0.045   3.243   2.516  0.6337  0.2720  0.0719
 6381SOL    HW130605   4.677   3.235   2.486  0.6287  1.0495 -0.1398
 6381SOL    HW230606   0.058   3.154   2.549 -1.8825 -0.9519 -2.2339
 6382SOL     OW30607   2.443   4.541   5.669  0.1137  0.2313 -0.3948
 6382SOL    HW130608   2.522   4.580   5.631  0.9772  0.7669  1.9583
 6382SOL    HW230609   2.386   4.614   5.692  0.6897  0.5257  0.1024
 6383SOL     OW30610   3.576   1.265   7.693 -0.3500 -0.1819 -0.4309
 6383SOL    HW130611   3.551   1.194   7.634 -1.5602 -0.0688 -0.0416
 6383SOL    HW230612   3.590   1.215   7.773  0.6735  0.1725 -0.3856
 6384SOL     OW30613   4.579   3.761   2.896 -0.0172  0.1079  0.2004
 6384SOL    HW130614   4.585   3.838   2.952  2.5193 -0.6376  0.9412
 6384SOL    HW230615   4.600   3.787   2.807  0.4933 -0.5569  0.1316
 6385SOL     OW30616   4.552   3.092   8.019 -0.6916  0.0107 -0.2265
 6385SOL    HW130617   4.470   3.102   8.067 -0.3578 -0.9279  0.5418
 6385SOL    HW230618   4.535   3.145   7.941  1.0812 -0.0610 -0.6693
 6386SOL     OW30619   0.077   2.528  12.825 -0.2818  0.4900  0.1278
 6386SOL    HW130620   0.079   2.596  12.757  0.5780  1.2034  0.8627
 6386SOL    HW230621   0.096   2.578  12.904 -0.6071  1.5807 -0.4783
 6387SOL     OW30622   0.584   2.193   3.303 -1.2341  0.1331  0.0424
 6387SOL    HW130623   0.664   2.141   3.307  0.0611  1.7910 -3.6122
 6387SOL    HW230624   0.579   2.220   3.395 -0.0281 -0.7076  0.3604
 6388SOL     OW30625   1.729   0.642   5.917 -0.5666  0.4754  0.0359
 6388SOL    HW130626   1.824   0.638   5.922 -0.6747 -1.6077  0.7246
 6388SOL    HW230627   1.719   0.726   5.873 -3.0223 -0.2151 -0.7587
 6389SOL     OW30628   2.716   2.361   0.820 -0.3558  0.4828 -0.4976
 6389SOL    HW130629   2.667   2.428   0.773 -1.1432  0.7587  0.7199
 6389SOL    HW230630   2.650   2.294   0.834 -1.0060  0.9770 -1.2095
 6390SOL     OW30631   2.729   0.020   4.215  0.3020  0.0120 -0.3480
 6390SOL    HW130632   2.790   0.055   4.150  1.8524 -0.5668  0.8012
 6390SOL    HW230633   2.651   0.071   4.192  0.3149  0.7286  1.2048
 6391SOL     OW30634   1.914   3.093   1.961  0.0215 -0.2260 -0.0168
 6391SOL    HW130635   1.937   3.123   1.873  1.5552 -1.5160 -0.0546
 6391SOL    HW230636   1.824   3.062   1.952  0.5025 -1.5068 -0.4753
 6392SOL     OW30637   0.776   0.527   3.044 -0.2735  0.1768  0.2051
 6392SOL    HW130638   0.739   0.461   2.985 -0.3276 -0.1320  0.5816
 6392SOL    HW230639   0.716   0.599   3.025 -0.5205 -0.2871 -0.7572
 6393SOL     OW30640   4.388   1.101  12.704  0.0418 -0.5011  0.2590
 6393SOL    HW130641   4.388   1.187  12.663 -2.0448 -0.7898 -0.3557
 6393SOL    HW230642   4.477   1.069  12.687  0.1233 -0.0911 -0.0945
 6394SOL     OW30643   2.064   0.426   3.670 -0.0130 -0.5233 -0.5640
 6394SOL    HW130644   2.090   0.354   3.613 -1.1961 -1.3014 -0.1353
 6394SOL    HW230645   2.020   0.478   3.603  1.5532  3.7302  1.7336
 6395SOL     OW30646   3.704   2.233   2.214 -0.3428  0.6392  0.2436
 6395SOL    HW130647   3.781   2.288   2.231 -0.6557  0.6934  1.4497
 6395SOL    HW230648   3.735   2.150   2.249  0.3678  0.1627 -1.5218
 6396SOL     OW30649   1.875   4.680   2.435  0.3355  0.4650 -0.4117
 6396SOL    HW130650   1.832   4.597   2.418 -1.1043  1.1528 -0.0916
 6396SOL    HW230651   1.862   0.015   2.360 -1.0531  2.9609  1.7798
 6397SOL     OW30652   3.958   0.209  13.337 -0.2677  0.7884  0.2082
 6397SOL    HW130653   3.931   0.170  13.420  1.0915  1.0707  0.7948
 6397SOL    HW230654   3.895   0.167  13.279 -0.2690  2.3833 -0.9307
 6398SOL     OW30655   3.706   2.645   6.729  0.0221  0.3472 -0.0156
 6398SOL    HW130656   3.800   2.663   6.728 -0.1718  1.2316 -2.2527
 6398SOL    HW230657   3.675   2.684   6.648 -1.3128 -2.1629 -0.6810
 6399SOL     OW30658   2.219   1.092  15.127 -0.1718  0.2122 -0.2443
 6399SOL    HW130659   2.162   1.137  15.189  0.5620 -0.0905  0.6635
 6399SOL    HW230660   2.187   1.002  15.133  1.6799 -0.5601 -1.6616
 6400SOL     OW30661   1.714   3.382  17.478 -0.3216  0.6627 -0.0377
 6400SOL    HW130662   1.652   3.434  17.530 -1.0981  0.1200 -0.4157
 6400SOL    HW230663   1.682   3.420  17.396 -0.7200  0.8434  0.1967
 6401SOL     OW30664   3.188   1.405   7.887  0.2336 -0.7716 -0.5109
 6401SOL    HW130665   3.277   1.434   7.905 -0.0218  0.0884 -0.5974
 6401SOL    HW230666   3.160   1.399   7.979  1.2488 -1.4289 -0.2384
 6402SOL     OW30667   2.945   1.964   1.712  0.7090 -0.2485  0.2337
 6402SOL    HW130668   2.941   2.012   1.795  2.4607 -0.2662  0.3295
 6402SOL    HW230669   3.005   2.014   1.656 -2.9094  2.4806 -1.1957
 6403SOL     OW30670   2.724   4.657   9.633 -0.1517  0.2151 -0.1000
 6403SOL    HW130671   2.651   4.597   9.615 -0.4024  0.9507 -1.5345
 6403SOL    HW230672   2.682   4.704   9.705 -1.3651  0.2572 -0.8431
 6404SOL     OW30673   3.389   3.227  14.053  0.4763 -0.6213  0.0206
 6404SOL    HW130674   3.464   3.235  14.113 -2.1329 -0.3269  3.2387
 6404SOL    HW230675   3.349   3.147  14.087 -1.0870  0.6085  1.0612
 6405SOL     OW30676   0.635   1.508  15.987 -0.1253  0.0453  0.2043
 6405SOL    HW130677   0.592   1.427  15.958 -1.3407  0.4983  0.7304
 6405SOL    HW230678   0.582   1.573  15.942 -0.5163 -1.0008 -0.8526
 6406SOL     OW30679   1.041   1.429   8.378  0.6621 -0.1602  0.3434
 6406SOL    HW130680   1.031   1.365   8.448  1.4903 -1.5451 -0.7884
 6406SOL    HW230681   0.962   1.482   8.386  0.8289  0.1124  0.1869
 6407SOL     OW30682   2.666   4.131   3.486  0.9029  0.4889 -0.4372
 6407SOL    HW130683   2.674   4.151   3.393 -0.1535 -0.8868 -0.8139
 6407SOL    HW230684   2.724   4.055   3.494 -0.6816 -0.4401  2.0083
 6408SOL     OW30685   4.581   1.086   3.345 -0.1242 -0.3263 -0.4028
 6408SOL    HW130686   4.659   1.076   3.400 -0.1403  0.8513 -0.1527
 6408SOL    HW230687   4.511   1.102   3.409  0.4927 -0.2258  0.2522
 6409SOL     OW30688   0.993   4.233   1.312 -0.6880 -0.1502  0.4401
 6409SOL    HW130689   1.080   4.201   1.338 -0.7012 -0.4008  0.1748
 6409SOL    HW230690   0.938   4.159   1.289 -1.1317 -0.3634  2.2064
 6410SOL     OW30691   4.328   2.110   5.007 -0.2135  0.2581 -0.0148
 6410SOL    HW130692   4.414   2.068   4.998 -1.0529 -1.5228  0.3390
 6410SOL    HW230693   4.343   2.171   5.080 -1.2035 -0.7199  0.9951
 6411SOL     OW30694   3.056   0.309  11.237 -0.5043  0.3897  0.0539
 6411SOL    HW130695   3.104   0.388  11.261 -1.8417  1.0989  0.4249
 6411SOL    HW230696   3.079   0.293  11.145 -1.4764  0.4444 -0.2029
 6412SOL     OW30697   2.719   2.320   8.272  0.0300 -0.3696  0.5069
 6412SOL    HW130698   2.710   2.317   8.176 -2.6024  1.5213  0.6854
 6412SOL    HW230699   2.813   2.302   8.276 -0.4319 -2.4247  1.9660
 6413SOL     OW30700   0.213   4.021   4.971  0.3351 -0.5364 -0.0876
 6413SOL    HW130701   0.146   4.087   4.992  0.8114  0.2232 -0.9789
 6413SOL    HW230702   0.160   3.950   5.007 -1.0100  0.2549 -0.4870
 6414SOL     OW30703   2.287   3.827   8.975 -0.4420  0.0242  0.4604
 6414SOL    HW130704   2.382   3.837   8.989 -0.7140 -0.3853  2.6482
 6414SOL    HW230705   2.291   3.774   8.896  0.7660 -1.3116  1.4237
 6415SOL     OW30706   4.568   4.378   9.001  0.0341 -0.1309  0.6537
 6415SOL    HW130707   4.632   4.337   9.059 -0.1614 -0.2571  0.7788
 6415SOL    HW230708   4.614   4.442   8.946  0.2336  0.5668  1.6149
 6416SOL     OW30709   4.706   3.587   6.694 -0.4245 -0.1854  0.1756
 6416SOL    HW130710   0.063   3.637   6.710 -0.3280 -0.0900 -0.6150
 6416SOL    HW230711   4.701   3.599   6.599 -2.4352  1.0602  0.4333
 6417SOL     OW30712   2.410   3.961   5.835 -0.7750 -0.1308  0.3673
 6417SOL    HW130713   2.393   3.905   5.911 -0.5584  1.1930  1.4134
 6417SOL    HW230714   2.441   4.045   5.871 -2.3827  0.4388  0.3952
 6418SOL     OW30715   2.068   1.297  14.017 -0.2653 -0.3582 -0.0445
 6418SOL    HW130716   2.033   1.302  13.928  1.1569  1.2490 -0.5322
 6418SOL    HW230717   2.162   1.307  14.002 -0.2010 -3.4573 -1.7489
 6419SOL     OW30718   0.191   0.799   6.923 -0.6727 -0.3321  0.0451
 6419SOL    HW130719   0.218   0.740   6.853 -0.5364 -3.0391  2.3547
 6419SOL    HW230720   0.115   0.842   6.883  0.9505  0.0050 -2.6721
 6420SOL     OW30721   1.620   1.098   8.604  0.0547 -0.1665  0.7487
 6420SOL    HW130722   1.624   1.004   8.584  1.2564  0.1412 -0.3985
 6420SOL    HW230723   1.636   1.099   8.699  2.5748 -1.9747  0.3650
 6421SOL     OW30724   1.771   0.099   8.970  0.5174 -0.5350 -0.1761
 6421SOL    HW130725   1.811   0.169   8.920  1.8481 -0.0050  1.6395
 6421SOL    HW230726   1.785   0.123   9.061  1.0675  2.0344 -0.9587
 6422SOL     OW30727   3.020   0.167   6.748  0.1432  0.0427 -0.2623
 6422SOL    HW130728   2.953   0.118   6.701 -0.7364  2.1649 -1.2164
 6422SOL    HW230729   3.006   0.143   6.840 -0.5315  2.6145  0.2949
 6423SOL     OW30730   0.740   4.348   8.534  0.7508  0.1218 -0.1791
 6423SOL    HW130731   0.694   4.432   8.529  1.6530  0.6216 -0.0025
 6423SOL    HW230732   0.737   4.335   8.629  1.9517  1.3283  0.0235
 6424SOL     OW30733   3.782   0.257  14.761 -0.0674 -0.0206  0.3103
 6424SOL    HW130734   3.855   0.196  14.751  0.3236  0.1384  2.1685
 6424SOL    HW230735   3.732   0.223  14.687 -2.0987  0.8835  1.2925
 6425SOL     OW30736   2.652   2.074   5.559 -0.0850 -0.2619  0.0198
 6425SOL    HW130737   2.716   2.083   5.489 -0.3942  1.7575 -0.0287
 6425SOL    HW230738   2.605   2.158   5.558 -2.6048 -1.6701  0.4546
 6426SOL     OW30739   0.070   0.630   6.059 -0.0766 -0.0793 -0.7031
 6426SOL    HW130740   0.094   0.577   5.983 -0.7409 -1.1245 -0.1768
 6426SOL    HW230741   4.720   0.581   6.096 -0.5697  1.8660  0.8928
 6427SOL     OW30742   3.005   4.287   9.163 -0.3938 -0.0914 -0.5351
 6427SOL    HW130743   2.962   4.360   9.118  1.4476  0.6585 -1.1065
 6427SOL    HW230744   2.932   4.225   9.164 -0.5562  0.1005 -0.2944
 6428SOL     OW30745   2.526   0.269  13.026  0.2586  0.4295  0.0769
 6428SOL    HW130746   2.473   0.342  13.057 -0.5656  1.3914 -3.5435
 6428SOL    HW230747   2.590   0.321  12.978 -0.6438 -0.2030 -1.7992
 6429SOL     OW30748   4.361   0.726   3.275 -0.1874 -0.1406  0.2318
 6429SOL    HW130749   4.418   0.722   3.353 -0.6945 -0.5397  0.5828
 6429SOL    HW230750   4.322   0.639   3.278  0.5347 -0.4582  0.4815
 6430SOL     OW30751   0.719   2.773   5.384  0.1003 -0.0312  0.3473
 6430SOL    HW130752   0.651   2.710   5.408  1.2772 -1.8289 -1.0990
 6430SOL    HW230753   0.752   2.794   5.471 -1.5718 -0.3514  1.0675
 6431SOL     OW30754   0.201   0.290   9.784 -0.0271 -0.5340  0.3941
 6431SOL    HW130755   0.196   0.327   9.872 -1.4376 -0.6296  0.3600
 6431SOL    HW230756   0.230   0.373   9.745  0.6445 -0.9021  0.1123
 6432SOL     OW30757   0.117   2.767  11.488 -0.0181  0.4082  0.2833
 6432SOL    HW130758   0.091   2.722  11.569  1.9706 -1.8225 -0.3121
 6432SOL    HW230759   0.185   2.714  11.448 -0.8344 -1.4234  1.3073
 6433SOL     OW30760   4.371   4.535  16.420  0.4100  0.0381 -0.1786
 6433SOL    HW130761   4.418   4.602  16.369 -0.8297 -0.3180 -1.7873
 6433SOL    HW230762   4.357   4.589  16.498 -0.5372  2.8887 -2.3304
 6434SOL     OW30763   1.773   4.305   0.990  0.2310 -0.3893  0.1267
 6434SOL    HW130764   1.819   4.357   1.055 -0.7704 -0.6764  1.0599
 6434SOL    HW230765   1.687   4.333   1.023  0.4671 -0.5084  0.8316
 6435SOL     OW30766   1.909   3.196   6.537  0.0288 -0.2850 -0.4412
 6435SOL    HW130767   1.819   3.166   6.522 -1.0023  1.6252  2.0502
 6435SOL    HW230768   1.945   3.116   6.577 -0.0105  0.4951  1.1393
 6436SOL     OW30769   4.185   0.391   4.877  0.2383  0.0206 -0.3945
 6436SOL    HW130770   4.099   0.368   4.913  0.3220 -0.5423 -0.5629
 6436SOL    HW230771   4.167   0.484   4.861 -0.0046  0.2050  0.9209
 6437SOL     OW30772   1.122   0.484   5.777  0.5336 -0.0296  0.3197
 6437SOL    HW130773   1.114   0.563   5.724  2.2223  0.1550  0.3537
 6437SOL    HW230774   1.043   0.438   5.750  1.4629 -0.9148 -0.8924
 6438SOL     OW30775   0.741   1.567   3.855 -0.0230  0.5991  0.3317
 6438SOL    HW130776   0.797   1.531   3.786 -0.2905  2.8420 -1.0527
 6438SOL    HW230777   0.713   1.489   3.903 -2.8000  1.0416 -0.5163
 6439SOL     OW30778   1.843   3.910  12.630  0.6996  0.0246 -0.0021
 6439SOL    HW130779   1.919   3.868  12.671  0.6119  1.1124  1.2998
 6439SOL    HW230780   1.843   3.862  12.548 -0.7132 -3.1731  1.8865
 6440SOL     OW30781   1.547   2.725   2.393  0.3031 -0.4014 -0.1122
 6440SOL    HW130782   1.570   2.676   2.315  0.3544  2.2255 -1.7391
 6440SOL    HW230783   1.619   2.704   2.452 -0.9759  2.0420  2.3397
 6441SOL     OW30784   2.198   0.157  10.369 -0.2830 -0.1830 -0.0907
 6441SOL    HW130785   2.289   0.184  10.357  0.2084 -1.0255  1.8623
 6441SOL    HW230786   2.166   0.172  10.280  1.5339 -0.6943 -0.8419
 6442SOL     OW30787   0.997   2.051   1.434  0.4924 -0.0744 -0.1030
 6442SOL    HW130788   1.034   1.963   1.420  0.9057  0.2224 -0.8811
 6442SOL    HW230789   0.976   2.043   1.527 -0.5300 -0.0004 -0.3313
 6443SOL     OW30790   3.486   4.240   2.454  0.4687  0.1956  0.1777
 6443SOL    HW130791   3.436   4.322   2.449  1.9734  1.0432 -0.9881
 6443SOL    HW230792   3.573   4.258   2.417  1.5803 -4.9412  0.2990
 6444SOL     OW30793   3.922   1.626   6.458 -0.2495 -0.0886  0.1318
 6444SOL    HW130794   3.927   1.556   6.523 -1.7166 -0.5947 -0.3059
 6444SOL    HW230795   3.886   1.698   6.511 -2.8994 -0.5168 -1.1009
 6445SOL     OW30796   1.374   1.621   3.075 -0.0889 -0.7718  0.2793
 6445SOL    HW130797   1.362   1.643   2.983 -0.3339  2.7152  1.1569
 6445SOL    HW230798   1.460   1.579   3.070  0.9809  1.2779  1.7662
 6446SOL     OW30799   0.990   4.371  14.789 -0.9455 -0.3422 -0.5416
 6446SOL    HW130800   0.913   4.315  14.795 -0.8934 -0.6545 -3.0890
 6446SOL    HW230801   1.050   4.303  14.758 -0.8081  0.0364 -1.0944
 6447SOL     OW30802   3.480   2.953   3.833  0.3620 -0.0534 -0.1125
 6447SOL    HW130803   3.555   2.894   3.836  0.2478 -0.1630  0.5328
 6447SOL    HW230804   3.505   3.021   3.770  0.3097 -0.7650 -0.8949
 6448SOL     OW30805   1.448   2.732   9.044  0.6805  0.0713 -0.0883
 6448SOL    HW130806   1.478   2.644   9.020  0.9310  0.1117  0.0882
 6448SOL    HW230807   1.521   2.783   9.010  0.2746  1.1339  0.6471
 6449SOL     OW30808   0.403   3.105   3.101  0.0103 -0.2833 -0.0882
 6449SOL    HW130809   0.482   3.157   3.118  0.9928 -2.2164  1.2818
 6449SOL    HW230810   0.376   3.076   3.188  1.8753  0.6988  0.8111
 6450SOL     OW30811   4.145   3.653   0.123  0.2549 -1.0833  0.5649
 6450SOL    HW130812   4.128   3.640   0.029  0.4433 -2.1637  0.6785
 6450SOL    HW230813   4.230   3.697   0.118 -0.6437  0.7115  1.2261
 6451SOL     OW30814   3.751   4.496   0.202  0.0034  0.1416  0.2053
 6451SOL    HW130815   3.833   4.510   0.154 -0.5363  0.0464 -0.7345
 6451SOL    HW230816   3.699   4.525   0.127  1.6328  1.1165 -0.5596
 6452SOL     OW30817   2.219   1.313   7.079  0.1546 -0.1248  0.1563
 6452SOL    HW130818   2.199   1.331   6.987 -3.1679  1.4370  1.1563
 6452SOL    HW230819   2.282   1.243   7.066  0.3683 -0.1232  1.1829
 6453SOL     OW30820   0.265   0.546   4.657 -0.1607 -0.0860 -0.8979
 6453SOL    HW130821   0.335   0.611   4.655 -0.1745 -0.0072  1.8881
 6453SOL    HW230822   0.287   0.479   4.592  1.9818  0.1468 -0.4247
 6454SOL     OW30823   4.277   2.241   3.717  0.1195  0.1717  0.2502
 6454SOL    HW130824   4.284   2.201   3.804  1.3311 -1.3768 -0.5548
 6454SOL    HW230825   4.182   2.234   3.707 -0.1405  3.5213  0.5182
 6455SOL     OW30826   3.267   1.304   4.730  0.8371  0.2080  0.1729
 6455SOL    HW130827   3.259   1.236   4.796  1.0880  1.3472  1.3885
 6455SOL    HW230828   3.360   1.313   4.708  1.3489  0.5034  2.4681
 6456SOL     OW30829   4.215   1.457  11.737  0.1938  0.6695 -0.3494
 6456SOL    HW130830   4.214   1.372  11.693  0.7109  0.7241 -0.4639
 6456SOL    HW230831   4.218   1.427  11.828 -1.7311  0.1684 -0.4537
 6457SOL     OW30832   1.540   0.499   5.780  0.0955 -0.1723 -0.5691
 6457SOL    HW130833   1.607   0.540   5.835  1.0884 -0.7417 -1.3491
 6457SOL    HW230834   1.584   0.421   5.746 -0.5423  0.1357 -2.0624
 6458SOL     OW30835   1.212   2.074   0.711 -0.4231 -0.1998  0.6594
 6458SOL    HW130836   1.282   2.060   0.776  0.2511  0.6189  0.1086
 6458SOL    HW230837   1.168   1.991   0.731  0.6038 -1.1333 -0.9576
 6459SOL     OW30838   1.223   3.049   5.169 -0.0844  0.0970 -0.2817
 6459SOL    HW130839   1.242   3.066   5.261 -0.0293  0.3714 -0.3433
 6459SOL    HW230840   1.210   2.954   5.170  1.4533 -0.0962  1.1345
 6460SOL     OW30841   3.299   3.825  13.060 -0.3844 -0.1856 -0.0666
 6460SOL    HW130842   3.304   3.908  13.013 -0.6178  0.3813  0.9266
 6460SOL    HW230843   3.343   3.850  13.141 -0.7895  1.4474 -0.3547
 6461SOL     OW30844   4.122   1.085   5.032  0.6216 -0.8509 -0.0553
 6461SOL    HW130845   4.197   1.143   5.018 -1.6631  2.3448  1.0501
 6461SOL    HW230846   4.054   1.144   5.064 -1.6475 -4.6154  2.0737
 6462SOL     OW30847   4.456   1.088   5.485 -0.1664  0.3158 -0.6129
 6462SOL    HW130848   4.423   1.015   5.433 -2.7754 -0.7206  2.4737
 6462SOL    HW230849   4.440   1.065   5.576  0.6462 -0.4335 -0.6624
 6463SOL     OW30850   1.706   1.592   5.597 -0.1896  0.4103  0.0449
 6463SOL    HW130851   1.753   1.541   5.529 -0.8424 -2.0840  1.4562
 6463SOL    HW230852   1.774   1.658   5.606  0.4668 -0.2477 -0.0447
 6464SOL     OW30853   0.724   1.011   7.950  0.2684  0.0375 -0.3137
 6464SOL    HW130854   0.815   1.029   7.973  0.6759 -2.6315  0.1076
 6464SOL    HW230855   0.683   1.093   7.920 -1.0047 -0.1956  0.7630
 6465SOL     OW30856   0.222   1.396  12.076 -0.5299  0.0528  0.6031
 6465SOL    HW130857   0.316   1.409  12.069 -0.8393  0.6403 -2.6043
 6465SOL    HW230858   0.206   1.480  12.118 -0.3687  0.2906  0.1852
 6466SOL     OW30859   0.176   1.820   4.840  0.5723 -0.5633  0.2134
 6466SOL    HW130860   0.179   1.781   4.927  1.3442 -0.2418  0.3264
 6466SOL    HW230861   0.101   1.775   4.801 -0.5243  0.3027  1.3203
 6467SOL     OW30862   0.290   1.776   7.567  0.8403 -0.9071  0.0050
 6467SOL    HW130863   0.305   1.726   7.487 -0.6932  0.1169 -0.9309
 6467SOL    HW230864   0.366   1.834   7.568  0.8129 -0.8744  0.2640
 6468SOL     OW30865   2.735   2.118  15.726 -1.0220  0.6659  0.2643
 6468SOL    HW130866   2.788   2.038  15.732  0.8759  1.8874 -0.1856
 6468SOL    HW230867   2.699   2.125  15.814 -1.3595 -2.7029  0.3882
 6469SOL     OW30868   0.313   1.674  16.984  0.2120 -0.2274  0.3205
 6469SOL    HW130869   0.348   1.662  17.072  1.9274  0.8661 -0.2012
 6469SOL    HW230870   0.388   1.726  16.954 -0.2921  1.4459  1.9382
 6470SOL     OW30871   3.536   4.371   0.608  0.0942  0.0167  0.2327
 6470SOL    HW130872   3.586   4.443   0.646  0.0006  1.4390 -2.3611
 6470SOL    HW230873   3.546   4.381   0.513  0.6399 -0.6368  0.2198
 6471SOL     OW30874   4.093   3.874   1.650 -0.7215 -0.7180  0.4196
 6471SOL    HW130875   4.140   3.909   1.574 -0.0531 -2.1104  0.1881
 6471SOL    HW230876   4.032   3.812   1.612 -1.6476  0.5306 -0.1181
 6472SOL     OW30877   1.964   1.484   3.261 -0.2021  0.2753  0.8168
 6472SOL    HW130878   1.997   1.401   3.226  1.3793  0.6623  1.3736
 6472SOL    HW230879   1.944   1.461   3.352  1.2900 -0.1211  1.0422
 6473SOL     OW30880   1.086   3.585  11.149  0.1987 -0.6244  0.2984
 6473SOL    HW130881   1.022   3.532  11.101  1.7475 -0.5705 -1.8316
 6473SOL    HW230882   1.162   3.532  11.126  0.3087 -1.3658  2.3780
 6474SOL     OW30883   1.942   3.217   1.081 -0.2456  0.2897  0.3673
 6474SOL    HW130884   1.905   3.130   1.094  0.0077  0.0885 -0.2656
 6474SOL    HW230885   1.880   3.247   1.016 -2.5451 -1.6626  1.6714
 6475SOL     OW30886   3.692   0.669   4.227 -0.6758 -0.2643  0.4330
 6475SOL    HW130887   3.619   0.729   4.209  0.1524  0.5011 -0.3917
 6475SOL    HW230888   3.740   0.663   4.144  0.5148 -0.3298  1.1406
 6476SOL     OW30889   1.047   2.969   6.887  0.1812 -0.0628  0.4320
 6476SOL    HW130890   1.112   3.007   6.829  0.0278 -1.9956 -0.9970
 6476SOL    HW230891   1.059   3.030   6.960 -0.7992  2.1319 -1.2610
 6477SOL     OW30892   2.389   0.114   5.695  0.1984  0.1827  0.6039
 6477SOL    HW130893   2.301   0.077   5.689  0.0342  0.2181  2.5435
 6477SOL    HW230894   2.389   0.179   5.625  1.4163  0.3771  0.7830
 6478SOL     OW30895   2.133   1.487   8.232 -0.4848  0.2220 -0.3914
 6478SOL    HW130896   2.136   1.539   8.152 -1.8334 -0.1493 -0.6879
 6478SOL    HW230897   2.178   1.547   8.291 -0.5511  1.4358 -1.5835
 6479SOL     OW30898   3.891   1.342   6.836 -1.1328 -0.0445  0.3480
 6479SOL    HW130899   3.909   1.357   6.744 -1.9426  1.3799  0.4219
 6479SOL    HW230900   3.813   1.392   6.862 -2.1938 -1.2234 -0.5545
 6480SOL     OW30901   1.609   4.610   7.762  0.7886 -0.8939  0.0328
 6480SOL    HW130902   1.680   4.672   7.782 -1.4522  2.0462 -1.2275
 6480SOL    HW230903   1.608   4.554   7.840 -1.7380 -0.6539  0.1553
 6481SOL     OW30904   2.641   1.403   4.681  0.5000  0.5490  0.4655
 6481SOL    HW130905   2.631   1.313   4.649 -1.9973  0.6890  0.9132
 6481SOL    HW230906   2.730   1.424   4.653  0.3431 -0.4759 -0.8069
 6482SOL     OW30907   0.945   1.945   2.198 -0.9811 -0.0026  0.5286
 6482SOL    HW130908   0.900   1.989   2.126  0.0337  1.6962  0.9457
 6482SOL    HW230909   0.871   1.946   2.258 -1.8193 -0.8011 -0.4877
 6483SOL     OW30910   0.805   2.686   7.734  0.1008 -0.1514 -0.6112
 6483SOL    HW130911   0.888   2.665   7.777  1.0622  0.9827 -1.8939
 6483SOL    HW230912   0.833   2.759   7.677 -0.8446  2.5197  2.3651
 6484SOL     OW30913   0.790   3.293  16.797  0.3329  0.4834 -0.0135
 6484SOL    HW130914   0.846   3.275  16.722 -1.6538  1.0885 -1.6465
 6484SOL    HW230915   0.701   3.289  16.761  1.5465  2.1627 -3.1846
 6485SOL     OW30916   2.047   1.483   2.530  0.3057 -0.0075  0.0200
 6485SOL    HW130917   2.036   1.513   2.440 -0.2518 -2.3191 -0.6793
 6485SOL    HW230918   2.048   1.565   2.580 -0.6741 -0.8822  1.4479
 6486SOL     OW30919   4.114   4.618   7.983 -0.2547 -0.1629 -0.5213
 6486SOL    HW130920   4.208   4.601   7.974 -0.1880 -1.4553  2.6594
 6486SOL    HW230921   4.096   4.665   7.901  2.0951 -0.1298 -1.0225
 6487SOL     OW30922   1.501   1.784   4.838  0.1803 -0.1963  0.1836
 6487SOL    HW130923   1.459   1.747   4.916 -0.8115  0.4113 -0.0617
 6487SOL    HW230924   1.509   1.877   4.858  0.7492  0.2376 -2.0880
 6488SOL     OW30925   0.794   0.873  17.611 -0.4885  0.4659  0.1045
 6488SOL    HW130926   0.777   0.939  17.543 -1.8973 -0.0444 -0.0472
 6488SOL    HW230927   0.802   0.794  17.558 -0.0501 -0.0198  0.9006
 6489SOL     OW30928   1.055   1.445  14.804  0.0324 -0.4594  0.0646
 6489SOL    HW130929   1.041   1.366  14.752  1.2058 -0.9407  0.4843
 6489SOL    HW230930   1.149   1.460  14.793 -0.2975  0.5230 -1.4311
 6490SOL     OW30931   4.452   3.230   3.120 -0.6050 -0.1115  0.2433
 6490SOL    HW130932   4.541   3.262   3.106 -1.7070  2.1327 -1.5372
 6490SOL    HW230933   4.393   3.305   3.124 -0.5053  0.0376 -1.4423
 6491SOL     OW30934   4.263   0.737   4.193  0.4457  0.6024 -0.0333
 6491SOL    HW130935   4.255   0.809   4.257 -0.8805  0.2627  0.1654
 6491SOL    HW230936   4.267   0.665   4.256  0.5822  1.6853  1.2240
 6492SOL     OW30937   1.199   3.626   0.109 -0.0606 -0.3388  0.1796
 6492SOL    HW130938   1.133   3.695   0.115 -1.1827 -1.2719 -1.2532
 6492SOL    HW230939   1.177   3.584   0.192  1.5751 -0.6573  0.4428
 6493SOL     OW30940   2.210   1.611   3.081  0.3906  0.2285 -0.3229
 6493SOL    HW130941   2.220   1.695   3.125 -0.1141  1.5595 -2.7800
 6493SOL    HW230942   2.129   1.581   3.123  0.4940 -2.1299 -1.8064
 6494SOL     OW30943   4.592   4.488   6.082 -0.0386 -0.3001 -0.5533
 6494SOL    HW130944   4.634   4.441   6.153  1.8459  1.4668 -0.4984
 6494SOL    HW230945   4.500   4.469   6.101  0.4526 -1.1730  0.9219
 6495SOL     OW30946   3.356   3.941  14.232  0.0110  0.2369  0.5488
 6495SOL    HW130947   3.371   3.879  14.303  0.5614 -0.2231  0.0311
 6495SOL    HW230948   3.443   3.971  14.206  0.1272 -0.0359  0.6304
 6496SOL     OW30949   1.708   0.420   8.618 -0.2867  0.2570  0.0815
 6496SOL    HW130950   1.718   0.434   8.524  2.6401  2.1262  0.6860
 6496SOL    HW230951   1.730   0.506   8.653 -0.2417 -0.1015  0.9257
 6497SOL     OW30952   2.044   1.714  11.664  0.1317 -0.2452  0.1390
 6497SOL    HW130953   1.969   1.659  11.686  0.7835 -1.3734 -0.4903
 6497SOL    HW230954   1.995   1.795  11.678 -3.1473 -2.5531  1.9846
 6498SOL     OW30955   1.866   1.610   6.212 -0.4552  0.3280  0.0896
 6498SOL    HW130956   1.857   1.664   6.291 -1.5141 -0.9700  0.8594
 6498SOL    HW230957   1.861   1.522   6.250  1.3415  0.7817  1.3818
 6499SOL     OW30958   3.998   4.366   6.797 -0.4210 -0.4868  0.0253
 6499SOL    HW130959   3.998   4.270   6.792  0.5889 -0.4751 -0.1266
 6499SOL    HW230960   4.050   4.366   6.877  1.2125 -2.7213 -1.0308
 6500SOL     OW30961   0.738   2.610  12.761 -0.1339  0.2376 -1.1497
 6500SOL    HW130962   0.802   2.590  12.693  1.0808 -1.2139  0.4194
 6500SOL    HW230963   0.776   2.557  12.832  1.4319  1.7069 -0.8795
 6501SOL     OW30964   2.601   3.872   2.214  0.2040 -0.0998 -0.1254
 6501SOL    HW130965   2.681   3.826   2.188 -0.2654 -0.7558 -0.4148
 6501SOL    HW230966   2.591   3.936   2.143  2.0996  0.3183 -0.0132
 6502SOL     OW30967   4.706   3.615   5.178  0.5985 -0.2274 -0.0392
 6502SOL    HW130968   4.691   3.522   5.160  0.5328  0.0543 -1.4183
 6502SOL    HW230969   0.078   3.614   5.163  0.6406 -0.0767  0.2248
 6503SOL     OW30970   2.216   0.779   5.632  0.4416 -0.2439  0.0701
 6503SOL    HW130971   2.284   0.846   5.628  0.1705  0.0014 -0.5374
 6503SOL    HW230972   2.224   0.746   5.542 -0.4814 -1.1534  0.3150
 6504SOL     OW30973   1.127   3.084   2.046  0.4951 -0.0032  0.0599
 6504SOL    HW130974   1.155   3.008   2.098  2.9927  1.7743  1.3590
 6504SOL    HW230975   1.155   3.163   2.094  1.1653 -1.5940  2.2971
 6505SOL     OW30976   0.231   3.862   2.007 -0.3934  0.3567  0.2162
 6505SOL    HW130977   0.203   3.861   2.098 -1.4935 -0.6362 -0.1214
 6505SOL    HW230978   0.296   3.792   2.010 -1.0628 -0.2486  0.7669
 6506SOL     OW30979   4.383   1.996   1.660  0.0163  0.8104  0.1581
 6506SOL    HW130980   4.466   1.949   1.661 -0.9121 -0.9333 -1.7242
 6506SOL    HW230981   4.325   1.930   1.621  1.7362 -1.8464  2.0964
 6507SOL     OW30982   3.256   3.690   9.823 -0.3528  0.3682  0.0312
 6507SOL    HW130983   3.344   3.662   9.795 -0.8007 -1.1346  0.1004
 6507SOL    HW230984   3.243   3.665   9.915  1.9308 -0.8413  0.0341
 6508SOL     OW30985   1.748   2.653   6.331  0.2315  0.4305 -0.3219
 6508SOL    HW130986   1.800   2.689   6.259  0.8263 -0.0082 -0.1122
 6508SOL    HW230987   1.672   2.711   6.334 -1.5032 -1.7675 -0.8478
 6509SOL     OW30988   3.240   3.895   2.727 -0.1774 -0.0725 -0.2808
 6509SOL    HW130989   3.239   3.963   2.659 -0.5964  0.3939  0.1850
 6509SOL    HW230990   3.241   3.946   2.809 -0.4114  0.7202 -0.7667
 6510SOL     OW30991   4.418   2.328   5.201  0.3641 -0.0384 -0.2150
 6510SOL    HW130992   4.492   2.388   5.190  0.5854 -0.6934 -2.2774
 6510SOL    HW230993   4.436   2.293   5.288 -1.4461 -0.2445  0.0778
 6511SOL     OW30994   2.924   1.914   4.101  0.1848 -0.4153  0.1089
 6511SOL    HW130995   2.902   1.828   4.064 -1.2797 -0.9230  2.1628
 6511SOL    HW230996   2.962   1.885   4.184  0.1096 -1.7224 -0.3074
 6512SOL     OW30997   3.626   4.300  12.422 -0.3292  0.5822 -0.1400
 6512SOL    HW130998   3.720   4.317  12.430 -0.5684  1.2695  1.2082
 6512SOL    HW230999   3.583   4.350  12.492  1.4035 -1.0745  2.1233
 6513SOL     OW31000   4.061   2.773  10.505 -0.3338 -0.2240 -0.1769
 6513SOL    HW131001   4.132   2.799  10.446 -0.6416  1.4916  0.2174
 6513SOL    HW231002   4.017   2.710  10.448 -1.0561 -0.9276  1.1589
 6514SOL     OW31003   0.173   0.181  11.130  0.1520 -0.7287  0.9573
 6514SOL    HW131004   0.143   0.090  11.125  2.8705 -1.6438  1.4892
 6514SOL    HW231005   0.266   0.158  11.127 -0.1463 -2.0562  1.7881
 6515SOL     OW31006   0.121   3.480   2.602  0.5454  1.1083 -0.1472
 6515SOL    HW131007   0.053   3.480   2.670  1.4147  0.8945  0.7260
 6515SOL    HW231008   0.099   3.404   2.548  1.9737  1.0024 -0.5953
 6516SOL     OW31009   1.649   3.139  12.696  1.0438 -0.1728 -0.5017
 6516SOL    HW131010   1.604   3.060  12.726 -0.8774  0.8580 -0.6805
 6516SOL    HW231011   1.715   3.175  12.755  2.4429 -1.7778 -1.0763
 6517SOL     OW31012   2.058   2.894   9.365  0.1220 -0.2252  0.5070
 6517SOL    HW131013   1.979   2.889   9.418 -0.6165  1.6729 -0.4136
 6517SOL    HW231014   2.033   2.827   9.301  2.4078  0.2010 -0.8396
 6518SOL     OW31015   3.292   2.132   1.768  0.2231 -0.2312  0.0266
 6518SOL    HW131016   3.207   2.135   1.724 -0.4004  2.0577  1.4008
 6518SOL    HW231017   3.324   2.044   1.749  1.3623  0.2864 -0.4713
 6519SOL     OW31018   4.305   3.552  16.683 -0.7765  0.2972 -0.3258
 6519SOL    HW131019   4.355   3.488  16.733  2.6991  1.7842 -1.8974
 6519SOL    HW231020   4.218   3.541  16.723  0.3569  0.3788  2.1501
 6520SOL     OW31021   2.790   2.509   5.150 -0.6354 -0.0528  0.2921
 6520SOL    HW131022   2.876   2.550   5.159 -0.1481 -1.2159  0.8344
 6520SOL    HW231023   2.772   2.503   5.244 -0.5706 -0.1505  0.2983
 6521SOL     OW31024   3.155   0.996   9.798  0.3436 -0.4664  0.0185
 6521SOL    HW131025   3.240   1.036   9.785 -0.7565  2.0240  0.4126
 6521SOL    HW231026   3.189   0.910   9.824  2.1778  0.7317  1.5601
 6522SOL     OW31027   2.484   3.753   8.442  0.3717 -0.4738 -0.2759
 6522SOL    HW131028   2.459   3.667   8.408 -1.2234 -0.1185  0.0270
 6522SOL    HW231029   2.411   3.808   8.416  1.9264  1.4934 -0.4749
 6523SOL     OW31030   2.790   0.036  16.086  0.0011 -0.5934  0.1588
 6523SOL    HW131031   2.768   4.695  16.018  0.2278 -0.6144  0.1041
 6523SOL    HW231032   2.721   0.098  16.062  0.9288  0.0748 -0.8073
 6524SOL     OW31033   4.682   2.505  14.839  0.5814 -0.1815 -0.2796
 6524SOL    HW131034   4.630   2.506  14.919 -2.8250  0.2093 -2.5120
 6524SOL    HW231035   4.617   2.534  14.775 -0.5716  1.1699  1.5160
 6525SOL     OW31036   1.498   1.602   5.934 -0.1766 -0.0084 -0.8788
 6525SOL    HW131037   1.413   1.560   5.942  1.2409 -2.6005  0.6509
 6525SOL    HW231038   1.544   1.519   5.947  0.0527  0.2837  0.2104
 6526SOL     OW31039   0.479   4.677   3.569  0.0334 -0.2186  0.0435
 6526SOL    HW131040   0.487   4.655   3.662 -1.1401  2.4215  0.7743
 6526SOL    HW231041   0.564   4.662   3.527 -0.5145 -0.5996 -0.9391
 6527SOL     OW31042   0.077   3.129   0.558  0.1806 -0.4754  0.5338
 6527SOL    HW131043   0.033   3.121   0.473  2.0421 -1.0167 -0.3906
 6527SOL    HW231044   0.004   3.138   0.619 -1.5636 -0.5346 -1.5354
 6528SOL     OW31045   0.186   0.443   8.715  0.2398 -0.0556 -0.2910
 6528SOL    HW131046   0.103   0.412   8.751  0.4066 -0.0854  0.0700
 6528SOL    HW231047   0.254   0.396   8.764  0.6094 -0.5604 -1.2923
 6529SOL     OW31048   3.763   1.348   7.966  0.2644 -0.0308 -0.0276
 6529SOL    HW131049   3.775   1.359   8.061  2.3510 -1.8498 -0.0844
 6529SOL    HW231050   3.707   1.271   7.954 -0.6970  0.7314 -0.4219
 6530SOL     OW31051   2.335   0.680   6.560  0.4855  0.0534 -0.2665
 6530SOL    HW131052   2.285   0.695   6.479  0.7660 -1.1762 -0.6706
 6530SOL    HW231053   2.266   0.684   6.626  1.8322 -0.7460  1.1700
 6531SOL     OW31054   0.686   2.198  11.135 -0.2719 -0.5369 -0.3023
 6531SOL    HW131055   0.736   2.157  11.065 -0.6480 -0.7813 -0.4253
 6531SOL    HW231056   0.651   2.122  11.181 -0.0906 -0.4858 -0.0751
 6532SOL     OW31057   1.567   2.545   8.400 -0.0504 -0.2863  0.4615
 6532SOL    HW131058   1.604   2.623   8.440 -0.5023  0.2693 -0.2039
 6532SOL    HW231059   1.483   2.576   8.365 -0.0965  3.1127  3.4922
 6533SOL     OW31060   2.136   0.864   4.060 -0.0322 -0.2444  0.1396
 6533SOL    HW131061   2.220   0.848   4.018 -0.3988 -2.1894  0.1097
 6533SOL    HW231062   2.102   0.774   4.054 -0.6456  0.0729 -1.2630
 6534SOL     OW31063   2.524   1.264  10.859  0.9005  0.2883  0.2684
 6534SOL    HW131064   2.476   1.334  10.815 -0.1321 -1.4664 -1.4098
 6534SOL    HW231065   2.611   1.297  10.840  1.4112  1.1381  4.0334
 6535SOL     OW31066   2.031   2.486   9.153  0.2226  0.1409  0.2087
 6535SOL    HW131067   2.013   2.512   9.063  0.7041 -1.1668 -0.2586
 6535SOL    HW231068   1.947   2.471   9.197 -1.3245 -0.4750 -3.0082
 6536SOL     OW31069   1.318   3.095   3.784 -0.9152  0.0490 -0.4534
 6536SOL    HW131070   1.293   3.055   3.701 -1.3867 -0.8052  0.0992
 6536SOL    HW231071   1.377   3.026   3.814  0.6792  1.3666 -0.5769
 6537SOL     OW31072   3.201   3.902   8.419  0.1149 -0.5611  0.6405
 6537SOL    HW131073   3.111   3.928   8.403  0.4280 -0.8938 -1.7284
 6537SOL    HW231074   3.209   3.829   8.358  0.5541  0.6732 -0.7768
 6538SOL     OW31075   1.955   0.858   7.094 -0.1838 -0.1871  0.0511
 6538SOL    HW131076   1.946   0.953   7.106 -0.2949 -0.1036 -0.6902
 6538SOL    HW231077   2.034   0.847   7.146  2.2505  0.3248 -3.5442
 6539SOL     OW31078   1.692   0.699   8.630  0.3672  0.4527  0.1049
 6539SOL    HW131079   1.763   0.730   8.574 -0.3629  0.3666 -0.8724
 6539SOL    HW231080   1.706   0.745   8.712 -0.2985  1.4275 -0.3307
 6540SOL     OW31081   3.347   3.774  10.377  0.0625  0.5390  0.1035
 6540SOL    HW131082   3.322   3.692  10.334 -0.5532  1.4690 -1.3061
 6540SOL    HW231083   3.368   3.814  10.292 -0.8205 -0.1776 -0.4519
 6541SOL     OW31084   3.755   1.875   4.720  0.3116 -0.3076  0.0629
 6541SOL    HW131085   3.769   1.847   4.811 -2.2013 -0.9288  0.2542
 6541SOL    HW231086   3.672   1.833   4.697  1.6010 -2.2980 -0.9188
 6542SOL     OW31087   3.787   3.458   3.584  0.2077 -0.0257  0.4969
 6542SOL    HW131088   3.741   3.538   3.558  0.8558  0.8163  1.9663
 6542SOL    HW231089   3.795   3.418   3.497 -0.4157  0.0573  0.3965
 6543SOL     OW31090   3.646   4.121   2.643  0.0786 -0.2214 -0.3199
 6543SOL    HW131091   3.589   4.146   2.570  0.1057  0.9336  0.0598
 6543SOL    HW231092   3.659   4.031   2.613  0.7427 -0.8099  1.7408
 6544SOL     OW31093   4.078   2.208   2.720 -0.3790 -0.4315  0.2422
 6544SOL    HW131094   4.147   2.263   2.684 -0.4077 -0.2222  0.5063
 6544SOL    HW231095   4.017   2.178   2.652 -1.6010  2.0566  0.2395
 6545SOL     OW31096   4.593   4.279   2.739 -0.4409 -0.1607 -0.1623
 6545SOL    HW131097   4.665   4.234   2.695 -0.1296 -0.9362  1.1353
 6545SOL    HW231098   4.546   4.324   2.669 -1.7938 -3.2445 -1.2223
 6546SOL     OW31099   4.577   4.700   8.208  0.5213 -0.4267  0.1265
 6546SOL    HW131100   4.607   4.699   8.299 -0.1155 -1.9324  0.3150
 6546SOL    HW231101   4.570   4.605   8.201  1.7731 -0.5896  1.0648
 6547SOL     OW31102   2.490   0.906   8.854  0.3637  0.3176 -0.3776
 6547SOL    HW131103   2.456   0.964   8.922 -1.9119 -0.7708 -0.6080
 6547SOL    HW231104   2.574   0.878   8.890 -0.0158  2.7805  2.3798
 6548SOL     OW31105   2.146   1.653   1.012  0.1704  0.1028  0.1576
 6548SOL    HW131106   2.144   1.564   1.048  0.1479 -0.2385 -0.6751
 6548SOL    HW231107   2.205   1.689   1.078  0.6767 -1.3908  0.5367
 6549SOL     OW31108   2.777   3.230   6.559 -0.2637 -0.2888  0.0031
 6549SOL    HW131109   2.870   3.253   6.560 -0.4675  0.5672 -0.5218
 6549SOL    HW231110   2.748   3.276   6.638  2.0919 -1.4686  1.5679
 6550SOL     OW31111   2.918   3.065   1.597 -0.4176  0.2851 -0.1764
 6550SOL    HW131112   2.943   3.155   1.575  0.4022 -0.4497 -2.2621
 6550SOL    HW231113   2.943   3.070   1.689  0.9955  3.9184 -0.7553
 6551SOL     OW31114   0.184   0.969   7.439  0.0273  0.6638 -0.4673
 6551SOL    HW131115   0.241   1.043   7.422 -0.0018  0.4899 -1.3180
 6551SOL    HW231116   0.182   0.921   7.356  1.4967 -0.1750 -0.0132
 6552SOL     OW31117   3.115   3.499   3.175 -0.6179  0.4720  0.3546
 6552SOL    HW131118   3.025   3.470   3.188 -0.5579  0.7926  1.5052
 6552SOL    HW231119   3.160   3.439   3.234 -1.9772  0.3121  1.2367
 6553SOL     OW31120   3.391   2.052   8.140 -0.0427  0.1562 -0.1857
 6553SOL    HW131121   3.470   2.054   8.087  0.8011 -3.7066  0.9946
 6553SOL    HW231122   3.340   2.021   8.066 -3.6504  1.9940  1.5000
 6554SOL     OW31123   2.024   4.567  13.478 -0.1103 -0.2323 -0.2203
 6554SOL    HW131124   2.077   4.645  13.463 -1.8110  0.7910 -0.8785
 6554SOL    HW231125   2.005   4.577  13.571  0.8602  0.6168 -0.1102
 6555SOL     OW31126   1.625   2.358   7.408 -0.1520 -0.0684  0.0491
 6555SOL    HW131127   1.593   2.268   7.401 -0.3244 -0.0105  0.0881
 6555SOL    HW231128   1.720   2.346   7.413 -0.3503 -0.5758  2.3874
 6556SOL     OW31129   2.691   4.646   0.549 -0.2929 -0.1783  0.0047
 6556SOL    HW131130   2.600   4.630   0.571 -0.1115 -2.7922 -1.1233
 6556SOL    HW231131   2.683   4.706   0.475  0.4016 -2.0114 -1.5540
 6557SOL     OW31132   3.089   0.184   8.373  0.5979 -0.1271  0.1060
 6557SOL    HW131133   3.154   0.252   8.353 -0.6513  1.4291  1.3120
 6557SOL    HW231134   3.134   0.113   8.327  0.0689 -1.3777  1.5349
 6558SOL     OW31135   4.127   0.062  11.266  0.4934 -0.1445  0.0952
 6558SOL    HW131136   4.031   0.065  11.268  0.5818  1.7555  0.7371
 6558SOL    HW231137   4.147   4.697  11.298  1.6627 -0.5725 -1.8070
 6559SOL     OW31138   1.005   3.227   2.884 -0.2837 -0.3175 -0.3978
 6559SOL    HW131139   1.100   3.244   2.883 -0.1698 -0.7965  1.7843
 6559SOL    HW231140   1.001   3.140   2.844  0.4797  1.4163 -4.2791
 6560SOL     OW31141   1.010   0.486   2.774 -0.2748  0.1504 -0.2426
 6560SOL    HW131142   0.985   0.570   2.737 -2.7998 -0.4712  0.0479
 6560SOL    HW231143   1.104   0.482   2.754 -0.0526  1.9951  0.4208
 6561SOL     OW31144   1.875   2.418  11.599 -0.0570  0.2479 -0.5527
 6561SOL    HW131145   1.930   2.477  11.650  1.3773 -0.4913 -1.2381
 6561SOL    HW231146   1.929   2.405  11.521  0.7135  0.5081 -0.0649
 6562SOL     OW31147   2.604   3.180  14.383 -0.2844  0.4575  0.6540
 6562SOL    HW131148   2.613   3.213  14.472  0.4225  0.9712  0.3918
 6562SOL    HW231149   2.543   3.108  14.403  0.4247 -0.2100  0.4203
 6563SOL     OW31150   4.344   3.834   3.280 -0.0381 -0.4945  0.5189
 6563SOL    HW131151   4.318   3.908   3.225 -0.4638 -2.2209 -1.6064
 6563SOL    HW231152   4.439   3.839   3.264  0.0507 -0.4084  1.0800
 6564SOL     OW31153   2.758   1.916   2.952  0.3882 -0.2051 -0.7334
 6564SOL    HW131154   2.751   1.913   3.047 -0.2385 -0.0008 -0.7734
 6564SOL    HW231155   2.823   1.846   2.939  0.2461 -0.7051  1.2939
 6565SOL     OW31156   1.392   0.115   6.938 -0.1153  0.1190 -0.1323
 6565SOL    HW131157   1.384   0.204   6.905  0.8654  0.0360 -0.5924
 6565SOL    HW231158   1.344   0.115   7.021  1.2332 -0.6123  0.6414
 6566SOL     OW31159   1.250   0.955  14.384  0.4967 -0.4240  0.8825
 6566SOL    HW131160   1.302   0.915  14.453  0.3799 -1.6987  0.2274
 6566SOL    HW231161   1.163   0.920  14.401 -0.2235  0.6906 -0.4621
 6567SOL     OW31162   4.394   0.028   2.160  0.6531 -0.8520  0.0925
 6567SOL    HW131163   4.298   0.029   2.163  0.7671  1.7907  2.8240
 6567SOL    HW231164   4.412   4.698   2.082 -0.7255 -0.9442 -0.1666
 6568SOL     OW31165   2.800   3.315  11.062 -0.2933  0.1233  0.0087
 6568SOL    HW131166   2.771   3.364  10.985 -2.1231 -2.2449 -0.8220
 6568SOL    HW231167   2.712   3.291  11.089 -0.4915  0.4678 -0.3294
 6569SOL     OW31168   4.348   4.120   8.864  0.2885 -0.4465  0.1519
 6569SOL    HW131169   4.394   4.102   8.946  0.2105  0.1176  0.3155
 6569SOL    HW231170   4.261   4.141   8.897  0.6521  2.3374 -0.6700
 6570SOL     OW31171   3.971   2.375   3.759 -0.5471  0.2546 -0.1536
 6570SOL    HW131172   3.880   2.346   3.762 -0.0393 -1.2716  0.7024
 6570SOL    HW231173   3.987   2.381   3.665 -1.0071  2.4034 -0.0794
 6571SOL     OW31174   2.894   3.657   4.748 -0.1949  0.4916 -0.1604
 6571SOL    HW131175   2.800   3.641   4.757 -0.2664  0.8085 -0.3369
 6571SOL    HW231176   2.903   3.667   4.654 -0.3054  1.1094 -0.1055
 6572SOL     OW31177   1.484   2.976  14.109  0.7455  0.1166  0.5956
 6572SOL    HW131178   1.432   2.979  14.190  1.1264  0.3645  0.8344
 6572SOL    HW231179   1.559   3.022  14.148  0.1320  3.1383 -1.7435
 6573SOL     OW31180   4.149   0.246   6.867 -1.0256  0.0861  0.2214
 6573SOL    HW131181   4.120   0.197   6.790  1.3338 -0.4518 -0.2945
 6573SOL    HW231182   4.099   0.327   6.879 -0.1668  0.5260  0.8327
 6574SOL     OW31183   0.381   2.463   2.261  0.4385  0.1389 -0.0982
 6574SOL    HW131184   0.367   2.493   2.350  1.2899  0.7580 -0.1769
 6574SOL    HW231185   0.442   2.532   2.236  0.1821  1.2801  2.4150
 6575SOL     OW31186   4.276   3.136  13.158 -0.0577  0.3166 -0.0620
 6575SOL    HW131187   4.309   3.046  13.154 -1.7124 -0.2502 -0.8823
 6575SOL    HW231188   4.347   3.169  13.213  0.3366  0.4846 -0.6733
 6576SOL     OW31189   0.378   4.644  10.592  0.5555 -0.8804  0.0690
 6576SOL    HW131190   0.465   4.662  10.557  0.1573  3.3989  1.2974
 6576SOL    HW231191   0.325   4.619  10.516  1.4107 -0.1750 -0.7555
 6577SOL     OW31192   2.974   1.662  16.990  0.1001 -0.4460 -0.5685
 6577SOL    HW131193   3.001   1.708  16.911  2.2475  0.2813  0.6250
 6577SOL    HW231194   2.894   1.711  17.008  2.5565  1.7867  4.1079
 6578SOL     OW31195   1.378   1.831  12.863  0.3264 -0.2096  0.7082
 6578SOL    HW131196   1.344   1.747  12.834  0.1407  0.1443 -0.1132
 6578SOL    HW231197   1.458   1.807  12.910 -1.6210 -1.6321  3.2927
 6579SOL     OW31198   1.303   4.330   7.610  0.6628  0.0895  0.2630
 6579SOL    HW131199   1.294   4.336   7.705  0.2368 -2.3758  0.3732
 6579SOL    HW231200   1.310   4.235   7.605 -1.6440 -0.0201 -1.0368
 6580SOL     OW31201   1.244   1.462   4.208 -0.3627  0.4640 -0.2432
 6580SOL    HW131202   1.208   1.543   4.243 -0.5256  0.3319 -0.1064
 6580SOL    HW231203   1.337   1.480   4.197 -0.1467 -0.5592 -0.0914
 6581SOL     OW31204   2.890   3.110  17.004  1.1013 -0.4479 -0.1179
 6581SOL    HW131205   2.797   3.102  16.986  1.0252  1.1959 -0.4158
 6581SOL    HW231206   2.924   3.179  16.947 -1.5004  1.1004  0.2498
 6582SOL     OW31207   0.733   3.663   3.646  0.6942  0.4000 -0.0270
 6582SOL    HW131208   0.734   3.608   3.725 -0.3884 -0.9853 -0.9786
 6582SOL    HW231209   0.646   3.703   3.651  0.0972 -0.8484 -0.3153
 6583SOL     OW31210   1.228   3.100   6.717  0.8077  0.0619 -0.1775
 6583SOL    HW131211   1.271   3.173   6.763 -0.4612 -0.2923  1.5911
 6583SOL    HW231212   1.175   3.146   6.652  0.0425  0.5377  0.7836
 6584SOL     OW31213   3.927   1.470   4.188 -0.0168  0.4965  0.5492
 6584SOL    HW131214   3.913   1.430   4.273 -0.5497  0.1230  0.2841
 6584SOL    HW231215   3.997   1.534   4.199  0.3201  0.1933  0.1907
 6585SOL     OW31216   3.587   2.245   1.857  0.4273  0.1791  0.3332
 6585SOL    HW131217   3.674   2.203   1.860  0.5413  0.6675  3.7116
 6585SOL    HW231218   3.529   2.170   1.868  2.2429 -1.4429 -1.0312
 6586SOL     OW31219   4.203   2.942  17.505  0.3376 -0.2666  0.7727
 6586SOL    HW131220   4.181   3.013  17.445  1.5447  0.6345  1.4044
 6586SOL    HW231221   4.138   2.961  17.573 -2.2021 -2.6735 -0.9572
 6587SOL     OW31222   2.699   2.717   5.634  0.0586 -0.0033 -0.3967
 6587SOL    HW131223   2.715   2.725   5.728  0.9435 -0.4140 -0.5092
 6587SOL    HW231224   2.693   2.806   5.598  1.6448 -0.1161 -0.9636
 6588SOL     OW31225   2.844   1.139   3.481  0.1486 -0.1176  0.5083
 6588SOL    HW131226   2.796   1.221   3.470 -1.6794 -1.0744  1.3529
 6588SOL    HW231227   2.861   1.119   3.389  0.4796  0.0639  0.5314
 6589SOL     OW31228   2.790   4.310   3.176 -0.3840 -0.1753  0.1997
 6589SOL    HW131229   2.811   4.308   3.269  0.4117 -1.9344 -0.0077
 6589SOL    HW231230   2.861   4.362   3.139  1.2530 -1.2114  1.9277
 6590SOL     OW31231   0.499   1.491   4.486  0.8794  0.2266  0.3294
 6590SOL    HW131232   0.417   1.520   4.446 -0.3517  0.0611  2.7396
 6590SOL    HW231233   0.469   1.451   4.568  0.9925  0.5724  0.5356
 6591SOL     OW31234   1.828   0.291  10.525  0.2367  0.5119 -0.0648
 6591SOL    HW131235   1.852   0.339  10.446  5.2087 -2.0100 -0.0789
 6591SOL    HW231236   1.833   0.200  10.497 -1.3018  0.0789  1.0532
 6592SOL     OW31237   2.955   3.173  15.526 -0.0718  0.0196  0.1121
 6592SOL    HW131238   2.945   3.112  15.599 -0.8199 -0.4393 -0.3734
 6592SOL    HW231239   2.926   3.262  15.548  0.0789  0.0519  0.1721
 6593SOL     OW31240   1.768   4.554   5.194 -0.3446  0.3046 -0.5154
 6593SOL    HW131241   1.834   4.620   5.215  0.0326 -0.0928 -0.4571
 6593SOL    HW231242   1.696   4.614   5.213  0.2611  1.3640 -1.5559
 6594SOL     OW31243   4.214   3.320   1.029  0.3722 -0.0837 -0.0713
 6594SOL    HW131244   4.215   3.241   1.083 -1.3410  1.3984  2.1722
 6594SOL    HW231245   4.199   3.389   1.094  0.0844  1.1702 -1.4696
 6595SOL     OW31246   1.726   2.624   7.565  0.8435  0.3807 -0.5610
 6595SOL    HW131247   1.755   2.662   7.648  0.6140  0.5098 -0.5393
 6595SOL    HW231248   1.701   2.537   7.596  2.5012 -0.0784 -0.4694
 6596SOL     OW31249   2.951   3.273  14.763 -0.4349  0.0391  0.0705
 6596SOL    HW131250   2.989   3.215  14.697 -2.2925  1.1260 -1.9765
 6596SOL    HW231251   2.951   3.225  14.846 -1.6637  0.8527  0.5386
 6597SOL     OW31252   0.683   1.462   6.012 -0.2290 -0.1429 -0.0977
 6597SOL    HW131253   0.628   1.447   5.935 -0.5016 -0.0692  0.0805
 6597SOL    HW231254   0.610   1.482   6.071 -0.3676  2.5352 -1.1971
 6598SOL     OW31255   3.434   2.227   2.160 -0.3646 -0.3091 -0.7869
 6598SOL    HW131256   3.403   2.317   2.159 -0.5004 -0.3881 -3.3044
 6598SOL    HW231257   3.527   2.234   2.180 -0.2718  0.3681 -1.4624
 6599SOL     OW31258   2.867   0.786   9.556 -0.3078  0.0527  0.1288
 6599SOL    HW131259   2.778   0.780   9.591  0.2909 -0.6685  1.5424
 6599SOL    HW231260   2.923   0.752   9.627 -2.3215 -1.7317  0.8898
 6600SOL     OW31261   0.546   1.245  15.892 -0.0785  0.0800  0.3071
 6600SOL    HW131262   0.532   1.151  15.906  1.7238 -0.6504 -2.6810
 6600SOL    HW231263   0.472   1.278  15.942 -0.2096 -0.0491  0.2000
 6601SOL     OW31264   2.276   3.175   7.244  0.0752  0.2789 -0.3100
 6601SOL    HW131265   2.225   3.104   7.206 -1.1227  1.3880 -0.7846
 6601SOL    HW231266   2.252   3.241   7.178  0.3264  1.8940  1.1946
 6602SOL     OW31267   0.024   1.308   8.545 -0.0179  0.0370  1.1606
 6602SOL    HW131268   4.690   1.270   8.613  0.2365 -0.5320  1.0505
 6602SOL    HW231269   0.105   1.317   8.595 -0.1078 -0.9512  1.4932
 6603SOL     OW31270   3.066   3.484   5.267  0.9099  0.3789  0.2791
 6603SOL    HW131271   3.123   3.520   5.199 -1.9411  0.1648 -2.2198
 6603SOL    HW231272   3.045   3.564   5.315 -1.4550  0.1280 -0.3481
 6604SOL     OW31273   2.496   0.190   8.540  0.0494 -0.4404  0.2760
 6604SOL    HW131274   2.404   0.214   8.537  0.0981 -0.3067 -0.1477
 6604SOL    HW231275   2.504   0.167   8.633 -1.2851  1.9333  0.9837
 6605SOL     OW31276   3.009   2.313   8.277 -0.4857  0.2658  0.1758
 6605SOL    HW131277   3.096   2.325   8.315 -0.8370 -0.2980  1.1663
 6605SOL    HW231278   2.978   2.404   8.279  0.8460  0.7675 -2.0955
 6606SOL     OW31279   2.647   2.315   4.873  0.2623 -0.5317  0.3232
 6606SOL    HW131280   2.723   2.366   4.904 -0.1210  0.1624  0.1277
 6606SOL    HW231281   2.611   2.383   4.816 -0.3200 -1.5914 -0.5628
 6607SOL     OW31282   3.602   3.442   4.272  0.0636 -0.5054 -0.0334
 6607SOL    HW131283   3.670   3.503   4.243 -0.2731 -0.2089 -0.2042
 6607SOL    HW231284   3.572   3.473   4.357 -0.0011  2.3732 -1.1129
 6608SOL     OW31285   2.362   4.053   9.521  0.4116 -0.2990  1.1171
 6608SOL    HW131286   2.313   4.079   9.598  1.1753 -0.2441  1.5890
 6608SOL    HW231287   2.308   4.104   9.460  2.6234 -0.3394 -0.8707
 6609SOL     OW31288   1.449   3.889   5.208 -0.1789  0.2207  0.8702
 6609SOL    HW131289   1.499   3.960   5.246 -0.0853  0.2925  0.6116
 6609SOL    HW231290   1.500   3.814   5.237 -1.5642 -1.2115 -0.3764
 6610SOL     OW31291   4.623   2.227   7.232 -0.4424 -0.1084  0.0739
 6610SOL    HW131292   4.569   2.255   7.305  0.8456  0.7522  0.6890
 6610SOL    HW231293   4.624   2.311   7.186  1.1515  0.5364  1.2832
 6611SOL     OW31294   3.553   0.444   2.754 -0.3176  0.4115  0.0376
 6611SOL    HW131295   3.610   0.370   2.774 -0.2902  0.5442  0.4493
 6611SOL    HW231296   3.462   0.415   2.766 -0.3725  0.0063 -1.3163
 6612SOL     OW31297   1.136   0.491   7.863  0.5674 -0.5613  0.1278
 6612SOL    HW131298   1.049   0.452   7.863  1.0810 -1.7176  1.6921
 6612SOL    HW231299   1.127   0.570   7.915 -0.4070  0.8849 -2.2638
 6613SOL     OW31300   2.884   0.918   2.348 -1.0084 -0.4978  0.7072
 6613SOL    HW131301   2.939   0.996   2.349  1.1831 -1.9912 -2.8197
 6613SOL    HW231302   2.951   0.852   2.328 -1.5897 -0.3281 -1.8416
 6614SOL     OW31303   0.247   2.511   4.798 -0.3140  0.0363 -0.2535
 6614SOL    HW131304   0.337   2.490   4.776 -0.7116 -0.5020 -1.3311
 6614SOL    HW231305   0.193   2.478   4.726 -1.4652  0.2566  0.5008
 6615SOL     OW31306   0.141   0.079   2.259  0.7234  0.1916 -0.0691
 6615SOL    HW131307   0.052   0.080   2.295  0.1169  2.7083 -1.6030
 6615SOL    HW231308   0.152   4.714   2.225  0.2588 -0.0011  0.2804
 6616SOL     OW31309   3.017   0.097   6.436  0.1698  0.3354  0.9434
 6616SOL    HW131310   3.019   0.192   6.449 -1.5461  0.1403  2.5579
 6616SOL    HW231311   2.940   0.080   6.382  0.4392  3.2063 -0.3874
 6617SOL     OW31312   0.885   4.217   9.563 -0.3210 -0.3126  0.1725
 6617SOL    HW131313   0.905   4.133   9.521 -1.6758 -1.0685  1.0385
 6617SOL    HW231314   0.844   4.185   9.643 -2.0562  1.2718 -0.0877
 6618SOL     OW31315   0.138   0.568   3.652  0.4866 -1.0339  0.1904
 6618SOL    HW131316   0.163   0.515   3.729  0.6539 -0.0072  0.8411
 6618SOL    HW231317   0.044   0.580   3.657  0.5802 -0.1623 -0.3160
 6619SOL     OW31318   0.282   1.021   5.839 -0.3056  0.0770  0.1848
 6619SOL    HW131319   0.290   1.062   5.925  0.8387 -2.2832  1.1965
 6619SOL    HW231320   0.286   0.929   5.865 -1.6062  0.1715  0.7262
 6620SOL     OW31321   4.000   0.780   9.566  0.2232  0.2668 -0.2954
 6620SOL    HW131322   4.022   0.712   9.502 -0.7995  0.2481 -0.6237
 6620SOL    HW231323   3.972   0.722   9.636 -0.1665  1.3659  0.4590
 6621SOL     OW31324   0.194   3.573  13.436  0.3365  0.2229  0.0082
 6621SOL    HW131325   0.252   3.602  13.365 -0.0634  1.8870  0.3631
 6621SOL    HW231326   0.112   3.584  13.388  0.8899 -1.2126 -1.2836
 6622SOL     OW31327   1.545   2.891   5.358 -0.2743 -0.6415  0.5761
 6622SOL    HW131328   1.573   2.885   5.449  0.1982  1.4712  0.5614
 6622SOL    HW231329   1.464   2.941   5.367 -0.5758 -0.9898 -0.1573
 6623SOL     OW31330   1.536   1.016   7.215 -0.3158  0.2614  0.0978
 6623SOL    HW131331   1.527   1.017   7.310  0.6500 -1.2466  0.2053
 6623SOL    HW231332   1.481   1.088   7.184  1.1299  2.8183  3.4099
 6624SOL     OW31333   3.227   3.124   6.227 -0.4898 -0.3377  0.1900
 6624SOL    HW131334   3.192   3.173   6.153  1.7063 -0.2934 -0.8316
 6624SOL    HW231335   3.315   3.105   6.194 -0.3109  0.5811  0.1569
 6625SOL     OW31336   3.103   3.428   1.827  0.4416  0.0403 -0.3182
 6625SOL    HW131337   3.077   3.518   1.809  0.2584 -0.0130 -0.3158
 6625SOL    HW231338   3.198   3.431   1.841  0.1727  0.1038  1.5645
 6626SOL     OW31339   2.886   0.549  12.078  0.6408 -0.3614  0.1099
 6626SOL    HW131340   2.828   0.551  12.154 -1.1173  0.9966 -1.2685
 6626SOL    HW231341   2.973   0.549  12.117  0.1117 -1.5953  1.2776
 6627SOL     OW31342   3.477   4.184   9.542 -0.1970 -0.4687  0.3024
 6627SOL    HW131343   3.496   4.188   9.636  1.3014  3.3780 -0.1637
 6627SOL    HW231344   3.562   4.208   9.505 -0.0319 -1.5553 -0.0274
 6628SOL     OW31345   4.220   1.226   4.499 -0.0902  0.0025  0.5759
 6628SOL    HW131346   4.283   1.282   4.455 -0.9980  0.0422 -0.7031
 6628SOL    HW231347   4.225   1.256   4.589 -1.3851  0.8991  0.3500
 6629SOL     OW31348   4.529   2.990   9.082  0.5856 -0.1109  0.4197
 6629SOL    HW131349   4.574   3.069   9.053 -1.7799  1.1812  0.2650
 6629SOL    HW231350   4.590   2.922   9.053  0.3347 -1.1535  2.3666
 6630SOL     OW31351   2.177   1.705   9.307  0.2467  0.2142  0.5015
 6630SOL    HW131352   2.112   1.757   9.260 -0.4792 -1.1040  0.0382
 6630SOL    HW231353   2.112   1.644   9.342  1.2293 -0.8346  0.5009
 6631SOL     OW31354   1.540   4.120   4.181 -0.4647 -0.1075  0.3329
 6631SOL    HW131355   1.517   4.209   4.207 -2.8201 -0.6265  0.0108
 6631SOL    HW231356   1.620   4.112   4.233 -0.6487 -0.0929  0.6203
 6632SOL     OW31357   2.284   3.802   5.650 -0.2012 -0.6702 -0.2028
 6632SOL    HW131358   2.341   3.805   5.573  1.1918  0.2843  0.8796
 6632SOL    HW231359   2.337   3.854   5.710 -0.2680 -2.0794  1.0585
 6633SOL     OW31360   3.041   1.705   3.352 -0.1200  0.2761 -0.1989
 6633SOL    HW131361   3.069   1.617   3.377 -0.1158 -0.1468 -1.7067
 6633SOL    HW231362   3.123   1.754   3.342  0.5484 -0.3689  2.1505
 6634SOL     OW31363   2.135   0.846  15.059  0.2790  0.1609 -0.3267
 6634SOL    HW131364   2.132   0.753  15.079  0.4286  0.6232  1.8618
 6634SOL    HW231365   2.062   0.857  14.998  0.2813 -0.0073 -0.3588
 6635SOL     OW31366   0.987   1.802   9.532  0.4305 -0.6819 -0.4003
 6635SOL    HW131367   0.944   1.832   9.452 -0.0285 -2.7722 -0.9443
 6635SOL    HW231368   0.913   1.763   9.578  1.1210 -1.5597 -0.0406
 6636SOL     OW31369   1.500   4.348  12.628 -0.5827  0.2523  0.0841
 6636SOL    HW131370   1.422   4.305  12.593 -0.2890 -2.0695  2.3125
 6636SOL    HW231371   1.570   4.287  12.606 -0.8947  1.2088 -3.6116
 6637SOL     OW31372   1.960   4.470   5.676  0.4758 -0.2603  0.7139
 6637SOL    HW131373   1.917   4.514   5.749  0.4985  1.2888 -0.2170
 6637SOL    HW231374   1.887   4.450   5.617 -0.0467 -0.6769  1.4981
 6638SOL     OW31375   0.452   4.635   2.084 -0.2632  0.0113 -0.0567
 6638SOL    HW131376   0.386   4.567   2.073  1.7688 -1.5920 -2.4136
 6638SOL    HW231377   0.502   4.604   2.158  1.6103  1.2537 -0.8008
 6639SOL     OW31378   3.953   1.726   5.003  0.2700  0.5230  0.0682
 6639SOL    HW131379   3.866   1.763   4.987 -0.1830 -1.4814 -2.1538
 6639SOL    HW231380   3.948   1.632   4.988  0.6542  0.5509 -0.2573
 6640SOL     OW31381   3.282   0.110   3.064  0.1046 -0.2055  0.1445
 6640SOL    HW131382   3.186   0.108   3.070  0.1271 -2.2663 -0.0451
 6640SOL    HW231383   3.288   0.071   3.152 -0.1774 -0.6920 -0.0498
 6641SOL     OW31384   0.736   3.706  17.515  0.0902  0.4451 -0.9146
 6641SOL    HW131385   0.752   3.770  17.446  0.4041  0.8714 -0.4460
 6641SOL    HW231386   0.806   3.731  17.576 -2.2727 -0.1563  2.0167
 6642SOL     OW31387   4.587   3.410   0.682 -0.6962  0.7556 -0.3213
 6642SOL    HW131388   4.535   3.394   0.603 -1.1515  0.8501 -0.0409
 6642SOL    HW231389   4.582   3.321   0.715  3.5465  1.2947  1.7513
 6643SOL     OW31390   3.499   2.681  12.097  0.5296  0.0789  0.4287
 6643SOL    HW131391   3.443   2.737  12.043  2.3443  0.4423 -1.0683
 6643SOL    HW231392   3.443   2.666  12.173 -0.4439  0.2217 -0.2503
 6644SOL     OW31393   2.965   0.079  11.344 -0.0281 -0.4195  0.1453
 6644SOL    HW131394   3.002   0.160  11.309 -2.7696  0.7510 -0.1053
 6644SOL    HW231395   2.906   0.112  11.413  1.0047  1.9772 -0.1146
 6645SOL     OW31396   3.107   3.416   4.045  0.1304  0.4186  0.7374
 6645SOL    HW131397   3.154   3.495   4.073  3.4432 -1.3668  0.3118
 6645SOL    HW231398   3.153   3.396   3.963  0.2007 -0.1726  0.9222
 6646SOL     OW31399   2.716   4.096   7.895 -0.3418  0.3443  0.3220
 6646SOL    HW131400   2.683   4.052   7.817  1.0420  0.6746 -0.4613
 6646SOL    HW231401   2.788   4.140   7.850  0.8311 -2.4444 -0.5374
 6647SOL     OW31402   0.265   2.891  15.294 -0.6099 -0.1629 -0.2806
 6647SOL    HW131403   0.205   2.816  15.285 -0.5237 -0.3318  0.4969
 6647SOL    HW231404   0.222   2.948  15.231  1.0927  1.9909  0.5290
 6648SOL     OW31405   3.486   3.765  11.456  0.3084  0.1979 -0.1223
 6648SOL    HW131406   3.419   3.799  11.515 -0.0679  0.4947 -0.7342
 6648SOL    HW231407   3.545   3.712  11.511 -0.3453 -1.2299 -0.7827
 6649SOL     OW31408   4.077   3.487  16.854 -0.2065  0.7276  0.2298
 6649SOL    HW131409   4.095   3.577  16.881  1.3725  1.4905 -3.2783
 6649SOL    HW231410   3.985   3.494  16.826 -0.3121  2.3266  0.9806
 6650SOL     OW31411   1.396   2.434   7.509 -0.2277 -0.4341  0.2097
 6650SOL    HW131412   1.378   2.505   7.448  0.2013 -0.3417  0.1856
 6650SOL    HW231413   1.486   2.407   7.487 -1.0366 -2.6749 -0.4120
 6651SOL     OW31414   4.107   1.031  14.949 -0.2297 -0.8392 -0.2122
 6651SOL    HW131415   4.132   0.941  14.971  0.6616 -0.2929  1.0073
 6651SOL    HW231416   4.021   1.018  14.909 -1.0108 -1.8456  1.7442
 6652SOL     OW31417   3.927   2.838   2.447  0.3275  0.0901 -0.0146
 6652SOL    HW131418   3.841   2.859   2.412  0.6807 -1.9116 -2.0772
 6652SOL    HW231419   3.920   2.869   2.537  0.3249 -0.5828  0.2193
 6653SOL     OW31420   4.609   3.071  17.550 -0.3425 -0.2009 -0.2508
 6653SOL    HW131421   4.557   3.001  17.510 -1.4906  0.8798 -0.6370
 6653SOL    HW231422   4.539   3.122  17.591  0.3392 -0.7775  1.6520
 6654SOL     OW31423   0.263   4.579   0.421 -0.0904 -0.0475 -0.4155
 6654SOL    HW131424   0.230   4.538   0.340  0.3355 -1.7555  0.2899
 6654SOL    HW231425   0.187   4.570   0.478  1.5386 -0.0992  1.7128
 6655SOL     OW31426   3.644   1.593   5.279 -0.0947  0.0495 -0.1351
 6655SOL    HW131427   3.630   1.505   5.243 -1.5639 -1.0342  3.1293
 6655SOL    HW231428   3.564   1.644   5.266  0.1473  0.0880 -1.4688
 6656SOL     OW31429   3.509   2.845   2.037  0.2724 -0.3089 -0.0843
 6656SOL    HW131430   3.427   2.848   2.085  1.0659  0.5510  1.2106
 6656SOL    HW231431   3.492   2.769   1.980  1.7784 -0.8558  0.1798
 6657SOL     OW31432   1.900   0.107   5.638  0.6899  0.0880  0.1419
 6657SOL    HW131433   1.851   0.036   5.595  0.7879 -0.1694  0.4545
 6657SOL    HW231434   1.825   0.161   5.662 -1.0117 -1.6095 -1.2663
 6658SOL     OW31435   3.212   0.106   9.941 -0.2325 -0.2232  0.1802
 6658SOL    HW131436   3.265   0.073   9.868  3.3325  1.1683  2.1325
 6658SOL    HW231437   3.225   0.044  10.013 -0.8256  0.5253  0.9360
 6659SOL     OW31438   2.208   2.808   8.327  0.2070  0.3053 -0.1233
 6659SOL    HW131439   2.197   2.761   8.244  1.1492  1.2441 -0.7721
 6659SOL    HW231440   2.210   2.738   8.391 -1.5056 -0.8137 -1.2766
 6660SOL     OW31441   2.161   3.487   1.126  0.4865 -0.5456  0.2661
 6660SOL    HW131442   2.207   3.571   1.124 -0.3835 -0.1773 -3.6752
 6660SOL    HW231443   2.205   3.441   1.055 -1.4849 -0.5364 -0.9424
 6661SOL     OW31444   0.284   3.255   2.000 -0.1964 -0.4035  0.2945
 6661SOL    HW131445   0.238   3.309   1.936  2.5655  0.3636 -1.0378
 6661SOL    HW231446   0.235   3.280   2.078  0.3227  1.9281 -0.1383
 6662SOL     OW31447   1.284   3.381  15.913 -0.3422  0.6290  0.2159
 6662SOL    HW131448   1.336   3.460  15.925  0.4469  0.2659 -0.8201
 6662SOL    HW231449   1.200   3.424  15.893 -1.1560 -0.3089  1.6223
 6663SOL     OW31450   3.730   4.207   6.639 -0.5523  0.0757 -0.0062
 6663SOL    HW131451   3.682   4.281   6.601  0.9022  1.3553  0.6631
 6663SOL    HW231452   3.800   4.196   6.576 -1.5426  1.3815 -1.3225
 6664SOL     OW31453   3.782   1.791   8.499 -0.5339 -0.2822  0.0787
 6664SOL    HW131454   3.780   1.696   8.483 -0.5044 -0.5707  1.8358
 6664SOL    HW231455   3.737   1.804   8.582 -1.5165 -0.1450 -0.4765
 6665SOL     OW31456   2.498   1.863   8.261 -0.1485  0.4275  0.2000
 6665SOL    HW131457   2.506   1.842   8.354  0.7685  1.2963  0.3136
 6665SOL    HW231458   2.589   1.892   8.246 -0.7398  1.9668 -0.4258
 6666SOL     OW31459   1.789   0.765   2.105 -0.1469 -0.4190 -0.6275
 6666SOL    HW131460   1.779   0.742   2.012  0.3498  0.6510 -0.9378
 6666SOL    HW231461   1.700   0.768   2.140  0.0933 -0.7280 -0.0036
 6667SOL     OW31462   4.109   1.489  11.130 -0.5512 -0.1138  0.7310
 6667SOL    HW131463   4.022   1.452  11.143 -0.4890 -0.6725 -0.4265
 6667SOL    HW231464   4.092   1.576  11.165  0.2809  0.8209 -1.2070
 6668SOL     OW31465   1.027   4.537   6.694  0.0871 -0.0014 -0.3192
 6668SOL    HW131466   1.110   4.512   6.654 -0.0848  2.6547 -2.3239
 6668SOL    HW231467   0.993   4.611   6.644  1.8208  2.8010  2.6794
 6669SOL     OW31468   4.580   1.042   2.649 -0.4153 -0.0585  0.1437
 6669SOL    HW131469   4.486   1.048   2.669  0.0530 -0.3758  2.4838
 6669SOL    HW231470   4.586   0.968   2.588  2.1196  0.1614  0.1411
 6670SOL     OW31471   4.711   1.189  13.503 -0.2141 -0.5493  0.5266
 6670SOL    HW131472   4.713   1.274  13.458 -0.9108 -1.6279 -1.5490
 6670SOL    HW231473   4.648   1.201  13.574 -0.0881  0.9485  0.3731
 6671SOL     OW31474   2.327   0.237   2.166 -1.0010  0.4575 -0.8885
 6671SOL    HW131475   2.401   0.290   2.137  1.4318 -2.0700  0.7075
 6671SOL    HW231476   2.257   0.264   2.106  0.6283  1.8973 -2.1328
 6672SOL     OW31477   4.219   1.542  12.158  0.2113 -0.3018  0.1552
 6672SOL    HW131478   4.308   1.571  12.177  0.9470 -1.6779 -1.3011
 6672SOL    HW231479   4.165   1.621  12.151  2.5722  1.3357  0.5416
 6673SOL     OW31480   2.222   2.531   8.499  0.1744 -0.0856 -0.6368
 6673SOL    HW131481   2.269   2.591   8.556  2.0157 -1.4495 -0.7176
 6673SOL    HW231482   2.242   2.449   8.544 -1.9886  0.1056  0.7086
 6674SOL     OW31483   4.459   1.965   4.215  0.0452 -0.0347 -0.5473
 6674SOL    HW131484   4.446   1.950   4.122  2.0987  2.2528 -1.2164
 6674SOL    HW231485   4.370   1.985   4.243  0.9791  2.3566  0.7929
 6675SOL     OW31486   4.608   1.781   7.420 -0.2697 -0.3420 -0.4873
 6675SOL    HW131487   4.606   1.746   7.330 -0.2180 -1.9809  0.1500
 6675SOL    HW231488   4.663   1.712   7.457  1.3052  0.9914 -0.3105
 6676SOL     OW31489   1.149   2.539  10.320 -0.0529  0.1595 -0.2531
 6676SOL    HW131490   1.221   2.554  10.382 -0.2351  0.1687 -0.0400
 6676SOL    HW231491   1.078   2.557  10.381 -0.5342 -2.4710 -0.0282
 6677SOL     OW31492   1.985   3.772   5.147  0.2746  0.6197 -0.4691
 6677SOL    HW131493   2.050   3.794   5.213  0.0443  0.2532 -0.1229
 6677SOL    HW231494   1.906   3.744   5.193  0.8128  1.9783  1.2729
 6678SOL     OW31495   0.275   3.263   0.709 -0.1842  0.3746 -0.0452
 6678SOL    HW131496   0.220   3.302   0.641 -0.9113  3.5311  2.3471
 6678SOL    HW231497   0.315   3.196   0.654  0.0936 -0.1233  0.7547
 6679SOL     OW31498   4.108   0.827  11.431 -0.3051 -0.4398 -0.1565
 6679SOL    HW131499   4.087   0.750  11.379  0.3107 -0.8838  0.2509
 6679SOL    HW231500   4.030   0.882  11.421 -0.3493 -0.5540 -0.4525
 6680SOL     OW31501   3.892   0.365   3.143  0.5273 -0.4832 -0.5081
 6680SOL    HW131502   3.873   0.281   3.183 -1.5977  0.3406  0.1737
 6680SOL    HW231503   3.960   0.335   3.082 -0.0356 -1.1874 -0.7851
 6681SOL     OW31504   4.509   1.144   7.646 -0.2371  0.6820  0.1052
 6681SOL    HW131505   4.444   1.079   7.620  2.2145 -0.9410 -1.9983
 6681SOL    HW231506   4.513   1.197   7.566 -0.3855 -1.1287 -1.1131
 6682SOL     OW31507   2.993   3.192   1.823  0.2621  0.3319 -0.1254
 6682SOL    HW131508   2.949   3.173   1.906  0.2436  0.2874 -0.1452
 6682SOL    HW231509   3.048   3.264   1.851  1.5368 -1.3625  1.6958
 6683SOL     OW31510   1.157   0.821   5.279 -0.1615  0.3151  0.3077
 6683SOL    HW131511   1.170   0.726   5.280  0.0115  0.3473  0.9746
 6683SOL    HW231512   1.174   0.845   5.370  0.1883  1.0512  0.0466
 6684SOL     OW31513   4.009   0.399   3.495  0.0111 -0.2867 -0.5321
 6684SOL    HW131514   4.061   0.393   3.415  0.3100 -1.5672 -0.2315
 6684SOL    HW231515   3.939   0.452   3.457 -2.1375 -0.2577  3.5307
 6685SOL     OW31516   3.887   3.489   3.966  0.2967  0.1932  0.4071
 6685SOL    HW131517   3.973   3.459   3.993 -0.0600 -1.5629 -0.4390
 6685SOL    HW231518   3.910   3.553   3.898  0.1476  0.0430  0.2145
 6686SOL     OW31519   2.916   1.785  13.075  0.0361 -0.2265 -0.3638
 6686SOL    HW131520   2.954   1.772  13.162  0.2847 -0.4356 -0.4997
 6686SOL    HW231521   2.946   1.874  13.061 -0.0671 -0.1319  0.0245
 6687SOL     OW31522   0.727   1.494   7.533 -0.3144 -0.3322  0.0276
 6687SOL    HW131523   0.745   1.563   7.597  1.3950 -2.9152  2.3253
 6687SOL    HW231524   0.647   1.450   7.561 -0.7408  0.3816 -0.0729
 6688SOL     OW31525   0.002   3.936   1.101  0.2366  0.2775  0.0265
 6688SOL    HW131526   0.007   3.988   1.181  0.6027  0.6696 -0.2514
 6688SOL    HW231527   0.095   3.950   1.081  0.3802  0.1824  0.6317
 6689SOL     OW31528   1.431   2.081   4.749  0.2662  0.2434  0.0835
 6689SOL    HW131529   1.516   2.058   4.712 -1.3444 -1.5674 -2.4173
 6689SOL    HW231530   1.376   2.083   4.671  0.8642 -0.2572 -0.3510
 6690SOL     OW31531   1.948   1.262  16.682  0.6286  0.1229 -0.2549
 6690SOL    HW131532   1.964   1.223  16.768  0.0568  2.0671  0.7382
 6690SOL    HW231533   2.007   1.210  16.628  2.1613  0.7105  0.8936
 6691SOL     OW31534   1.745   4.613   3.491 -0.1528  0.4379 -0.4089
 6691SOL    HW131535   1.719   4.631   3.401  0.0290  2.3702 -0.0612
 6691SOL    HW231536   1.837   4.640   3.483  0.2164 -0.2054  1.4827
 6692SOL     OW31537   2.961   2.070   8.164  0.6311 -0.3299  0.4421
 6692SOL    HW131538   2.990   2.155   8.196  0.9206 -0.7403  1.2511
 6692SOL    HW231539   3.013   2.063   8.084  1.0856  0.8690  0.6448
 6693SOL     OW31540   2.468   1.558   1.172 -0.3027 -0.3708 -0.3713
 6693SOL    HW131541   2.394   1.619   1.177  0.1939  0.3338 -1.4409
 6693SOL    HW231542   2.540   1.621   1.180 -0.2420 -0.2391 -1.8502
 6694SOL     OW31543   1.900   1.331   8.529 -0.4663  0.8163 -0.1544
 6694SOL    HW131544   1.882   1.237   8.524  2.4248  0.3010 -0.5178
 6694SOL    HW231545   1.980   1.337   8.478 -0.0421  1.0986  0.5427
 6695SOL     OW31546   2.882   1.788   2.424 -0.2249 -0.4849 -0.1443
 6695SOL    HW131547   2.799   1.753   2.455 -0.7998  0.1592 -0.9384
 6695SOL    HW231548   2.950   1.752   2.481 -0.3441  1.9151  1.4985
 6696SOL     OW31549   0.343   0.663  14.557 -0.4094 -0.1699 -0.0579
 6696SOL    HW131550   0.422   0.702  14.597  0.6208 -2.2592 -0.0737
 6696SOL    HW231551   0.367   0.596  14.493 -0.3131  0.3272 -0.5444
 6697SOL     OW31552   4.225   2.140  17.413  0.3092 -0.3569 -0.1490
 6697SOL    HW131553   4.240   2.053  17.375 -1.7862 -0.5127 -0.6368
 6697SOL    HW231554   4.129   2.144  17.417  0.2722 -0.4948 -0.8506
 6698SOL     OW31555   1.076   0.694   6.663 -0.0209  0.4098 -0.5620
 6698SOL    HW131556   1.015   0.646   6.607 -1.9689 -1.4067  3.1364
 6698SOL    HW231557   1.035   0.690   6.749  1.6526  0.0864  0.2147
 6699SOL     OW31558   4.267   3.143   5.394  0.3453 -0.4998 -0.6375
 6699SOL    HW131559   4.201   3.084   5.360  0.2911  0.7605 -2.7213
 6699SOL    HW231560   4.217   3.215   5.432  0.2565 -0.4004 -0.9525
 6700SOL     OW31561   1.227   1.735   4.045  0.0906  0.1889 -1.0295
 6700SOL    HW131562   1.188   1.714   4.131 -1.4345  0.3234 -1.6868
 6700SOL    HW231563   1.164   1.693   3.986  1.1511 -0.0556 -1.9777
 6701SOL     OW31564   1.155   0.367   4.503 -0.5173  0.2593  0.5624
 6701SOL    HW131565   1.113   0.299   4.556 -0.8952 -1.1486 -1.5496
 6701SOL    HW231566   1.235   0.320   4.481 -0.9285 -0.9569  1.6384
 6702SOL     OW31567   4.422   4.089   1.290 -0.2205 -0.3366 -0.0040
 6702SOL    HW131568   4.359   4.162   1.293 -3.7020 -3.1774 -3.7005
 6702SOL    HW231569   4.503   4.139   1.297  1.3897 -2.7957 -1.1056
 6703SOL     OW31570   3.207   1.036   2.773 -0.4906 -0.4631 -0.0942
 6703SOL    HW131571   3.155   0.957   2.781  1.3675 -1.5232  1.3800
 6703SOL    HW231572   3.228   1.039   2.679 -2.0825  0.0008 -0.4239
 6704SOL     OW31573   1.626   0.334   5.214 -0.4627 -1.3709  0.2291
 6704SOL    HW131574   1.671   0.304   5.136  3.2256 -1.0856  2.2305
 6704SOL    HW231575   1.536   0.303   5.200 -0.7505 -0.5450  0.2575
 6705SOL     OW31576   2.068   2.966   6.061  0.3474 -0.4841  0.3684
 6705SOL    HW131577   2.059   3.000   6.150  1.7228  0.8652 -0.0079
 6705SOL    HW231578   2.004   3.011   6.005  0.2489  0.6137  1.3821
 6706SOL     OW31579   0.999   1.706  11.787 -0.7292 -0.2405  0.2371
 6706SOL    HW131580   0.991   1.760  11.709 -2.5075 -1.0973 -0.1831
 6706SOL    HW231581   1.080   1.733  11.831 -1.0144  0.6796  0.1977
 6707SOL     OW31582   0.271   3.223  14.599 -0.0218  0.0638 -0.0593
 6707SOL    HW131583   0.261   3.298  14.540  0.4354  0.2877  0.1455
 6707SOL    HW231584   0.224   3.155  14.550 -0.3489  1.8083 -2.1556
 6708SOL     OW31585   4.661   3.781   3.909 -0.0639 -0.1739  0.2660
 6708SOL    HW131586   0.022   3.826   3.895  0.0344 -0.1550  0.9010
 6708SOL    HW231587   4.678   3.717   3.978 -0.7887  0.4587  1.0401
 6709SOL     OW31588   0.343   1.460   6.399  0.2050 -0.3048  0.7916
 6709SOL    HW131589   0.249   1.442   6.396 -0.0855  1.3392  0.1591
 6709SOL    HW231590   0.368   1.467   6.491  1.2087  0.4391  0.4622
 6710SOL     OW31591   0.466   2.723  10.233  0.5316  0.5064 -0.1874
 6710SOL    HW131592   0.542   2.742  10.178  1.1737  2.2152  1.3010
 6710SOL    HW231593   0.391   2.754  10.182  0.8246 -0.4129 -1.1732
 6711SOL     OW31594   3.290   3.867  11.876 -0.0664  0.0428 -0.4258
 6711SOL    HW131595   3.280   3.914  11.959 -1.0820 -1.8439  0.5028
 6711SOL    HW231596   3.206   3.885  11.836 -1.3544 -2.4204  1.1631
 6712SOL     OW31597   2.769   2.153   6.075 -0.6498 -0.2242 -0.0636
 6712SOL    HW131598   2.750   2.077   6.130 -0.5860 -0.4332 -0.3300
 6712SOL    HW231599   2.759   2.126   5.983 -1.9580 -3.2269  0.9372
 6713SOL     OW31600   4.261   0.778   6.223 -0.0332  0.4231 -0.0852
 6713SOL    HW131601   4.166   0.781   6.237 -0.3075 -0.9207 -1.5609
 6713SOL    HW231602   4.274   0.698   6.273 -0.7012  1.2945  1.4946
 6714SOL     OW31603   2.072   3.238   8.496  1.0380 -0.6705  0.3434
 6714SOL    HW131604   2.143   3.190   8.539  2.2204  0.4860 -0.2887
 6714SOL    HW231605   2.117   3.259   8.414  0.6624 -1.0311  0.0479
 6715SOL     OW31606   0.245   4.003   8.238  0.4363  0.0675  0.3902
 6715SOL    HW131607   0.260   3.911   8.214 -0.1974 -0.1595  0.8446
 6715SOL    HW231608   0.226   4.043   8.153 -2.5157 -1.7731  0.1526
 6716SOL     OW31609   0.240   2.320  11.710  0.1522  0.0433  0.7369
 6716SOL    HW131610   0.234   2.413  11.732 -0.5120  0.2572 -0.3504
 6716SOL    HW231611   0.316   2.288  11.759 -0.9012 -0.7858  1.8205
 6717SOL     OW31612   4.041   3.823   4.329  0.1375  0.5853 -0.3070
 6717SOL    HW131613   4.128   3.822   4.289 -0.0838 -1.9450 -0.7108
 6717SOL    HW231614   4.051   3.765   4.405  1.1720 -2.0882 -2.4945
 6718SOL     OW31615   1.904   4.224   6.968 -0.1098  0.3607  0.4310
 6718SOL    HW131616   1.859   4.143   6.942  0.6579  0.3196 -0.7904
 6718SOL    HW231617   1.954   4.242   6.888  0.8946  2.0189  1.4347
 6719SOL     OW31618   2.032   0.318   4.892 -0.1249  0.3394 -0.0556
 6719SOL    HW131619   1.999   0.290   4.806  2.2045  0.8227 -1.0967
 6719SOL    HW231620   2.123   0.333   4.866 -0.3900  2.0595  0.0342
 6720SOL     OW31621   1.110   3.746   5.251  0.4491  0.5673 -0.2812
 6720SOL    HW131622   1.015   3.751   5.254  0.5019  1.2541  0.1059
 6720SOL    HW231623   1.140   3.832   5.280 -0.8039  0.1287  2.2983
 6721SOL     OW31624   3.136   3.094  16.437 -0.0999  0.6900 -0.0302
 6721SOL    HW131625   3.148   3.118  16.529  2.1665 -0.6532  0.0458
 6721SOL    HW231626   3.168   3.170  16.388 -0.3416  1.8984  1.6751
 6722SOL     OW31627   2.858   3.832   7.672  0.1950 -0.3094  0.2967
 6722SOL    HW131628   2.866   3.913   7.622 -0.9721  0.8654  1.9978
 6722SOL    HW231629   2.936   3.844   7.726  1.2561  2.3176 -1.8343
 6723SOL     OW31630   3.725   4.115   8.133 -0.3394  0.1713  0.3404
 6723SOL    HW131631   3.637   4.091   8.163  0.6418 -1.9901  1.4215
 6723SOL    HW231632   3.783   4.055   8.178  0.6609  2.0837  1.5993
 6724SOL     OW31633   1.441   1.975   5.522 -0.0953 -0.2543  0.4068
 6724SOL    HW131634   1.457   1.932   5.606  0.2538 -1.6902 -0.3893
 6724SOL    HW231635   1.513   1.938   5.470 -1.4532 -0.2072 -1.4832
 6725SOL     OW31636   1.903   1.438  10.851 -0.1508 -0.2974 -0.1862
 6725SOL    HW131637   1.983   1.477  10.815  0.7092 -0.0578  1.9790
 6725SOL    HW231638   1.893   1.362  10.794 -1.7541 -0.5051  0.3671
 6726SOL     OW31639   0.338   0.445   6.978  0.1245  0.1028 -0.7251
 6726SOL    HW131640   0.274   0.437   7.049  0.7325  0.0360 -0.1910
 6726SOL    HW231641   0.299   0.380   6.919  2.4571  0.7769 -3.0239
 6727SOL     OW31642   4.161   3.986   8.234  0.1442 -0.0610 -0.2909
 6727SOL    HW131643   4.183   3.998   8.326 -1.5114  0.1004  0.0916
 6727SOL    HW231644   4.066   3.998   8.239  0.0623 -0.4551 -0.9009
 6728SOL     OW31645   2.780   4.713   6.349  0.8857  0.4404 -0.0458
 6728SOL    HW131646   2.697   0.037   6.349  1.7440  1.9689  0.4061
 6728SOL    HW231647   2.752   4.656   6.278  3.1198 -2.1489  1.1773
 6729SOL     OW31648   0.061   4.369  15.091  0.1520  0.7227 -0.0826
 6729SOL    HW131649   0.042   4.369  15.185  0.1237 -2.2454 -0.1014
 6729SOL    HW231650   4.706   4.406  15.049 -0.2234  2.2077  1.9216
 6730SOL     OW31651   2.029   1.425   4.980 -0.0913 -0.2620 -0.1174
 6730SOL    HW131652   2.059   1.516   4.974 -0.9806  0.0880  0.5626
 6730SOL    HW231653   2.023   1.416   5.075 -0.7183 -3.1138 -0.4194
 6731SOL     OW31654   0.294   3.229  11.654  0.5292 -0.5570  0.2186
 6731SOL    HW131655   0.251   3.148  11.625  0.0509  0.1266 -1.0088
 6731SOL    HW231656   0.295   3.206  11.747  1.3714 -1.4182 -0.0061
 6732SOL     OW31657   1.842   0.967   4.677  0.1868  0.4683 -0.2227
 6732SOL    HW131658   1.776   1.026   4.643  1.2642  3.2858  2.5590
 6732SOL    HW231659   1.849   0.902   4.606  0.0354 -0.0896  0.2703
 6733SOL     OW31660   1.839   2.841  10.916 -0.3728  0.7273  0.1141
 6733SOL    HW131661   1.761   2.889  10.945 -2.2675 -1.5189 -1.2127
 6733SOL    HW231662   1.861   2.800  10.999 -1.0965 -0.8559 -0.4782
 6734SOL     OW31663   3.824   2.534   2.890  0.1461 -1.0041 -0.0931
 6734SOL    HW131664   3.882   2.501   2.959 -0.7117 -1.3238  0.4668
 6734SOL    HW231665   3.879   2.546   2.812  0.3504 -1.5728 -0.0342
 6735SOL     OW31666   4.693   0.719   4.529  0.2358  0.3275 -0.2476
 6735SOL    HW131667   4.686   0.624   4.525 -2.0676  0.4694  0.1819
 6735SOL    HW231668   0.060   0.734   4.501  0.5564 -1.4442 -0.1561
 6736SOL     OW31669   0.343   2.890  15.571 -0.3614 -0.2558 -0.5971
 6736SOL    HW131670   0.302   2.893  15.484 -2.1438  1.7354  0.3109
 6736SOL    HW231671   0.368   2.979  15.595 -1.6936  0.3014 -1.2341
 6737SOL     OW31672   2.265   2.045   3.048  0.0005 -0.1390 -0.1334
 6737SOL    HW131673   2.291   2.122   3.098 -1.8406 -0.0755  0.7227
 6737SOL    HW231674   2.279   1.971   3.107 -0.2288  1.9274  2.5004
 6738SOL     OW31675   2.630   3.947   9.747 -0.0534  0.2481 -0.7210
 6738SOL    HW131676   2.571   3.900   9.806  0.9102  0.2321  0.2147
 6738SOL    HW231677   2.659   4.029   9.786 -1.6751  0.3383  0.2686
 6739SOL     OW31678   2.844   1.680  14.773  0.4637 -0.6614 -0.3260
 6739SOL    HW131679   2.813   1.739  14.705  0.1029  0.7258  1.0376
 6739SOL    HW231680   2.822   1.735  14.848 -0.7191 -1.1856 -0.2887
 6740SOL     OW31681   0.654   1.084   8.463  0.1374  0.1251 -0.1420
 6740SOL    HW131682   0.680   1.075   8.371 -1.4612  1.4047 -0.6996
 6740SOL    HW231683   0.619   0.998   8.485  0.9867  0.0762  1.0085
 6741SOL     OW31684   2.955   4.619   7.728 -0.0919 -0.2907  0.1261
 6741SOL    HW131685   2.972   4.555   7.797 -0.7550  0.4348  0.9816
 6741SOL    HW231686   3.022   4.600   7.662 -0.0760  1.9593 -0.5333
 6742SOL     OW31687   1.480   2.951   4.383 -0.3396  0.2897  0.0501
 6742SOL    HW131688   1.532   2.932   4.460 -1.4834 -1.0012  0.5015
 6742SOL    HW231689   1.545   2.970   4.316 -0.1102 -0.3287  0.0994
 6743SOL     OW31690   3.506   2.854   0.900  0.0393  0.8748  0.4730
 6743SOL    HW131691   3.418   2.817   0.907 -1.2635  4.2509  2.2037
 6743SOL    HW231692   3.537   2.876   0.988  3.0632 -1.5623  0.0104
 6744SOL     OW31693   3.785   4.492  14.382 -0.0212 -0.2336 -0.1988
 6744SOL    HW131694   3.865   4.544  14.387 -0.8222  1.0944 -1.0097
 6744SOL    HW231695   3.781   4.439  14.461 -1.5798 -0.4456 -0.4180
 6745SOL     OW31696   4.038   1.725   5.271  0.5031 -0.1081 -0.1864
 6745SOL    HW131697   4.025   1.712   5.177 -1.3929 -2.6326  0.3992
 6745SOL    HW231698   4.072   1.638   5.294  0.6458  0.6735  2.5360
 6746SOL     OW31699   3.507   1.311   4.625 -0.0551 -0.0496 -0.1189
 6746SOL    HW131700   3.560   1.251   4.573 -0.7070 -2.1635  1.6425
 6746SOL    HW231701   3.569   1.384   4.622  1.9302 -1.6887  0.6393
 6747SOL     OW31702   2.823   4.500   5.262  0.3467  0.3016  0.2189
 6747SOL    HW131703   2.898   4.457   5.303  0.3019 -0.8271 -0.8925
 6747SOL    HW231704   2.751   4.454   5.304 -0.3284  1.4481  0.3288
 6748SOL     OW31705   0.270   3.594  14.720  0.5815  0.1172 -0.1909
 6748SOL    HW131706   0.216   3.557  14.789 -1.5007 -0.4041 -2.0881
 6748SOL    HW231707   0.221   3.675  14.706  0.4356  0.0111 -0.3066
 6749SOL     OW31708   2.077   1.087   5.051  0.5304  0.3851  0.0234
 6749SOL    HW131709   1.998   1.105   5.101 -1.4151  0.5961 -3.0980
 6749SOL    HW231710   2.083   0.993   5.036 -2.1595  0.6503 -2.7633
 6750SOL     OW31711   3.330   1.237  16.302 -0.0753  0.2932 -0.0074
 6750SOL    HW131712   3.248   1.190  16.288 -1.2690  2.2936  0.3850
 6750SOL    HW231713   3.307   1.294  16.376  3.1303  0.7973  0.6411
 6751SOL     OW31714   1.936   4.697   9.426  0.4045  0.7719  0.6063
 6751SOL    HW131715   1.922   4.656   9.340  2.0351  0.8294  0.3190
 6751SOL    HW231716   1.848   0.008   9.445  0.4678  1.2294  0.1187
 6752SOL     OW31717   3.793   1.828  11.806 -0.2684  0.5516  0.3314
 6752SOL    HW131718   3.719   1.772  11.783 -1.6136  2.0481  1.0098
 6752SOL    HW231719   3.784   1.897  11.739 -2.0203 -0.9232 -0.9375
 6753SOL     OW31720   1.548   1.558   8.081 -0.3292 -0.8363 -0.3801
 6753SOL    HW131721   1.581   1.598   8.001 -2.7630  0.4899 -0.7024
 6753SOL    HW231722   1.627   1.565   8.134 -0.8513 -0.2241  0.3083
 6754SOL     OW31723   4.178   1.297   3.576 -0.1322  0.7643  0.3436
 6754SOL    HW131724   4.163   1.242   3.652 -1.1305  2.6328  1.4915
 6754SOL    HW231725   4.145   1.380   3.610  2.4967  2.8541 -2.1633
 6755SOL     OW31726   0.705   1.804   9.009  0.2791  0.1569 -0.0905
 6755SOL    HW131727   0.631   1.840   9.058 -0.7426  0.1106 -1.5943
 6755SOL    HW231728   0.724   1.884   8.960  2.5339  0.5205  1.4146
 6756SOL     OW31729   2.611   4.356   5.401 -0.1078  0.2057  0.2821
 6756SOL    HW131730   2.603   4.312   5.486  0.7742  1.2036  0.8754
 6756SOL    HW231731   2.528   4.334   5.360  0.2001 -4.5682  2.2062
 6757SOL     OW31732   0.694   2.502   7.371 -0.4269 -0.3439 -0.0973
 6757SOL    HW131733   0.701   2.593   7.341 -0.4088  0.0183  1.0144
 6757SOL    HW231734   0.773   2.465   7.331  0.2136  0.0928  0.7629
 6758SOL     OW31735   3.628   1.232   0.635  0.1446  0.3294  0.4492
 6758SOL    HW131736   3.568   1.282   0.581  2.1267  1.0006 -1.1009
 6758SOL    HW231737   3.709   1.282   0.621  1.7299 -2.8825 -1.9452
 6759SOL     OW31738   2.522   1.642   8.777  0.8050  0.2142 -0.1417
 6759SOL    HW131739   2.517   1.612   8.867 -1.4755 -1.4048 -0.8183
 6759SOL    HW231740   2.501   1.561   8.730 -3.3055  0.7777  0.7396
 6760SOL     OW31741   3.915   0.518   2.157  0.5209 -0.2173 -0.6141
 6760SOL    HW131742   3.946   0.483   2.074 -0.2008 -1.7112 -0.2562
 6760SOL    HW231743   3.831   0.549   2.123  0.3465 -1.5994 -1.4431
 6761SOL     OW31744   1.600   3.831   4.276  0.3901  0.2198  0.4443
 6761SOL    HW131745   1.515   3.852   4.315 -0.2305 -0.7426 -0.3851
 6761SOL    HW231746   1.627   3.917   4.243  0.3305  0.5403  1.2391
 6762SOL     OW31747   3.738   1.887  14.446 -0.0251 -0.2154  0.1132
 6762SOL    HW131748   3.661   1.831  14.450 -1.3153  1.5861  0.1560
 6762SOL    HW231749   3.793   1.825  14.397  0.4403  0.9714 -0.8664
 6763SOL     OW31750   0.553   4.447  14.700 -0.3490  0.1048  0.0005
 6763SOL    HW131751   0.596   4.518  14.748 -0.9311  1.7765 -1.9781
 6763SOL    HW231752   0.611   4.440  14.624  0.9001  1.5527  0.8228
 6764SOL     OW31753   1.107   4.651  15.639  0.6163 -0.3181 -0.3570
 6764SOL    HW131754   1.099   0.010  15.687 -0.9993 -1.3722  1.1617
 6764SOL    HW231755   1.047   4.682  15.571 -0.1467 -0.9862  0.0106
 6765SOL     OW31756   3.567   3.363   7.168  0.1587  0.2130 -0.3162
 6765SOL    HW131757   3.513   3.437   7.198 -1.8710 -2.1668  1.9817
 6765SOL    HW231758   3.573   3.302   7.242 -2.0644 -0.2743 -0.5233
 6766SOL     OW31759   1.482   2.191   6.270 -0.3959  0.0202 -0.8836
 6766SOL    HW131760   1.562   2.243   6.261 -0.2205 -0.0530  0.1963
 6766SOL    HW231761   1.427   2.242   6.210 -1.0327  1.5947  1.0403
 6767SOL     OW31762   3.535   0.100  12.316  0.5624 -0.1445 -0.4150
 6767SOL    HW131763   3.543   0.044  12.240  0.5347 -1.9571  0.9246
 6767SOL    HW231764   3.440   0.091  12.326  0.7684 -0.0515  1.7425
 6768SOL     OW31765   1.995   4.535  14.989 -0.6325  0.5205 -0.4881
 6768SOL    HW131766   1.976   4.600  15.057  0.6079  0.1699  0.1803
 6768SOL    HW231767   1.922   4.549  14.928 -3.4214 -1.1675  2.4262
 6769SOL     OW31768   0.117   3.369   0.935  0.1528  0.1410  0.2090
 6769SOL    HW131769   0.148   3.328   0.855 -1.1383  0.6747 -0.5710
 6769SOL    HW231770   0.194   3.362   0.991  1.2816  3.6138 -0.9118
 6770SOL     OW31771   4.660   1.815   3.143  0.2033  0.0575 -0.0939
 6770SOL    HW131772   0.020   1.861   3.138  0.8497 -1.2846 -1.5094
 6770SOL    HW231773   4.624   1.834   3.056 -1.0364  0.0903  0.4131
 6771SOL     OW31774   0.104   4.676   7.056  0.8588  0.5293 -0.2999
 6771SOL    HW131775   0.144   0.026   7.105 -2.3174  1.5450  0.8272
 6771SOL    HW231776   0.080   4.614   7.125 -0.0851  0.2037 -0.9203
 6772SOL     OW31777   2.352   3.759  15.851  0.1975  0.4431 -0.2123
 6772SOL    HW131778   2.425   3.706  15.820  0.4571  0.7048 -0.0478
 6772SOL    HW231779   2.385   3.817  15.920  0.3298 -0.4648  0.4898
 6773SOL     OW31780   3.544   3.920  11.797 -0.3160 -0.1047 -0.2077
 6773SOL    HW131781   3.541   4.015  11.806  0.2344 -0.0092 -0.9954
 6773SOL    HW231782   3.452   3.899  11.812 -0.1818  1.0320  2.3024
 6774SOL     OW31783   3.513   3.066   5.573  0.1728 -0.0823 -0.2617
 6774SOL    HW131784   3.505   2.971   5.566  2.3445 -0.2242 -0.7503
 6774SOL    HW231785   3.545   3.092   5.486  0.1781 -0.9605 -0.5149
 6775SOL     OW31786   2.488   3.599   5.440 -0.5251 -0.3148 -0.3874
 6775SOL    HW131787   2.553   3.601   5.510 -0.2503  1.5753 -0.7092
 6775SOL    HW231788   2.492   3.692   5.420  3.1356 -0.2480  0.6810
 6776SOL     OW31789   2.801   4.456   0.766 -0.2041  0.2749 -0.0333
 6776SOL    HW131790   2.815   4.488   0.677  1.6530 -1.7069 -0.4426
 6776SOL    HW231791   2.803   4.538   0.816  0.3103  0.0161  0.3737
 6777SOL     OW31792   3.194   2.423   1.544 -0.6314  0.5007  0.0858
 6777SOL    HW131793   3.256   2.485   1.507 -0.5161 -0.3287 -1.0765
 6777SOL    HW231794   3.247   2.384   1.613  1.8088  2.6197 -0.5745
 6778SOL     OW31795   4.035   1.371  13.606 -0.4358 -0.6986  0.2277
 6778SOL    HW131796   4.099   1.441  13.611  0.0535 -1.0905 -0.5947
 6778SOL    HW231797   4.031   1.335  13.517  1.7145 -2.2630  0.7682
 6779SOL     OW31798   2.673   1.600  11.002  0.1103 -0.2022  0.0613
 6779SOL    HW131799   2.708   1.670  10.946  0.8151  0.4695  1.3447
 6779SOL    HW231800   2.619   1.562  10.933 -2.7080  1.1928  1.4929
 6780SOL     OW31801   1.409   0.565   6.056 -0.3672 -0.8530  0.6387
 6780SOL    HW131802   1.491   0.607   6.079 -1.5703  1.4996  0.6334
 6780SOL    HW231803   1.376   0.607   5.976  0.7867 -2.4623 -0.6676
 6781SOL     OW31804   1.235   0.995   5.492 -0.1040  0.2041 -0.6821
 6781SOL    HW131805   1.208   1.087   5.499 -1.1495 -0.2493  1.1497
 6781SOL    HW231806   1.208   0.957   5.575 -1.3282  1.1560 -0.6436
 6782SOL     OW31807   4.568   3.461   2.306  0.0541 -0.2674 -0.2440
 6782SOL    HW131808   4.661   3.480   2.319  0.7140 -2.0454 -2.3165
 6782SOL    HW231809   4.553   3.488   2.216 -0.3212 -0.1980 -0.1599
 6783SOL     OW31810   3.558   1.164   7.941  0.3325  0.0941 -0.5805
 6783SOL    HW131811   3.478   1.181   7.991  1.5740 -2.4281  2.2680
 6783SOL    HW231812   3.581   1.080   7.979 -0.9647 -0.5605 -1.2358
 6784SOL     OW31813   2.217   0.780  10.588  0.1190  0.0436 -0.3101
 6784SOL    HW131814   2.146   0.728  10.627  1.0474 -0.1704  1.0872
 6784SOL    HW231815   2.218   0.862  10.637  1.0356  0.4646 -1.0217
 6785SOL     OW31816   2.727   2.197  12.371  0.3984  0.9225  0.1754
 6785SOL    HW131817   2.674   2.242  12.306  0.8379  1.2115  0.0130
 6785SOL    HW231818   2.706   2.106  12.349  2.2353  0.7306 -0.7918
 6786SOL     OW31819   0.601   4.483   3.828 -0.0409  0.6100 -0.1620
 6786SOL    HW131820   0.511   4.450   3.831 -0.5423  1.8619 -1.5106
 6786SOL    HW231821   0.631   4.438   3.749  0.3911  0.2939  0.1875
 6787SOL     OW31822   4.158   2.460   2.062  0.6598  0.3591  0.1903
 6787SOL    HW131823   4.245   2.423   2.044  1.2948  2.9213 -1.9002
 6787SOL    HW231824   4.107   2.425   1.989 -1.0953 -0.4252  1.7752
 6788SOL     OW31825   1.409   0.076   3.072 -0.2720  0.1930 -0.4184
 6788SOL    HW131826   1.490   0.052   3.117  0.8857  1.3816 -1.8232
 6788SOL    HW231827   1.381   4.717   3.031 -0.6624 -1.2165  2.7531
 6789SOL     OW31828   2.468   2.063   2.785 -0.1228  0.2196 -0.0809
 6789SOL    HW131829   2.379   2.031   2.802 -0.0290  1.1181  2.0165
 6789SOL    HW231830   2.466   2.158   2.796 -0.9944  0.0008  1.6231
 6790SOL     OW31831   3.423   1.992   8.665 -0.1389  0.2546 -0.3122
 6790SOL    HW131832   3.344   1.944   8.691  0.2566  1.1415  2.5425
 6790SOL    HW231833   3.491   1.930   8.689 -0.2363 -0.2968 -1.4977
 6791SOL     OW31834   2.126   2.626   2.734 -0.1207 -0.2055  0.8539
 6791SOL    HW131835   2.209   2.631   2.686  0.9876  0.4172  2.8746
 6791SOL    HW231836   2.061   2.656   2.670  0.4474 -0.7668  0.0121
 6792SOL     OW31837   3.417   1.208   5.387 -0.8676  0.4299 -0.2634
 6792SOL    HW131838   3.337   1.255   5.364  1.1121  3.9080  0.0507
 6792SOL    HW231839   3.434   1.179   5.297 -2.8693  1.2310 -0.8893
 6793SOL     OW31840   1.123   3.881   7.149  0.3040 -1.2066  0.4213
 6793SOL    HW131841   1.126   3.952   7.214 -0.7862 -0.8364  0.0786
 6793SOL    HW231842   1.108   3.810   7.211  1.5249 -1.7505  0.0851
 6794SOL     OW31843   1.638   3.279   1.185 -0.0647  0.0420 -0.2178
 6794SOL    HW131844   1.716   3.246   1.230  0.1789  1.7330  0.6062
 6794SOL    HW231845   1.631   3.354   1.244  0.8624  0.4008 -0.5561
 6795SOL     OW31846   4.352   1.014  12.376  0.0173 -0.8370  0.0262
 6795SOL    HW131847   4.427   0.961  12.403 -0.0069  0.0905  1.9245
 6795SOL    HW231848   4.280   0.952  12.381 -1.3168  0.5931 -1.4971
 6796SOL     OW31849   1.010   4.630   5.082  0.5335  0.1337 -0.3292
 6796SOL    HW131850   0.940   4.568   5.104  1.4820 -0.8980 -0.2139
 6796SOL    HW231851   0.971   4.678   5.009  1.5325  0.5919 -0.5642
 6797SOL     OW31852   4.026   2.397   8.361 -0.2940  0.9038 -0.1602
 6797SOL    HW131853   4.046   2.457   8.290 -3.1681  1.1890 -0.7233
 6797SOL    HW231854   3.937   2.425   8.382 -0.3700  0.9638 -0.5639
 6798SOL     OW31855   2.997   0.025   0.147  0.1177 -0.5860 -0.2358
 6798SOL    HW131856   3.020   0.022   0.054  1.2923 -0.2842  0.0511
 6798SOL    HW231857   3.055   4.681   0.183  1.0625  0.4043  0.0729
 6799SOL     OW31858   2.561   1.308   2.509 -0.5126  0.3510  0.5735
 6799SOL    HW131859   2.571   1.269   2.423 -0.3695 -2.3340  1.8101
 6799SOL    HW231860   2.550   1.236   2.571  1.8766 -0.4197  0.0988
 6800SOL     OW31861   2.150   4.277  14.644  0.1818 -0.4417  0.7327
 6800SOL    HW131862   2.207   4.235  14.579 -1.4397 -1.4455 -0.0323
 6800SOL    HW231863   2.180   4.368  14.656  1.5268 -0.8842  0.7457
 6801SOL     OW31864   0.022   3.356  17.111 -0.5443  0.2769  0.5902
 6801SOL    HW131865   0.032   3.348  17.206 -0.6065 -0.5710  0.5280
 6801SOL    HW231866   0.029   3.262  17.095 -1.8058  0.2221  0.3967
 6802SOL     OW31867   3.894   0.815   1.528 -0.0317  0.7419  0.7497
 6802SOL    HW131868   3.905   0.899   1.483 -1.7425  0.2593 -0.5763
 6802SOL    HW231869   3.799   0.808   1.517 -0.2991  0.5603  3.1017
 6803SOL     OW31870   3.680   3.654   8.188 -0.0829 -0.3096 -0.3854
 6803SOL    HW131871   3.699   3.560   8.181 -0.7497 -0.4479 -0.3278
 6803SOL    HW231872   3.621   3.666   8.262 -0.4118  1.0497 -0.8552
 6804SOL     OW31873   0.473   4.193   9.268 -0.0194  0.0606  0.0956
 6804SOL    HW131874   0.416   4.166   9.196 -1.0084  0.1641  0.8269
 6804SOL    HW231875   0.470   4.104   9.304 -2.0771 -0.2825 -0.8748
 6805SOL     OW31876   4.275   1.477   3.367  0.0817  0.3766  0.7611
 6805SOL    HW131877   4.351   1.472   3.424 -0.7056 -2.0159  1.5745
 6805SOL    HW231878   4.215   1.423   3.419 -0.2654  1.8947  1.9504
 6806SOL     OW31879   3.218   3.351   2.754  0.0906 -0.4382 -0.0704
 6806SOL    HW131880   3.158   3.326   2.824 -0.4284  1.5270  0.1938
 6806SOL    HW231881   3.263   3.425   2.795 -0.8263 -0.1305  0.3763
 6807SOL     OW31882   4.611   4.451  12.764 -0.1559  0.5227  0.0480
 6807SOL    HW131883   4.598   4.477  12.673  0.1043 -2.4468 -0.8515
 6807SOL    HW231884   4.574   4.519  12.821 -0.0930  0.9201 -0.3903
 6808SOL     OW31885   3.246   4.502   3.252  0.2608  0.1442 -0.2156
 6808SOL    HW131886   3.203   4.490   3.337 -1.9749 -1.4746 -1.6005
 6808SOL    HW231887   3.175   4.542   3.202 -0.6721  2.1247  2.6988
 6809SOL     OW31888   1.670   0.148  17.115 -0.0828 -0.1927 -0.4176
 6809SOL    HW131889   1.643   0.087  17.047 -1.0669  0.5029 -0.6531
 6809SOL    HW231890   1.702   0.225  17.068 -1.2134  1.3994  1.3968
 6810SOL     OW31891   4.414   1.589   3.647 -0.8903  0.1888  0.1385
 6810SOL    HW131892   4.320   1.574   3.635 -0.9535 -1.0447  2.2229
 6810SOL    HW231893   4.430   1.588   3.741  1.2550 -0.1558 -0.2329
 6811SOL     OW31894   2.143   2.260  16.518 -0.1805 -0.3621 -0.1070
 6811SOL    HW131895   2.107   2.192  16.460  1.2300  0.0738 -1.4942
 6811SOL    HW231896   2.230   2.261  16.479 -0.5653 -1.6458 -1.0041
 6812SOL     OW31897   4.478   3.877  14.443  0.0645 -0.1590 -0.3895
 6812SOL    HW131898   4.549   3.813  14.442 -0.7707 -1.0950  0.7276
 6812SOL    HW231899   4.443   3.848  14.358 -0.6508  1.6491 -0.7142
 6813SOL     OW31900   0.203   2.637  14.678  0.1944 -0.5619  0.1691
 6813SOL    HW131901   0.286   2.643  14.630 -0.3647 -1.0020 -0.8587
 6813SOL    HW231902   0.180   2.730  14.687  1.0517 -0.5654  2.2905
 6814SOL     OW31903   0.645   4.529  13.046 -0.4099  0.5967  0.2736
 6814SOL    HW131904   0.731   4.537  13.087  0.1028  0.0756 -0.6937
 6814SOL    HW231905   0.608   4.613  13.073 -1.7911  0.1070 -0.1205
 6815SOL     OW31906   0.056   2.985  15.148 -0.0656  0.3535 -0.0976
 6815SOL    HW131907   0.050   3.079  15.137 -0.8730  0.1242 -1.6457
 6815SOL    HW231908   0.076   2.966  15.056  0.0604  1.2484 -0.2503
 6816SOL     OW31909   0.773   3.844   5.545  0.1937  0.2157 -0.3521
 6816SOL    HW131910   0.784   3.773   5.608 -3.4844  0.1560  0.2200
 6816SOL    HW231911   0.807   3.924   5.586 -0.8992  0.4422  0.1143
 6817SOL     OW31912   3.122   3.906   9.032 -0.1558  0.3822 -0.4277
 6817SOL    HW131913   3.173   3.983   9.059  0.2002 -0.3308  0.9345
 6817SOL    HW231914   3.033   3.940   9.024 -0.0961  0.2625 -1.5901
 6818SOL     OW31915   3.070   3.802   8.012 -0.1209 -0.3813  0.7824
 6818SOL    HW131916   3.099   3.886   7.977 -1.5632 -0.6534 -1.0759
 6818SOL    HW231917   3.070   3.747   7.934  0.7853  0.7105  0.0180
 6819SOL     OW31918   3.424   0.492   3.481 -0.0140  0.2578  0.0075
 6819SOL    HW131919   3.416   0.535   3.567 -3.1827  1.7027 -1.0133
 6819SOL    HW231920   3.502   0.524   3.435 -0.0733 -0.3417 -0.5059
 6820SOL     OW31921   0.462   4.094   8.691  0.4758 -0.6701  0.1020
 6820SOL    HW131922   0.397   4.144   8.641  0.1560 -0.9057  0.2856
 6820SOL    HW231923   0.511   4.160   8.742 -0.4654  0.3155 -0.2586
 6821SOL     OW31924   3.931   0.547   9.324 -0.0950 -0.6803 -0.0768
 6821SOL    HW131925   3.853   0.578   9.369 -0.3728 -1.5495  0.0267
 6821SOL    HW231926   3.911   0.594   9.243  0.1176 -0.4200  0.0221
 6822SOL     OW31927   2.341   0.058   7.009  0.1837 -0.0252  0.3265
 6822SOL    HW131928   2.379   0.025   6.928  0.2933  1.4440 -0.2135
 6822SOL    HW231929   2.248   0.041   6.998 -0.0683 -0.0509  2.4189
 6823SOL     OW31930   3.727   4.116  11.471  0.1234 -0.1307  0.5628
 6823SOL    HW131931   3.729   4.105  11.376 -0.7126  1.0465  0.4073
 6823SOL    HW231932   3.637   4.148  11.479 -0.2252 -0.5386 -1.7860
 6824SOL     OW31933   1.900   3.712  10.080 -0.0153 -0.4056 -0.0205
 6824SOL    HW131934   1.955   3.766  10.138  2.0251 -2.0792 -0.3631
 6824SOL    HW231935   1.817   3.758  10.090  1.2726  1.7646  0.5583
 6825SOL     OW31936   4.520   0.441   2.933  0.4885  0.1419  0.1292
 6825SOL    HW131937   4.610   0.443   2.900 -0.4558  0.9916 -2.3876
 6825SOL    HW231938   4.530   0.490   3.015 -0.3942  1.7155 -0.7005
 6826SOL     OW31939   3.021   2.938   3.601 -0.0375 -0.5443  0.1475
 6826SOL    HW131940   2.993   3.019   3.644 -0.6542 -1.3435  1.2462
 6826SOL    HW231941   3.104   2.925   3.647 -0.0900  2.5715  1.1249
 6827SOL     OW31942   4.414   2.004   6.446  0.0366  0.3608 -0.1142
 6827SOL    HW131943   4.372   2.076   6.397 -1.6576 -0.9994 -0.6576
 6827SOL    HW231944   4.488   1.976   6.392  0.4442 -0.0771  0.6790
 6828SOL     OW31945   3.284   3.735  12.466 -0.3917  0.0144  0.5875
 6828SOL    HW131946   3.254   3.644  12.460  1.7938 -0.7570  1.2414
 6828SOL    HW231947   3.324   3.748  12.380  1.0594  1.5410  1.4819
 6829SOL     OW31948   0.028   1.354   7.564 -0.1915  0.4683 -0.2691
 6829SOL    HW131949   4.705   1.427   7.607 -0.6134  0.2014 -0.2674
 6829SOL    HW231950   0.008   1.287   7.630 -1.7992  0.0021 -1.2420
 6830SOL     OW31951   1.972   1.372  11.453 -0.0588  0.1735  0.6359
 6830SOL    HW131952   1.962   1.462  11.420 -0.4089 -0.1698 -0.1873
 6830SOL    HW231953   1.994   1.334  11.368 -1.2658  1.6618 -0.3476
 6831SOL     OW31954   1.688   1.462   3.738  0.6737 -0.2131 -0.2964
 6831SOL    HW131955   1.721   1.446   3.826  1.0443 -0.9310 -0.5666
 6831SOL    HW231956   1.600   1.496   3.749  0.1809 -1.4878 -0.2839
 6832SOL     OW31957   1.168   4.283   8.528 -0.3120  0.4736  0.4524
 6832SOL    HW131958   1.203   4.318   8.611  3.0168 -0.2102 -0.6367
 6832SOL    HW231959   1.197   4.357   8.475  2.0715 -1.1514 -0.5591
 6833SOL     OW31960   3.908   1.100   5.823  0.1114  0.3124  0.1560
 6833SOL    HW131961   3.933   1.008   5.816 -0.8305  0.0846 -0.1937
 6833SOL    HW231962   3.816   1.108   5.800  0.2328  0.7243 -0.1775
 6834SOL     OW31963   2.067   3.385  12.889  0.3817 -0.0696 -0.6846
 6834SOL    HW131964   2.086   3.476  12.910 -2.1432 -0.0561  1.4178
 6834SOL    HW231965   2.036   3.352  12.974 -1.2118  0.7725 -0.9509
 6835SOL     OW31966   2.995   4.424   7.047  0.0591 -0.3890  0.2732
 6835SOL    HW131967   3.041   4.344   7.024 -0.1424 -0.6865  0.9173
 6835SOL    HW231968   2.958   4.466   6.969 -0.2412  0.3347  0.8062
 6836SOL     OW31969   3.205   4.622  14.554  0.5055  0.5324  0.1312
 6836SOL    HW131970   3.193   4.717  14.555 -2.6281  0.1311 -1.4707
 6836SOL    HW231971   3.116   4.593  14.536  1.1757  1.4848 -4.6551
 6837SOL     OW31972   1.846   3.749   5.936  0.0971  0.6252 -0.6690
 6837SOL    HW131973   1.824   3.694   6.012 -0.6101  1.2179 -0.4535
 6837SOL    HW231974   1.921   3.794   5.975  0.6872  0.7902 -1.9966
 6838SOL     OW31975   0.956   0.311   8.101 -0.3149  0.1003 -0.0668
 6838SOL    HW131976   1.019   0.306   8.173  0.7082  0.4368 -0.9358
 6838SOL    HW231977   0.906   0.385   8.135  0.3156 -0.7574  2.6815
 6839SOL     OW31978   0.601   1.996   6.039  0.0702  0.1776  0.5846
 6839SOL    HW131979   0.582   2.026   5.950  0.4759  0.3984  0.5745
 6839SOL    HW231980   0.512   1.986   6.072 -0.6758 -2.0334 -2.0737
 6840SOL     OW31981   3.164   4.556   0.260 -0.4680  0.2339 -0.2383
 6840SOL    HW131982   3.258   4.574   0.262 -0.2461 -1.0622  1.6192
 6840SOL    HW231983   3.151   4.511   0.344  0.4959 -1.7814 -1.1670
 6841SOL     OW31984   4.157   2.825   4.817  0.7802 -0.3312  0.0002
 6841SOL    HW131985   4.110   2.848   4.737  1.6245  0.6397 -0.2117
 6841SOL    HW231986   4.247   2.814   4.785  0.1522  0.2987 -1.9226
 6842SOL     OW31987   0.572   0.917  13.014  0.0207  0.7178 -0.1028
 6842SOL    HW131988   0.629   0.913  13.090  1.4614  0.9270 -1.1623
 6842SOL    HW231989   0.487   0.942  13.051 -0.0525 -0.5957  0.5824
 6843SOL     OW31990   3.369   0.690  15.924  0.0308  0.1738  0.4429
 6843SOL    HW131991   3.355   0.681  16.019  4.7228 -0.0732  1.1007
 6843SOL    HW231992   3.356   0.785  15.922  3.3235  0.5662 -1.7459
 6844SOL     OW31993   4.401   2.388   2.013  0.3364  0.0902  0.4091
 6844SOL    HW131994   4.400   2.301   1.974 -0.6972 -0.8085  2.5138
 6844SOL    HW231995   4.469   2.379   2.079 -2.9012 -1.2717  3.5010
 6845SOL     OW31996   1.367   0.759   2.468 -0.1983  0.2643  0.0031
 6845SOL    HW131997   1.328   0.703   2.401  0.7729  0.6319 -0.8656
 6845SOL    HW231998   1.343   0.847   2.438  0.1666  0.0508 -0.9168
 6846SOL     OW31999   1.253   0.364   4.193  0.0555 -0.0023 -0.1460
 6846SOL    HW132000   1.192   0.309   4.144 -0.3478 -0.5190  0.9383
 6846SOL    HW232001   1.216   0.452   4.188  1.2099  0.3975 -1.7246
 6847SOL     OW32002   3.650   1.216   9.702  0.6286 -0.2479 -0.6262
 6847SOL    HW132003   3.710   1.284   9.733  0.7164  0.3959 -2.2110
 6847SOL    HW232004   3.694   1.136   9.731  1.2907  0.1813 -0.4204
 6848SOL     OW32005   1.406   1.311   4.996 -0.2915  0.2126 -0.1500
 6848SOL    HW132006   1.448   1.235   4.956 -0.9948 -0.1469 -0.2166
 6848SOL    HW232007   1.397   1.370   4.921  0.3009 -1.6709 -1.7082
 6849SOL     OW32008   2.346   3.001   8.197 -0.5194  0.1089 -0.3795
 6849SOL    HW132009   2.296   2.926   8.230 -0.1874 -0.2636 -0.7407
 6849SOL    HW232010   2.436   2.971   8.190 -0.6751 -0.2699 -0.7465
 6850SOL     OW32011   0.075   3.210   1.421  0.0458 -0.7473  0.3940
 6850SOL    HW132012   4.718   3.205   1.475  0.9802 -0.5577  1.7974
 6850SOL    HW232013   0.053   3.283   1.363 -1.4691 -0.0863  1.7582
 6851SOL     OW32014   4.650   4.267   7.402  0.2738 -0.2454  0.4050
 6851SOL    HW132015   4.674   4.183   7.442  2.0461  0.5019  0.9236
 6851SOL    HW232016   4.556   4.273   7.419  0.1547  1.1170 -0.8064
 6852SOL     OW32017   1.175   1.455   0.829  0.2755 -1.0833  0.2856
 6852SOL    HW132018   1.182   1.515   0.755 -1.3693 -1.8870 -0.5414
 6852SOL    HW232019   1.080   1.449   0.841 -0.1832  1.1914 -2.1303
 6853SOL     OW32020   1.823   2.829   6.151  0.5215  0.5163  0.4375
 6853SOL    HW132021   1.894   2.824   6.088  1.3650 -0.0642  1.4431
 6853SOL    HW232022   1.835   2.902   6.212  2.4947  0.4616  0.1113
 6854SOL     OW32023   1.203   1.144   7.893  0.6737  0.6643 -0.0254
 6854SOL    HW132024   1.123   1.187   7.861  1.6165  1.6149 -1.0885
 6854SOL    HW232025   1.257   1.221   7.913  1.3212  0.4393 -0.9279
 6855SOL     OW32026   1.535   2.575  11.427  0.7787  0.0406 -0.1770
 6855SOL    HW132027   1.526   2.520  11.349 -0.1909  0.8445 -0.6246
 6855SOL    HW232028   1.527   2.506  11.494 -1.1095  1.0347  0.6078
 6856SOL     OW32029   4.183   2.354   9.052  0.9867  0.5139 -0.2985
 6856SOL    HW132030   4.227   2.272   9.075 -0.3352  0.5396  2.2794
 6856SOL    HW232031   4.121   2.318   8.990  0.4664 -0.5545  0.8446
 6857SOL     OW32032   3.805   1.867   7.761  0.4333  0.3572  0.3996
 6857SOL    HW132033   3.851   1.786   7.781  1.5996  0.4484 -1.8904
 6857SOL    HW232034   3.858   1.928   7.812  1.0888 -1.3549  1.7412
 6858SOL     OW32035   1.428   3.490  13.305 -0.0097  0.1745 -0.5665
 6858SOL    HW132036   1.503   3.432  13.320  0.8454  1.3139 -0.4838
 6858SOL    HW232037   1.461   3.578  13.321  0.5070 -0.0082 -0.6176
 6859SOL     OW32038   1.353   2.340   3.332 -0.0489 -0.2200  0.0697
 6859SOL    HW132039   1.349   2.246   3.316 -0.1368 -0.5388  1.9601
 6859SOL    HW232040   1.440   2.370   3.355 -0.0683  1.1633 -1.6039
 6860SOL     OW32041   3.288   3.033  13.715  0.3553 -0.1301  0.3888
 6860SOL    HW132042   3.352   2.981  13.763 -0.3652 -1.3818 -0.0217
 6860SOL    HW232043   3.290   3.108  13.775  0.6042  0.1434  0.0368
 6861SOL     OW32044   4.554   0.391   8.291 -0.0177 -0.4016 -0.2494
 6861SOL    HW132045   4.515   0.424   8.372  0.5494 -0.6837  0.1379
 6861SOL    HW232046   4.566   0.300   8.318 -2.8318 -0.9738 -0.8051
 6862SOL     OW32047   3.464   2.413   9.558 -0.0442 -0.0523 -0.5860
 6862SOL    HW132048   3.427   2.395   9.645  0.9360  0.7850  0.0058
 6862SOL    HW232049   3.548   2.368   9.562 -0.6136 -1.0580 -0.0695
 6863SOL     OW32050   1.206   3.047   1.587 -0.3089 -0.1846 -0.0218
 6863SOL    HW132051   1.224   2.985   1.658  0.4753 -1.0861 -1.0091
 6863SOL    HW232052   1.289   3.094   1.597 -2.1724  2.9831  0.4603
 6864SOL     OW32053   1.881   2.674  13.629  0.1342 -0.2243 -0.4082
 6864SOL    HW132054   1.797   2.628  13.630 -1.0524  1.9790 -0.2990
 6864SOL    HW232055   1.902   2.636  13.715  1.4029 -1.1894 -1.1385
 6865SOL     OW32056   2.059   3.587   4.427  0.6216  0.5330 -0.3438
 6865SOL    HW132057   2.090   3.563   4.514 -0.1301 -1.1952 -0.5663
 6865SOL    HW232058   1.968   3.616   4.434  1.2200  1.9631  1.5185
 6866SOL     OW32059   4.493   0.092   9.985  0.2327 -0.0119  0.4217
 6866SOL    HW132060   4.418   0.126   9.937 -2.0980 -1.0218  3.3674
 6866SOL    HW232061   4.462   0.004  10.008 -0.0707  0.1214  0.5142
 6867SOL     OW32062   3.466   1.248   6.490  0.3715  0.1829 -0.3410
 6867SOL    HW132063   3.375   1.251   6.518  0.4527  1.5441 -0.1931
 6867SOL    HW232064   3.506   1.276   6.573 -0.2021 -0.1791  0.0530
 6868SOL     OW32065   0.046   1.288  15.980  0.5512 -0.0485  0.1275
 6868SOL    HW132066   0.044   1.384  15.975 -0.2288 -0.0192  0.9456
 6868SOL    HW232067   0.017   1.259  16.066  0.3630  2.8350  1.0166
 6869SOL     OW32068   1.697   0.324   9.576  0.6097  0.1421 -0.1165
 6869SOL    HW132069   1.687   0.229   9.574  1.5002  0.0548 -0.3194
 6869SOL    HW232070   1.618   0.362   9.538 -0.1782 -1.2053  0.1688
 6870SOL     OW32071   1.788   1.795   6.459  0.5389  0.2372  0.1526
 6870SOL    HW132072   1.821   1.883   6.441 -1.1970  1.0732  1.0798
 6870SOL    HW232073   1.838   1.750   6.527 -0.3028 -3.2095 -1.5257
 6871SOL     OW32074   3.663   3.377  17.384 -0.0490 -0.2709 -0.2816
 6871SOL    HW132075   3.636   3.454  17.434  0.6503  0.1276 -0.5321
 6871SOL    HW232076   3.717   3.341  17.454 -1.3213  0.0924  0.8750
 6872SOL     OW32077   0.337   2.304   6.320 -0.1625 -0.1603 -0.0373
 6872SOL    HW132078   0.289   2.295   6.237  1.7796  3.4817 -1.5483
 6872SOL    HW232079   0.262   2.333   6.372  1.1096  0.9030  1.1828
 6873SOL     OW32080   2.532   3.899  10.174  0.0074 -0.3620 -0.2164
 6873SOL    HW132081   2.495   3.813  10.156 -0.8435 -0.0942  0.2309
 6873SOL    HW232082   2.622   3.867  10.188 -0.3357 -0.6861  1.2679
 6874SOL     OW32083   1.968   0.872   5.455  0.0076 -0.3162  0.6248
 6874SOL    HW132084   2.020   0.835   5.526  1.3234 -2.0535 -1.2303
 6874SOL    HW232085   1.975   0.967   5.460 -2.2931 -0.0398 -1.1195
 6875SOL     OW32086   2.217   2.458   1.892 -0.1736  0.0143  0.0679
 6875SOL    HW132087   2.275   2.386   1.916 -0.6510 -0.1248  0.8175
 6875SOL    HW232088   2.139   2.405   1.873 -0.9037  0.3881  1.9559
 6876SOL     OW32089   2.659   3.000   6.201 -0.0338  0.2844  0.0695
 6876SOL    HW132090   2.721   2.957   6.260 -2.7692 -2.3636  0.9779
 6876SOL    HW232091   2.715   3.076   6.183 -0.0748  0.0252 -1.1516
 6877SOL     OW32092   1.001   3.448   3.181  0.5737 -0.1747  0.4824
 6877SOL    HW132093   1.042   3.534   3.187 -2.3478  1.2867 -0.0634
 6877SOL    HW232094   1.017   3.411   3.267  1.7167  0.6010  0.6050
 6878SOL     OW32095   0.597   0.167   6.930 -0.1832  0.2998  0.2514
 6878SOL    HW132096   0.524   0.144   6.986 -0.5971 -1.8724 -1.1899
 6878SOL    HW232097   0.603   0.093   6.869 -0.6242  1.2704 -0.9623
 6879SOL     OW32098   0.257   3.206   8.214  0.4414 -0.2162  0.1427
 6879SOL    HW132099   0.337   3.155   8.225  1.5694  1.4708 -0.1547
 6879SOL    HW232100   0.192   3.138   8.233  1.9732 -2.0295 -1.0780
 6880SOL     OW32101   4.163   4.296   1.616 -1.1134  0.4444 -0.0248
 6880SOL    HW132102   4.073   4.264   1.630 -1.7107  1.8496 -0.6094
 6880SOL    HW232103   4.218   4.219   1.632 -1.8849  0.0040  0.5362
 6881SOL     OW32104   1.376   3.453  14.488 -0.2224 -0.6732 -0.2502
 6881SOL    HW132105   1.391   3.481  14.579  1.6076 -0.7811 -0.5067
 6881SOL    HW232106   1.334   3.368  14.501  0.1029 -0.9858 -1.2431
 6882SOL     OW32107   2.817   0.741  10.779 -0.0249  0.3652  0.0738
 6882SOL    HW132108   2.800   0.739  10.685 -1.6956  0.5517  0.3718
 6882SOL    HW232109   2.895   0.797  10.784  0.8334 -0.7316 -1.1369
 6883SOL     OW32110   4.703   4.688   9.121  0.1052  0.1460  0.0685
 6883SOL    HW132111   4.613   4.695   9.154 -0.0850  0.5315 -0.5203
 6883SOL    HW232112   0.013   0.052   9.142  1.4726  0.0638 -1.7008
 6884SOL     OW32113   1.280   2.515   5.070 -0.8151  0.3080  0.0246
 6884SOL    HW132114   1.190   2.520   5.038 -0.6741  0.0280 -0.4188
 6884SOL    HW232115   1.323   2.460   5.004 -2.8542 -0.0945 -0.9707
 6885SOL     OW32116   4.111   1.099   6.043 -0.4491 -0.1564 -0.9073
 6885SOL    HW132117   4.040   1.119   5.982  0.2340  1.6429 -1.1025
 6885SOL    HW232118   4.062   1.076   6.122  2.0649 -0.0917  0.6736
 6886SOL     OW32119   3.809   1.469  10.875 -0.5350 -0.1343  0.2415
 6886SOL    HW132120   3.898   1.448  10.901 -0.2751  1.4212  0.6118
 6886SOL    HW232121   3.764   1.392  10.910  1.4718 -1.8802 -1.0039
 6887SOL     OW32122   0.764   3.141   1.124  0.3462  0.1859  0.1776
 6887SOL    HW132123   0.702   3.181   1.064  0.1101 -0.3769  0.0473
 6887SOL    HW232124   0.748   3.050   1.101 -2.5922  0.5993  0.5525
 6888SOL     OW32125   4.687   0.817   8.556 -0.6697  0.4398 -0.2225
 6888SOL    HW132126   0.021   0.809   8.632 -1.8585  0.5674  0.6649
 6888SOL    HW232127   4.646   0.733   8.577  4.2541 -1.1026  3.3083
 6889SOL     OW32128   0.866   2.491  13.025  0.0891 -0.7429  0.2896
 6889SOL    HW132129   0.881   2.584  13.036  0.3172 -0.3702 -3.4005
 6889SOL    HW232130   0.826   2.478  13.111  0.3169 -0.5135  0.4295
 6890SOL     OW32131   4.674   1.777   6.013 -0.3369  0.2720  0.0247
 6890SOL    HW132132   0.039   1.763   5.977 -0.8324 -1.0399 -0.6500
 6890SOL    HW232133   4.688   1.747   6.103  1.6199  0.9124 -0.0609
 6891SOL     OW32134   3.930   2.981   2.703  0.1583 -0.0995  0.1559
 6891SOL    HW132135   4.020   2.993   2.733  0.1906 -3.6783  1.5298
 6891SOL    HW232136   3.898   3.071   2.700  2.2685  0.6503  0.4711
 6892SOL     OW32137   1.370   2.013   0.927  0.2851 -0.0028 -0.9899
 6892SOL    HW132138   1.386   1.923   0.955 -1.0543  0.0391 -0.0913
 6892SOL    HW232139   1.450   2.029   0.878  0.9331 -1.1766 -0.3181
 6893SOL     OW32140   1.221   3.955  13.461  0.3103 -0.4817  0.2706
 6893SOL    HW132141   1.317   3.960  13.469  0.5627 -0.8975 -2.5065
 6893SOL    HW232142   1.204   4.048  13.477 -0.4527 -1.1699  3.4765
 6894SOL     OW32143   0.893   4.093   0.903  0.0447 -0.5069 -0.5030
 6894SOL    HW132144   0.972   4.143   0.883 -0.4063  0.7906  0.9513
 6894SOL    HW232145   0.832   4.143   0.848  0.4788  0.5386 -0.0224
 6895SOL     OW32146   1.356   0.929   8.458  0.0949  0.2356 -0.0865
 6895SOL    HW132147   1.366   0.887   8.373  2.8842 -0.5024  0.6264
 6895SOL    HW232148   1.364   1.021   8.434 -0.4689  0.0097 -1.1452
 6896SOL     OW32149   0.282   2.709   3.453  0.3048  0.2361 -0.5591
 6896SOL    HW132150   0.258   2.704   3.360 -1.0570  0.8739 -0.2382
 6896SOL    HW232151   0.219   2.655   3.501  0.6874  0.4737  0.2108
 6897SOL     OW32152   1.494   0.652  12.215 -0.0675 -0.1953 -0.5265
 6897SOL    HW132153   1.577   0.644  12.169  0.1147  0.9151 -0.3907
 6897SOL    HW232154   1.467   0.561  12.225 -1.3962  0.2894  0.2313
 6898SOL     OW32155   3.619   0.926   8.077 -0.2079  0.0443  0.6334
 6898SOL    HW132156   3.582   0.877   8.004 -3.5717  2.8452  0.4547
 6898SOL    HW232157   3.560   0.884   8.139  1.6754 -3.1094  0.3177
 6899SOL     OW32158   2.537   0.853  14.188 -0.1538 -0.7416 -0.0368
 6899SOL    HW132159   2.476   0.780  14.180 -0.2524 -0.9015  2.0430
 6899SOL    HW232160   2.500   0.882  14.272  0.0958 -1.4414  0.3172
 6900SOL     OW32161   3.650   1.395   4.284 -0.1139  0.5872  0.4647
 6900SOL    HW132162   3.560   1.365   4.302 -0.5783  2.1143  0.6873
 6900SOL    HW232163   3.694   1.380   4.368 -2.9140 -1.9114  1.5086
 6901SOL     OW32164   0.159   4.625  11.180  0.3315  0.4275 -0.0386
 6901SOL    HW132165   0.156   4.624  11.275 -0.3585  0.9502 -0.0470
 6901SOL    HW232166   0.238   4.573  11.169 -1.2943 -1.6805 -1.9036
 6902SOL     OW32167   0.923   2.786   2.290  0.8217  0.7578 -0.0536
 6902SOL    HW132168   0.916   2.776   2.196 -0.9846  1.1087  0.0338
 6902SOL    HW232169   0.832   2.764   2.312  0.8310  1.3276  0.5418
 6903SOL     OW32170   1.291   0.604   3.030  0.1432 -0.5572  0.5504
 6903SOL    HW132171   1.198   0.623   3.043  0.1866 -0.9225  1.3915
 6903SOL    HW232172   1.298   0.521   2.983 -0.7783 -0.1829 -0.2465
 6904SOL     OW32173   0.898   0.699   5.686 -0.0118  0.2691 -0.0497
 6904SOL    HW132174   0.914   0.793   5.695 -0.7495  0.4863 -0.9492
 6904SOL    HW232175   0.960   0.668   5.621 -0.3300 -1.5355  0.4909
 6905SOL     OW32176   3.997   0.512   7.517  0.2687  0.1673 -0.3341
 6905SOL    HW132177   4.092   0.499   7.509  0.4124  0.4736  0.9824
 6905SOL    HW232178   3.973   0.453   7.587 -2.4880  2.4957  0.7068
 6906SOL     OW32179   2.835   2.043   5.838  0.4895  0.0820  0.4250
 6906SOL    HW132180   2.852   1.949   5.845  1.6310  0.2464 -0.1387
 6906SOL    HW232181   2.812   2.051   5.745 -0.4344  1.1971  0.7509
 6907SOL     OW32182   1.270   2.925   9.680 -0.3560  0.2733  0.0326
 6907SOL    HW132183   1.255   2.897   9.590 -0.4919 -1.2923  0.5479
 6907SOL    HW232184   1.249   2.845   9.729  0.9418 -0.5939 -0.8197
 6908SOL     OW32185   4.057   2.267   0.215  0.3073  0.3154  0.3300
 6908SOL    HW132186   4.135   2.296   0.168  1.5333 -4.5317 -0.6000
 6908SOL    HW232187   4.047   2.179   0.179  0.7941  1.1321 -1.7552
 6909SOL     OW32188   2.733   1.086   4.330 -0.0213 -0.0937 -0.1436
 6909SOL    HW132189   2.807   1.142   4.306 -0.3436  0.6580  0.6240
 6909SOL    HW232190   2.717   1.126   4.415 -1.7201  0.6545 -0.8104
 6910SOL     OW32191   4.005   2.792   6.690  0.3788  0.0853 -0.0543
 6910SOL    HW132192   3.992   2.705   6.652 -0.1314  0.7770 -1.4604
 6910SOL    HW232193   4.099   2.802   6.679  0.3505  1.6394  1.2698
 6911SOL     OW32194   4.546   4.063   8.409 -0.3260 -0.2666 -1.0064
 6911SOL    HW132195   4.568   4.151   8.379  1.4007  0.3506  2.0066
 6911SOL    HW232196   4.597   4.060   8.490 -2.7856 -0.1196  0.5306
 6912SOL     OW32197   1.874   0.031  10.409  0.5289  0.3224  0.2167
 6912SOL    HW132198   1.964   0.029  10.377  0.7872 -1.3697  1.0423
 6912SOL    HW232199   1.828   0.022  10.326  3.3362 -0.2102 -1.2813
 6913SOL     OW32200   4.434   3.223   6.359  0.2040 -0.0654 -0.0237
 6913SOL    HW132201   4.370   3.175   6.412 -0.7978 -0.1032 -1.2694
 6913SOL    HW232202   4.506   3.227   6.422  0.6393 -1.9129 -0.4163
 6914SOL     OW32203   1.379   3.006  14.800  0.2955  0.2537 -0.3520
 6914SOL    HW132204   1.375   3.018  14.706  0.0409 -0.2314 -0.3986
 6914SOL    HW232205   1.468   3.040  14.811  0.3206  0.5349 -1.4688
 6915SOL     OW32206   2.253   1.405   9.536  0.2086  0.5602  0.5407
 6915SOL    HW132207   2.227   1.428   9.446  0.3692  0.6268  0.5105
 6915SOL    HW232208   2.264   1.310   9.535 -0.7100  0.4591 -1.4217
 6916SOL     OW32209   2.791   4.327  16.354  0.2631  0.5228 -0.0591
 6916SOL    HW132210   2.827   4.246  16.317 -0.3828  1.0098 -1.7447
 6916SOL    HW232211   2.866   4.385  16.343  1.7676 -1.1094  1.5688
 6917SOL     OW32212   2.299   0.849   1.599 -0.6516  0.1597  0.0905
 6917SOL    HW132213   2.224   0.900   1.569 -0.6880  0.5513  0.8442
 6917SOL    HW232214   2.310   0.879   1.690 -1.5924  0.8486 -0.0250
 6918SOL     OW32215   3.200   3.598   9.427 -0.2556  0.8580 -0.0691
 6918SOL    HW132216   3.138   3.640   9.367 -1.5376 -1.9014 -0.6525
 6918SOL    HW232217   3.219   3.523   9.370  0.6682  0.4781  0.7328
 6919SOL     OW32218   2.425   1.462   8.590 -0.0179 -0.0212 -0.0852
 6919SOL    HW132219   2.337   1.458   8.627 -0.9092  0.6180 -2.1192
 6919SOL    HW232220   2.467   1.383   8.623 -0.0860 -0.6797 -1.5586
 6920SOL     OW32221   2.276   2.632   8.102  0.3625  0.1725 -0.8503
 6920SOL    HW132222   2.318   2.645   8.017 -0.7455  2.6053 -1.0208
 6920SOL    HW232223   2.311   2.546   8.124  5.5641  1.8685 -2.3246
 6921SOL     OW32224   1.247   2.713   4.775  0.0573  0.4428 -0.2375
 6921SOL    HW132225   1.166   2.664   4.792 -1.6991  2.5981 -2.3395
 6921SOL    HW232226   1.220   2.751   4.691  0.0825  2.0059  0.4589
 6922SOL     OW32227   3.540   4.596  11.826  0.1288  0.5985  0.3431
 6922SOL    HW132228   3.547   4.542  11.748  2.9874 -0.6396  1.4909
 6922SOL    HW232229   3.577   4.678  11.793 -0.8253  1.3254  1.0549
 6923SOL     OW32230   0.341   2.186  15.455 -0.1500  0.1981  0.3056
 6923SOL    HW132231   0.313   2.110  15.405  1.9988 -1.1883  1.2279
 6923SOL    HW232232   0.401   2.227  15.392  0.8930 -0.1260  1.0843
 6924SOL     OW32233   3.691   1.822   4.979 -0.6408  0.6272 -0.0641
 6924SOL    HW132234   3.605   1.781   4.983 -0.7414  1.0660  2.3275
 6924SOL    HW232235   3.668   1.908   5.015  0.0230  0.0687  1.7160
 6925SOL     OW32236   2.279   4.123   5.454 -0.1026  0.1508 -0.2521
 6925SOL    HW132237   2.189   4.155   5.455  0.2695  1.2168 -0.7717
 6925SOL    HW232238   2.301   4.146   5.544 -1.4130  0.0119  0.1023
 6926SOL     OW32239   2.167   2.978   7.103  0.0595  0.0770  0.0321
 6926SOL    HW132240   2.209   2.982   7.018 -0.7482 -0.4638 -0.3942
 6926SOL    HW232241   2.101   2.910   7.087 -2.2057  2.1949  0.2755
 6927SOL     OW32242   2.716   0.617   3.533 -0.2295  0.2150 -0.5416
 6927SOL    HW132243   2.625   0.597   3.513  0.0039  0.2125 -1.6156
 6927SOL    HW232244   2.750   0.651   3.450 -2.0720  0.2964 -1.2614
 6928SOL     OW32245   3.591   0.935   3.788 -0.7303 -0.6406 -0.2131
 6928SOL    HW132246   3.498   0.961   3.790 -0.6343 -0.3861  0.7584
 6928SOL    HW232247   3.613   0.945   3.880  0.9974  1.4433 -0.8564
 6929SOL     OW32248   1.880   1.673   4.717  0.2219  0.1101  0.5674
 6929SOL    HW132249   1.870   1.682   4.812 -1.1260 -0.0266  0.4477
 6929SOL    HW232250   1.813   1.727   4.676  1.8066  0.6931 -1.2587
 6930SOL     OW32251   2.147   3.726   7.136 -0.5204 -0.0106  0.2108
 6930SOL    HW132252   2.133   3.801   7.195  1.9720  0.7929 -0.1851
 6930SOL    HW232253   2.095   3.664   7.187 -1.0850 -0.8696 -1.4124
 6931SOL     OW32254   1.595   3.826   2.368 -0.1591  0.2577  0.0895
 6931SOL    HW132255   1.531   3.893   2.347 -0.2798 -0.2320 -1.1163
 6931SOL    HW232256   1.660   3.872   2.420  0.0310  1.1149 -0.9152
 6932SOL     OW32257   3.383   1.699   6.384  0.2407  0.6228  0.3415
 6932SOL    HW132258   3.415   1.750   6.458  1.8069 -0.2335  0.2519
 6932SOL    HW232259   3.329   1.767   6.344  0.0883  0.5955  0.4977
 6933SOL     OW32260   0.580   3.678  12.383  0.2443  0.2778  0.0735
 6933SOL    HW132261   0.620   3.695  12.469  0.4423 -0.7109  0.1786
 6933SOL    HW232262   0.608   3.587  12.374 -1.9135 -0.4788  0.9410
 6934SOL     OW32263   4.470   2.459   8.486 -0.2213  0.1361 -0.0860
 6934SOL    HW132264   4.500   2.528   8.426  0.0095  0.6784  0.6577
 6934SOL    HW232265   4.401   2.501   8.538  1.7554 -0.0338  2.6631
 6935SOL     OW32266   2.167   1.132   8.762 -0.3360  0.3531  0.3206
 6935SOL    HW132267   2.157   1.224   8.738 -0.3579  0.4516  0.6974
 6935SOL    HW232268   2.246   1.128   8.817 -0.2850 -2.8310 -0.0054
 6936SOL     OW32269   0.215   2.430   5.809 -0.2827 -0.5318  0.3631
 6936SOL    HW132270   0.234   2.507   5.756  0.2538  0.2326  1.6792
 6936SOL    HW232271   0.299   2.408   5.849 -0.9796 -1.1235  1.5136
 6937SOL     OW32272   3.594   3.714   2.852 -0.9819 -0.2098  0.2586
 6937SOL    HW132273   3.536   3.761   2.912 -1.1359  0.6838 -0.5900
 6937SOL    HW232274   3.540   3.702   2.774 -2.6387  0.3772  1.3278
 6938SOL     OW32275   3.444   1.038  10.284 -0.0503 -0.4709 -0.3578
 6938SOL    HW132276   3.530   1.044  10.243 -0.0313  1.9695  0.0863
 6938SOL    HW232277   3.395   1.053  10.203 -2.3611  0.1643  1.1690
 6939SOL     OW32278   2.294   1.508   5.903  0.2570  0.4605 -0.0302
 6939SOL    HW132279   2.215   1.469   5.942 -0.3285  0.3206 -1.3727
 6939SOL    HW232280   2.258   1.510   5.814 -0.5246  2.0709  0.3282
 6940SOL     OW32281   3.868   0.102   5.927  0.9387 -0.1252 -0.4995
 6940SOL    HW132282   3.854   0.126   6.019  1.9496 -0.0929 -0.3593
 6940SOL    HW232283   3.909   0.178   5.886  0.2292 -0.9028 -2.6597
 6941SOL     OW32284   0.939   2.533  12.567 -0.3651 -0.1127 -0.4663
 6941SOL    HW132285   1.005   2.482  12.519 -1.6765 -0.3057 -2.0705
 6941SOL    HW232286   0.946   2.613  12.514 -2.8029  0.0649 -0.5329
 6942SOL     OW32287   3.434   3.748  10.803  1.0074 -0.1169 -0.7180
 6942SOL    HW132288   3.393   3.664  10.781  0.4521 -0.1514  0.4835
 6942SOL    HW232289   3.497   3.753  10.731 -0.3913 -0.8460 -1.9889
 6943SOL     OW32290   4.420   4.508   6.973  0.1556  0.0188 -0.6768
 6943SOL    HW132291   4.459   4.434   7.020  2.5767  1.9346  0.3369
 6943SOL    HW232292   4.500   4.541   6.931  0.9413 -0.8654  0.1115
 6944SOL     OW32293   1.896   2.320  16.266 -0.1510 -0.1307  0.0548
 6944SOL    HW132294   1.846   2.401  16.260 -1.0708 -0.6337  1.0434
 6944SOL    HW232295   1.985   2.356  16.275 -0.3134 -0.7921  4.1616
 6945SOL     OW32296   0.660   2.343   3.543 -0.2949 -0.2850  0.0148
 6945SOL    HW132297   0.623   2.431   3.531  0.3879  0.0196  0.1165
 6945SOL    HW232298   0.753   2.365   3.538 -0.4432  0.6702  1.3701
 6946SOL     OW32299   2.454   3.382   3.146 -0.2423  0.1458  0.2097
 6946SOL    HW132300   2.470   3.379   3.241 -1.8753  0.1770  0.4846
 6946SOL    HW232301   2.467   3.291   3.122 -1.5286  0.4707 -1.7050
 6947SOL     OW32302   1.853   0.431   8.045  0.0139  0.1085  0.3072
 6947SOL    HW132303   1.840   0.498   7.979  0.6226  0.8161  0.9016
 6947SOL    HW232304   1.793   0.463   8.113  0.2806 -0.0495  0.6185
 6948SOL     OW32305   3.133   2.766   9.058  0.4073  0.2551  0.0440
 6948SOL    HW132306   3.133   2.707   8.982 -0.0659 -0.8235  0.8821
 6948SOL    HW232307   3.071   2.836   9.036 -0.0943 -0.1007  0.3161
 6949SOL     OW32308   2.556   2.360   3.050  0.4945  0.2170  0.0366
 6949SOL    HW132309   2.603   2.303   2.989  1.5990  0.7689  0.3731
 6949SOL    HW232310   2.611   2.438   3.048 -2.5682  2.3223 -1.3291
 6950SOL     OW32311   0.181   1.107   2.262 -0.1903 -0.2165  0.3397
 6950SOL    HW132312   0.141   1.074   2.343  1.1051 -2.0817  0.2170
 6950SOL    HW232313   0.258   1.052   2.248 -0.9413 -1.4017  0.8581
 6951SOL     OW32314   1.243   0.736   9.091  0.3159 -1.1119 -0.4059
 6951SOL    HW132315   1.219   0.690   9.171 -0.7203  2.0010  1.0843
 6951SOL    HW232316   1.288   0.666   9.045  1.6743 -0.0646 -0.6597
 6952SOL     OW32317   3.165   1.571   2.041 -0.2230 -0.4803 -0.0638
 6952SOL    HW132318   3.218   1.527   2.108 -2.4510 -1.6073  0.9644
 6952SOL    HW232319   3.213   1.653   2.032  1.5604 -1.4053  1.0369
 6953SOL     OW32320   3.883   2.244  11.329  0.1423  0.4620 -0.3389
 6953SOL    HW132321   3.839   2.315  11.376  2.9444  1.6785  0.4382
 6953SOL    HW232322   3.812   2.200  11.283  2.7495 -3.6319 -0.4093
 6954SOL     OW32323   0.844   0.106   2.011  0.3132 -0.6701 -0.4805
 6954SOL    HW132324   0.890   0.023   2.027 -1.2163 -1.6195 -1.0131
 6954SOL    HW232325   0.811   0.081   1.925 -2.4619  2.2018 -0.2366
 6955SOL     OW32326   4.616   1.072   6.894 -0.0899 -0.7293  0.3290
 6955SOL    HW132327   4.666   1.153   6.905 -0.3455 -0.1481 -2.6799
 6955SOL    HW232328   4.644   1.044   6.807 -1.2825 -2.6708  0.5730
 6956SOL     OW32329   2.558   0.268   5.433  0.1470  0.9415 -0.2522
 6956SOL    HW132330   2.504   0.347   5.423  1.2064  1.8920  1.6454
 6956SOL    HW232331   2.515   0.206   5.374  2.3023 -0.5601 -0.2121
 6957SOL     OW32332   2.035   4.107  14.815 -0.5367 -0.2304  0.4968
 6957SOL    HW132333   2.066   4.177  14.757  0.1633 -0.4013  0.6602
 6957SOL    HW232334   2.107   4.096  14.878  0.3079  0.6564 -0.3180
 6958SOL     OW32335   1.497   3.336   7.089  0.2196 -0.2563 -0.1307
 6958SOL    HW132336   1.593   3.333   7.098  0.4321 -1.3876 -2.7219
 6958SOL    HW232337   1.467   3.245   7.091 -0.0375 -0.2026 -1.5422
 6959SOL     OW32338   4.526   0.368   9.195 -0.0855  0.4519  0.0085
 6959SOL    HW132339   4.608   0.414   9.181  0.1948  0.5519  1.9621
 6959SOL    HW232340   4.475   0.446   9.216  3.4194  2.2790  1.6252
 6960SOL     OW32341   4.289   4.177   4.988 -0.2690  0.0724  0.5717
 6960SOL    HW132342   4.266   4.114   5.056  0.2981  0.8186  1.4561
 6960SOL    HW232343   4.382   4.162   4.971 -0.5890 -1.5443  0.3025
 6961SOL     OW32344   0.710   4.213  15.097 -0.0920 -0.1920  0.1889
 6961SOL    HW132345   0.701   4.307  15.082 -0.2981 -0.2666 -0.1502
 6961SOL    HW232346   0.797   4.211  15.138 -0.2501  2.1504  0.6229
 6962SOL     OW32347   2.628   0.336   6.951 -0.1526  0.8760 -0.5565
 6962SOL    HW132348   2.634   0.405   7.017 -2.4379  0.5094  0.0624
 6962SOL    HW232349   2.601   0.264   7.007 -0.2598  1.2652 -0.1056
 6963SOL     OW32350   0.097   2.254   6.793 -0.4285 -0.3620 -0.0353
 6963SOL    HW132351   0.175   2.216   6.831 -0.1490 -2.1783 -2.4185
 6963SOL    HW232352   0.106   2.346   6.816 -0.3383  0.1896 -2.2391
 6964SOL     OW32353   1.680   1.606   7.616  0.1456  0.5293  0.2105
 6964SOL    HW132354   1.609   1.554   7.651  0.9451 -1.2443 -0.8171
 6964SOL    HW232355   1.752   1.543   7.626  0.0856  0.1497 -1.6640
 6965SOL     OW32356   3.342   1.639   3.522  0.3111 -0.5553  0.0625
 6965SOL    HW132357   3.410   1.631   3.589 -0.5346  0.5989  1.0642
 6965SOL    HW232358   3.288   1.707   3.564  0.5150 -0.4203  0.1054
 6966SOL     OW32359   4.506   2.413  14.352  0.0212  0.1768 -0.3608
 6966SOL    HW132360   4.493   2.427  14.258 -0.9731  1.5702 -0.0056
 6966SOL    HW232361   4.417   2.378  14.360 -0.1922  0.5898 -0.9397
 6967SOL     OW32362   2.674   4.232   5.652  0.2789 -0.5119 -0.1013
 6967SOL    HW132363   2.704   4.148   5.615  1.2832 -0.0061 -0.4309
 6967SOL    HW232364   2.760   4.256   5.688  0.3901 -3.1723  1.4025
 6968SOL     OW32365   1.768   4.196  14.754  0.5661  0.0416 -0.2431
 6968SOL    HW132366   1.847   4.143  14.763 -0.1519 -0.7292  1.5988
 6968SOL    HW232367   1.747   4.212  14.846  0.5375 -0.0976 -0.2244
 6969SOL     OW32368   0.871   0.142  13.306 -0.0265 -0.6272 -0.0873
 6969SOL    HW132369   0.930   0.217  13.301  1.3517 -1.5800  1.8986
 6969SOL    HW232370   0.832   0.143  13.218 -0.0283  0.0206 -0.0803
 6970SOL     OW32371   1.946   4.371   3.763 -0.9053 -0.2381 -0.0147
 6970SOL    HW132372   1.995   4.425   3.701 -1.6248  1.1282  0.5873
 6970SOL    HW232373   1.864   4.350   3.719  1.0688 -2.0032 -2.8379
 6971SOL     OW32374   4.062   3.020   4.529  0.4487 -0.1900  0.8643
 6971SOL    HW132375   4.110   3.053   4.453 -0.6628 -0.4429  0.0512
 6971SOL    HW232376   4.045   2.929   4.506 -1.3812  0.0082  1.3740
 6972SOL     OW32377   1.184   1.275   5.532 -0.1574 -0.3249 -0.8572
 6972SOL    HW132378   1.217   1.332   5.463  0.1645 -0.2285 -0.6222
 6972SOL    HW232379   1.249   1.289   5.601 -0.4328 -0.3957 -0.5806
 6973SOL     OW32380   0.131   1.703   5.479 -0.3686  0.3476  0.0374
 6973SOL    HW132381   0.114   1.795   5.456 -3.2175 -0.0586  0.4699
 6973SOL    HW232382   0.216   1.710   5.521 -0.7123  1.7128  0.5041
 6974SOL     OW32383   2.232   1.848   5.507 -0.7589  0.4474  0.2474
 6974SOL    HW132384   2.143   1.812   5.505 -0.3924 -0.5370  1.7492
 6974SOL    HW232385   2.231   1.906   5.431  0.5624 -1.8704 -1.5520
 6975SOL     OW32386   1.048   3.131   9.488  0.0100  0.2041 -0.5224
 6975SOL    HW132387   1.063   3.051   9.437  0.8867 -0.0509  0.1285
 6975SOL    HW232388   1.130   3.172   9.459  0.7438 -1.4788 -0.8511
 6976SOL     OW32389   4.214   0.706   4.776  0.3780  0.1584 -0.3765
 6976SOL    HW132390   4.227   0.800   4.787  1.6711 -0.1028  0.3352
 6976SOL    HW232391   4.283   0.668   4.722  0.5527 -0.3495  0.2163
 6977SOL     OW32392   1.692   4.072   6.001  0.5647 -0.4281  0.0809
 6977SOL    HW132393   1.657   4.157   5.975 -1.4962 -1.0517  0.8359
 6977SOL    HW232394   1.788   4.078   5.995  0.6434 -0.5517  1.1908
 6978SOL     OW32395   3.826   1.110  13.905  0.1179 -0.0155 -0.2972
 6978SOL    HW132396   3.901   1.082  13.852  0.9659 -0.5793  1.2080
 6978SOL    HW232397   3.761   1.041  13.892 -0.3748 -0.0253  2.2003
 6979SOL     OW32398   1.599   3.615   6.789 -1.1257 -0.3384 -0.4508
 6979SOL    HW132399   1.608   3.521   6.773 -2.2537 -0.7254  1.2336
 6979SOL    HW232400   1.685   3.648   6.760 -0.5925  0.3580  1.9384
 6980SOL     OW32401   3.799   3.918   4.947  0.4584 -0.0594 -0.0111
 6980SOL    HW132402   3.807   3.823   4.933 -1.4365 -0.6836  3.1996
 6980SOL    HW232403   3.706   3.934   4.931  0.0946 -0.4601  1.6993
 6981SOL     OW32404   4.535   1.237   3.771  0.2835 -0.2124  0.0334
 6981SOL    HW132405   4.630   1.241   3.761  0.5177 -2.3455  1.4003
 6981SOL    HW232406   4.530   1.185   3.851  1.2375  2.6965  1.9540
 6982SOL     OW32407   4.697   2.385   5.217 -0.0419 -0.0904 -0.3354
 6982SOL    HW132408   0.003   2.446   5.285 -0.5050 -0.2715  0.0270
 6982SOL    HW232409   0.008   2.425   5.137 -2.4229 -1.0603 -1.8402
 6983SOL     OW32410   1.266   0.561   2.669  0.0414  0.6088 -0.3054
 6983SOL    HW132411   1.319   0.591   2.743  0.9902 -1.6105 -0.0722
 6983SOL    HW232412   1.279   0.622   2.597 -1.8913  0.8040 -0.5041
 6984SOL     OW32413   0.916   1.245   5.612 -0.2690  0.1955 -0.4723
 6984SOL    HW132414   1.010   1.248   5.590 -0.7019  0.3004 -2.2805
 6984SOL    HW232415   0.888   1.336   5.618  1.9517  0.8657  0.0075
 6985SOL     OW32416   3.810   3.971   1.741  0.1238  0.2154 -0.7957
 6985SOL    HW132417   3.718   3.943   1.750  0.3570 -0.6105 -0.9604
 6985SOL    HW232418   3.849   3.884   1.734 -0.3216 -0.0562  0.1129
 6986SOL     OW32419   1.272   0.319   4.867  0.4434  0.3457 -0.0807
 6986SOL    HW132420   1.257   0.413   4.861 -0.8392  0.1895  0.6810
 6986SOL    HW232421   1.354   0.298   4.823 -0.3357 -1.4932 -0.6502
 6987SOL     OW32422   3.792   3.480  14.499  0.3433 -0.2091  0.2129
 6987SOL    HW132423   3.773   3.573  14.510  0.6785 -0.3713  2.2183
 6987SOL    HW232424   3.773   3.470  14.406  1.6115 -2.3278  0.1875
 6988SOL     OW32425   4.523   0.120   9.294 -0.0011 -0.3086  0.4460
 6988SOL    HW132426   4.436   0.096   9.326 -1.1938  1.9678 -1.0935
 6988SOL    HW232427   4.519   0.211   9.266 -1.8111 -1.3196 -2.6215
 6989SOL     OW32428   1.393   0.822  15.582  0.2985 -0.3686  0.3929
 6989SOL    HW132429   1.298   0.818  15.568 -0.1296  0.8405  3.1056
 6989SOL    HW232430   1.413   0.912  15.609  1.7440 -0.1663 -1.3197
 6990SOL     OW32431   1.004   1.500  13.436  0.4157  0.1234 -0.4271
 6990SOL    HW132432   1.081   1.485  13.492  0.3959 -0.6306 -0.5970
 6990SOL    HW232433   0.951   1.430  13.473 -1.8156  1.3017 -1.4362
 6991SOL     OW32434   2.950   1.277   7.429  0.0832 -0.1489 -0.0489
 6991SOL    HW132435   2.971   1.371   7.433  1.5046 -0.4511 -0.4964
 6991SOL    HW232436   2.980   1.262   7.340 -2.0838  0.5962 -0.9018
 6992SOL     OW32437   3.591   0.944   6.567 -0.3447 -0.3839  0.0825
 6992SOL    HW132438   3.635   0.923   6.650 -1.2430  2.8715  1.3906
 6992SOL    HW232439   3.637   1.021   6.534 -0.7815 -0.5452 -0.8980
 6993SOL     OW32440   0.233   1.432  14.930  0.0626 -0.1585  0.0734
 6993SOL    HW132441   0.179   1.353  14.939  1.6898 -1.3845 -0.8032
 6993SOL    HW232442   0.308   1.393  14.885 -1.9948 -2.4451 -1.3935
 6994SOL     OW32443   2.910   3.720   3.731 -0.2867  0.3938 -0.3024
 6994SOL    HW132444   2.988   3.774   3.718 -0.4420  1.2940  2.4783
 6994SOL    HW232445   2.924   3.640   3.681 -1.5905 -0.0767  0.0796
 6995SOL     OW32446   3.196   2.808   7.810 -0.0798  0.4867 -0.1881
 6995SOL    HW132447   3.254   2.780   7.880 -0.4604  0.0447 -0.0577
 6995SOL    HW232448   3.239   2.755   7.743  2.3329 -2.1089  3.4729
 6996SOL     OW32449   4.634   3.792   6.884 -0.5262 -0.3835 -0.3494
 6996SOL    HW132450   4.618   3.705   6.847  3.6205 -0.4615 -1.8766
 6996SOL    HW232451   4.582   3.801   6.964  0.0222  0.3140 -0.0706
 6997SOL     OW32452   3.041   0.313  10.031  0.4184  0.1864 -0.1133
 6997SOL    HW132453   3.099   0.238  10.016  0.9693  0.4856  0.5410
 6997SOL    HW232454   2.951   0.284  10.012  0.6804  1.1611 -2.7633
 6998SOL     OW32455   3.218   4.664   6.443 -0.2311  0.4451  0.6258
 6998SOL    HW132456   3.139   4.717   6.453 -0.3161  0.2285  1.1001
 6998SOL    HW232457   3.275   0.018   6.434  0.6467 -0.5674 -2.3835
 6999SOL     OW32458   0.628   2.958   2.475 -0.3489 -0.3616 -0.1822
 6999SOL    HW132459   0.679   3.031   2.439 -0.0126 -0.9061 -0.8190
 6999SOL    HW232460   0.580   2.942   2.394 -1.5898 -1.1927  0.7196
 7000SOL     OW32461   0.331   0.756   4.935 -0.0945  0.5334 -0.4141
 7000SOL    HW132462   0.325   0.851   4.937  1.4394  0.5375  4.3920
 7000SOL    HW232463   0.417   0.725   4.908 -0.5160 -1.0675  0.0514
 7001SOL     OW32464   2.862   0.442   9.136 -0.2818 -0.1073 -0.4999
 7001SOL    HW132465   2.900   0.459   9.223  2.2871  0.0179 -1.6513
 7001SOL    HW232466   2.813   0.523   9.123 -1.0880 -0.7802 -1.6315
 7002SOL     OW32467   0.202   3.740   6.615 -0.4943  0.1924 -0.1448
 7002SOL    HW132468   0.283   3.787   6.592 -1.2427  2.3532  1.5956
 7002SOL    HW232469   0.145   3.815   6.633  0.3525  0.5914  0.8510
 7003SOL     OW32470   0.596   4.011  15.326 -0.1468 -0.1223 -0.4001
 7003SOL    HW132471   0.689   3.991  15.327  0.1974  1.4489 -1.6728
 7003SOL    HW232472   0.588   4.081  15.391 -0.8766 -0.1369 -0.4698
 7004SOL     OW32473   4.071   3.795   3.961 -0.2041 -0.3320 -0.0999
 7004SOL    HW132474   4.119   3.769   4.040 -0.1387 -3.1801 -1.0694
 7004SOL    HW232475   4.071   3.891   3.961  2.3324 -0.3250  0.1002
 7005SOL     OW32476   3.811   0.494   6.241  0.0573 -0.0267  0.1531
 7005SOL    HW132477   3.757   0.547   6.182  0.5211  0.7429  0.4188
 7005SOL    HW232478   3.832   0.568   6.298 -0.2555 -0.7478  1.1902
 7006SOL     OW32479   3.460   4.062   9.997  0.0153 -0.2392 -0.2302
 7006SOL    HW132480   3.389   4.000  10.015  0.2555 -0.0493  1.3502
 7006SOL    HW232481   3.499   4.084  10.082  1.4679  0.3650 -1.0611
 7007SOL     OW32482   2.133   3.632  12.971  0.1370  0.3515 -0.4236
 7007SOL    HW132483   2.214   3.661  12.929 -0.4753  1.0551 -1.0995
 7007SOL    HW232484   2.145   3.648  13.065  1.9103  0.4162 -0.6503
 7008SOL     OW32485   4.090   3.136   6.568 -0.1115  0.1326 -0.4358
 7008SOL    HW132486   4.075   3.120   6.475 -1.1493  0.5959 -0.3545
 7008SOL    HW232487   4.002   3.135   6.605 -0.0832 -0.4877 -0.3881
 7009SOL     OW32488   0.612   3.690   7.718 -0.7636 -0.5297  0.5252
 7009SOL    HW132489   0.572   3.775   7.737  1.1322  0.4375  0.2199
 7009SOL    HW232490   0.694   3.697   7.767  0.3071 -0.0734 -1.3280
 7010SOL     OW32491   0.456   3.616   2.304  0.3424 -0.4513 -0.1069
 7010SOL    HW132492   0.442   3.624   2.399  1.3899 -1.7289  0.1556
 7010SOL    HW232493   0.503   3.696   2.284 -1.4265  0.3350 -1.1055
 7011SOL     OW32494   4.136   1.264   7.187 -0.3656 -0.5449  0.1801
 7011SOL    HW132495   4.100   1.275   7.275 -1.5984 -1.6538 -0.1772
 7011SOL    HW232496   4.085   1.190   7.153 -1.0103 -0.3120  0.6518
 7012SOL     OW32497   4.122   3.162  17.237 -0.7263 -0.0809 -0.0705
 7012SOL    HW132498   4.102   3.219  17.163 -1.5573  0.8380  0.8573
 7012SOL    HW232499   4.040   3.114  17.253 -0.4560 -0.7825 -0.7918
 7013SOL     OW32500   1.186   2.842   6.396  0.2615 -0.3231 -0.5934
 7013SOL    HW132501   1.244   2.917   6.381 -2.8216  2.9013  3.7128
 7013SOL    HW232502   1.099   2.882   6.391  0.7664  0.8469 -0.0638
 7014SOL     OW32503   3.103   2.348   9.575  0.5858  0.0879  0.0761
 7014SOL    HW132504   3.135   2.434   9.601  0.8119  0.0247  0.0088
 7014SOL    HW232505   3.043   2.330   9.648  0.7911  0.5614  0.3612
 7015SOL     OW32506   2.130   1.974   0.453 -0.1269  0.8176  0.3223
 7015SOL    HW132507   2.062   2.026   0.496 -1.7039  2.2820 -3.8959
 7015SOL    HW232508   2.101   1.977   0.362 -1.6709 -1.0895  0.7669
 7016SOL     OW32509   4.084   3.600  11.075 -0.3271 -0.0913  0.0180
 7016SOL    HW132510   4.132   3.628  11.153 -1.6549 -0.7980  1.0860
 7016SOL    HW232511   4.063   3.513  11.110  1.4904 -0.3242  0.5622
 7017SOL     OW32512   2.381   1.403   0.956 -0.3050  0.6595 -0.2294
 7017SOL    HW132513   2.296   1.381   0.995  0.3303 -0.7699  0.3298
 7017SOL    HW232514   2.421   1.446   1.031  0.3798  0.5627 -0.5472
 7018SOL     OW32515   4.496   0.568  16.838  0.0454 -0.0896 -0.3647
 7018SOL    HW132516   4.540   0.558  16.923  0.2698 -0.0462 -0.4737
 7018SOL    HW232517   4.563   0.592  16.774  0.1733  0.2113 -0.1144
 7019SOL     OW32518   3.100   4.564   7.485  0.5539  0.1081 -0.5663
 7019SOL    HW132519   3.189   4.593   7.467  0.4500  1.5884  1.2470
 7019SOL    HW232520   3.085   4.480   7.443 -3.0599 -0.9074  2.6799
 7020SOL     OW32521   3.577   4.091   3.169  0.0893 -0.1442 -0.1009
 7020SOL    HW132522   3.648   4.033   3.197 -0.0945  0.2479  1.1764
 7020SOL    HW232523   3.554   4.065   3.080  1.9074 -1.0281 -0.3275
 7021SOL     OW32524   0.321   4.308   4.996  0.2724  0.3691 -0.0926
 7021SOL    HW132525   0.296   4.337   5.084  1.3780 -1.8347  0.9642
 7021SOL    HW232526   0.269   4.228   4.985 -1.0689  1.0555  1.3071
 7022SOL     OW32527   3.956   3.463  12.222  0.8070  0.2739 -0.2677
 7022SOL    HW132528   3.934   3.556  12.221  0.4896  0.1830 -2.3628
 7022SOL    HW232529   3.968   3.453  12.128 -0.1222  1.0235 -0.4662
 7023SOL     OW32530   3.181   3.862  10.890  0.0515  0.1842 -0.4722
 7023SOL    HW132531   3.151   3.829  10.806  1.2837 -2.8215  0.2905
 7023SOL    HW232532   3.274   3.840  10.891  0.3222  1.2940  0.9064
 7024SOL     OW32533   1.851   0.752   8.400 -0.3334  0.3158 -0.6675
 7024SOL    HW132534   1.823   0.774   8.311  1.2728  0.5035 -1.1171
 7024SOL    HW232535   1.908   0.676   8.389  1.4588  1.5234  0.3149
 7025SOL     OW32536   2.675   0.990   1.660  0.2462 -0.3960  0.3241
 7025SOL    HW132537   2.642   0.901   1.676  2.4912 -1.2563  0.2744
 7025SOL    HW232538   2.630   0.999   1.576  1.7271  2.8727 -0.1137
 7026SOL     OW32539   1.663   1.311   7.080 -0.3842 -0.1020 -0.6304
 7026SOL    HW132540   1.740   1.358   7.050  0.1188 -0.9614 -0.6816
 7026SOL    HW232541   1.650   1.339   7.171  0.9057 -0.6152 -0.2870
 7027SOL     OW32542   1.213   1.360   2.205 -0.0685  0.0493 -0.8077
 7027SOL    HW132543   1.156   1.287   2.179  1.5695 -0.6354 -2.4113
 7027SOL    HW232544   1.265   1.382   2.128 -0.8199  0.2504 -1.2604
 7028SOL     OW32545   2.132   3.225   7.787 -0.2765  0.0162 -0.1259
 7028SOL    HW132546   2.170   3.196   7.704 -2.2813  0.5012 -1.2410
 7028SOL    HW232547   2.186   3.202   7.862 -0.6173  0.6571  0.3195
 7029SOL     OW32548   3.155   2.927  12.204  0.3799  0.3252 -0.2094
 7029SOL    HW132549   3.194   2.844  12.229 -1.4813 -1.3452 -2.8653
 7029SOL    HW232550   3.161   2.919  12.109  1.1996  0.5585 -0.1792
 7030SOL     OW32551   1.722   2.738   2.018 -0.0291  0.0738  0.3415
 7030SOL    HW132552   1.803   2.686   2.012  1.4424  2.2617  1.4219
 7030SOL    HW232553   1.676   2.699   2.092 -0.3193  0.4988  0.3829
 7031SOL     OW32554   2.599   3.622   4.774  0.1685 -0.1904  0.2560
 7031SOL    HW132555   2.533   3.655   4.836  1.4805  0.2551  1.4168
 7031SOL    HW232556   2.598   3.699   4.717  1.1211  0.0701  0.5962
 7032SOL     OW32557   1.685   0.050   9.531 -0.4977 -0.2752 -0.5456
 7032SOL    HW132558   1.681   0.007   9.617 -1.5050  2.9218  0.9883
 7032SOL    HW232559   1.641   4.710   9.474  0.4965 -0.2004 -1.4046
 7033SOL     OW32560   3.185   4.325   9.942 -0.2486  0.3266 -0.1120
 7033SOL    HW132561   3.183   4.258   9.873  1.4540  2.2797 -2.0429
 7033SOL    HW232562   3.212   4.271  10.017 -1.5686  0.9189  0.8064
 7034SOL     OW32563   3.502   1.663   6.075 -0.4659 -0.0896 -0.0544
 7034SOL    HW132564   3.588   1.621   6.084  0.8216  2.5536 -0.0281
 7034SOL    HW232565   3.451   1.609   6.135 -0.0177  0.5132  0.8706
 7035SOL     OW32566   2.233   1.686   8.409 -0.2475 -0.3407 -0.4984
 7035SOL    HW132567   2.179   1.677   8.488  1.6003  0.0765  0.8010
 7035SOL    HW232568   2.319   1.694   8.451 -0.9018  1.3865  0.5114
 7036SOL     OW32569   4.022   2.127   8.344  0.2393 -0.2833 -0.0736
 7036SOL    HW132570   4.014   2.219   8.367 -1.3927 -0.3088 -0.5643
 7036SOL    HW232571   4.105   2.098   8.382  0.5720  2.4777  1.3360
 7037SOL     OW32572   3.408   3.749   1.965  0.0589 -0.0993 -0.1364
 7037SOL    HW132573   3.323   3.739   2.008 -1.6166  1.6728 -3.0015
 7037SOL    HW232574   3.405   3.663   1.922  0.9062  0.5566 -1.5187
 7038SOL     OW32575   0.154   1.205   5.599  0.2194 -0.5514 -0.3773
 7038SOL    HW132576   0.149   1.121   5.645  1.9377  0.1140  1.0361
 7038SOL    HW232577   0.247   1.221   5.584  0.3765  0.6140  1.8798
 7039SOL     OW32578   1.795   0.781   8.132 -0.2979 -0.6097  0.0864
 7039SOL    HW132579   1.728   0.843   8.104 -0.7352 -0.6997  0.9140
 7039SOL    HW232580   1.821   0.768   8.041  0.9074  1.1085  0.1875
 7040SOL     OW32581   3.725   1.549   3.985  0.9880  0.4713 -0.1416
 7040SOL    HW132582   3.629   1.545   3.991  1.1120  0.5080  2.0128
 7040SOL    HW232583   3.756   1.514   4.068  0.0398  1.6037  0.7050
 7041SOL     OW32584   2.528   0.381   8.310 -0.1878  0.3192 -0.8258
 7041SOL    HW132585   2.573   0.425   8.383 -1.4191  0.2723 -0.0523
 7041SOL    HW232586   2.543   0.293   8.342 -1.9856 -0.4149 -1.9989
 7042SOL     OW32587   0.022   0.914   1.037 -0.1898 -0.3503  0.1103
 7042SOL    HW132588   4.675   0.941   0.976  1.9370  1.5803 -1.4485
 7042SOL    HW232589   0.057   0.996   1.072  1.7852 -1.9680  1.8697
 7043SOL     OW32590   2.168   3.341   7.062  0.4610 -0.0490  0.6246
 7043SOL    HW132591   2.114   3.381   7.130  0.4767 -1.8885  1.7446
 7043SOL    HW232592   2.112   3.335   6.985 -0.6937 -0.7665  1.5288
 7044SOL     OW32593   0.964   2.687   4.103  0.4376  0.1424 -0.3250
 7044SOL    HW132594   1.008   2.718   4.183 -1.8393  1.0363  0.5652
 7044SOL    HW232595   0.975   2.592   4.116 -1.3079  0.1736  1.2288
 7045SOL     OW32596   4.285   2.565  17.334 -0.0372 -0.0232 -0.6944
 7045SOL    HW132597   4.318   2.628  17.270  2.2700  0.4103  0.9263
 7045SOL    HW232598   4.190   2.579  17.329  0.0000 -0.1326 -1.7778
 7046SOL     OW32599   2.758   4.618   3.147 -0.2213 -0.2450  1.1101
 7046SOL    HW132600   2.689   4.553   3.165 -0.2125 -0.3327  0.8240
 7046SOL    HW232601   2.709   4.675   3.089 -0.0938 -0.3613  0.8884
 7047SOL     OW32602   3.214   0.213  14.576 -0.0494 -0.5868  0.4223
 7047SOL    HW132603   3.178   0.283  14.630  0.2341  2.1622 -2.9760
 7047SOL    HW232604   3.150   0.212  14.505  0.7011  0.0921 -0.2559
 7048SOL     OW32605   2.863   0.075  11.716 -0.3153  0.3154  0.0889
 7048SOL    HW132606   2.827   0.140  11.656  0.0618  0.2780 -0.1799
 7048SOL    HW232607   2.928   0.019  11.672  1.0015  2.5301 -0.8368
 7049SOL     OW32608   0.071   3.741   7.269 -0.0459  0.4569 -0.3156
 7049SOL    HW132609   4.707   3.781   7.268  0.2493  1.1045 -0.2404
 7049SOL    HW232610   0.104   3.792   7.195 -0.8185  0.0559 -0.9332
 7050SOL     OW32611   2.794   2.041  17.641 -0.4327  0.6873 -0.1780
 7050SOL    HW132612   2.828   2.013   0.032 -0.9028  1.0330  0.1298
 7050SOL    HW232613   2.704   2.054  17.670 -0.4122 -0.7078  0.4628
 7051SOL     OW32614   3.582   1.708   4.278  0.0353 -0.6605 -0.1859
 7051SOL    HW132615   3.673   1.716   4.308  0.8824 -1.3992 -2.5881
 7051SOL    HW232616   3.574   1.613   4.286  1.0098 -0.7195  0.0610
 7052SOL     OW32617   4.156   1.570   3.657  0.4326 -0.2816  0.2500
 7052SOL    HW132618   4.109   1.629   3.598  1.3366 -0.6764 -0.8478
 7052SOL    HW232619   4.109   1.577   3.740  0.6421 -2.5113  0.5640
 7053SOL     OW32620   1.784   0.730  12.387  0.4560 -0.5334 -0.0828
 7053SOL    HW132621   1.776   0.783  12.308  0.1054  1.0998  1.0558
 7053SOL    HW232622   1.692   0.717  12.411  0.8424 -0.2028  1.5450
 7054SOL     OW32623   4.466   1.580  14.216  0.5904 -0.2998 -0.4319
 7054SOL    HW132624   4.539   1.641  14.210  1.8878 -1.5150  3.3256
 7054SOL    HW232625   4.419   1.620  14.142 -1.0547 -0.0014  0.7682
 7055SOL     OW32626   0.916   2.300  12.399 -0.1102  0.1197 -0.0282
 7055SOL    HW132627   0.960   2.293  12.314  1.7857 -0.0370  0.9734
 7055SOL    HW232628   0.989   2.276  12.456  0.4183  0.3114 -0.6247
 7056SOL     OW32629   3.718   2.265   5.441  0.0774  0.0774  0.2798
 7056SOL    HW132630   3.763   2.274   5.525  1.1195  0.2872 -0.2978
 7056SOL    HW232631   3.743   2.349   5.401 -0.3030 -0.8635 -1.9259
 7057SOL     OW32632   0.896   0.167  12.791 -0.5285 -0.1206 -0.4361
 7057SOL    HW132633   0.968   0.163  12.727  1.2293 -0.4140  1.5646
 7057SOL    HW232634   0.935   0.125  12.867 -0.6331 -2.2051 -1.5375
 7058SOL     OW32635   4.243   3.028   2.192  0.1869  0.0309  0.1854
 7058SOL    HW132636   4.241   2.971   2.269  0.7566  0.1223  0.2666
 7058SOL    HW232637   4.317   2.990   2.145  0.9940  0.8527  0.7945
 7059SOL     OW32638   4.019   4.370   8.121 -0.2315 -0.5090  0.5527
 7059SOL    HW132639   4.094   4.364   8.181  0.7393 -0.3254 -0.6568
 7059SOL    HW232640   4.047   4.422   8.046 -1.7532 -0.5755 -0.0478
 7060SOL     OW32641   3.998   2.959  15.159  0.1988  0.1736 -0.1986
 7060SOL    HW132642   4.050   2.891  15.203 -0.7194  1.6010  3.0504
 7060SOL    HW232643   4.021   2.936  15.069  0.7907 -1.3417  0.3307
 7061SOL     OW32644   0.600   1.124   2.366  0.2601 -0.4959 -0.3655
 7061SOL    HW132645   0.686   1.166   2.371  0.5073 -1.2216  1.3862
 7061SOL    HW232646   0.631   1.042   2.329 -1.8697 -0.8173 -1.3987
 7062SOL     OW32647   3.441   1.284  15.820 -0.2779  0.1890  0.5005
 7062SOL    HW132648   3.415   1.276  15.728 -0.1122  1.5938  0.3266
 7062SOL    HW232649   3.533   1.307  15.808 -0.1439 -0.8979 -0.6094
 7063SOL     OW32650   0.899   3.857  16.026 -0.0636  0.0678  0.2013
 7063SOL    HW132651   0.982   3.885  15.988  0.7170 -0.1562  1.7179
 7063SOL    HW232652   0.903   3.890  16.116 -1.4164 -0.4597  0.4521
 7064SOL     OW32653   0.497   0.790   3.972  0.0578 -0.1825  0.2781
 7064SOL    HW132654   0.549   0.733   3.915 -2.9402 -0.9896 -1.6534
 7064SOL    HW232655   0.528   0.878   3.951 -3.7898  1.1534  0.2536
 7065SOL     OW32656   4.486   2.559   5.025 -0.3055 -0.0595  0.5712
 7065SOL    HW132657   4.520   2.639   5.064  0.6900  0.0852 -0.5950
 7065SOL    HW232658   4.392   2.572   5.022 -0.3363 -0.5641 -0.4642
 7066SOL     OW32659   3.492   3.986   8.822  0.2200  0.0516 -0.3839
 7066SOL    HW132660   3.528   3.898   8.812  1.2347  0.2501  1.3756
 7066SOL    HW232661   3.409   3.969   8.778  1.1578  1.8562 -2.8025
 7067SOL     OW32662   0.225   2.419  14.117 -0.1161  0.3569  0.1885
 7067SOL    HW132663   0.284   2.379  14.180 -0.9437  3.2500  2.7558
 7067SOL    HW232664   0.232   2.510  14.145 -1.6109  0.2676  0.8809
 7068SOL     OW32665   3.944   3.513   6.240 -0.0079 -0.2781 -0.0794
 7068SOL    HW132666   3.905   3.597   6.215  0.5982 -0.5305 -1.9054
 7068SOL    HW232667   3.883   3.456   6.287  1.2697 -1.9368 -0.4376
 7069SOL     OW32668   3.973   0.777   6.152 -0.2574  0.0311  0.5247
 7069SOL    HW132669   3.945   0.823   6.073  1.8191  0.2830 -0.0665
 7069SOL    HW232670   3.965   0.685   6.127  3.2338 -0.4364  1.1249
 7070SOL     OW32671   1.109   1.384   3.971  0.6433  0.1870 -0.2227
 7070SOL    HW132672   1.024   1.353   4.004 -0.7758  1.9759 -2.1178
 7070SOL    HW232673   1.156   1.410   4.050 -0.1197  1.7406 -0.2602
 7071SOL     OW32674   0.429   2.885  14.217 -0.1853 -0.4820  0.1420
 7071SOL    HW132675   0.402   2.956  14.158 -0.9752 -0.3896  0.6062
 7071SOL    HW232676   0.524   2.897  14.211  0.0156 -1.1832  1.8004
 7072SOL     OW32677   3.043   0.202   3.150 -0.2851  0.2821 -0.2630
 7072SOL    HW132678   3.050   0.292   3.117 -1.5646  0.7190  0.6670
 7072SOL    HW232679   3.020   0.201   3.243  1.5016  1.1774  0.1833
 7073SOL     OW32680   3.593   2.395   6.849 -0.6126 -0.0755 -0.6038
 7073SOL    HW132681   3.583   2.449   6.927  0.3612  0.3977 -0.8134
 7073SOL    HW232682   3.616   2.462   6.785 -1.0042 -0.3943 -1.0813
 7074SOL     OW32683   3.286   1.927   5.640  0.0873  0.1085  0.0876
 7074SOL    HW132684   3.294   1.894   5.730  3.2904  0.3780 -0.1054
 7074SOL    HW232685   3.260   2.016   5.662  1.0161  0.1383  1.0599
 7075SOL     OW32686   1.243   3.399   8.118 -0.1379 -0.0043 -0.1964
 7075SOL    HW132687   1.153   3.405   8.151 -1.1206 -0.2798 -2.7284
 7075SOL    HW232688   1.242   3.325   8.056  2.2228  0.4168 -0.7132
 7076SOL     OW32689   0.020   1.293   9.634 -0.0812 -1.3763  0.4053
 7076SOL    HW132690   4.695   1.259   9.558  0.0419 -2.2567  0.7262
 7076SOL    HW232691   4.713   1.218   9.684  2.4401 -2.5995  0.0738
 7077SOL     OW32692   1.350   4.678   9.368 -0.3467 -0.6846  0.4154
 7077SOL    HW132693   1.348   4.702   9.276  2.1888 -0.1184  0.5097
 7077SOL    HW232694   1.343   4.583   9.372  0.1874 -0.7111  0.7207
 7078SOL     OW32695   2.200   0.689   8.322  0.6176  0.0996  0.4131
 7078SOL    HW132696   2.148   0.617   8.286  0.9928 -0.1052  0.2848
 7078SOL    HW232697   2.204   0.751   8.249  1.8112 -1.2833 -0.7102
 7079SOL     OW32698   0.618   0.089  12.847 -0.4599 -0.5150 -0.2579
 7079SOL    HW132699   0.699   0.137  12.832 -0.6055 -0.6699 -1.5856
 7079SOL    HW232700   0.556   0.138  12.793 -0.6527  2.5239  2.7581
 7080SOL     OW32701   3.548   2.093   5.023  0.1782 -0.4590 -0.1795
 7080SOL    HW132702   3.603   2.155   5.072 -1.0043 -0.4288  1.0961
 7080SOL    HW232703   3.510   2.148   4.955 -0.4622 -0.7891 -0.0863
 7081SOL     OW32704   2.647   1.872   8.923  0.5305  0.6589  0.1966
 7081SOL    HW132705   2.586   1.897   8.991 -1.9177 -1.6783 -1.1592
 7081SOL    HW232706   2.579   1.828   8.873  3.1295 -0.4852 -2.3870
 7082SOL     OW32707   1.482   3.880  12.550  0.0236 -0.0611  0.0607
 7082SOL    HW132708   1.526   3.853  12.470  1.3950 -0.4330  0.9484
 7082SOL    HW232709   1.524   3.964  12.563 -0.3066  0.0686  0.3157
 7083SOL     OW32710   0.893   1.196   3.129  0.0961  0.3353 -0.0250
 7083SOL    HW132711   0.893   1.149   3.046 -0.0873  0.7809 -0.2747
 7083SOL    HW232712   0.942   1.273   3.100  0.3198  0.2400  0.1030
 7084SOL     OW32713   0.257   3.183  16.937  0.3606 -0.1889  0.7445
 7084SOL    HW132714   0.197   3.130  16.988 -0.0249  0.9244  1.4580
 7084SOL    HW232715   0.338   3.174  16.988  1.8052 -1.9829 -1.8646
 7085SOL     OW32716   0.241   2.568  11.769 -0.3691 -0.4951 -0.1106
 7085SOL    HW132717   0.323   2.607  11.740 -0.8637  2.2073  2.1483
 7085SOL    HW232718   0.238   2.607  11.856 -1.6584 -3.0903  0.9929
 7086SOL     OW32719   2.126   3.569   4.686  0.6483 -0.4374  0.3468
 7086SOL    HW132720   2.176   3.489   4.701 -0.3589 -0.6031  2.8603
 7086SOL    HW232721   2.039   3.542   4.716  1.3811 -3.0221  0.1017
 7087SOL     OW32722   2.264   3.050   9.370 -0.3986  0.4162 -0.4951
 7087SOL    HW132723   2.234   3.105   9.442 -2.1944 -1.0316 -0.1513
 7087SOL    HW232724   2.205   2.975   9.378  1.6587 -0.9655  1.7831
 7088SOL     OW32725   2.571   2.143   3.355  0.2999 -0.3208  0.3062
 7088SOL    HW132726   2.540   2.202   3.424  1.1985  1.6234 -0.9604
 7088SOL    HW232727   2.491   2.146   3.304  0.2250 -1.2200  0.3659
 7089SOL     OW32728   1.905   2.029   7.021 -0.4692  0.4793  0.0388
 7089SOL    HW132729   1.921   2.099   7.085 -1.8598 -0.0569  0.9992
 7089SOL    HW232730   1.970   2.039   6.952  0.3980 -1.7464  0.5277
 7090SOL     OW32731   0.021   1.550  11.780 -0.2785  0.3057 -0.4971
 7090SOL    HW132732   4.707   1.607  11.713 -0.6385  0.9986  0.2942
 7090SOL    HW232733   4.661   1.518  11.816  0.2974  0.9431  1.3892
 7091SOL     OW32734   0.758   2.276   4.163 -0.2125  0.2116 -0.0357
 7091SOL    HW132735   0.734   2.209   4.099 -0.7470  1.6613 -1.3574
 7091SOL    HW232736   0.838   2.315   4.130 -0.8656  0.1712 -1.6455
 7092SOL     OW32737   2.488   2.557   5.793  0.6447  0.5476  0.0721
 7092SOL    HW132738   2.444   2.638   5.767  0.0369 -0.0349 -0.6902
 7092SOL    HW232739   2.532   2.595   5.869  0.5061 -0.2339  0.5428
 7093SOL     OW32740   4.381   3.912  14.694  0.3277  0.2353  0.5582
 7093SOL    HW132741   4.359   3.902  14.602  1.7698  0.4271  0.1924
 7093SOL    HW232742   4.436   3.990  14.688 -1.1022  1.0392 -2.1462
 7094SOL     OW32743   3.227   4.191   6.757  0.0612 -0.2876 -0.1900
 7094SOL    HW132744   3.282   4.115   6.738  0.3562  0.0908 -0.8669
 7094SOL    HW232745   3.297   4.256   6.763  0.2808 -0.4867 -0.6136
 7095SOL     OW32746   0.942   2.098   0.540  0.0853  0.3125  0.5715
 7095SOL    HW132747   1.024   2.123   0.498 -0.1564 -1.7250 -1.0766
 7095SOL    HW232748   0.961   2.011   0.574 -1.4513 -0.9843 -1.8838
 7096SOL     OW32749   3.601   1.913  17.610 -0.3975  0.5547  0.2003
 7096SOL    HW132750   3.614   1.942   0.007  2.9451 -2.5292  0.7276
 7096SOL    HW232751   3.581   1.822  17.629  1.6536 -0.1267 -0.8656
 7097SOL     OW32752   0.176   0.408   7.198 -0.3778  0.0119 -0.5811
 7097SOL    HW132753   0.176   0.471   7.269  1.4902 -1.4918  0.7494
 7097SOL    HW232754   0.086   0.398   7.168 -0.0011 -2.5195 -0.8747
 7098SOL     OW32755   4.374   3.918   4.371 -0.2705 -0.4763  0.5522
 7098SOL    HW132756   4.438   3.921   4.443 -1.4939  2.9463  1.5231
 7098SOL    HW232757   4.309   3.964   4.424 -1.7750 -1.0652 -0.7932
 7099SOL     OW32758   2.294   0.675   2.049  0.2721  0.4627 -0.2108
 7099SOL    HW132759   2.258   0.758   2.078 -0.9908 -0.3189  0.4616
 7099SOL    HW232760   2.315   0.689   1.957  0.3373 -0.0902 -0.2820
 7100SOL     OW32761   4.556   0.046   4.907  0.1616  0.3124  0.0753
 7100SOL    HW132762   4.482   0.102   4.882  0.5387  1.0434  0.6066
 7100SOL    HW232763   4.629   0.084   4.857  0.7117  0.8079  1.2521
 7101SOL     OW32764   4.269   1.295   5.450  0.2552  0.5176 -0.1420
 7101SOL    HW132765   4.347   1.239   5.452  0.3134  0.5812 -0.6748
 7101SOL    HW232766   4.200   1.246   5.493  0.2056 -0.0027 -0.8231
 7102SOL     OW32767   2.666   3.945   5.280  0.1134  0.0201 -0.6213
 7102SOL    HW132768   2.595   3.996   5.240  0.3146  0.5006 -0.3506
 7102SOL    HW232769   2.746   3.994   5.262  0.6877 -0.3751  0.9256
 7103SOL     OW32770   2.255   2.771   7.334 -0.1573  0.4914  0.6021
 7103SOL    HW132771   2.329   2.790   7.391  0.1205 -2.8593  1.3529
 7103SOL    HW232772   2.274   2.811   7.249  1.2269 -0.4574  0.4604
 7104SOL     OW32773   4.262   3.275  15.827 -0.4361 -0.1627  0.3759
 7104SOL    HW132774   4.346   3.245  15.794  0.6323  0.9261  2.1349
 7104SOL    HW232775   4.271   3.270  15.922 -2.8399 -0.3018  0.6053
 7105SOL     OW32776   1.426   1.178   0.224 -0.2184  0.1926  0.2079
 7105SOL    HW132777   1.351   1.231   0.194 -0.1836 -0.0084 -0.2272
 7105SOL    HW232778   1.483   1.249   0.254  0.9564 -0.1897 -1.1159
 7106SOL     OW32779   4.680   2.644   8.105 -0.0205  0.3169  0.5994
 7106SOL    HW132780   4.656   2.707   8.038 -2.9927 -0.0881  1.2829
 7106SOL    HW232781   4.622   2.667   8.177 -1.2272 -1.5657  0.2223
 7107SOL     OW32782   3.760   0.048   7.245 -0.6355  0.1031 -0.4954
 7107SOL    HW132783   3.674   0.020   7.276  0.7662 -1.5195  1.8446
 7107SOL    HW232784   3.744   0.094   7.162 -0.3061  0.0855 -0.5660
 7108SOL     OW32785   2.889   4.674  12.448  0.1962  0.1439 -0.3571
 7108SOL    HW132786   2.911   4.620  12.523  1.6598  1.5465  0.2107
 7108SOL    HW232787   2.845   4.606  12.397 -0.3261  1.1699 -1.2815
 7109SOL     OW32788   4.256   1.297  16.337 -0.6259  0.3718 -0.4354
 7109SOL    HW132789   4.312   1.320  16.263 -0.3033 -0.6461 -0.5076
 7109SOL    HW232790   4.227   1.223  16.284 -0.8742  0.1800 -0.0401
 7110SOL     OW32791   3.867   1.401  10.452  0.1108 -0.2737  0.3169
 7110SOL    HW132792   3.858   1.477  10.510 -2.9402  0.3912 -1.0224
 7110SOL    HW232793   3.849   1.329  10.513 -1.2286  2.1240  2.7806
 7111SOL     OW32794   4.007   2.896  17.049  0.1184 -0.3890  0.1077
 7111SOL    HW132795   3.912   2.900  17.055  0.2413 -1.5351  2.6959
 7111SOL    HW232796   4.025   2.941  16.967 -0.6389  1.6780  1.0638
 7112SOL     OW32797   4.330   0.556   8.675 -0.1326 -0.0729  0.0340
 7112SOL    HW132798   4.310   0.567   8.582 -0.2582  0.6209  0.1411
 7112SOL    HW232799   4.243   0.569   8.713  0.1045  2.1583 -0.1711
 7113SOL     OW32800   2.296   4.132  14.948 -0.2055 -0.2902  0.4056
 7113SOL    HW132801   2.369   4.121  15.009 -0.5043  1.1573  1.0264
 7113SOL    HW232802   2.278   4.226  14.953  1.9348  0.0224  2.0609
 7114SOL     OW32803   4.686   3.455  16.446  0.7806 -0.4302  0.2573
 7114SOL    HW132804   4.704   3.541  16.407 -1.0955  0.7384  1.9890
 7114SOL    HW232805   0.025   3.467  16.518  0.3672  0.8859  0.3904
 7115SOL     OW32806   1.293   2.336  16.798  0.0328 -0.1374 -0.5586
 7115SOL    HW132807   1.338   2.418  16.817 -1.8360  1.2953 -2.2398
 7115SOL    HW232808   1.232   2.360  16.728 -1.2148  1.3083  1.0381
 7116SOL     OW32809   2.514   2.337   3.746 -0.6876 -0.3314  0.3151
 7116SOL    HW132810   2.448   2.397   3.781 -1.1532  0.8725 -2.6021
 7116SOL    HW232811   2.564   2.404   3.701  0.4491  0.1601  2.3072
 7117SOL     OW32812   1.113   0.160  11.132 -0.6075  0.5772  0.1897
 7117SOL    HW132813   1.041   0.163  11.195 -2.1726 -1.3363 -1.5127
 7117SOL    HW232814   1.184   0.149  11.195 -0.6139  2.0925  0.4460
 7118SOL     OW32815   0.393   3.752   7.158 -0.0927 -0.8194 -0.3255
 7118SOL    HW132816   0.441   3.834   7.145 -2.3517  0.5963  0.0726
 7118SOL    HW232817   0.332   3.792   7.221 -0.7570 -1.4558 -0.5623
 7119SOL     OW32818   3.974   1.950  16.010  0.2583  0.4654  0.3118
 7119SOL    HW132819   4.068   1.957  15.995 -0.0166 -0.7060 -2.0274
 7119SOL    HW232820   3.952   2.023  15.953  1.6653 -0.1465 -1.0172
 7120SOL     OW32821   0.616   1.929   3.571  0.2427  0.0822  0.2470
 7120SOL    HW132822   0.593   1.839   3.596  0.0671  0.7318  2.4238
 7120SOL    HW232823   0.535   1.974   3.598 -0.3321  0.3658 -1.9525
 7121SOL     OW32824   3.611   1.357   6.699  0.1950  0.2105 -0.4503
 7121SOL    HW132825   3.618   1.346   6.794  1.3608 -2.5269 -0.8537
 7121SOL    HW232826   3.573   1.444   6.704  1.0926  0.4614  2.6537
 7122SOL     OW32827   1.845   0.474   9.754 -0.1905 -0.4223  0.5589
 7122SOL    HW132828   1.806   0.492   9.839  0.0019 -0.4768  0.6589
 7122SOL    HW232829   1.771   0.428   9.714 -0.3465  0.5937 -0.3148
 7123SOL     OW32830   3.976   3.704   2.174 -0.4832 -0.3372  0.6284
 7123SOL    HW132831   3.997   3.797   2.167  0.5709 -0.6770 -0.7216
 7123SOL    HW232832   3.887   3.693   2.140 -0.4103  0.6871  0.0936
 7124SOL     OW32833   0.340   3.602   7.408  0.1570  0.8973 -0.3873
 7124SOL    HW132834   0.341   3.507   7.403 -1.2772  0.8164  0.8986
 7124SOL    HW232835   0.249   3.623   7.387 -0.8981 -0.1837  3.2248
 7125SOL     OW32836   1.854   3.914  15.510 -0.2365  1.2501  0.4699
 7125SOL    HW132837   1.883   3.995  15.469  0.4836  0.8468  0.1761
 7125SOL    HW232838   1.796   3.877  15.444 -0.9163  2.9682  0.1210
 7126SOL     OW32839   2.585   3.182   5.780  0.0508 -0.3098 -0.0944
 7126SOL    HW132840   2.496   3.206   5.756  0.0761 -1.6892 -1.6206
 7126SOL    HW232841   2.578   3.106   5.838  1.9245 -2.3366 -2.4844
 7127SOL     OW32842   2.047   1.155  11.896  0.2035 -0.5207  0.6556
 7127SOL    HW132843   2.097   1.101  11.834 -1.5499 -1.9731  0.5098
 7127SOL    HW232844   2.107   1.229  11.904 -1.5374  1.2085 -2.3883
 7128SOL     OW32845   1.616   0.795   3.245  0.3519 -0.1698 -0.1707
 7128SOL    HW132846   1.557   0.722   3.266  0.1708  0.0628  0.1127
 7128SOL    HW232847   1.598   0.866   3.306 -3.6040 -0.6044 -0.8214
 7129SOL     OW32848   4.369   2.150  14.175 -0.1691  0.0544  0.6970
 7129SOL    HW132849   4.299   2.176  14.234 -1.7786 -1.0158 -0.7456
 7129SOL    HW232850   4.403   2.237  14.153  0.6580 -1.2264 -3.0853
 7130SOL     OW32851   0.141   3.074   2.907  0.1919 -0.2450  0.5320
 7130SOL    HW132852   0.227   3.117   2.909 -0.5429  1.1936  0.5933
 7130SOL    HW232853   0.120   3.106   2.819 -0.6709 -0.9006  0.5037
 7131SOL     OW32854   1.216   4.592   7.231  0.0381 -0.1586  0.0363
 7131SOL    HW132855   1.135   4.597   7.281 -0.0334  1.2249 -0.2223
 7131SOL    HW232856   1.174   4.619   7.149 -0.6249 -2.7328 -0.4633
 7132SOL     OW32857   1.470   0.640   1.179  0.1044  0.0091  0.0359
 7132SOL    HW132858   1.376   0.642   1.161  0.1740 -1.2215 -0.4724
 7132SOL    HW232859   1.463   0.593   1.261  1.6595  0.0889  0.2205
 7133SOL     OW32860   1.464   3.313  15.016  0.3032 -0.5395  0.1986
 7133SOL    HW132861   1.390   3.252  15.025 -0.8850  1.0047  0.9480
 7133SOL    HW232862   1.422   3.399  15.019 -0.4639 -0.8222 -2.5367
 7134SOL     OW32863   0.715   4.028   4.620  0.2674  0.8133 -0.0594
 7134SOL    HW132864   0.662   3.983   4.554 -0.4393  1.6666 -0.0612
 7134SOL    HW232865   0.667   4.106   4.645  0.4714  0.8679  0.1634
 7135SOL     OW32866   0.385   4.382   2.978  0.0993 -0.1414 -0.0888
 7135SOL    HW132867   0.419   4.459   2.933 -0.6341  0.4504  0.3838
 7135SOL    HW232868   0.387   4.423   3.065  0.3386 -0.8309  0.2332
 7136SOL     OW32869   1.145   1.717   5.001 -0.6411  0.1514  0.2942
 7136SOL    HW132870   1.231   1.724   5.042 -1.5910  1.4355  2.0349
 7136SOL    HW232871   1.160   1.717   4.906  0.5903 -1.4329  0.4941
 7137SOL     OW32872   3.424   3.586   4.517 -0.1348  0.2403 -0.2507
 7137SOL    HW132873   3.351   3.533   4.486  0.4658 -0.6398 -0.1727
 7137SOL    HW232874   3.395   3.671   4.484  1.6286  1.5793  1.6545
 7138SOL     OW32875   0.836   3.517  17.280  0.3493 -0.0712  0.1422
 7138SOL    HW132876   0.822   3.467  17.199 -0.5438 -0.3943  0.4970
 7138SOL    HW232877   0.762   3.575  17.260  2.5283  1.9817 -1.9791
 7139SOL     OW32878   2.498   2.872   4.161 -0.3560  0.6883  0.4236
 7139SOL    HW132879   2.504   2.781   4.131 -0.6013  1.0612 -0.7230
 7139SOL    HW232880   2.420   2.861   4.214 -1.4206 -1.3113 -1.5634
 7140SOL     OW32881   2.874   4.416  11.009 -0.1581  0.4969 -0.6191
 7140SOL    HW132882   2.907   4.327  11.023  2.1880  1.2957 -1.0270
 7140SOL    HW232883   2.937   4.473  11.051  1.3695 -1.3706 -0.3636
 7141SOL     OW32884   2.414   3.821   2.785  0.0220 -0.0033 -0.2903
 7141SOL    HW132885   2.438   3.750   2.844 -0.4873  0.4177  0.4168
 7141SOL    HW232886   2.449   3.784   2.704  5.1177  1.1733  1.3603
 7142SOL     OW32887   0.959   3.782   0.138 -0.3186 -0.5128 -0.0994
 7142SOL    HW132888   0.899   3.719   0.178 -0.2676 -0.6474 -0.2345
 7142SOL    HW232889   0.954   3.846   0.209 -0.3406  0.2793 -0.8190
 7143SOL     OW32890   0.328   3.668   5.874 -0.0444  0.3479  0.4581
 7143SOL    HW132891   0.268   3.602   5.907 -0.6960  1.8923  2.3436
 7143SOL    HW232892   0.286   3.688   5.790  1.7387  1.0958 -0.2523
 7144SOL     OW32893   1.662   4.123   8.142 -0.1370 -0.0144  0.3913
 7144SOL    HW132894   1.693   4.097   8.229 -0.6137 -2.2135 -0.0959
 7144SOL    HW232895   1.703   4.209   8.136  2.9302 -1.5898 -1.0604
 7145SOL     OW32896   2.058   3.321   4.351  0.0982  0.5884 -0.2795
 7145SOL    HW132897   2.067   3.415   4.366 -0.1623  0.7782 -1.2857
 7145SOL    HW232898   2.148   3.290   4.360  0.6083  0.7487 -4.8007
 7146SOL     OW32899   1.900   4.482   3.102 -0.6580 -0.3012  0.1039
 7146SOL    HW132900   1.893   4.432   3.021  0.3141 -1.4073  0.7087
 7146SOL    HW232901   1.956   4.422   3.152  0.3927  0.1795 -0.4849
 7147SOL     OW32902   4.457   1.583   3.925 -0.0876 -0.3357 -0.0427
 7147SOL    HW132903   4.443   1.675   3.946 -0.2805 -0.6500  1.2474
 7147SOL    HW232904   4.532   1.552   3.975  0.1543 -0.0289 -0.2164
 7148SOL     OW32905   3.343   1.887   1.665  0.0968 -0.1883  0.2819
 7148SOL    HW132906   3.394   1.819   1.622  1.0551  0.9167 -0.3512
 7148SOL    HW232907   3.253   1.855   1.661 -0.6509  2.5120 -4.3650
 7149SOL     OW32908   2.846   2.813   6.401  0.5829 -0.7255 -0.7409
 7149SOL    HW132909   2.810   2.836   6.486  2.3475 -2.0142  0.3461
 7149SOL    HW232910   2.932   2.855   6.405  0.1251  0.0565  0.8667
 7150SOL     OW32911   3.229   2.014   4.775  0.0237  0.1625 -0.1903
 7150SOL    HW132912   3.239   2.087   4.836 -0.0633 -0.1182  0.1584
 7150SOL    HW232913   3.157   1.970   4.820  0.3663  0.1739  0.3625
 7151SOL     OW32914   3.688   3.773   0.018  0.3420  0.6239 -0.3663
 7151SOL    HW132915   3.643   3.851   0.053 -2.2972 -1.9183  1.9702
 7151SOL    HW232916   3.637   3.755  17.633 -1.2289  0.9067  0.5816
 7152SOL     OW32917   0.500   2.568   6.159 -0.2731  0.4031 -0.2911
 7152SOL    HW132918   0.520   2.495   6.218 -2.6699  0.3730  0.4831
 7152SOL    HW232919   0.577   2.623   6.174 -0.6322  1.3341 -1.9321
 7153SOL     OW32920   2.812   3.808   2.946  0.4911 -0.5294 -0.0288
 7153SOL    HW132921   2.728   3.765   2.959 -0.4133  1.6649  1.2920
 7153SOL    HW232922   2.864   3.729   2.928 -1.1917 -1.1488 -2.1718
 7154SOL     OW32923   0.914   3.128  15.121  0.0240 -0.0803 -0.0580
 7154SOL    HW132924   0.841   3.182  15.091  0.0311  0.1920  0.4137
 7154SOL    HW232925   0.985   3.183  15.087 -0.7292 -0.4854 -2.2377
 7155SOL     OW32926   3.092   3.082   9.657 -0.0377 -0.5665  0.4262
 7155SOL    HW132927   3.161   3.045   9.712  2.2720  0.1459 -2.0152
 7155SOL    HW232928   3.018   3.070   9.716 -0.1725  2.8376  0.9254
 7156SOL     OW32929   1.094   3.058   5.932 -0.2187  0.2633 -0.0242
 7156SOL    HW132930   1.183   3.024   5.932 -0.7951 -1.2495  1.5453
 7156SOL    HW232931   1.040   2.984   5.962  0.1879  0.7342  1.8349
 7157SOL     OW32932   3.842   0.300   8.738  0.2554 -0.1984  0.4533
 7157SOL    HW132933   3.773   0.363   8.758  0.0303  0.2388 -1.6440
 7157SOL    HW232934   3.800   0.220   8.769  1.3522 -0.9979 -0.1118
 7158SOL     OW32935   2.640   3.155   8.783  0.3528  0.2815 -0.2134
 7158SOL    HW132936   2.721   3.194   8.749 -0.6539  2.8317  0.3221
 7158SOL    HW232937   2.643   3.185   8.874 -0.5582 -0.5185  0.0768
 7159SOL     OW32938   0.800   2.633  15.934  0.4055 -0.8867  0.2997
 7159SOL    HW132939   0.759   2.695  15.874 -0.5255 -0.4198  1.4177
 7159SOL    HW232940   0.802   2.552  15.883  1.4736  1.0639 -2.7200
 7160SOL     OW32941   3.637   3.759  13.365 -0.0608  0.3170 -0.2157
 7160SOL    HW132942   3.655   3.722  13.279  0.6355 -1.3541  0.6554
 7160SOL    HW232943   3.559   3.811  13.344 -1.3794 -1.7394 -0.4791
 7161SOL     OW32944   4.409   2.701  16.759 -0.2550  0.1309  0.6056
 7161SOL    HW132945   4.478   2.657  16.710  0.2643  2.2510 -0.5629
 7161SOL    HW232946   4.343   2.632  16.762 -0.6307  0.3687 -2.7563
 7162SOL     OW32947   1.513   0.326  14.671  0.1216 -0.1196  0.4049
 7162SOL    HW132948   1.603   0.355  14.653  1.2199 -0.7933  4.5630
 7162SOL    HW232949   1.508   0.352  14.764 -2.0709 -0.3186  0.3304
 7163SOL     OW32950   3.676   2.947   5.138  0.4974  0.5525  0.2917
 7163SOL    HW132951   3.683   3.007   5.063  1.2382  0.3927  0.2344
 7163SOL    HW232952   3.664   2.860   5.100 -0.9603  0.6699  0.4580
 7164SOL     OW32953   1.961   0.923   1.792 -0.1566 -0.3127 -0.3745
 7164SOL    HW132954   1.989   0.933   1.701  0.6289  0.7870 -0.0174
 7164SOL    HW232955   2.023   0.983   1.834 -1.3484 -0.8393  2.1127
 7165SOL     OW32956   0.009   1.411   6.362 -0.6003 -0.2022  0.4110
 7165SOL    HW132957   4.650   1.460   6.356  0.2202  1.2344  0.8590
 7165SOL    HW232958   4.707   1.331   6.316 -0.8572  0.4339 -0.5558
 7166SOL     OW32959   4.115   3.787   4.924  0.2917  0.0389  0.6417
 7166SOL    HW132960   4.055   3.859   4.903  0.8876  0.2822 -0.2595
 7166SOL    HW232961   4.177   3.814   4.856 -2.5786  1.1673 -1.5240
 7167SOL     OW32962   1.770   0.719  16.724 -0.0134 -0.1952 -0.1099
 7167SOL    HW132963   1.830   0.793  16.717  1.8421 -1.5862  1.1276
 7167SOL    HW232964   1.699   0.746  16.665  0.0900  0.3012 -0.0081
 7168SOL     OW32965   3.248   1.071   4.161  0.1758  0.0956  0.1173
 7168SOL    HW132966   3.319   1.007   4.160 -1.5751 -1.9035  2.0560
 7168SOL    HW232967   3.193   1.067   4.083 -1.1257  0.2570  1.0246
 7169SOL     OW32968   0.948   4.607  17.236  0.7321  0.4612  0.2051
 7169SOL    HW132969   0.984   4.520  17.218  1.7261  0.6547  1.3357
 7169SOL    HW232970   0.867   4.582  17.280 -0.4865  2.5362 -0.8719
 7170SOL     OW32971   2.857   4.270  13.508  0.0496  0.1399 -0.8844
 7170SOL    HW132972   2.831   4.347  13.559 -1.1967  0.2717 -1.7080
 7170SOL    HW232973   2.809   4.209  13.564 -0.0946  0.3375 -0.7924
 7171SOL     OW32974   0.851   3.788   5.274  0.1567  0.6462 -0.6696
 7171SOL    HW132975   0.822   3.819   5.360 -0.1599  0.0674 -0.5655
 7171SOL    HW232976   0.803   3.844   5.213 -2.5177 -1.7215 -0.7101
 7172SOL     OW32977   0.080   2.041   7.359  0.4919 -0.4403  0.1085
 7172SOL    HW132978   0.051   2.122   7.317 -2.0774 -0.1443  2.4682
 7172SOL    HW232979   4.715   2.011   7.379  0.3613 -0.0321  0.1568
 7173SOL     OW32980   4.032   0.356   1.045 -0.0216 -0.1202 -0.2012
 7173SOL    HW132981   4.056   0.446   1.024  4.4918 -0.7563  2.3158
 7173SOL    HW232982   3.959   0.376   1.103 -0.5953  1.3189 -1.4180
 7174SOL     OW32983   3.285   2.894   3.663  0.7739  0.6367  0.2052
 7174SOL    HW132984   3.288   2.803   3.633 -0.0102  1.4967 -2.4983
 7174SOL    HW232985   3.346   2.889   3.737  0.5048  2.1655  0.5367
 7175SOL     OW32986   3.752   1.161   6.451 -0.0762 -0.2246  0.3176
 7175SOL    HW132987   3.741   1.235   6.511 -0.8343  0.6617 -0.9154
 7175SOL    HW232988   3.721   1.208   6.374 -0.2305 -0.4570  0.2372
 7176SOL     OW32989   2.226   1.723   2.829 -0.0012  0.0090 -0.7571
 7176SOL    HW132990   2.204   1.669   2.905  2.2749  0.0075 -0.1254
 7176SOL    HW232991   2.290   1.663   2.791 -0.2315 -0.6950 -0.0251
 7177SOL     OW32992   2.836   4.072   7.519 -0.4817  0.4038  0.3738
 7177SOL    HW132993   2.794   4.150   7.556 -0.1346  0.9762 -0.4407
 7177SOL    HW232994   2.860   4.095   7.429 -1.3596 -0.9317 -0.1931
 7178SOL     OW32995   1.695   0.883  12.151 -0.2235  0.0535  0.1829
 7178SOL    HW132996   1.607   0.912  12.126 -0.1682  0.4786  0.4748
 7178SOL    HW232997   1.737   0.968  12.162  1.3579 -0.7898  0.6285
 7179SOL     OW32998   2.608   0.584   8.524  0.1417 -0.0721 -0.1115
 7179SOL    HW132999   2.515   0.600   8.532  0.3394  1.5297 -1.1628
 7179SOL    HW233000   2.625   0.512   8.585  1.9416  0.3528 -0.0906
 7180SOL     OW33001   3.973   3.851   8.762  0.0060  0.1966  0.2922
 7180SOL    HW133002   3.923   3.921   8.720 -1.1184  0.1571  1.5516
 7180SOL    HW233003   3.921   3.832   8.840 -1.7090  1.0251 -0.6500
 7181SOL     OW33004   4.440   3.245   8.346 -0.2451 -0.1284 -0.2383
 7181SOL    HW133005   4.355   3.252   8.389 -1.1698  3.2520 -2.6760
 7181SOL    HW233006   4.436   3.293   8.264  0.7320 -0.3326 -0.4142
 7182SOL     OW33007   4.536   4.272   6.560  0.0799  0.6390  0.3243
 7182SOL    HW133008   4.508   4.342   6.502  2.2094 -0.0989 -1.5846
 7182SOL    HW233009   4.539   4.198   6.499  0.7546 -1.0068  2.3367
 7183SOL     OW33010   4.673   2.492   2.432  0.0935  0.1177  0.0310
 7183SOL    HW133011   4.622   2.543   2.369 -2.3392 -1.9739  0.3162
 7183SOL    HW233012   4.692   2.561   2.496  0.0700 -0.2728  0.4553
 7184SOL     OW33013   3.326   1.873  13.123 -0.4324 -0.4387 -0.8028
 7184SOL    HW133014   3.276   1.948  13.090  1.9259  0.5988 -2.0784
 7184SOL    HW233015   3.412   1.896  13.087  0.5896  0.3358  2.1126
 7185SOL     OW33016   0.905   1.963  10.010  0.9339 -0.5221  0.5527
 7185SOL    HW133017   0.846   1.938   9.939  1.6456  1.2880 -0.6473
 7185SOL    HW233018   0.933   1.875  10.037  0.8867 -0.1902  1.6918
 7186SOL     OW33019   4.007   2.190   4.389 -0.3420  0.0976 -0.5945
 7186SOL    HW133020   3.980   2.266   4.337 -1.2427 -0.6743 -1.2537
 7186SOL    HW233021   3.940   2.185   4.458  0.1767  2.1937  0.0770
 7187SOL     OW33022   2.750   1.841  16.974 -0.0293  0.7211  0.4502
 7187SOL    HW133023   2.699   1.804  17.045  0.6601 -1.0318  0.0406
 7187SOL    HW233024   2.726   1.933  16.984  0.6259  0.9004  0.3959
 7188SOL     OW33025   0.338   2.358   4.100  0.2153 -0.1151 -0.0814
 7188SOL    HW133026   0.399   2.419   4.058 -0.6958  0.8983  0.0760
 7188SOL    HW233027   0.361   2.361   4.193 -2.0013  0.1072  0.4482
 7189SOL     OW33028   4.294   1.730  14.055 -0.3872 -0.2308 -0.3672
 7189SOL    HW133029   4.219   1.741  13.996 -0.1272 -1.0363 -0.8456
 7189SOL    HW233030   4.337   1.810  14.024 -0.1101 -0.2399  0.0096
 7190SOL     OW33031   2.524   2.625   7.421 -0.5063  0.6113 -0.2754
 7190SOL    HW133032   2.480   2.689   7.478 -1.3097 -0.0137 -0.2051
 7190SOL    HW233033   2.613   2.660   7.428  0.4123 -2.1045  1.4472
 7191SOL     OW33034   0.693   1.434   0.779 -0.1761  0.7305  0.7803
 7191SOL    HW133035   0.684   1.421   0.685 -0.6543  2.0834  0.6334
 7191SOL    HW233036   0.662   1.525   0.771  2.3327  1.3319 -2.0033
 7192SOL     OW33037   2.806   3.254   7.642 -0.3741  0.1570  0.0056
 7192SOL    HW133038   2.880   3.194   7.657  0.3195  0.3137 -2.7816
 7192SOL    HW233039   2.827   3.332   7.692  1.0897  1.0248 -1.9316
 7193SOL     OW33040   4.718   3.133   0.281 -0.3075 -0.3694  0.5764
 7193SOL    HW133041   4.629   3.110   0.255  0.4616 -1.7656 -0.7986
 7193SOL    HW233042   0.045   3.088   0.214  1.7939  0.8345  1.3517
 7194SOL     OW33043   3.526   0.412   6.327 -0.3263 -0.1144 -0.5520
 7194SOL    HW133044   3.608   0.452   6.300 -0.3574 -0.3659 -1.0108
 7194SOL    HW233045   3.490   0.500   6.339  0.5462  0.1044  0.3986
 7195SOL     OW33046   1.364   3.403   5.094  0.0302  0.3809 -0.2293
 7195SOL    HW133047   1.398   3.344   5.162  3.1844  1.9434 -0.4536
 7195SOL    HW233048   1.406   3.355   5.023  0.2084  0.3811 -0.1242
 7196SOL     OW33049   4.257   4.501   1.864 -0.3116  0.1083  0.1531
 7196SOL    HW133050   4.324   4.547   1.814  1.9067 -2.8708  0.4073
 7196SOL    HW233051   4.222   4.450   1.790  3.2702 -1.4768 -0.4690
 7197SOL     OW33052   1.357   0.070   2.720 -0.7948 -0.0087  0.3529
 7197SOL    HW133053   1.304   0.144   2.693 -1.6176  0.0326  2.0642
 7197SOL    HW233054   1.296   4.720   2.716  0.3974 -1.0611  1.0264
 7198SOL     OW33055   2.951   3.995   8.374 -0.2460 -0.4714 -0.2205
 7198SOL    HW133056   2.923   4.064   8.315 -0.6526 -0.4993 -0.0571
 7198SOL    HW233057   2.874   3.939   8.386  0.6534 -0.8612  3.5886
 7199SOL     OW33058   1.279   4.206  12.504 -0.4355  0.3993  0.3248
 7199SOL    HW133059   1.200   4.241  12.463 -1.2469 -1.9236 -0.1395
 7199SOL    HW233060   1.279   4.113  12.481 -0.6315  0.3909  0.3571
 7200SOL     OW33061   4.529   2.690  11.643  0.1909 -0.3174 -0.3379
 7200SOL    HW133062   4.502   2.762  11.586  1.2896  0.4953  0.1764
 7200SOL    HW233063   4.449   2.686  11.694  0.6943 -0.5072  0.4318
 7201SOL     OW33064   2.295   2.473   6.789  0.0033  0.1900  0.3604
 7201SOL    HW133065   2.267   2.553   6.834  0.5199  0.3994  0.3078
 7201SOL    HW233066   2.214   2.424   6.801 -0.0590  0.3016  0.3950
 7202SOL     OW33067   0.076   1.168   5.232  0.0049 -0.2044  0.1406
 7202SOL    HW133068   0.088   1.105   5.303 -2.1485 -0.2279  0.4642
 7202SOL    HW233069   0.167   1.199   5.228 -0.3843  1.0095  0.9994
 7203SOL     OW33070   0.062   1.303  13.869 -0.0555  0.5788 -0.8689
 7203SOL    HW133071   0.079   1.213  13.842 -1.6926  0.0738 -0.2045
 7203SOL    HW233072   0.101   1.355  13.798  0.9877  0.2708 -0.5219
 7204SOL     OW33073   3.749   1.323   5.939  0.0704 -0.2936 -0.6960
 7204SOL    HW133074   3.717   1.267   5.868 -0.0229 -0.0081 -0.8773
 7204SOL    HW233075   3.701   1.287   6.013 -0.1101 -0.1576 -0.7498
 7205SOL     OW33076   1.651   2.456   2.882  0.4745 -0.3251 -0.0515
 7205SOL    HW133077   1.693   2.440   2.797  0.3443 -1.0623  0.0257
 7205SOL    HW233078   1.725   2.492   2.931 -0.4860 -1.0125  1.8872
 7206SOL     OW33079   1.686   4.079   9.502  0.6141 -0.2438  0.0469
 7206SOL    HW133080   1.768   4.072   9.552  0.0122 -2.2132  0.7616
 7206SOL    HW233081   1.684   4.002   9.444  0.5759 -0.4004  0.2587
 7207SOL     OW33082   3.138   3.950   5.080 -0.0775  0.1202  0.1388
 7207SOL    HW133083   3.069   4.013   5.101  0.2410  0.2860  0.6886
 7207SOL    HW233084   3.078   3.880   5.051 -0.3159  0.5768 -0.4535
 7208SOL     OW33085   3.880   4.709   8.655 -0.1207  0.3785 -0.0377
 7208SOL    HW133086   3.910   4.633   8.704  1.4976  0.7936 -0.4103
 7208SOL    HW233087   3.834   0.046   8.714 -0.4618  0.1433 -0.0630
 7209SOL     OW33088   0.293   1.193   5.020  0.3135  0.2840  0.0373
 7209SOL    HW133089   0.252   1.268   4.976 -0.7947 -0.3720 -0.0404
 7209SOL    HW233090   0.370   1.228   5.066  1.3728 -0.6605 -1.0087
 7210SOL     OW33091   2.879   0.475   4.793 -0.3868 -0.3971 -0.4140
 7210SOL    HW133092   2.882   0.388   4.753  0.5514 -0.3082 -0.5311
 7210SOL    HW233093   2.831   0.529   4.731  1.4901  0.7921 -0.8166
 7211SOL     OW33094   0.488   2.324   4.651  0.3668 -0.1208 -0.1744
 7211SOL    HW133095   0.493   2.315   4.747 -1.1045  1.2624  0.0399
 7211SOL    HW233096   0.526   2.241   4.622  2.3985  0.9277 -0.4665
 7212SOL     OW33097   4.159   4.084   7.950  0.3153  0.4188 -0.2459
 7212SOL    HW133098   4.163   4.056   8.041  1.4851 -0.5410 -0.5941
 7212SOL    HW233099   4.094   4.155   7.950 -0.7524 -0.5543  1.4010
 7213SOL     OW33100   1.123   0.399   6.044  0.3191 -0.0710 -0.2491
 7213SOL    HW133101   1.040   0.352   6.041  0.3715 -0.2561  1.0260
 7213SOL    HW233102   1.130   0.440   5.958 -0.9527  0.8301  0.0616
 7214SOL     OW33103   3.956   4.171   0.924  0.5522  0.3284 -0.0169
 7214SOL    HW133104   3.887   4.215   0.874  0.0051 -0.8690 -0.3071
 7214SOL    HW233105   4.027   4.235   0.919  0.4942  0.2172 -2.1501
 7215SOL     OW33106   4.626   3.909   1.499 -0.3306 -0.2113 -0.2847
 7215SOL    HW133107   4.688   3.949   1.437 -0.3365  0.8170  0.3586
 7215SOL    HW233108   4.664   3.830   1.536  1.5734  0.8287 -0.0440
 7216SOL     OW33109   1.735   2.654   9.587  0.0891  0.0876  0.1289
 7216SOL    HW133110   1.729   2.567   9.626 -1.0614  0.0096 -0.2239
 7216SOL    HW233111   1.819   2.678   9.628 -0.4045  2.5936 -0.3351
 7217SOL     OW33112   2.795   4.537   4.795 -0.2766  0.0296  0.6207
 7217SOL    HW133113   2.868   4.532   4.857 -0.5642 -1.9220  0.8041
 7217SOL    HW233114   2.723   4.570   4.848  0.7376  1.0436  1.3805
 7218SOL     OW33115   0.150   4.124   7.996  0.2659  0.4795  0.2069
 7218SOL    HW133116   0.148   4.059   7.926  1.3623  1.9486 -1.2005
 7218SOL    HW233117   0.240   4.155   7.983  0.7591 -1.3756 -0.7257
 7219SOL     OW33118   3.049   2.843   4.767  0.1549 -0.3079  0.1660
 7219SOL    HW133119   3.009   2.929   4.752  0.2823 -0.3055 -0.1508
 7219SOL    HW233120   3.062   2.818   4.676  1.0892  3.8267 -0.8206
 7220SOL     OW33121   1.388   0.375   6.820 -0.3946 -0.3558 -0.0164
 7220SOL    HW133122   1.476   0.400   6.850 -0.2357 -0.5473 -0.3305
 7220SOL    HW233123   1.321   0.422   6.869 -0.3075  0.3917 -0.6084
 7221SOL     OW33124   4.432   2.949   6.183  0.4112 -0.1564 -0.0487
 7221SOL    HW133125   4.379   2.943   6.104 -1.1323 -3.2255  1.2289
 7221SOL    HW233126   4.472   3.036   6.183  1.3407 -0.5843 -0.7720
 7222SOL     OW33127   2.654   4.087  11.903  0.2537 -0.5962  0.1581
 7222SOL    HW133128   2.734   4.042  11.875  0.8821  0.5520  0.1189
 7222SOL    HW233129   2.691   4.175  11.899  0.4224 -0.5046  3.8181
 7223SOL     OW33130   2.659   2.364  14.519  0.2092  0.0731 -0.3496
 7223SOL    HW133131   2.597   2.410  14.462  1.0964  1.4236 -0.2277
 7223SOL    HW233132   2.683   2.427  14.587  2.4816 -0.6411 -0.4901
 7224SOL     OW33133   4.635   1.834  11.813  0.1214  0.0161 -0.3230
 7224SOL    HW133134   4.544   1.809  11.828 -0.1667  0.8081 -0.7318
 7224SOL    HW233135   4.654   1.870  11.899  0.7059  1.1379 -0.9283
 7225SOL     OW33136   1.886   0.464  12.771 -0.0672 -0.3041  0.0332
 7225SOL    HW133137   1.816   0.468  12.706 -0.9201 -0.0775  0.9656
 7225SOL    HW233138   1.937   0.386  12.748 -1.2637 -1.1433  0.2287
 7226SOL     OW33139   1.675   0.071   4.770 -0.0163  0.6902 -0.2781
 7226SOL    HW133140   1.696   0.104   4.683 -0.3264  1.1388 -0.1847
 7226SOL    HW233141   1.727   4.714   4.779 -1.7680 -0.5534 -1.1892
 7227SOL     OW33142   1.828   1.412   5.922  0.0205  0.1050  0.2921
 7227SOL    HW133143   1.762   1.348   5.898  0.4464 -0.2622  0.1048
 7227SOL    HW233144   1.779   1.450   5.995 -0.1647  1.1975 -0.3890
 7228SOL     OW33145   1.204   3.000   2.647 -0.1370 -0.2344  0.5822
 7228SOL    HW133146   1.247   3.086   2.641  1.0029 -0.8191  0.2770
 7228SOL    HW233147   1.253   2.957   2.577  0.2630 -0.8347  1.2375
 7229SOL     OW33148   3.152   3.990   0.320  0.6330 -0.0206  0.0256
 7229SOL    HW133149   3.103   3.961   0.397 -0.5419  0.0044 -0.7141
 7229SOL    HW233150   3.228   4.030   0.363  0.1794  0.4384  0.4058
 7230SOL     OW33151   0.526   1.134   6.863 -0.0693 -0.3515  0.6439
 7230SOL    HW133152   0.606   1.115   6.815 -1.4913 -2.5427 -0.8500
 7230SOL    HW233153   0.517   1.054   6.915 -0.2756 -1.4130 -1.0434
 7231SOL     OW33154   2.823   3.760   4.477 -0.1109  0.0999 -0.1604
 7231SOL    HW133155   2.751   3.766   4.414  2.3077  2.8070 -2.6416
 7231SOL    HW233156   2.877   3.705   4.420  0.9912 -0.1445  1.1003
 7232SOL     OW33157   1.495   0.349  12.459 -0.4294 -0.0324 -0.3004
 7232SOL    HW133158   1.435   0.315  12.393  0.2882 -0.7660 -0.5846
 7232SOL    HW233159   1.464   0.308  12.540 -0.8606  0.7847 -0.0579
 7233SOL     OW33160   1.809   2.423   8.028  0.3616 -0.6481  0.2933
 7233SOL    HW133161   1.761   2.344   8.052  1.0653 -1.2450 -0.2916
 7233SOL    HW233162   1.823   2.462   8.115  0.1368  0.4340 -0.1520
 7234SOL     OW33163   0.470   0.592   9.271 -0.2121 -0.4066  0.0368
 7234SOL    HW133164   0.525   0.623   9.199 -1.9110  1.6522 -0.3621
 7234SOL    HW233165   0.400   0.563   9.213 -1.0261 -1.1364  1.3887
 7235SOL     OW33166   1.240   3.938  12.465 -1.0186 -0.0259  0.3880
 7235SOL    HW133167   1.203   3.852  12.485  1.2743 -2.0740 -4.2490
 7235SOL    HW233168   1.329   3.912  12.488 -0.8025 -0.2702 -0.7471
 7236SOL     OW33169   4.298   0.656   6.683 -0.4721 -0.2722  0.0230
 7236SOL    HW133170   4.296   0.733   6.627 -2.2109  1.1667  2.0548
 7236SOL    HW233171   4.367   0.683   6.743 -0.7026  3.1291 -1.2694
 7237SOL     OW33172   3.872   1.818  15.462 -0.3276 -0.3078 -0.3026
 7237SOL    HW133173   3.915   1.874  15.527  0.9767 -1.8338  0.1483
 7237SOL    HW233174   3.783   1.802  15.493  0.2302  0.5761  1.7424
 7238SOL     OW33175   2.858   1.552  13.788 -0.3845  0.5654 -0.2783
 7238SOL    HW133176   2.795   1.501  13.737 -0.1330  0.7271 -0.7596
 7238SOL    HW233177   2.796   1.614  13.826 -0.8395  0.6456 -1.1444
 7239SOL     OW33178   3.212   4.085  10.633  0.2944 -0.2065  0.0457
 7239SOL    HW133179   3.281   4.099  10.568  1.1285  1.1781  1.2061
 7239SOL    HW233180   3.177   3.998  10.618 -0.2960  0.0224  0.0761
 7240SOL     OW33181   0.881   0.663   4.009  0.1149  0.3608  0.0759
 7240SOL    HW133182   0.883   0.756   3.987 -0.2259  0.7232  1.6184
 7240SOL    HW233183   0.817   0.647   4.079  1.6377  1.0375  1.6257
 7241SOL     OW33184   2.642   4.068  12.173  0.5279 -0.0250 -0.0566
 7241SOL    HW133185   2.576   4.137  12.181  0.8189  0.1307  0.9801
 7241SOL    HW233186   2.626   4.035  12.084  0.6445 -0.4322  0.0738
 7242SOL     OW33187   0.526   3.615   5.094 -0.1595  0.1198 -0.2195
 7242SOL    HW133188   0.582   3.539   5.110 -1.4944 -0.6040  1.0743
 7242SOL    HW233189   0.549   3.638   5.004  2.4239  2.4089  1.0014
 7243SOL     OW33190   0.078   4.297   7.701  0.3529  0.4940  0.0086
 7243SOL    HW133191   0.167   4.288   7.667  1.1755  0.4602  2.2289
 7243SOL    HW233192   0.048   4.207   7.711  1.8556  0.2980  2.6365
 7244SOL     OW33193   3.978   4.384   4.596 -0.0180 -0.1501 -0.4388
 7244SOL    HW133194   4.032   4.462   4.604 -0.9631  0.6278 -1.6405
 7244SOL    HW233195   4.036   4.315   4.629  0.2181 -0.1604 -0.8836
 7245SOL     OW33196   3.314   2.878   7.047  0.2717 -0.4154  0.4792
 7245SOL    HW133197   3.273   2.845   6.967 -0.9638  1.0509  0.5145
 7245SOL    HW233198   3.408   2.886   7.028 -0.2620  0.0180 -1.9814
 7246SOL     OW33199   4.693   1.227  12.580  0.2328 -0.3665 -0.3578
 7246SOL    HW133200   4.644   1.283  12.640 -0.2650 -0.2056 -0.9070
 7246SOL    HW233201   0.035   1.286  12.543  1.2808 -0.6864  0.9879
 7247SOL     OW33202   1.223   0.792   4.611 -0.2561 -0.0191  0.1995
 7247SOL    HW133203   1.305   0.742   4.604 -0.1119  0.2772 -0.2597
 7247SOL    HW233204   1.190   0.780   4.522  1.3957  2.9298 -0.8423
 7248SOL     OW33205   0.884   1.506   1.178 -0.3790  0.1521  0.1057
 7248SOL    HW133206   0.937   1.584   1.194 -1.6404  0.8112  1.0586
 7248SOL    HW233207   0.820   1.508   1.249 -0.7261 -0.7646 -0.1770
 7249SOL     OW33208   1.719   3.692   5.682  0.6928 -0.1914  0.2746
 7249SOL    HW133209   1.757   3.694   5.770 -1.6813  1.0497  1.2892
 7249SOL    HW233210   1.796   3.706   5.627 -0.4020  2.4383 -0.6005
 7250SOL     OW33211   0.682   0.437   6.662  0.1329 -0.4430 -0.2835
 7250SOL    HW133212   0.741   0.498   6.617 -0.8759 -1.5553 -3.0842
 7250SOL    HW233213   0.716   0.438   6.752  0.7545 -2.0232 -0.5090
 7251SOL     OW33214   1.219   1.758   8.680 -0.0217 -0.6215 -0.6879
 7251SOL    HW133215   1.172   1.702   8.743 -1.2947  0.9365 -0.2314
 7251SOL    HW233216   1.256   1.685   8.632  1.7861 -1.4734  2.0034
 7252SOL     OW33217   0.105   1.293   3.870  0.4655  0.3157 -0.1030
 7252SOL    HW133218   0.161   1.351   3.818  1.5408 -0.5281  0.1092
 7252SOL    HW233219   0.073   1.362   3.928 -0.2337 -0.7324  0.7584
 7253SOL     OW33220   1.246   0.524   3.712 -0.0333 -0.2563 -0.6207
 7253SOL    HW133221   1.342   0.520   3.717  0.0073  0.3407 -0.8744
 7253SOL    HW233222   1.220   0.600   3.763  0.8862  0.8835 -1.8393
 7254SOL     OW33223   3.875   2.889   1.792 -0.1811 -0.0856  0.1527
 7254SOL    HW133224   3.948   2.830   1.772  0.3980  0.3093  1.0664
 7254SOL    HW233225   3.836   2.903   1.706 -2.7110 -1.5511  1.0828
 7255SOL     OW33226   0.344   4.394   2.093 -0.1666 -0.1249  0.3257
 7255SOL    HW133227   0.366   4.305   2.065  3.0137  0.7797 -0.0045
 7255SOL    HW233228   0.338   4.381   2.188 -1.1108  0.6100  0.3674
 7256SOL     OW33229   0.837   3.992   3.201 -0.4190  0.5711 -0.7488
 7256SOL    HW133230   0.931   3.986   3.180 -0.4104  0.0842 -0.5766
 7256SOL    HW233231   0.814   4.074   3.157  0.0471  1.7781  1.2851
 7257SOL     OW33232   0.679   1.799   9.347 -0.4019  1.0005 -0.0336
 7257SOL    HW133233   0.713   1.873   9.298  1.8041 -0.5976 -0.9196
 7257SOL    HW233234   0.644   1.840   9.426  2.5073  0.6474  1.4335
 7258SOL     OW33235   4.628   3.844   3.291  0.0929 -0.4457 -0.3818
 7258SOL    HW133236   4.643   3.809   3.379  1.8537 -1.7948 -1.2383
 7258SOL    HW233237   4.684   3.790   3.236  0.1674 -1.2997  0.5309
 7259SOL     OW33238   2.616   2.662   8.281 -0.0890 -0.4384  0.3636
 7259SOL    HW133239   2.631   2.590   8.220 -0.2129  1.7391 -2.2231
 7259SOL    HW233240   2.615   2.738   8.223 -1.2710 -1.0825 -0.4458
 7260SOL     OW33241   2.723   0.192   4.705 -0.1325  0.2587 -0.5509
 7260SOL    HW133242   2.653   0.126   4.701 -1.8974  1.9886  1.4969
 7260SOL    HW233243   2.761   0.176   4.791  0.5736  0.2882 -0.8623
 7261SOL     OW33244   3.633   2.543   7.499  0.4254 -0.1005 -0.1190
 7261SOL    HW133245   3.613   2.525   7.407  0.8348 -0.3970 -0.1480
 7261SOL    HW233246   3.549   2.537   7.544  0.0176  0.1394 -0.8433
 7262SOL     OW33247   4.331   3.183   2.592  0.2162  0.1687 -0.2607
 7262SOL    HW133248   4.395   3.202   2.524 -2.1442 -1.5064 -2.9365
 7262SOL    HW233249   4.358   3.234   2.669 -1.7176 -0.6401  0.9804
 7263SOL     OW33250   3.187   3.136   8.631  0.2793 -0.1694 -0.0405
 7263SOL    HW133251   3.264   3.164   8.681 -2.5531  0.7485  3.8551
 7263SOL    HW233252   3.126   3.111   8.701 -0.0090 -2.7916 -1.2516
 7264SOL     OW33253   0.210   3.204   4.701  0.1509  0.1088  0.3387
 7264SOL    HW133254   0.297   3.218   4.739 -0.9327  0.1196  2.8410
 7264SOL    HW233255   0.153   3.183   4.775  0.9094 -0.3301  0.7937
 7265SOL     OW33256   4.427   3.520   5.493  0.0287 -0.2746 -0.1992
 7265SOL    HW133257   4.405   3.507   5.585 -0.0154 -0.8239 -0.2912
 7265SOL    HW233258   4.479   3.442   5.474 -0.1749  0.1820 -2.7369
 7266SOL     OW33259   2.398   4.054   7.965 -0.0624  0.6709 -0.3153
 7266SOL    HW133260   2.447   4.001   8.028  0.6412  3.0307  1.1269
 7266SOL    HW233261   2.310   4.022   7.988  1.0071 -0.1187  2.7142
 7267SOL     OW33262   2.069   3.477   2.574 -0.0338  0.0833 -0.3000
 7267SOL    HW133263   2.029   3.391   2.566  0.4728 -0.0578 -1.3531
 7267SOL    HW233264   2.128   3.471   2.498  0.6279 -1.7622  0.3809
 7268SOL     OW33265   4.342   0.147   8.186  0.2033 -0.0010 -0.3171
 7268SOL    HW133266   4.410   0.084   8.162  0.6881 -0.0015  1.0839
 7268SOL    HW233267   4.368   0.169   8.275 -1.4070  1.6424 -0.2633
 7269SOL     OW33268   4.067   0.061   8.978 -0.1728 -0.3002 -0.1271
 7269SOL    HW133269   4.092   0.144   8.937 -0.3521  0.6999  1.7641
 7269SOL    HW233270   3.996   0.084   9.038 -0.2602  1.2734 -0.8253
 7270SOL     OW33271   3.042   1.433   6.726 -0.3767 -0.2228  0.3512
 7270SOL    HW133272   2.975   1.459   6.790 -1.1892  0.5068 -0.8028
 7270SOL    HW233273   3.054   1.512   6.674 -0.7309 -0.0577  0.5132
 7271SOL     OW33274   1.478   2.296  10.428 -0.3206  0.3369  0.6809
 7271SOL    HW133275   1.571   2.319  10.416 -0.6723  1.5765  0.4079
 7271SOL    HW233276   1.494   2.251  10.511  0.9602 -1.2052 -0.3738
 7272SOL     OW33277   0.446   1.431   8.812 -0.0176  0.1618  0.2605
 7272SOL    HW133278   0.423   1.519   8.842  1.0099  0.4715  0.1292
 7272SOL    HW233279   0.540   1.439   8.799 -0.1626 -0.4428 -1.1471
 7273SOL     OW33280   3.423   4.074   8.186  0.1549  1.4045  0.1496
 7273SOL    HW133281   3.386   4.054   8.100  0.7706 -0.8673  0.4070
 7273SOL    HW233282   3.363   4.141   8.218 -0.7677 -0.4365  2.2716
 7274SOL     OW33283   0.310   3.416   8.363 -0.3326 -0.7460 -0.2271
 7274SOL    HW133284   0.365   3.367   8.423  0.5708 -0.2799 -0.6802
 7274SOL    HW233285   0.279   3.338   8.316  1.5821 -1.0482 -1.0054
 7275SOL     OW33286   4.562   3.172  11.104 -0.2204  0.0294 -0.2860
 7275SOL    HW133287   4.560   3.078  11.086 -1.7301  0.4007 -2.0049
 7275SOL    HW233288   4.557   3.181  11.199  0.2881 -1.4639 -0.1148
 7276SOL     OW33289   2.894   4.260   0.910  0.7278  0.3216  0.0943
 7276SOL    HW133290   2.839   4.333   0.882 -0.1949 -0.3515  0.1393
 7276SOL    HW233291   2.842   4.227   0.983  3.2403 -0.9001  1.3338
 7277SOL     OW33292   3.575   2.150  11.457  0.1932 -0.2282 -0.0987
 7277SOL    HW133293   3.654   2.204  11.446  0.5180 -0.1282  2.8720
 7277SOL    HW233294   3.520   2.190  11.524 -0.9042 -0.7231 -0.7083
 7278SOL     OW33295   0.524   1.151  12.302 -0.3623 -0.0997  0.2884
 7278SOL    HW133296   0.605   1.104  12.324 -0.4601 -1.4273 -2.1719
 7278SOL    HW233297   0.554   1.242  12.303  0.8270 -0.5039  1.4269
 7279SOL     OW33298   4.415   1.446   9.569 -0.3642 -0.0205  0.3183
 7279SOL    HW133299   4.345   1.419   9.628 -0.3295 -0.1728  0.2918
 7279SOL    HW233300   4.381   1.517   9.515 -1.2508 -0.8494 -0.2054
 7280SOL     OW33301   0.942   2.633  16.530  0.5782 -0.2025 -0.1133
 7280SOL    HW133302   0.913   2.724  16.537 -0.5692 -0.5911  0.2925
 7280SOL    HW233303   0.856   2.605  16.561  0.8689  0.4468  1.2639
 7281SOL     OW33304   2.340   3.264   5.758  0.3767  0.4249 -0.8074
 7281SOL    HW133305   2.308   3.251   5.847 -3.2779 -0.2493 -2.2417
 7281SOL    HW233306   2.316   3.355   5.740 -1.1261  0.3807  1.0096
 7282SOL     OW33307   3.753   0.533   7.852 -0.1810 -0.4855  0.2292
 7282SOL    HW133308   3.696   0.471   7.898 -1.5910  2.0648  1.9839
 7282SOL    HW233309   3.696   0.550   7.777 -1.1181  1.8235  1.4601
 7283SOL     OW33310   2.466   3.191   6.741 -0.2877 -0.0998  0.5270
 7283SOL    HW133311   2.415   3.268   6.767  2.2423  1.6612  0.2507
 7283SOL    HW233312   2.552   3.229   6.759  0.5685 -2.3037  1.0745
 7284SOL     OW33313   3.377   0.851   2.568 -0.1680 -0.0156  0.9465
 7284SOL    HW133314   3.349   0.936   2.535 -1.6224 -1.1404 -0.8047
 7284SOL    HW233315   3.420   0.818   2.489 -0.4348 -1.2446  1.3050
 7285SOL     OW33316   0.457   2.576  16.652 -0.0041 -0.6856 -0.0399
 7285SOL    HW133317   0.386   2.605  16.709  0.3600 -0.7672  0.4606
 7285SOL    HW233318   0.446   2.625  16.571 -0.1606 -0.1015  0.3335
 7286SOL     OW33319   4.162   1.228   2.723  0.6087 -0.1952  0.4147
 7286SOL    HW133320   4.071   1.223   2.751  0.1899  1.0227 -0.7470
 7286SOL    HW233321   4.194   1.145   2.759  0.3264 -1.2385 -1.6855
 7287SOL     OW33322   0.800   1.702   9.708 -0.1788  0.3245 -0.5730
 7287SOL    HW133323   0.815   1.712   9.802  1.0981 -1.7493 -0.5391
 7287SOL    HW233324   0.732   1.765   9.687  1.3399  1.5752 -1.7209
 7288SOL     OW33325   2.947   2.788   4.322 -0.3072 -0.4346 -0.4067
 7288SOL    HW133326   2.935   2.848   4.249  2.4477  0.9782  0.3096
 7288SOL    HW233327   2.876   2.824   4.375  0.5194  0.8072 -0.1545
 7289SOL     OW33328   2.362   4.588   6.097  0.6671 -0.3289  0.4525
 7289SOL    HW133329   2.354   4.668   6.046 -3.3876 -1.3834 -0.6113
 7289SOL    HW233330   2.271   4.557   6.105  0.3846  0.4182  0.0679
 7290SOL     OW33331   4.436   3.411  11.168  0.1686  0.5576  0.1039
 7290SOL    HW133332   4.499   3.480  11.147  1.0660  0.0448  1.0834
 7290SOL    HW233333   4.468   3.344  11.108  0.9353  0.7668  0.2720
 7291SOL     OW33334   1.735   0.282  12.302  0.3364 -0.0885  0.1330
 7291SOL    HW133335   1.704   0.336  12.229  1.7373 -0.7851 -0.9812
 7291SOL    HW233336   1.657   0.280  12.356 -0.3281 -1.2590 -0.8694
 7292SOL     OW33337   1.419   1.970   3.021 -0.2741 -0.6510  0.2821
 7292SOL    HW133338   1.328   1.951   3.000  0.3450 -0.6759 -2.4098
 7292SOL    HW233339   1.454   1.955   2.933 -0.9965  0.5703 -0.2114
 7293SOL     OW33340   0.630   2.323   8.344 -0.3085  0.0367  0.6634
 7293SOL    HW133341   0.714   2.329   8.298  0.4320  0.1904  2.0261
 7293SOL    HW233342   0.655   2.258   8.410  0.0923 -1.0544 -0.5592
 7294SOL     OW33343   1.140   4.400   6.045 -0.0586 -0.3134  0.0135
 7294SOL    HW133344   1.122   4.489   6.014 -1.7345 -0.3030  0.9821
 7294SOL    HW233345   1.218   4.374   5.996  0.3159  2.3348 -0.8243
 7295SOL     OW33346   3.033   1.660   5.004 -0.8618  0.2551  0.2334
 7295SOL    HW133347   3.010   1.589   5.064  2.3835 -1.8964 -1.0562
 7295SOL    HW233348   3.064   1.612   4.927  1.3362  2.2556 -0.1258
 7296SOL     OW33349   3.949   3.553   2.613  0.3579  0.1289 -0.1266
 7296SOL    HW133350   3.894   3.524   2.541 -0.6940  1.2307  0.2428
 7296SOL    HW233351   3.931   3.647   2.618  2.0835  0.4740 -0.1564
 7297SOL     OW33352   0.251   1.331  14.354 -0.0443  0.3950 -0.1948
 7297SOL    HW133353   0.211   1.394  14.295 -0.0800 -0.3092 -0.9216
 7297SOL    HW233354   0.247   1.258  14.292  1.2568  0.3557 -0.2356
 7298SOL     OW33355   0.368   4.404   5.604  0.0388  0.1958 -0.3547
 7298SOL    HW133356   0.294   4.346   5.621  0.6843 -1.3790 -2.9755
 7298SOL    HW233357   0.329   4.484   5.569 -1.8123 -0.1174  0.9894
 7299SOL     OW33358   2.317   1.754   3.533 -0.6100 -0.0453 -0.3073
 7299SOL    HW133359   2.310   1.698   3.611  0.4920 -0.6733 -0.6611
 7299SOL    HW233360   2.269   1.833   3.557  1.1854  0.7149  0.7603
 7300SOL     OW33361   1.002   2.745   7.047 -0.0116  0.5620 -0.6514
 7300SOL    HW133362   0.931   2.692   7.011 -0.3593  0.3923  0.2924
 7300SOL    HW233363   0.964   2.829   7.023  0.0044  0.7674  0.0454
 7301SOL     OW33364   3.575   4.303  10.647  0.0872  0.0191  0.3510
 7301SOL    HW133365   3.587   4.270  10.558 -1.1219  0.0398  0.1884
 7301SOL    HW233366   3.654   4.259  10.680 -0.0112 -0.9065 -0.6376
 7302SOL     OW33367   1.812   3.346   8.884  0.1288 -0.2211  0.3766
 7302SOL    HW133368   1.836   3.326   8.974  1.5862 -1.1698 -0.2346
 7302SOL    HW233369   1.869   3.285   8.837 -0.9407 -1.8987  1.2700
 7303SOL     OW33370   1.911   3.044   2.821 -0.0696  0.2505 -0.4458
 7303SOL    HW133371   1.822   3.014   2.803 -0.0729 -0.1737  0.2678
 7303SOL    HW233372   1.951   3.034   2.735  1.4236  0.8931  0.1699
 7304SOL     OW33373   4.575   1.315   7.349  0.3940  0.0730 -0.2180
 7304SOL    HW133374   4.643   1.249   7.339 -0.9670 -1.2189 -1.1233
 7304SOL    HW233375   4.623   1.375   7.405  1.5266 -0.5468 -0.5353
 7305SOL     OW33376   0.501   0.599   2.231 -0.4304  0.7082 -0.0109
 7305SOL    HW133377   0.412   0.567   2.222  0.5697 -1.6511 -1.3845
 7305SOL    HW233378   0.549   0.524   2.195 -1.5594 -0.1241  0.2490
 7306SOL     OW33379   2.893   3.509   7.228 -0.0218 -0.1771  0.3250
 7306SOL    HW133380   2.885   3.450   7.154 -0.4474  3.6024 -2.6504
 7306SOL    HW233381   2.900   3.443   7.297  1.3807 -0.2010  0.1554
 7307SOL     OW33382   1.989   3.520   7.941  0.2994  0.2632 -0.2592
 7307SOL    HW133383   2.070   3.539   7.987  0.4475 -0.4148 -0.2506
 7307SOL    HW233384   1.954   3.442   7.984 -1.4136  1.7552  1.0731
 7308SOL     OW33385   0.171   4.719   6.424  0.6260  0.0274  0.8031
 7308SOL    HW133386   0.200   4.681   6.341 -0.7784 -1.3210  0.9328
 7308SOL    HW233387   0.089   0.038   6.395  0.9681 -0.0327 -0.2601
 7309SOL     OW33388   1.159   1.807   9.155 -0.1138 -0.1897  0.0526
 7309SOL    HW133389   1.198   1.741   9.213  1.2291  0.2516 -0.3682
 7309SOL    HW233390   1.078   1.761   9.132 -0.2641 -0.3219  0.8162
 7310SOL     OW33391   1.148   2.670  16.741  0.4524  0.2611 -0.3836
 7310SOL    HW133392   1.175   2.651  16.831 -1.6795 -1.0959 -0.0180
 7310SOL    HW233393   1.052   2.668  16.744  0.4050  0.9934 -1.4421
 7311SOL     OW33394   0.212   1.486   8.292  0.0423 -0.8470  0.3134
 7311SOL    HW133395   0.229   1.564   8.345 -0.6892 -0.3149 -0.2366
 7311SOL    HW233396   0.180   1.421   8.356 -3.1369  1.2371  0.8697
 7312SOL     OW33397   1.000   4.348  13.154 -0.3180 -0.9397 -0.2751
 7312SOL    HW133398   0.973   4.438  13.174 -1.3147 -0.9803 -1.4090
 7312SOL    HW233399   1.094   4.361  13.160 -0.3007 -2.1993  2.1939
 7313SOL     OW33400   2.015   0.751  12.529 -0.1749 -0.4881 -0.8779
 7313SOL    HW133401   1.989   0.718  12.615 -0.0414  2.0624  0.1372
 7313SOL    HW233402   1.934   0.753  12.479 -0.4184  3.0816 -0.3703
 7314SOL     OW33403   0.398   2.644   0.046  0.2671  0.1596 -0.4651
 7314SOL    HW133404   0.331   2.711   0.029  1.4252  1.1683 -1.0250
 7314SOL    HW233405   0.407   2.600  17.655 -0.9750 -0.3957 -0.3077
 7315SOL     OW33406   1.879   2.756  17.131 -0.2743 -0.2299  0.0381
 7315SOL    HW133407   1.969   2.741  17.103 -1.1330 -1.4415 -2.1871
 7315SOL    HW233408   1.872   2.823  17.064 -0.1593  1.0471  1.3205
 7316SOL     OW33409   3.845   4.372  10.055 -0.0175  0.8638 -0.3310
 7316SOL    HW133410   3.770   4.428  10.076  1.2143  1.9265  1.2852
 7316SOL    HW233411   3.918   4.409  10.105 -1.8117  1.6431  1.7031
 7317SOL     OW33412   3.639   1.688   2.621 -0.1238 -0.4285  0.4060
 7317SOL    HW133413   3.589   1.744   2.680 -0.8086 -0.7950  0.1829
 7317SOL    HW233414   3.699   1.758   2.594 -0.9064  0.0273 -0.1770
 7318SOL     OW33415   3.855   3.614   7.560  0.6384 -0.0499  0.5677
 7318SOL    HW133416   3.880   3.657   7.642  0.1426  0.8431  0.2522
 7318SOL    HW233417   3.790   3.676   7.527  2.1940  0.5407 -1.2972
 7319SOL     OW33418   4.012   2.679  17.355  0.0974 -0.0017  0.7380
 7319SOL    HW133419   4.059   2.761  17.340  0.8855 -0.2050  2.1972
 7319SOL    HW233420   3.942   2.689  17.289 -1.4103 -2.1746  1.9948
 7320SOL     OW33421   2.487   2.562  12.762  0.1326 -0.0272 -0.8256
 7320SOL    HW133422   2.483   2.485  12.705 -0.3630 -0.2877 -0.4376
 7320SOL    HW233423   2.525   2.519  12.839  0.3955 -1.5221 -1.7791
 7321SOL     OW33424   1.759   0.968   9.285 -0.3132 -0.0914  0.7999
 7321SOL    HW133425   1.702   1.019   9.342 -0.5231 -0.1032  0.5992
 7321SOL    HW233426   1.689   0.944   9.224  0.9944 -0.7771 -0.4421
 7322SOL     OW33427   1.646   4.008   0.118  0.4630 -0.3161  0.2326
 7322SOL    HW133428   1.712   4.064   0.160  2.1678  0.0710 -3.0344
 7322SOL    HW233429   1.613   4.058   0.044 -0.3299  0.9381  1.4308
 7323SOL     OW33430   2.084   4.722  11.108  0.2640 -0.1903  0.1465
 7323SOL    HW133431   2.172   4.692  11.086  0.0421  0.0571 -1.0801
 7323SOL    HW233432   2.056   0.048  11.031  0.2322 -1.0319 -0.3770
 7324SOL     OW33433   1.664   3.393   7.993  0.0296  0.2879  0.7522
 7324SOL    HW133434   1.717   3.365   7.919 -2.3023 -1.6819 -0.1709
 7324SOL    HW233435   1.604   3.450   7.944 -0.5997  0.4633  1.7263
 7325SOL     OW33436   3.041   2.229   1.635  0.2612 -0.2836  0.0760
 7325SOL    HW133437   2.978   2.272   1.693  2.5993 -0.2534  2.6034
 7325SOL    HW233438   3.081   2.308   1.599 -1.9228  1.7393  2.0719
 7326SOL     OW33439   1.876   2.063   2.295 -0.0417 -0.0705 -0.8444
 7326SOL    HW133440   1.922   1.984   2.323  3.3168  2.2549  0.0794
 7326SOL    HW233441   1.784   2.037   2.301  0.9845 -3.5131  0.1083
 7327SOL     OW33442   3.782   2.819  15.410  0.0475 -0.4728 -0.0607
 7327SOL    HW133443   3.782   2.888  15.344  0.6402  0.2137  0.6637
 7327SOL    HW233444   3.875   2.823  15.431 -0.3488  0.1402  1.5799
 7328SOL     OW33445   4.525   0.528   6.126  0.9611 -0.0216  0.2784
 7328SOL    HW133446   4.487   0.603   6.171 -0.2188  0.3268 -1.2985
 7328SOL    HW233447   4.469   0.458   6.158  0.6660 -0.3350 -0.9461
 7329SOL     OW33448   1.210   1.729   6.464 -0.2048 -0.7002  0.1036
 7329SOL    HW133449   1.125   1.743   6.421 -0.0322 -0.2019 -0.0717
 7329SOL    HW233450   1.265   1.803   6.439 -1.0417 -1.2673 -3.3740
 7330SOL     OW33451   1.251   2.456   7.735  0.0452  0.2583 -0.2627
 7330SOL    HW133452   1.227   2.365   7.755  1.4381  0.4909  2.5032
 7330SOL    HW233453   1.312   2.447   7.662 -0.1593  0.2799 -0.4356
 7331SOL     OW33454   3.214   1.046   4.441 -0.1540 -0.5618 -0.3953
 7331SOL    HW133455   3.149   1.116   4.439  0.9875  0.4153 -2.7125
 7331SOL    HW233456   3.222   1.029   4.347  0.9238  1.8642 -0.7461
 7332SOL     OW33457   2.343   0.142   2.626  0.2161 -0.0860  0.2969
 7332SOL    HW133458   2.287   0.072   2.591 -1.2916  0.6096  1.3340
 7332SOL    HW233459   2.310   0.211   2.570  0.3232  0.7065  1.2133
 7333SOL     OW33460   3.790   2.044   4.078  0.2763 -0.0505  0.5770
 7333SOL    HW133461   3.807   2.136   4.061 -1.8030  0.3848  0.8623
 7333SOL    HW233462   3.863   2.005   4.031 -1.0746  0.9373 -2.3169
 7334SOL     OW33463   0.981   2.090   6.797  0.2889  0.2261 -0.1930
 7334SOL    HW133464   0.923   2.032   6.748 -1.7778  2.3481 -0.2390
 7334SOL    HW233465   0.961   2.181   6.775 -1.2528 -0.1843 -0.4397
 7335SOL     OW33466   1.640   1.743   2.369 -0.3255  0.2253 -0.4866
 7335SOL    HW133467   1.646   1.804   2.296 -2.1785  0.1219 -0.7188
 7335SOL    HW233468   1.602   1.662   2.336 -2.7406  0.7098  1.1284
 7336SOL     OW33469   2.264   0.329   8.555  0.0750  0.0606  0.2307
 7336SOL    HW133470   2.172   0.327   8.582  0.4476  0.4560  1.4931
 7336SOL    HW233471   2.272   0.416   8.515 -0.7941  0.4658  0.9490
 7337SOL     OW33472   4.348   4.590   4.497  0.6260  0.0460  1.1427
 7337SOL    HW133473   4.435   4.617   4.525  0.6828  1.5222 -0.4580
 7337SOL    HW233474   4.366   4.592   4.404  0.8347  0.0796  1.1855
 7338SOL     OW33475   4.628   2.074  10.324  0.0695  0.0105  0.3160
 7338SOL    HW133476   4.666   2.012  10.386  0.3641  1.8842  2.0143
 7338SOL    HW233477   4.533   2.064  10.335  0.4322 -2.5174  1.2346
 7339SOL     OW33478   2.604   2.172   3.951 -0.1585  0.8568  0.4393
 7339SOL    HW133479   2.528   2.114   3.947 -0.4064  1.1588  0.7940
 7339SOL    HW233480   2.578   2.222   3.874 -2.5778 -1.3593 -0.1828
 7340SOL     OW33481   4.439   2.107   1.915  0.0319  0.6362 -0.2422
 7340SOL    HW133482   4.532   2.085   1.921 -0.2758 -1.1591 -2.0913
 7340SOL    HW233483   4.422   2.082   1.825 -1.5166 -1.0449  0.5224
 7341SOL     OW33484   4.574   1.990   4.956  0.0054 -0.1176  0.1373
 7341SOL    HW133485   4.627   1.964   5.031 -0.7510 -2.0715  0.0049
 7341SOL    HW233486   4.638   2.047   4.914 -2.1463  1.7848 -0.5788
 7342SOL     OW33487   1.339   3.104  15.878 -0.1330  0.0060  0.1772
 7342SOL    HW133488   1.342   3.120  15.784 -2.1313 -1.8038 -0.1867
 7342SOL    HW233489   1.316   3.193  15.904 -2.9501 -0.4663 -0.6420
 7343SOL     OW33490   2.034   0.392   9.368 -0.4092  0.2578 -0.1004
 7343SOL    HW133491   2.046   0.395   9.273 -1.9672 -0.5050 -0.3350
 7343SOL    HW233492   1.949   0.434   9.381  0.4244  2.3811 -1.5228
 7344SOL     OW33493   2.639   3.710   3.289  0.4018 -0.0091 -0.3156
 7344SOL    HW133494   2.560   3.751   3.325  0.2160  0.3106 -1.1044
 7344SOL    HW233495   2.701   3.747   3.353  2.4179 -0.8781 -1.7762
 7345SOL     OW33496   3.523   1.925   9.621  0.0414 -0.2573 -0.1917
 7345SOL    HW133497   3.595   1.871   9.654 -0.2368  0.2138  1.1830
 7345SOL    HW233498   3.451   1.876   9.661  2.1187 -0.2321  3.5734
 7346SOL     OW33499   4.072   0.465   7.131  0.0874 -0.2490  0.7529
 7346SOL    HW133500   4.079   0.370   7.132 -1.0147 -0.3475 -1.2468
 7346SOL    HW233501   4.160   0.499   7.114 -0.0915 -0.0576  0.2264
 7347SOL     OW33502   1.464   1.570  13.220  0.1841 -0.1090 -0.3355
 7347SOL    HW133503   1.457   1.496  13.280  0.2516  1.1862  1.2920
 7347SOL    HW233504   1.423   1.536  13.141  1.1792 -1.8731 -0.0919
 7348SOL     OW33505   3.328   0.681   8.984  0.1157 -0.3680 -0.2398
 7348SOL    HW133506   3.282   0.710   9.062 -0.6984 -0.2297 -0.7748
 7348SOL    HW233507   3.259   0.688   8.918 -0.8217 -2.7822  0.4852
 7349SOL     OW33508   3.268   0.107   5.308 -0.9293 -0.1837  0.0029
 7349SOL    HW133509   3.202   0.081   5.371 -1.1802  0.7155  0.1159
 7349SOL    HW233510   3.281   0.201   5.322 -1.8556 -0.1990  0.9108
 7350SOL     OW33511   3.315   0.765  16.234  0.2356 -0.5329 -0.1446
 7350SOL    HW133512   3.410   0.755  16.239  0.2754  0.6699  1.6156
 7350SOL    HW233513   3.289   0.772  16.326  0.2486  0.2391 -0.2039
 7351SOL     OW33514   1.866   0.665   7.885  0.2538 -0.1401 -0.8602
 7351SOL    HW133515   1.842   0.652   7.793 -2.0812 -0.7428 -0.1833
 7351SOL    HW233516   1.952   0.702   7.867  0.2121  0.8162  0.8797
 7352SOL     OW33517   1.036   3.640  13.710  0.4991  0.1327  0.0016
 7352SOL    HW133518   1.116   3.642  13.763 -0.1823  0.4995  1.0227
 7352SOL    HW233519   0.993   3.560  13.742  2.4369 -1.5338 -1.6057
 7353SOL     OW33520   1.377   2.093  16.936 -0.1136 -0.0947 -0.2538
 7353SOL    HW133521   1.355   2.172  16.886 -1.2528 -1.1351 -1.3974
 7353SOL    HW233522   1.326   2.110  17.015  1.6161  0.0799  0.8267
 7354SOL     OW33523   0.198   1.518   3.790 -0.5288 -0.0546  0.1588
 7354SOL    HW133524   0.176   1.485   3.703 -0.2995  0.4096 -0.0758
 7354SOL    HW233525   0.199   1.611   3.764  0.7921 -0.0728  0.1672
 7355SOL     OW33526   4.050   0.743   4.020 -0.7109 -0.1075  0.5434
 7355SOL    HW133527   4.115   0.674   4.005  2.3924  2.9995 -0.2723
 7355SOL    HW233528   4.073   0.754   4.112  3.4346 -0.1316 -0.4886
 7356SOL     OW33529   2.081   4.404  16.070  0.0666 -0.0965  0.0668
 7356SOL    HW133530   2.072   4.467  15.999  0.8820 -1.0627 -0.8931
 7356SOL    HW233531   2.098   4.323  16.021  0.2120  0.7672 -1.2964
 7357SOL     OW33532   1.006   0.506  10.834  0.1142 -0.0794  0.1689
 7357SOL    HW133533   0.918   0.536  10.812  2.3011  4.1398 -2.8359
 7357SOL    HW233534   1.043   0.590  10.861 -2.0494  0.7636  0.5129
 7358SOL     OW33535   0.514   0.675   6.634 -0.2681 -0.0947  0.5631
 7358SOL    HW133536   0.568   0.596   6.636 -0.0706  0.1308  4.0391
 7358SOL    HW233537   0.572   0.733   6.684 -0.6954  1.2778 -0.5122
 7359SOL     OW33538   2.074   1.734   8.044 -0.1960 -0.2926  0.2156
 7359SOL    HW133539   2.094   1.820   8.006 -1.1310 -0.2831 -0.2627
 7359SOL    HW233540   2.058   1.685   7.964 -0.0492  1.9130 -1.1862
 7360SOL     OW33541   3.050   1.096   9.563  0.0272  0.2512  0.3783
 7360SOL    HW133542   3.058   1.059   9.652 -3.0309  0.2823  0.6766
 7360SOL    HW233543   3.124   1.155   9.554 -1.5754  2.4929  1.9738
 7361SOL     OW33544   2.639   4.340   3.661  0.4204  0.0305 -0.5251
 7361SOL    HW133545   2.584   4.403   3.614 -0.5276 -1.2990 -1.2208
 7361SOL    HW233546   2.642   4.272   3.594  1.3683  2.0180 -2.5015
 7362SOL     OW33547   4.475   1.290  10.258  0.4119  0.1172 -0.1153
 7362SOL    HW133548   4.544   1.228  10.282 -1.0979 -2.1119 -1.6225
 7362SOL    HW233549   4.461   1.268  10.166  1.1087  3.5128 -1.0600
 7363SOL     OW33550   4.717   4.131   6.104  0.5616 -0.0164 -0.2251
 7363SOL    HW133551   0.016   4.062   6.167  0.4879 -0.3949 -0.6170
 7363SOL    HW233552   4.705   4.083   6.022 -0.7169  0.6285 -0.4163
 7364SOL     OW33553   2.180   4.298   7.344  0.6168 -0.2750  0.0182
 7364SOL    HW133554   2.246   4.295   7.413 -0.4795 -0.8841  1.0345
 7364SOL    HW233555   2.105   4.302   7.403  2.3900  0.8127  2.2042
 7365SOL     OW33556   0.564   0.367  13.508  0.3436 -0.0665  0.1684
 7365SOL    HW133557   0.631   0.302  13.531 -1.5035 -1.8235  0.6113
 7365SOL    HW233558   0.487   0.327  13.551 -0.2114 -0.2430 -0.9945
 7366SOL     OW33559   1.885   4.078   8.509 -0.0896  0.2009  0.5965
 7366SOL    HW133560   1.793   4.076   8.482  0.3388  2.9508 -0.9871
 7366SOL    HW233561   1.926   4.056   8.425  2.3964  2.8171  1.1298
 7367SOL     OW33562   1.723   3.781  10.986 -0.2252  0.6925 -0.5398
 7367SOL    HW133563   1.808   3.811  11.018 -0.1494 -1.5477  1.3849
 7367SOL    HW233564   1.698   3.854  10.930 -1.6967  0.5832 -0.0432
 7368SOL     OW33565   0.932   3.643   1.260 -0.0909 -0.3316  0.2243
 7368SOL    HW133566   0.935   3.566   1.205  0.0166  0.7278 -1.2504
 7368SOL    HW233567   0.844   3.672   1.237 -0.0472  1.6995  2.4988
 7369SOL     OW33568   1.793   1.135   6.356 -0.3010 -0.0235  0.7550
 7369SOL    HW133569   1.814   1.043   6.371 -2.4759 -0.5589  0.3787
 7369SOL    HW233570   1.698   1.142   6.361 -0.3612 -0.5851  0.3275
 7370SOL     OW33571   0.192   1.200  10.169  0.1157  0.8320 -0.5237
 7370SOL    HW133572   0.147   1.235  10.245  1.6447  1.4548  0.0721
 7370SOL    HW233573   0.119   1.194  10.107  1.1754  1.1727 -1.8102
 7371SOL     OW33574   1.755   4.100   8.765  0.1904 -0.2216  0.0368
 7371SOL    HW133575   1.822   4.122   8.701  0.5874  0.3888  0.6583
 7371SOL    HW233576   1.680   4.129   8.713 -0.2213 -1.6367 -0.1532
 7372SOL     OW33577   0.491   0.852   7.018 -0.0328 -0.3335 -0.0165
 7372SOL    HW133578   0.416   0.798   6.996 -0.2903 -0.5375  1.3867
 7372SOL    HW233579   0.555   0.823   6.952 -0.3009 -0.2383 -0.3170
 7373SOL     OW33580   3.529   3.588   5.128  0.0518  0.1351  0.3509
 7373SOL    HW133581   3.564   3.615   5.044 -0.7011  0.2722  0.0785
 7373SOL    HW233582   3.594   3.631   5.183  0.6953  0.1526 -0.4248
 7374SOL     OW33583   3.447   0.596   4.399 -0.3581  0.2206 -0.1650
 7374SOL    HW133584   3.481   0.673   4.445 -3.0165  0.6227  1.1070
 7374SOL    HW233585   3.405   0.553   4.474  1.5056  0.0302  0.7708
 7375SOL     OW33586   4.694   1.840   4.097 -0.4267 -0.3428 -0.4976
 7375SOL    HW133587   0.040   1.862   4.158 -2.0201  0.3007  1.0574
 7375SOL    HW233588   4.640   1.919   4.098  0.7162  0.3943  1.8124
 7376SOL     OW33589   4.668   3.602  13.281  0.1770  0.3196 -0.3335
 7376SOL    HW133590   4.607   3.547  13.329 -0.0053  0.8939  0.0999
 7376SOL    HW233591   4.618   3.675  13.243 -2.4618 -2.1149 -1.4872
 7377SOL     OW33592   0.379   2.419   2.829  0.0913  0.2333 -0.0091
 7377SOL    HW133593   0.318   2.434   2.756  1.6321 -0.0534 -1.3456
 7377SOL    HW233594   0.321   2.448   2.899 -1.0490 -2.1795  0.0684
 7378SOL     OW33595   1.827   4.408   7.727 -0.3967  0.2910 -0.8933
 7378SOL    HW133596   1.837   4.495   7.689  0.5764  0.0716 -1.1697
 7378SOL    HW233597   1.735   4.396   7.704 -0.5337 -0.3066 -0.0144
 7379SOL     OW33598   2.993   2.528   3.560 -0.2720 -0.3202 -0.6340
 7379SOL    HW133599   3.021   2.559   3.474  2.9495 -0.6049  0.3304
 7379SOL    HW233600   3.005   2.433   3.553  0.3640 -0.4084  1.6574
 7380SOL     OW33601   0.235   2.687  14.230  0.0977  0.4176  0.8378
 7380SOL    HW133602   0.315   2.740  14.228  2.0018 -2.4943  0.0161
 7380SOL    HW233603   0.159   2.741  14.249 -0.2306  0.3233 -0.2348
 7381SOL     OW33604   3.061   4.309   2.475 -0.4552  0.1547 -0.4283
 7381SOL    HW133605   3.092   4.392   2.437 -0.3253 -0.2401 -1.1894
 7381SOL    HW233606   3.054   4.335   2.567 -0.0248 -2.4766  0.3587
 7382SOL     OW33607   3.355   3.437   9.214 -0.1254  0.0973 -0.1049
 7382SOL    HW133608   3.400   3.449   9.131  0.1090 -0.9197 -0.1312
 7382SOL    HW233609   3.410   3.387   9.275  0.4508  0.7051 -0.1277
 7383SOL     OW33610   0.739   4.014   8.419 -0.4440 -0.1090 -0.3785
 7383SOL    HW133611   0.679   4.084   8.393  0.4259  1.9111  3.0466
 7383SOL    HW233612   0.673   3.951   8.447  0.1951 -1.3508 -1.7014
 7384SOL     OW33613   3.488   1.519   7.685 -0.3371 -0.0864  0.1954
 7384SOL    HW133614   3.523   1.562   7.763 -1.9596  1.1933  0.2055
 7384SOL    HW233615   3.521   1.430   7.699 -1.8765 -1.0405 -2.4060
 7385SOL     OW33616   1.402   1.288   3.394 -0.2267  0.0742  0.2560
 7385SOL    HW133617   1.492   1.254   3.391 -0.9243 -1.4508 -3.4339
 7385SOL    HW233618   1.385   1.292   3.300 -0.5111 -1.3613  0.2369
 7386SOL     OW33619   4.189   2.958   6.000 -0.5153 -0.4431 -0.6393
 7386SOL    HW133620   4.140   2.935   5.921 -0.8854  0.0552 -0.5522
 7386SOL    HW233621   4.122   2.933   6.063  0.9136  0.7631  1.3567
 7387SOL     OW33622   0.573   4.036   9.674 -0.0682 -0.0503  0.7336
 7387SOL    HW133623   0.643   4.031   9.740 -0.4245  2.5074  1.3070
 7387SOL    HW233624   0.580   3.951   9.631 -0.6700  0.3670 -0.1781
 7388SOL     OW33625   0.695   3.783  11.925 -0.5755 -0.0076 -0.1215
 7388SOL    HW133626   0.785   3.750  11.935 -0.5195 -0.0415 -0.7504
 7388SOL    HW233627   0.693   3.807  11.832 -0.4341  0.9981  0.1334
 7389SOL     OW33628   1.179   3.892  10.042 -0.3566  0.0019 -0.5124
 7389SOL    HW133629   1.196   3.908   9.949  1.9002  1.3319  0.1180
 7389SOL    HW233630   1.089   3.924  10.051 -0.5653  0.2725 -3.5122
 7390SOL     OW33631   0.762   0.874  16.116  0.1895  0.3607  0.2790
 7390SOL    HW133632   0.725   0.835  16.036  0.2551 -0.8655  0.8422
 7390SOL    HW233633   0.772   0.958  16.071 -0.0753  0.0539 -0.3584
 7391SOL     OW33634   2.553   0.129   8.806  0.1775  0.2463  0.0210
 7391SOL    HW133635   2.560   0.206   8.862 -0.0669 -0.5356  1.1297
 7391SOL    HW233636   2.636   0.086   8.825  1.8292  2.8293 -1.3203
 7392SOL     OW33637   1.424   2.913   6.735  0.6420 -0.2604  0.2773
 7392SOL    HW133638   1.389   2.852   6.800 -0.6517 -0.7704 -0.9157
 7392SOL    HW233639   1.358   2.981   6.730  0.2962 -0.4675  2.0590
 7393SOL     OW33640   2.999   1.327   5.015  0.5413 -0.1266  0.1776
 7393SOL    HW133641   2.904   1.330   5.024  0.3381 -2.4951 -1.1740
 7393SOL    HW233642   3.012   1.235   5.040  0.9044  0.3855  1.8937
 7394SOL     OW33643   3.127   0.818  13.388  0.2519 -0.0494  0.3612
 7394SOL    HW133644   3.170   0.903  13.388  1.9548 -0.9174 -1.0372
 7394SOL    HW233645   3.067   0.820  13.463  1.0514 -1.4155  1.0479
 7395SOL     OW33646   2.001   0.171  10.938 -0.3720  0.3160  0.6331
 7395SOL    HW133647   2.009   0.189  10.844  0.2747  0.7033  0.7619
 7395SOL    HW233648   1.950   0.250  10.957 -2.0542  0.6716 -5.3214
 7396SOL     OW33649   1.118   0.274   5.241  0.1803  0.2824 -0.2023
 7396SOL    HW133650   1.203   0.274   5.196 -0.2910 -2.4175 -1.1380
 7396SOL    HW233651   1.067   0.310   5.168  2.3472  1.3352 -1.1844
 7397SOL     OW33652   4.485   4.149  14.458 -0.0085  0.1401  0.4523
 7397SOL    HW133653   4.398   4.181  14.434  1.2304  2.3886 -1.0260
 7397SOL    HW233654   4.469   4.055  14.459 -1.8824  0.4582  0.3336
 7398SOL     OW33655   4.059   2.961  13.987  0.6279  0.0010  0.7543
 7398SOL    HW133656   4.022   2.993  14.070  0.7176  1.8910  0.0498
 7398SOL    HW233657   4.079   2.869  14.007  1.6363 -0.0271 -0.4627
 7399SOL     OW33658   2.367   3.362   8.865 -0.1080 -0.3704 -0.0222
 7399SOL    HW133659   2.436   3.316   8.816  1.2235 -0.4146  1.8952
 7399SOL    HW233660   2.287   3.343   8.817  0.0475 -0.9053 -0.0702
 7400SOL     OW33661   2.944   1.133  14.534 -0.4383  0.1642  0.1365
 7400SOL    HW133662   2.862   1.148  14.581 -1.3142 -1.1501 -0.9539
 7400SOL    HW233663   2.914   1.098  14.450  1.4195  0.2336 -0.5571
 7401SOL     OW33664   1.273   2.880  10.421  0.5907  0.1968 -0.4557
 7401SOL    HW133665   1.294   2.833  10.501 -0.2843 -2.2152 -1.6311
 7401SOL    HW233666   1.262   2.967  10.457 -0.2248 -0.6123  1.2433
 7402SOL     OW33667   1.686   0.769   4.114  0.2810  0.3154 -0.0508
 7402SOL    HW133668   1.752   0.764   4.046  0.2670  1.8177 -0.1754
 7402SOL    HW233669   1.641   0.854   4.114 -0.0489  0.1389 -0.4739
 7403SOL     OW33670   1.289   3.459   2.400 -0.3925  0.0135  0.4678
 7403SOL    HW133671   1.379   3.429   2.414  0.2603  1.3726 -0.8050
 7403SOL    HW233672   1.247   3.425   2.479 -0.4037 -1.7783 -0.3136
 7404SOL     OW33673   3.298   0.009   8.302 -0.3067 -0.1407 -0.2183
 7404SOL    HW133674   3.257   4.648   8.322 -0.8094  0.3793  0.9112
 7404SOL    HW233675   3.374   0.006   8.360 -0.4945  1.0482  0.0824
 7405SOL     OW33676   2.278   4.079   4.964  0.2877 -0.4096  0.2892
 7405SOL    HW133677   2.186   4.054   4.957  0.2985 -0.8946  1.7898
 7405SOL    HW233678   2.293   4.119   4.879  1.0490  1.7885  1.4722
 7406SOL     OW33679   1.685   3.890   4.563 -0.2840 -0.3888 -0.4027
 7406SOL    HW133680   1.665   3.973   4.521  1.2324 -0.0186 -0.3818
 7406SOL    HW233681   1.645   3.903   4.649 -1.3188  1.9135 -1.2460
 7407SOL     OW33682   2.103   3.899   6.059 -0.3310  0.3003 -0.5735
 7407SOL    HW133683   2.157   3.912   6.137  0.3631 -0.3602 -0.9384
 7407SOL    HW233684   2.164   3.849   6.005 -0.0081 -1.3719  1.3332
 7408SOL     OW33685   2.502   3.367   3.426  0.7382 -0.3067 -0.7082
 7408SOL    HW133686   2.481   3.407   3.510 -2.7111 -1.7437 -0.9094
 7408SOL    HW233687   2.597   3.357   3.439  0.9003  1.8883 -0.1393
 7409SOL     OW33688   2.557   0.628   8.081  0.0478 -0.3790 -0.1237
 7409SOL    HW133689   2.501   0.649   8.156  1.5091  1.1991  0.5342
 7409SOL    HW233690   2.552   0.533   8.090  0.7441 -0.4167 -0.1075
 7410SOL     OW33691   2.676   2.053   5.174  0.2011  0.6844 -0.5651
 7410SOL    HW133692   2.655   2.022   5.085 -2.3187  0.1931  0.1933
 7410SOL    HW233693   2.593   2.039   5.218  0.6997  1.2831  0.5470
 7411SOL     OW33694   2.592   2.655   4.509 -0.7626 -0.0389  0.2350
 7411SOL    HW133695   2.556   2.597   4.576  0.3429  0.0151  0.8912
 7411SOL    HW233696   2.523   2.640   4.445  1.2558 -1.8096 -1.5109
 7412SOL     OW33697   2.377   3.680   2.365  0.2359 -0.1622  0.0643
 7412SOL    HW133698   2.428   3.717   2.437  3.5237  0.6104 -2.6412
 7412SOL    HW233699   2.351   3.758   2.317 -1.5042  0.1199  1.4825
 7413SOL     OW33700   1.223   4.556  12.974 -0.1424 -0.7883 -0.2856
 7413SOL    HW133701   1.277   4.587  12.901  1.6429 -1.5408  0.6905
 7413SOL    HW233702   1.287   4.499  13.017 -2.7119 -1.1260  3.0829
 7414SOL     OW33703   2.191   4.518   3.249 -1.0713  0.2388 -0.4562
 7414SOL    HW133704   2.147   4.434   3.235 -0.8671 -0.0518  0.6200
 7414SOL    HW233705   2.252   4.491   3.317  1.5823  0.7367 -2.6241
 7415SOL     OW33706   4.143   0.505  14.018 -0.2086  0.2134  0.1563
 7415SOL    HW133707   4.156   0.591  14.057 -0.5154  0.1000  0.5073
 7415SOL    HW233708   4.115   0.454  14.094 -0.4896  1.4359  0.8707
 7416SOL     OW33709   3.966   2.435   4.267 -0.9234 -0.0545 -0.5548
 7416SOL    HW133710   3.878   2.461   4.295 -1.5589 -1.2552 -1.4483
 7416SOL    HW233711   3.996   2.510   4.215 -0.1273  0.2225  0.2982
 7417SOL     OW33712   3.990   3.671   0.331 -0.2254  0.4033 -0.4505
 7417SOL    HW133713   4.037   3.656   0.249 -3.4209  1.1602 -2.4056
 7417SOL    HW233714   3.910   3.719   0.310 -1.3239 -0.6190  1.4500
 7418SOL     OW33715   3.337   2.709   3.464 -0.0522  0.0612  0.4245
 7418SOL    HW133716   3.321   2.803   3.454  2.4218  0.2843 -1.3907
 7418SOL    HW233717   3.420   2.719   3.510 -0.7483 -0.0249  1.6971
 7419SOL     OW33718   0.850   1.863   7.885 -0.6660 -0.0288 -0.0417
 7419SOL    HW133719   0.841   1.952   7.920  1.2718  0.8586 -1.8114
 7419SOL    HW233720   0.763   1.835   7.911  0.0755 -1.7747  0.5742
 7420SOL     OW33721   2.413   0.108   6.014  0.6091 -0.5108  0.3927
 7420SOL    HW133722   2.336   0.163   5.999  0.4771 -0.8497 -0.1757
 7420SOL    HW233723   2.457   0.111   5.929  0.2800  0.8733  0.2734
 7421SOL     OW33724   4.532   4.092  17.619  0.2499 -0.2008 -0.1536
 7421SOL    HW133725   4.604   4.040  17.656  0.0044 -0.6140 -0.2538
 7421SOL    HW233726   4.537   4.058  17.530 -2.9618  2.2219 -1.2561
 7422SOL     OW33727   1.902   3.743   3.332  0.0592  0.3523  0.0110
 7422SOL    HW133728   1.840   3.804   3.371  0.5753  1.1994 -0.5007
 7422SOL    HW233729   1.884   3.654   3.362  0.8454 -0.3901 -1.7515
 7423SOL     OW33730   4.032   2.506  13.540 -0.8576  0.4993 -0.2288
 7423SOL    HW133731   3.942   2.492  13.510 -1.5321  1.3019  1.4320
 7423SOL    HW233732   4.057   2.413  13.542  0.1629  0.7532 -0.8318
 7424SOL     OW33733   1.977   2.696   8.988  0.3681  0.3322 -0.0969
 7424SOL    HW133734   1.952   2.735   8.904  0.8866 -1.7560 -1.2214
 7424SOL    HW233735   1.934   2.754   9.051 -1.0580  1.1104 -1.7649
 7425SOL     OW33736   4.647   3.251  11.738 -0.1546  0.2682  0.1309
 7425SOL    HW133737   4.586   3.292  11.799 -0.5513 -0.3251  0.1362
 7425SOL    HW233738   4.657   3.163  11.776 -1.0226 -1.1199 -2.8890
 7426SOL     OW33739   4.146   1.036   9.092  0.3169 -0.1068 -0.2415
 7426SOL    HW133740   4.205   0.962   9.077  2.9123  2.0889 -0.8232
 7426SOL    HW233741   4.115   1.063   9.006 -0.5367 -1.6669 -0.4178
 7427SOL     OW33742   3.210   3.686   8.888  0.0484 -0.1435  0.1217
 7427SOL    HW133743   3.208   3.741   8.810 -0.4853  2.3325  1.9118
 7427SOL    HW233744   3.194   3.756   8.951  1.4950 -1.0560  1.4897
 7428SOL     OW33745   4.050   2.587   8.129 -0.3050 -0.5844 -0.3097
 7428SOL    HW133746   4.092   2.549   8.052  0.5232  1.3107 -0.7856
 7428SOL    HW233747   3.956   2.592   8.110 -0.2192 -2.6062 -1.2985
 7429SOL     OW33748   3.330   3.485  10.845  0.1298 -0.2767 -0.2616
 7429SOL    HW133749   3.288   3.450  10.766  2.4236 -0.0499 -1.5759
 7429SOL    HW233750   3.387   3.419  10.885  0.2005  1.1669  2.0101
 7430SOL     OW33751   2.442   1.257  13.348 -0.2927  0.3381  0.2091
 7430SOL    HW133752   2.479   1.204  13.277 -0.1625  2.3185 -1.2176
 7430SOL    HW233753   2.436   1.200  13.424 -1.6834  0.5244  0.2333
 7431SOL     OW33754   3.823   4.660  10.687 -0.3112  0.1035 -0.3794
 7431SOL    HW133755   3.867   0.019  10.664 -1.2556  1.2944  2.0017
 7431SOL    HW233756   3.743   4.702  10.719 -0.2890  1.3193 -1.9575
 7432SOL     OW33757   3.506   4.250   5.242  0.3024 -0.2453  0.1341
 7432SOL    HW133758   3.472   4.174   5.196 -1.4732  2.3846 -2.8548
 7432SOL    HW233759   3.586   4.265   5.192  1.2489 -1.7229  1.1698
 7433SOL     OW33760   1.821   2.347   2.699 -0.1291 -0.4085 -0.2298
 7433SOL    HW133761   1.883   2.294   2.749 -0.5318 -2.3364 -1.7674
 7433SOL    HW233762   1.850   2.343   2.608 -0.1816 -2.6440 -0.1563
 7434SOL     OW33763   4.369   0.995   0.674 -0.0141 -0.2742 -0.2563
 7434SOL    HW133764   4.382   0.958   0.761 -0.4772 -0.1590 -0.1377
 7434SOL    HW233765   4.455   1.038   0.668 -0.5131  0.7278 -0.3357
 7435SOL     OW33766   1.586   1.471   2.982  0.1868  0.3491  0.1673
 7435SOL    HW133767   1.674   1.509   2.982  0.9925 -1.4991 -1.8572
 7435SOL    HW233768   1.597   1.421   2.901 -0.2164  0.3506  0.1112
 7436SOL     OW33769   3.052   3.769   3.307 -0.3003 -0.4220  0.5811
 7436SOL    HW133770   3.117   3.769   3.377  0.4959  0.8690 -0.1406
 7436SOL    HW233771   3.060   3.677   3.281  0.3218  0.1759 -1.3688
 7437SOL     OW33772   2.333   2.255   9.478  0.4502 -0.2570  0.2536
 7437SOL    HW133773   2.281   2.328   9.444  1.2753 -0.2019 -0.8797
 7437SOL    HW233774   2.253   2.216   9.514  1.5915 -2.5031  0.3615
 7438SOL     OW33775   4.115   2.214   0.900  0.0881  0.1675 -0.0183
 7438SOL    HW133776   4.113   2.157   0.977 -4.3528 -0.6317 -0.7498
 7438SOL    HW233777   4.042   2.272   0.920  0.8255  0.9823  0.3404
 7439SOL     OW33778   4.653   1.910   8.651  0.3930  0.4115 -0.5948
 7439SOL    HW133779   4.655   1.928   8.745  3.2303 -1.2244 -0.3615
 7439SOL    HW233780   4.568   1.943   8.619 -0.2647 -1.7156 -1.0102
 7440SOL     OW33781   4.376   3.360   3.887 -0.2941 -0.1371 -0.2308
 7440SOL    HW133782   4.436   3.338   3.959  0.5770  3.7787  0.2695
 7440SOL    HW233783   4.287   3.356   3.921 -0.8487  1.0795 -1.5474
 7441SOL     OW33784   4.171   3.884   6.361  0.6407 -0.3670  0.3019
 7441SOL    HW133785   4.264   3.863   6.355  0.1975 -1.8612 -1.4199
 7441SOL    HW233786   4.166   3.889   6.456  0.7027  1.0923  0.2180
 7442SOL     OW33787   1.562   4.495   8.592 -0.3300 -0.2179  0.1931
 7442SOL    HW133788   1.623   4.558   8.630 -0.5519  1.5445 -2.3417
 7442SOL    HW233789   1.571   4.520   8.500  0.3748 -2.1058 -0.2438
 7443SOL     OW33790   0.029   0.865   9.042  0.1666 -0.4672  0.0602
 7443SOL    HW133791   4.696   0.900   8.972 -1.4845  1.6235  2.4174
 7443SOL    HW233792   0.011   0.772   9.030 -0.8630 -0.6891  3.3295
 7444SOL     OW33793   0.418   4.629   2.543 -0.7757 -0.6804  0.7527
 7444SOL    HW133794   0.448   4.712   2.505 -1.7849 -0.2040  0.9818
 7444SOL    HW233795   0.325   4.627   2.519 -0.2575 -0.0421 -1.3555
 7445SOL     OW33796   3.041   3.181  17.524  0.2290 -0.1718  0.1557
 7445SOL    HW133797   3.017   3.117  17.591 -1.1834  1.9529  1.6861
 7445SOL    HW233798   3.002   3.264  17.551  0.9271  1.0670 -2.5882
 7446SOL     OW33799   3.987   3.817   3.584  0.0399  0.3878 -0.2006
 7446SOL    HW133800   3.972   3.763   3.662  1.3121  0.4154  0.0606
 7446SOL    HW233801   4.070   3.780   3.553 -0.7668 -2.6096  1.1679
 7447SOL     OW33802   2.540   3.543  15.621 -0.2331 -0.2655  0.5181
 7447SOL    HW133803   2.590   3.593  15.685 -0.6406  1.2623 -0.3528
 7447SOL    HW233804   2.611   3.503  15.570 -1.5743  1.1050 -2.4206
 7448SOL     OW33805   2.935   3.217   2.280 -0.5697  0.0809  0.0127
 7448SOL    HW133806   2.872   3.193   2.348 -0.0898 -0.8751  0.1255
 7448SOL    HW233807   2.960   3.304   2.310  0.7472 -0.0122 -0.8010
 7449SOL     OW33808   4.714   1.227   2.083  0.7073  0.3717  0.3601
 7449SOL    HW133809   4.704   1.138   2.047  0.0601  0.7863 -0.4859
 7449SOL    HW233810   0.041   1.202   2.160 -2.0245  2.0226  2.6294
 7450SOL     OW33811   3.642   2.034   5.680  0.4251 -0.1312 -0.6560
 7450SOL    HW133812   3.620   2.070   5.595  1.7845 -2.3340 -1.9344
 7450SOL    HW233813   3.721   1.986   5.657  0.8834  0.4059 -0.2085
 7451SOL     OW33814   0.353   3.641   3.155 -0.1082  0.4516  0.1042
 7451SOL    HW133815   0.380   3.563   3.107  2.7806  1.0216  0.8210
 7451SOL    HW233816   0.429   3.692   3.128  0.4084 -0.4479 -0.1383
 7452SOL     OW33817   0.337   3.039  16.608 -0.3180 -0.7210  0.1529
 7452SOL    HW133818   0.288   3.051  16.526  2.4027 -1.3560 -1.5659
 7452SOL    HW233819   0.290   3.099  16.666  0.7128  0.3398 -0.1008
 7453SOL     OW33820   4.084   2.191   4.109 -0.1001 -0.7788  0.0291
 7453SOL    HW133821   4.090   2.188   4.204 -1.4610  0.8101  0.1702
 7453SOL    HW233822   4.003   2.232   4.079 -0.7340 -0.0241  2.8012
 7454SOL     OW33823   3.953   3.885   7.676  1.0828  0.5480 -0.2464
 7454SOL    HW133824   3.882   3.842   7.723  1.2730 -0.0603 -0.5096
 7454SOL    HW233825   3.894   3.951   7.640 -1.1694  0.1052  2.6372
 7455SOL     OW33826   3.925   3.219   8.921  0.8961  0.6539 -0.2936
 7455SOL    HW133827   3.890   3.199   9.008 -0.5627  2.3589 -0.4870
 7455SOL    HW233828   3.912   3.313   8.912  0.7812  0.5384 -1.3605
 7456SOL     OW33829   3.696   2.540   8.807  0.1795  0.3862 -0.2529
 7456SOL    HW133830   3.675   2.447   8.795 -1.9060  0.6754  1.0366
 7456SOL    HW233831   3.791   2.532   8.808  0.0821 -0.7093 -0.0600
 7457SOL     OW33832   1.936   3.165   9.361  0.4440 -0.3212 -0.3135
 7457SOL    HW133833   1.937   3.167   9.457 -0.8026 -1.7252 -0.2943
 7457SOL    HW233834   1.962   3.075   9.342  2.0528 -0.0651  0.6812
 7458SOL     OW33835   3.943   2.399   3.419 -0.5802  0.2379  0.0813
 7458SOL    HW133836   3.923   2.361   3.334  0.4664 -0.8727  0.3332
 7458SOL    HW233837   3.857   2.427   3.450 -1.6198 -0.9516 -1.8084
 7459SOL     OW33838   2.042   1.441  10.473  0.7034 -0.0807  0.1145
 7459SOL    HW133839   1.995   1.387  10.537  0.6745  1.0881  1.0738
 7459SOL    HW233840   2.025   1.530  10.503  1.1118  0.4636 -1.2955
 7460SOL     OW33841   1.665   2.057   3.158 -0.2429 -0.1496 -0.6287
 7460SOL    HW133842   1.579   2.022   3.135  0.2894 -1.3098 -0.8426
 7460SOL    HW233843   1.649   2.151   3.170 -0.4430 -0.1196 -1.1101
 7461SOL     OW33844   1.186   0.076  14.111 -0.2124 -0.0118 -0.0700
 7461SOL    HW133845   1.141   0.097  14.194  2.1049  0.1165  1.1517
 7461SOL    HW233846   1.275   0.082  14.144  0.0538 -0.9744 -0.6282
 7462SOL     OW33847   3.610   1.933   0.193 -0.2806  0.7663 -0.0460
 7462SOL    HW133848   3.531   1.880   0.200 -1.2758  1.9540 -2.3049
 7462SOL    HW233849   3.664   1.898   0.264  0.7423  0.2975 -1.0556
 7463SOL     OW33850   2.953   1.729   2.107 -0.7532 -0.0613  0.2362
 7463SOL    HW133851   3.025   1.686   2.061 -2.0853 -1.4008 -0.5806
 7463SOL    HW233852   2.983   1.739   2.197  1.1540  1.0476 -0.5016
 7464SOL     OW33853   4.161   3.127  15.378  0.3488  0.3676  0.4029
 7464SOL    HW133854   4.232   3.136  15.314 -0.1626 -0.7178 -0.3219
 7464SOL    HW233855   4.118   3.045  15.353  0.4504 -0.2550  2.2643
 7465SOL     OW33856   2.448   0.317   1.464  0.3393  0.4897 -0.0907
 7465SOL    HW133857   2.376   0.302   1.525  0.1305  0.2429 -0.4009
 7465SOL    HW233858   2.418   0.247   1.406  0.6457 -0.7544  1.2527
 7466SOL     OW33859   2.271   1.441   6.249 -0.1075  0.4221  0.6212
 7466SOL    HW133860   2.237   1.380   6.183 -1.8636  0.0206  1.8821
 7466SOL    HW233861   2.238   1.525   6.217 -2.3945 -0.2083  1.3237
 7467SOL     OW33862   1.600   3.602  17.606  0.0026 -0.1976  0.0252
 7467SOL    HW133863   1.547   3.610  17.686  0.2320  0.0919  0.1482
 7467SOL    HW233864   1.574   3.685  17.566  0.9147 -1.0984 -2.4108
 7468SOL     OW33865   0.445   4.110   5.202  0.4486 -0.5921  0.0155
 7468SOL    HW133866   0.419   4.018   5.212 -1.1018 -0.0156  1.2999
 7468SOL    HW233867   0.378   4.147   5.260  1.2125  0.7688  0.0463
 7469SOL     OW33868   2.595   0.404  17.479  0.0927  0.4622 -0.0926
 7469SOL    HW133869   2.589   0.439  17.390 -0.2721 -2.4933 -1.2343
 7469SOL    HW233870   2.623   0.485  17.521 -1.0408  0.0002  1.5534
 7470SOL     OW33871   3.282   1.653  15.666 -0.3311  0.4310  0.1423
 7470SOL    HW133872   3.315   1.564  15.665 -0.4260  0.4029 -0.5807
 7470SOL    HW233873   3.363   1.690  15.699  0.8416 -1.2904 -0.8345
 7471SOL     OW33874   4.540   4.581   8.664 -0.4068 -0.0760 -0.2442
 7471SOL    HW133875   4.478   4.637   8.710  0.1160  1.4531 -1.4186
 7471SOL    HW233876   4.624   4.622   8.685 -0.7428 -0.2316  1.4125
 7472SOL     OW33877   4.424   0.916   6.029 -0.2787 -0.0285  0.2723
 7472SOL    HW133878   4.358   0.883   6.089 -1.3959  0.3417 -0.7672
 7472SOL    HW233879   4.432   0.838   5.974  0.7532 -0.8647  1.6130
 7473SOL     OW33880   0.728   1.338  14.940  0.2381 -0.3903 -0.1100
 7473SOL    HW133881   0.648   1.351  14.890 -0.5445 -0.8796  1.0224
 7473SOL    HW233882   0.692   1.294  15.017  0.2698  0.4816  0.4080
 7474SOL     OW33883   2.969   3.520   3.577  0.0929  0.3498 -0.5953
 7474SOL    HW133884   2.987   3.483   3.490  0.0832  2.1536 -1.3506
 7474SOL    HW233885   3.049   3.489   3.620 -0.3750  0.1443  0.1322
 7475SOL     OW33886   2.905   3.062   8.308  0.5009 -0.5149  0.6422
 7475SOL    HW133887   2.990   3.030   8.337  1.3043  0.5618 -0.4709
 7475SOL    HW233888   2.886   2.984   8.257 -3.1068  0.5384  0.4031
 7476SOL     OW33889   1.021   2.081   3.924  0.0284 -0.0791 -0.2231
 7476SOL    HW133890   0.965   2.033   3.985  1.2929 -1.8065 -0.4090
 7476SOL    HW233891   0.994   2.041   3.841 -0.7779  0.1855 -0.0814
 7477SOL     OW33892   0.314   4.184   6.317 -0.4389 -0.7024  0.3854
 7477SOL    HW133893   0.359   4.253   6.364 -1.6291 -0.0512  0.5752
 7477SOL    HW233894   0.222   4.203   6.332 -0.4424 -1.8241  1.7574
 7478SOL     OW33895   2.519   0.348  11.466  0.2369  0.3872  0.2413
 7478SOL    HW133896   2.424   0.347  11.454  0.6587 -1.1766 -2.8078
 7478SOL    HW233897   2.539   0.433  11.427  0.9822 -0.6847 -1.6893
 7479SOL     OW33898   1.922   2.942   3.871 -0.2477  0.4793 -0.6631
 7479SOL    HW133899   1.948   2.955   3.779  0.8659  1.1011 -0.2538
 7479SOL    HW233900   2.000   2.978   3.914 -0.7696  1.0229 -0.1852
 7480SOL     OW33901   2.781   0.121   5.781 -0.1434  0.4314  0.3111
 7480SOL    HW133902   2.786   0.125   5.877 -2.6168 -2.3460  0.5384
 7480SOL    HW233903   2.731   0.202   5.769  1.9922  1.1433 -3.6941
 7481SOL     OW33904   3.806   0.411   7.253  0.9803 -0.2935  0.4999
 7481SOL    HW133905   3.882   0.454   7.213  0.7749 -0.7703 -0.3977
 7481SOL    HW233906   3.853   0.351   7.312 -2.4214 -2.0296  1.4275
 7482SOL     OW33907   0.735   3.359   5.806 -0.0207 -0.0426 -0.1378
 7482SOL    HW133908   0.720   3.371   5.900  1.3567  0.8152 -0.0177
 7482SOL    HW233909   0.828   3.337   5.809 -0.6079 -2.6994 -2.0919
 7483SOL     OW33910   2.797   3.340  17.596  0.3092  0.6753 -0.2656
 7483SOL    HW133911   2.748   3.272  17.550 -0.0458  0.0815  0.9822
 7483SOL    HW233912   2.770   3.322  17.687  1.0667  0.6090 -0.0563
 7484SOL     OW33913   3.042   3.642   2.449 -0.2095 -0.5269  0.2328
 7484SOL    HW133914   2.966   3.586   2.436 -0.3182 -0.5514  0.9462
 7484SOL    HW233915   3.037   3.657   2.544  1.5869  1.6140 -0.0101
 7485SOL     OW33916   0.460   2.812   6.958 -0.5188 -0.1568  0.1590
 7485SOL    HW133917   0.370   2.816   6.927 -0.1560  0.9308 -0.7321
 7485SOL    HW233918   0.455   2.731   7.008 -1.6378  0.4227  0.9923
 7486SOL     OW33919   2.531   0.674   3.764  0.5755  0.1315  0.7985
 7486SOL    HW133920   2.580   0.593   3.776 -0.2441 -0.2867  1.2945
 7486SOL    HW233921   2.590   0.738   3.724 -0.1341  0.1122 -0.2600
 7487SOL     OW33922   4.670   1.057   9.741  0.2664 -0.3376 -0.0223
 7487SOL    HW133923   4.597   0.996   9.751  0.5623 -1.0063 -1.9642
 7487SOL    HW233924   4.706   1.011   9.666 -2.5529 -3.1374  0.3058
 7488SOL     OW33925   3.135   1.241   5.295 -0.5548 -0.8963  0.2600
 7488SOL    HW133926   3.116   1.333   5.276 -4.2756 -1.2525  2.1863
 7488SOL    HW233927   3.061   1.223   5.354  0.4260  0.4355  1.8903
 7489SOL     OW33928   0.473   1.840  15.501 -0.6048  0.5036 -0.1994
 7489SOL    HW133929   0.397   1.872  15.453  0.1756  0.9766 -1.1118
 7489SOL    HW233930   0.537   1.856  15.432 -1.0361 -0.9347 -0.9312
 7490SOL     OW33931   4.245   4.692   9.161 -0.4751  0.0010 -0.0276
 7490SOL    HW133932   4.175   4.661   9.102  0.4736  1.4386 -1.9165
 7490SOL    HW233933   4.238   0.062   9.179  0.4064  0.0831 -0.0976
 7491SOL     OW33934   0.075   1.950   5.422 -0.3679 -0.8654  0.2346
 7491SOL    HW133935   0.054   1.995   5.340  2.1951 -0.9572 -0.4538
 7491SOL    HW233936   4.710   1.938   5.459 -1.1171  3.2609 -0.1767
 7492SOL     OW33937   1.562   3.772  13.294  0.2601  0.7070  0.1241
 7492SOL    HW133938   1.495   3.801  13.231  0.5465  2.9123  0.8348
 7492SOL    HW233939   1.634   3.737  13.240  0.4731  0.3252  0.6602
 7493SOL     OW33940   1.108   2.449   2.490 -0.8532 -0.3649 -0.6747
 7493SOL    HW133941   1.100   2.457   2.395 -3.5043  0.4611 -0.3780
 7493SOL    HW233942   1.134   2.539   2.508 -0.1677 -0.0824 -3.0750
 7494SOL     OW33943   3.984   0.437  12.596  0.4402 -0.1685 -0.3068
 7494SOL    HW133944   4.078   0.438  12.578  0.3909  0.8317 -0.5343
 7494SOL    HW233945   3.973   0.344  12.580 -0.6032 -0.1623  0.4126
 7495SOL     OW33946   2.380   2.576   3.757 -0.0085 -0.5733  0.3187
 7495SOL    HW133947   2.452   2.548   3.700 -0.0529 -1.7364  0.8530
 7495SOL    HW233948   2.391   2.670   3.741 -1.0273 -0.4758  0.1630
 7496SOL     OW33949   3.144   2.856   4.003  0.2207 -0.5202  0.4260
 7496SOL    HW133950   3.160   2.949   3.989 -2.0819 -0.4089 -1.4232
 7496SOL    HW233951   3.049   2.861   4.013 -0.0275 -0.9673 -1.6110
 7497SOL     OW33952   1.441   4.353   4.294 -0.0598  0.5689 -0.3064
 7497SOL    HW133953   1.365   4.346   4.352  0.4035  0.2181  0.2643
 7497SOL    HW233954   1.421   4.437   4.253 -0.1106  0.3474 -0.7299
 7498SOL     OW33955   1.989   0.699   9.724 -0.1572 -0.0845  0.1440
 7498SOL    HW133956   1.960   0.738   9.642  0.4116 -0.4240 -0.2158
 7498SOL    HW233957   1.947   0.614   9.711 -0.1580 -0.1676  0.6741
 7499SOL     OW33958   0.302   3.231  13.345 -0.1439 -0.5718 -0.1872
 7499SOL    HW133959   0.339   3.166  13.285 -2.5372 -1.8710 -0.2504
 7499SOL    HW233960   0.234   3.271  13.290 -0.9338  1.2519  2.1296
 7500SOL     OW33961   0.923   3.186   6.621 -0.3650 -0.0650  0.1096
 7500SOL    HW133962   0.892   3.247   6.689 -1.9124 -0.5641 -0.1422
 7500SOL    HW233963   0.916   3.253   6.553 -1.4518  0.0550  0.3364
 7501SOL     OW33964   2.447   1.510   3.941  0.3685  0.0735  0.2236
 7501SOL    HW133965   2.524   1.456   3.959  0.7101  0.1803 -0.9330
 7501SOL    HW233966   2.382   1.465   3.996  1.1892 -0.6916  0.5639
 7502SOL     OW33967   2.449   3.650  13.997  0.5506  0.6090 -0.2880
 7502SOL    HW133968   2.382   3.581  13.999  0.8064  0.4058  0.7152
 7502SOL    HW233969   2.529   3.610  14.028  2.0821  2.0589 -2.3596
 7503SOL     OW33970   1.714   0.090   8.418 -0.5012  0.2213  1.0557
 7503SOL    HW133971   1.724   0.149   8.344  0.0715  0.7600  1.5576
 7503SOL    HW233972   1.690   0.009   8.374  1.4905  0.1794  0.0354
 7504SOL     OW33973   4.382   2.473   7.075 -0.5833 -0.5233  0.2137
 7504SOL    HW133974   4.369   2.445   7.166  0.1118  2.1126  1.1175
 7504SOL    HW233975   4.476   2.489   7.075 -0.4939 -1.0109  1.1709
 7505SOL     OW33976   2.627   0.779   9.701  0.2177 -0.1760 -0.0359
 7505SOL    HW133977   2.607   0.838   9.629 -1.5548 -0.6260  0.1020
 7505SOL    HW233978   2.545   0.781   9.750  0.8804 -0.3912  1.0838
 7506SOL     OW33979   2.056   0.995   7.981  0.0535  0.5791  0.2607
 7506SOL    HW133980   2.055   0.992   8.077 -1.0356 -1.1493  0.1907
 7506SOL    HW233981   2.142   1.030   7.956  0.3285 -0.4199 -0.2038
 7507SOL     OW33982   4.240   1.837   6.676  0.3422 -0.2727  0.0845
 7507SOL    HW133983   4.237   1.746   6.704  0.3692  0.1639  1.4864
 7507SOL    HW233984   4.226   1.832   6.581 -2.2689  3.4816  0.2760
 7508SOL     OW33985   2.846   1.980   0.749 -0.3417 -0.2590  0.1587
 7508SOL    HW133986   2.776   1.989   0.815 -0.4609  0.4341 -0.0698
 7508SOL    HW233987   2.896   1.901   0.770  0.8619  0.4945  0.0661
 7509SOL     OW33988   4.619   4.596  11.781  0.0706 -0.0530 -0.0959
 7509SOL    HW133989   4.593   4.595  11.873 -1.3945 -0.6127 -0.5141
 7509SOL    HW233990   4.554   4.540  11.739 -0.3442 -0.7361  1.4425
 7510SOL     OW33991   2.926   1.449   7.750  0.0260  0.5784 -0.6385
 7510SOL    HW133992   2.995   1.387   7.773 -2.9928 -1.8188  2.0602
 7510SOL    HW233993   2.888   1.452   7.838  3.8752 -1.1382  1.0921
 7511SOL     OW33994   0.500   4.545  10.873  0.3998 -0.3841 -0.2956
 7511SOL    HW133995   0.447   4.485  10.821 -0.1915 -1.8231  1.9551
 7511SOL    HW233996   0.463   4.538  10.961  0.0700 -2.9084 -0.6287
 7512SOL     OW33997   1.253   0.511  13.303 -0.7537 -0.2243  0.9400
 7512SOL    HW133998   1.335   0.481  13.343 -1.1396  0.8346  2.5576
 7512SOL    HW233999   1.281   0.588  13.252 -2.2204  1.3440  2.4933
 7513SOL     OW34000   2.474   3.675   7.257 -0.2416  0.5632  0.0897
 7513SOL    HW134001   2.381   3.691   7.273  0.4115  1.9338  2.5071
 7513SOL    HW234002   2.505   3.714   7.339 -1.3201  1.4501  0.0766
 7514SOL     OW34003   2.988   2.930   5.696  0.4732  0.0881  0.0949
 7514SOL    HW134004   2.912   2.981   5.670  1.8418  1.3158 -1.4873
 7514SOL    HW234005   3.043   2.963   5.625 -0.8530  2.6107  0.2705
 7515SOL     OW34006   2.348   4.472   7.209  0.4627  0.1114  0.8807
 7515SOL    HW134007   2.287   4.403   7.236 -1.9300  1.7101 -0.4361
 7515SOL    HW234008   2.322   4.459   7.117 -0.9788  2.2026  1.0020
 7516SOL     OW34009   0.206   0.918   7.699 -0.0965 -0.2938 -0.4001
 7516SOL    HW134010   0.147   0.848   7.727  1.1111 -1.4825 -0.8183
 7516SOL    HW234011   0.215   0.912   7.604  0.9182  0.1132 -0.3365
 7517SOL     OW34012   4.644   2.818   5.007 -0.3589 -0.1238  0.5035
 7517SOL    HW134013   0.016   2.827   5.012 -0.3139  0.7869 -1.9004
 7517SOL    HW234014   4.620   2.836   5.098  3.1283 -0.0178  1.3829
 7518SOL     OW34015   0.374   2.091   3.682  0.4753  0.4038  0.0130
 7518SOL    HW134016   0.303   2.104   3.619  0.6304  1.5279  0.0593
 7518SOL    HW234017   0.333   2.033   3.746  1.3190 -0.5379 -0.3042
 7519SOL     OW34018   0.629   3.753  16.184  0.7717  0.1422  0.6020
 7519SOL    HW134019   0.673   3.679  16.142  1.1246 -0.0439  1.3127
 7519SOL    HW234020   0.699   3.813  16.210  1.2269  0.3742 -1.1356
 7520SOL     OW34021   0.321   4.330  14.654 -0.2625  0.0484  0.2362
 7520SOL    HW134022   0.399   4.383  14.670 -0.2938 -0.3108  1.5295
 7520SOL    HW234023   0.369   4.253  14.625 -0.3429  0.5503 -1.2373
 7521SOL     OW34024   4.711   2.172  13.573  0.1010  0.7237  1.1663
 7521SOL    HW134025   0.034   2.124  13.504 -1.0817  0.1676  0.7730
 7521SOL    HW234026   0.018   2.260  13.549 -0.4233  0.5760 -0.0261
 7522SOL     OW34027   3.397   4.159  15.839  0.3000  0.0891  0.2329
 7522SOL    HW134028   3.379   4.093  15.906  1.2376  1.8316  2.2364
 7522SOL    HW234029   3.308   4.168  15.805  0.4555 -0.8103 -0.3837
 7523SOL     OW34030   2.398   1.706  10.301  0.0345  0.4522  0.0877
 7523SOL    HW134031   2.477   1.657  10.275 -0.5526 -0.5703  0.2405
 7523SOL    HW234032   2.334   1.636  10.286  0.8501  0.0965 -1.8095
 7524SOL     OW34033   3.222   2.982   2.444  0.2863 -0.1499  0.1937
 7524SOL    HW134034   3.249   3.047   2.509  0.9600 -1.4665  1.2375
 7524SOL    HW234035   3.230   3.020   2.357 -0.9282  0.7393  0.4750
 7525SOL     OW34036   1.789   4.030   7.195  0.3105 -0.2905  0.2255
 7525SOL    HW134037   1.729   3.960   7.169 -0.1493 -0.5862  2.0609
 7525SOL    HW234038   1.852   4.025   7.124  1.7006  0.1026  1.4379
 7526SOL     OW34039   3.382   4.465  11.276 -0.1493 -0.6477  0.0405
 7526SOL    HW134040   3.381   4.560  11.266 -1.3546 -0.5855  0.6481
 7526SOL    HW234041   3.421   4.433  11.195 -3.6338 -0.2812 -1.8012
 7527SOL     OW34042   3.077   3.092   5.101  0.4498 -0.5790  0.4328
 7527SOL    HW134043   3.022   3.017   5.077  1.2017 -0.7939 -0.5978
 7527SOL    HW234044   3.107   3.079   5.191 -1.0228  3.1470  1.4726
 7528SOL     OW34045   2.365   2.246   3.197 -0.8933  0.1207  0.5920
 7528SOL    HW134046   2.309   2.323   3.212 -0.3353  0.5271  0.6111
 7528SOL    HW234047   2.432   2.284   3.139 -0.9497  0.1303  0.5337
 7529SOL     OW34048   4.561   2.820   5.266  0.3463  0.2807 -0.3471
 7529SOL    HW134049   4.604   2.898   5.303  1.3061  0.4511 -1.8110
 7529SOL    HW234050   4.597   2.744   5.311 -0.1772 -0.3772 -1.0504
 7530SOL     OW34051   0.094   4.545   2.433 -0.5473 -0.4304 -0.1803
 7530SOL    HW134052   0.055   4.551   2.520 -1.9511  2.4084 -0.9908
 7530SOL    HW234053   0.022   4.548   2.369  0.3370  0.4865 -1.1261
 7531SOL     OW34054   0.931   4.596  13.201 -0.0240  0.0029  0.5534
 7531SOL    HW134055   0.980   4.667  13.158  0.7936 -1.4535 -0.9425
 7531SOL    HW234056   0.880   4.648  13.263 -0.7898  0.3192 -0.3445
 7532SOL     OW34057   2.721   3.968   3.142  0.3217  0.0933  0.0822
 7532SOL    HW134058   2.773   3.923   3.075  0.2967  0.7960 -0.4156
 7532SOL    HW234059   2.712   3.899   3.207  0.4206 -1.5756 -1.7033
 7533SOL     OW34060   0.913   0.946  14.280  0.1037 -0.1210 -0.7234
 7533SOL    HW134061   0.985   0.988  14.234  0.1817  0.2446 -0.2667
 7533SOL    HW234062   0.911   0.990  14.365 -1.9282  0.2182 -0.9365
 7534SOL     OW34063   4.508   2.107  13.771 -0.4598  0.1843  0.4882
 7534SOL    HW134064   4.539   2.177  13.828 -0.9450  0.4466  0.4280
 7534SOL    HW234065   4.572   2.112  13.700 -0.7184  1.0708  0.3126
 7535SOL     OW34066   2.150   3.342  16.588 -0.5339  1.0680  0.0733
 7535SOL    HW134067   2.179   3.426  16.624 -1.2937  1.0567  0.7121
 7535SOL    HW234068   2.056   3.338  16.607 -0.3532  0.1380  0.7845
 7536SOL     OW34069   4.591   1.586   2.774 -0.3839 -0.4355  0.3454
 7536SOL    HW134070   4.554   1.580   2.862 -3.2756  1.8404 -0.7408
 7536SOL    HW234071   4.620   1.495   2.765 -0.7022 -0.8714  3.6899
 7537SOL     OW34072   4.254   1.581   2.117 -0.1371 -0.2457  0.7327
 7537SOL    HW134073   4.286   1.557   2.203  2.0068 -0.7449 -0.1987
 7537SOL    HW234074   4.319   1.534   2.064  0.7279 -1.5533  2.9655
 7538SOL     OW34075   4.100   1.240   7.736  0.3482 -0.3476  0.1403
 7538SOL    HW134076   4.114   1.301   7.808 -0.5637 -0.5706  0.5028
 7538SOL    HW234077   4.048   1.173   7.780  0.9624 -1.1302 -0.3208
 7539SOL     OW34078   2.064   3.691  17.279  0.0377  0.2887 -0.1187
 7539SOL    HW134079   1.969   3.687  17.285  0.0076  0.5917 -0.3684
 7539SOL    HW234080   2.086   3.751  17.350  2.9642 -1.5107  0.4848
 7540SOL     OW34081   2.516   1.803  13.534  0.6447 -0.0501 -0.6044
 7540SOL    HW134082   2.489   1.782  13.445  0.6622 -0.5671 -0.4897
 7540SOL    HW234083   2.609   1.823  13.539  0.6307 -0.3801  1.2292
 7541SOL     OW34084   1.155   3.374   4.803 -0.6233 -0.0777  0.2346
 7541SOL    HW134085   1.147   3.360   4.897 -1.6125  1.0429  0.3185
 7541SOL    HW234086   1.181   3.466   4.797 -0.7083 -0.0503  0.2892
 7542SOL     OW34087   3.451   3.927   7.309 -0.5185  0.9362 -0.0229
 7542SOL    HW134088   3.498   3.988   7.252  0.7267 -1.7614 -1.8654
 7542SOL    HW234089   3.360   3.953   7.297 -1.2313 -0.7801  1.6114
 7543SOL     OW34090   2.189   0.425   2.909 -0.0669 -0.1061  0.1514
 7543SOL    HW134091   2.267   0.476   2.888 -0.5432 -0.3128 -2.0715
 7543SOL    HW234092   2.227   0.359   2.966 -0.0155  0.8302  1.2142
 7544SOL     OW34093   0.085   2.234   3.004 -0.0308 -0.0485  0.0179
 7544SOL    HW134094   0.088   2.329   3.013 -2.7020  0.0116  0.4898
 7544SOL    HW234095   0.080   2.223   2.909  1.7146 -1.3888  0.0874
 7545SOL     OW34096   1.424   1.003   1.406  0.6530 -0.2354 -0.7691
 7545SOL    HW134097   1.416   1.065   1.333  3.8025  0.9855 -0.0759
 7545SOL    HW234098   1.335   0.969   1.414 -0.1602  1.8973 -0.5521
 7546SOL     OW34099   1.336   2.140  11.580  0.0431 -0.2109 -0.3330
 7546SOL    HW134100   1.264   2.093  11.622  2.3541 -3.6354 -0.2386
 7546SOL    HW234101   1.357   2.196  11.656  3.8276 -1.4822 -0.4443
 7547SOL     OW34102   1.948   1.463   5.538  0.0802 -0.5208 -0.2140
 7547SOL    HW134103   2.002   1.537   5.510 -2.8625  1.0070 -1.8082
 7547SOL    HW234104   1.970   1.397   5.472  2.4393 -0.9991  1.0489
 7548SOL     OW34105   3.506   3.234   5.151 -0.4830 -0.3852 -0.2999
 7548SOL    HW134106   3.568   3.273   5.089 -1.8278  0.4678 -1.1028
 7548SOL    HW234107   3.424   3.235   5.101 -0.1279 -0.6297 -0.8894
 7549SOL     OW34108   3.623   1.203  12.939 -0.1251  0.5819  0.4454
 7549SOL    HW134109   3.575   1.130  12.900 -0.9271  0.1127  2.3356
 7549SOL    HW234110   3.570   1.279  12.916 -0.3671  0.9983  2.4089
 7550SOL     OW34111   3.476   4.184   5.509 -0.2310  0.2492  0.1783
 7550SOL    HW134112   3.490   4.225   5.423  1.8534  0.0777  0.4475
 7550SOL    HW234113   3.496   4.091   5.494  0.2923 -0.0027  2.5997
 7551SOL     OW34114   1.387   2.578   7.084  0.2275  0.6583  0.0379
 7551SOL    HW134115   1.364   2.497   7.040  1.1152 -0.4367  1.5787
 7551SOL    HW234116   1.482   2.570   7.091  0.4461  1.4972 -1.7743
 7552SOL     OW34117   2.435   2.273   7.875  0.5766  0.4414  0.1073
 7552SOL    HW134118   2.455   2.342   7.813 -0.0683 -0.5429 -1.1914
 7552SOL    HW234119   2.419   2.197   7.819  3.0216  1.5332 -2.0547
 7553SOL     OW34120   0.758   1.862   3.344 -0.8903 -0.6863  0.3455
 7553SOL    HW134121   0.692   1.805   3.305  1.5574 -2.7415 -0.8071
 7553SOL    HW234122   0.714   1.884   3.426 -0.3813  0.9835  0.1771
 7554SOL     OW34123   3.999   3.611   7.824 -0.2629 -0.3174  0.3610
 7554SOL    HW134124   4.006   3.518   7.802  1.5716 -0.6461  2.3711
 7554SOL    HW234125   4.078   3.655   7.792  0.3529 -2.0996 -0.5673
 7555SOL     OW34126   1.200   1.131   5.958  0.2042 -0.4078  0.7705
 7555SOL    HW134127   1.250   1.066   6.008  0.8103  0.2556  1.0275
 7555SOL    HW234128   1.181   1.092   5.873  0.2822  1.9470 -0.3066
 7556SOL     OW34129   1.592   1.875   6.994 -0.6454  0.4432 -0.1356
 7556SOL    HW134130   1.600   1.911   6.906  1.2395 -0.5288 -0.3592
 7556SOL    HW234131   1.614   1.954   7.045  0.5149 -0.2414  0.4240
 7557SOL     OW34132   0.809   1.704  16.053 -0.1146  0.6575  0.5237
 7557SOL    HW134133   0.856   1.630  16.016  1.1977  1.6009  0.3039
 7557SOL    HW234134   0.748   1.720  15.981 -0.7624 -0.4403  0.8191
 7558SOL     OW34135   3.482   3.774   8.341  0.0972 -0.5076  0.5713
 7558SOL    HW134136   3.418   3.781   8.271  1.7820 -0.3385 -0.9455
 7558SOL    HW234137   3.438   3.724   8.410  1.0438  0.0239  1.5701
 7559SOL     OW34138   1.736   2.950  11.392  0.3942 -0.4445 -0.4621
 7559SOL    HW134139   1.734   3.031  11.341 -0.0980 -0.0447  0.1872
 7559SOL    HW234140   1.773   2.979  11.475 -1.2885 -1.3424  0.6231
 7560SOL     OW34141   4.702   3.975   5.828  0.3626  0.1140  0.1781
 7560SOL    HW134142   0.009   3.890   5.795 -1.6467 -0.3505 -0.4676
 7560SOL    HW234143   4.716   4.022   5.745  0.9019 -1.7241 -0.7733
 7561SOL     OW34144   0.865   4.096   7.281  0.6370 -0.3773 -0.4312
 7561SOL    HW134145   0.852   4.001   7.286  0.6978 -0.3776 -0.2875
 7561SOL    HW234146   0.956   4.097   7.311  0.1095  0.1013  1.1334
 7562SOL     OW34147   1.810   1.154  13.516 -0.3251 -0.4979 -0.5934
 7562SOL    HW134148   1.738   1.093  13.531 -0.0078 -1.4740 -2.9585
 7562SOL    HW234149   1.883   1.092  13.517  1.1264  1.2432  0.3021
 7563SOL     OW34150   1.382   1.681   0.777 -0.4297  0.3913 -0.0093
 7563SOL    HW134151   1.428   1.611   0.731 -1.2158 -0.4128  0.4286
 7563SOL    HW234152   1.431   1.686   0.859  0.4240  2.4077 -0.6569
 7564SOL     OW34153   2.335   4.526  15.188 -0.2717  0.1832 -0.3725
 7564SOL    HW134154   2.411   4.553  15.241 -0.1765  1.2700 -1.0672
 7564SOL    HW234155   2.276   4.503  15.260  0.2255 -0.6510 -0.2233
 7565SOL     OW34156   4.048   3.413   6.938  0.7037  0.3272 -0.1419
 7565SOL    HW134157   3.978   3.348   6.927  2.0905 -1.3034  0.6414
 7565SOL    HW234158   4.119   3.355   6.966 -0.0841 -1.1341 -1.1542
 7566SOL     OW34159   1.447   2.112  11.825  0.4289 -0.2482  0.2857
 7566SOL    HW134160   1.509   2.083  11.758  0.4335 -1.3087  0.7570
 7566SOL    HW234161   1.419   2.028  11.861 -0.2659 -0.0093  0.3013
 7567SOL     OW34162   0.939   3.922  13.684  0.0448 -0.4361  0.2396
 7567SOL    HW134163   0.856   3.890  13.719  0.0779 -1.8782 -1.0041
 7567SOL    HW234164   1.000   3.849  13.689  2.8886  1.9956  1.3520
 7568SOL     OW34165   3.720   0.985   7.038  1.2740  0.1353 -0.2413
 7568SOL    HW134166   3.729   1.059   7.099  0.3072  0.6295 -0.6822
 7568SOL    HW234167   3.638   0.946   7.069  1.1623  1.3756  1.0565
 7569SOL     OW34168   3.981   4.505   1.577  0.4285  0.2735 -0.1423
 7569SOL    HW134169   4.069   4.467   1.582 -0.4236 -1.5880  0.8904
 7569SOL    HW234170   3.984   4.553   1.660 -0.9581 -0.4769  0.3462
 7570SOL     OW34171   4.254   1.559  12.618 -0.4482  0.1574  0.1310
 7570SOL    HW134172   4.196   1.605  12.678 -0.3789  0.6172 -0.1570
 7570SOL    HW234173   4.185   1.553  12.552 -1.7755  0.1592  1.5234
 7571SOL     OW34174   2.494   1.569   9.519  0.3551  0.2559  0.4984
 7571SOL    HW134175   2.429   1.501   9.534  2.2616 -1.8794 -1.0278
 7571SOL    HW234176   2.526   1.595   9.606  0.0184 -1.6976  1.1942
 7572SOL     OW34177   4.280   0.422   2.755  0.2791  0.0704 -0.1648
 7572SOL    HW134178   4.361   0.393   2.796 -0.8428 -1.4721  0.9674
 7572SOL    HW234179   4.282   0.389   2.665  0.8049 -2.2761  0.7028
 7573SOL     OW34180   4.103   0.813   5.531  0.1667 -0.2947 -0.5371
 7573SOL    HW134181   4.134   0.835   5.619  0.9242 -0.5189 -0.7499
 7573SOL    HW234182   4.012   0.820   5.560  0.7232  1.0388  0.8826
 7574SOL     OW34183   2.481   2.466   4.664 -0.1765  0.4890 -0.0921
 7574SOL    HW134184   2.421   2.391   4.663  0.1283  0.2518 -0.3545
 7574SOL    HW234185   2.440   2.529   4.723 -3.0814 -0.6203 -0.9254
 7575SOL     OW34186   2.330   2.946   8.830  0.6000  0.5474  0.1909
 7575SOL    HW134187   2.348   3.014   8.766  0.7077 -0.3200 -0.6964
 7575SOL    HW234188   2.296   2.999   8.903 -1.4800 -1.4847  0.6905
 7576SOL     OW34189   1.355   0.609   8.455 -0.4030  0.1594 -0.0264
 7576SOL    HW134190   1.318   0.689   8.419 -1.1333  0.2429  0.9097
 7576SOL    HW234191   1.431   0.602   8.396 -1.6697  3.5965 -2.0331
 7577SOL     OW34192   0.072   1.857  14.938  0.0480 -0.1186 -0.5367
 7577SOL    HW134193   4.701   1.857  14.916 -0.1609  0.5216  0.3564
 7577SOL    HW234194   0.095   1.949  14.923 -0.5716  0.3459  1.2644
 7578SOL     OW34195   3.514   1.063  10.584 -0.6459 -0.5648  0.4118
 7578SOL    HW134196   3.535   0.970  10.587  0.7818 -0.3469 -2.7018
 7578SOL    HW234197   3.551   1.080  10.670 -0.0917 -2.5991  0.5813
 7579SOL     OW34198   4.348   2.530   3.089  0.4957 -0.1318  0.3645
 7579SOL    HW134199   4.381   2.477   3.016  1.2313  2.8482 -1.4892
 7579SOL    HW234200   4.255   2.513   3.075  0.6643  0.1323 -1.1083
 7580SOL     OW34201   2.623   3.754  13.794  0.0175 -0.0366  0.1393
 7580SOL    HW134202   2.667   3.801  13.864  0.0313 -0.1637  0.2166
 7580SOL    HW234203   2.551   3.708  13.839 -0.4029 -0.6753 -1.1757
 7581SOL     OW34204   1.610   2.673   6.791  0.5150 -0.1617  0.8243
 7581SOL    HW134205   1.567   2.605   6.739  1.2952 -0.0809  0.0765
 7581SOL    HW234206   1.564   2.746   6.749  2.6471 -0.0350 -1.3095
 7582SOL     OW34207   3.723   3.141   6.168  0.6958 -0.2674 -0.0248
 7582SOL    HW134208   3.810   3.148   6.128  1.1900  1.0164  1.2854
 7582SOL    HW234209   3.745   3.190   6.247 -0.1425  0.2473 -0.1127
 7583SOL     OW34210   4.399   4.475   7.773 -0.1446  0.1591  0.0068
 7583SOL    HW134211   4.379   4.453   7.864 -0.5031  0.7806  0.0806
 7583SOL    HW234212   4.482   4.522   7.779  0.3956 -0.6180 -1.4713
 7584SOL     OW34213   0.382   3.318  13.593 -0.4191 -0.2186 -0.0918
 7584SOL    HW134214   0.390   3.285  13.503  0.4579  2.1546 -0.8723
 7584SOL    HW234215   0.287   3.311  13.604 -0.3487 -4.1628 -1.9810
 7585SOL     OW34216   3.426   0.810  17.554 -0.1888 -0.6490 -0.1542
 7585SOL    HW134217   3.514   0.829  17.520  0.8101 -3.0002  1.1681
 7585SOL    HW234218   3.440   0.752  17.629  0.3705  1.6669  1.5576
 7586SOL     OW34219   0.171   2.116  14.972 -0.2438  0.1718 -0.3755
 7586SOL    HW134220   0.262   2.132  14.999 -0.8899  1.7015  0.9239
 7586SOL    HW234221   0.161   2.179  14.901  0.9983  1.4557  0.5702
 7587SOL     OW34222   4.106   1.755  11.221 -0.5492 -0.2808 -0.4772
 7587SOL    HW134223   4.050   1.829  11.245  1.5550  0.7945  1.2227
 7587SOL    HW234224   4.192   1.795  11.235 -0.7457  0.0270 -0.1428
 7588SOL     OW34225   4.486   3.742   9.583 -0.1033  0.0455  0.1553
 7588SOL    HW134226   4.562   3.797   9.604 -1.0206  2.1042 -1.8612
 7588SOL    HW234227   4.420   3.763   9.648 -0.8574 -1.6010 -0.0751
 7589SOL     OW34228   0.832   0.423   3.730  0.3487  0.5480 -0.6153
 7589SOL    HW134229   0.737   0.431   3.723  0.3176  0.5386 -0.1822
 7589SOL    HW234230   0.855   0.511   3.699  3.1140  0.4303  1.0930
 7590SOL     OW34231   1.735   1.365  15.050  0.1699 -0.0604 -0.4484
 7590SOL    HW134232   1.679   1.434  15.083 -0.6596 -1.4444  1.0483
 7590SOL    HW234233   1.660   1.312  15.023  0.9524 -2.1278  1.4556
 7591SOL     OW34234   2.145   2.533   3.487 -0.1147 -0.4013 -0.4376
 7591SOL    HW134235   2.227   2.580   3.474 -1.4459  1.9625 -0.3089
 7591SOL    HW234236   2.127   2.502   3.398  1.7561  0.9669 -1.2830
 7592SOL     OW34237   2.389   3.714  12.898  0.4386  0.3937  0.3192
 7592SOL    HW134238   2.447   3.764  12.955  1.6689 -0.0308 -0.5582
 7592SOL    HW234239   2.455   3.672  12.843  0.5725  0.5628  0.3507
 7593SOL     OW34240   0.612   2.490   7.876  0.4518  0.1576 -0.6290
 7593SOL    HW134241   0.668   2.444   7.939 -0.6359 -0.3560 -0.0324
 7593SOL    HW234242   0.669   2.538   7.818  1.2314 -1.0447 -0.8609
 7594SOL     OW34243   4.658   4.504  17.375 -0.7240 -0.4732 -0.2156
 7594SOL    HW134244   4.643   4.440  17.444 -0.5251 -0.1340  0.1448
 7594SOL    HW234245   4.575   4.523  17.333 -0.9395 -1.2224 -0.1304
 7595SOL     OW34246   3.793   2.631   7.136  0.2018 -0.3015  1.0994
 7595SOL    HW134247   3.868   2.691   7.129  0.0145 -0.1737  0.2013
 7595SOL    HW234248   3.829   2.547   7.107  3.2763  1.1503  0.6195
 7596SOL     OW34249   4.039   2.532   0.973  0.2242 -0.3199 -0.0740
 7596SOL    HW134250   4.016   2.571   0.889  0.0775 -2.5107 -1.0441
 7596SOL    HW234251   3.976   2.574   1.032 -1.4060 -0.6869 -1.5389
 7597SOL     OW34252   2.124   0.492   1.374 -0.9369  0.3981 -0.0321
 7597SOL    HW134253   2.074   0.418   1.408 -1.0702  0.3129 -0.4119
 7597SOL    HW234254   2.201   0.454   1.331 -1.6312 -1.0336  0.0094
 7598SOL     OW34255   3.047   1.605   0.548 -0.1448  0.1774  0.0084
 7598SOL    HW134256   3.085   1.518   0.563  0.9567  0.4459 -1.3244
 7598SOL    HW234257   3.023   1.630   0.638  0.0291 -0.1626  0.1474
 7599SOL     OW34258   3.219   0.782  14.806 -0.3331  0.0814  0.4072
 7599SOL    HW134259   3.150   0.748  14.749 -1.4597  0.4011  1.5833
 7599SOL    HW234260   3.294   0.733  14.772 -0.4009  0.3319 -0.0975
 7600SOL     OW34261   2.548   3.952   9.022 -0.5001  0.2688 -0.7154
 7600SOL    HW134262   2.534   4.013   8.950  0.1821  1.4781  0.1827
 7600SOL    HW234263   2.537   4.011   9.097  1.1004 -0.1717 -0.1343
 7601SOL     OW34264   3.964   4.377   8.901  0.3265 -0.0312  0.1830
 7601SOL    HW134265   3.925   4.366   8.814 -0.7993 -0.2791  0.7204
 7601SOL    HW234266   4.040   4.431   8.880  0.0821  1.6187  3.5149
 7602SOL     OW34267   2.545   2.090   9.386  0.2193  0.0502  0.5809
 7602SOL    HW134268   2.548   2.022   9.454  3.3351 -0.3826  0.0080
 7602SOL    HW234269   2.467   2.139   9.413 -1.0584 -1.2469 -0.7642
 7603SOL     OW34270   1.522   2.284   3.042  0.3605  0.0978  0.4049
 7603SOL    HW134271   1.533   2.355   2.978 -1.3040 -0.5682 -0.6435
 7603SOL    HW234272   1.431   2.262   3.019  0.0284 -0.6599  2.5210
 7604SOL     OW34273   1.502   0.634   0.158  0.4396  0.1620 -0.0647
 7604SOL    HW134274   1.457   0.614   0.240  0.9858 -0.1245  0.1658
 7604SOL    HW234275   1.518   0.543   0.134 -1.1862  0.0092 -0.5781
 7605SOL     OW34276   2.889   3.295   7.393 -0.6966  0.4113 -0.3013
 7605SOL    HW134277   2.833   3.279   7.469  1.6749 -2.1941  0.9177
 7605SOL    HW234278   2.949   3.220   7.400 -0.8815  0.2833 -0.0603
 7606SOL     OW34279   3.768   1.466   0.876 -1.0262 -0.2902  0.4395
 7606SOL    HW134280   3.795   1.436   0.790 -0.3138  0.2913  0.4559
 7606SOL    HW234281   3.760   1.561   0.862  0.6181 -0.1245  0.5960
 7607SOL     OW34282   0.542   0.455   8.206 -0.0085 -0.2530  0.3912
 7607SOL    HW134283   0.457   0.450   8.249 -0.1077  1.2439  0.3653
 7607SOL    HW234284   0.511   0.466   8.116 -0.6463 -1.4862  0.4632
 7608SOL     OW34285   1.035   0.022   6.505 -0.5162 -0.2346  0.1024
 7608SOL    HW134286   1.101   0.087   6.533 -0.2860 -0.0337 -0.9197
 7608SOL    HW234287   0.996   0.063   6.428 -0.4694 -1.0752 -0.3619
 7609SOL     OW34288   2.126   1.187   5.427  0.4170 -0.6231  0.7668
 7609SOL    HW134289   2.178   1.244   5.485 -0.9189  0.3445  1.0014
 7609SOL    HW234290   2.199   1.162   5.370  0.6461  0.1832  0.7079
 7610SOL     OW34291   4.668   3.637  11.500 -0.0832  0.1540 -0.3113
 7610SOL    HW134292   0.000   3.709  11.470  0.9154  0.5306  2.4340
 7610SOL    HW234293   0.005   3.563  11.491  0.9755  1.0215 -0.4423
 7611SOL     OW34294   2.857   0.537   5.609  0.2035 -0.2509  0.2344
 7611SOL    HW134295   2.794   0.474   5.643 -1.7499  0.6679 -1.7303
 7611SOL    HW234296   2.831   0.539   5.517  1.0223 -0.4755 -0.0084
 7612SOL     OW34297   2.381   1.137   9.521 -0.1024 -0.2727  0.3857
 7612SOL    HW134298   2.455   1.079   9.508  0.1766 -0.0970  1.1528
 7612SOL    HW234299   2.401   1.180   9.604  0.6240  0.5720 -0.2390
 7613SOL     OW34300   3.525   3.773  17.262  0.2724  0.2496 -0.3155
 7613SOL    HW134301   3.516   3.684  17.227 -0.0132  0.3842 -0.5755
 7613SOL    HW234302   3.598   3.759  17.322 -0.5065 -1.1498  0.3124
 7614SOL     OW34303   3.158   1.554  16.149  0.1355 -0.3868  0.4358
 7614SOL    HW134304   3.142   1.572  16.241  0.3720  0.3410  0.3362
 7614SOL    HW234305   3.254   1.559  16.155  0.0946  0.0660  0.6994
 7615SOL     OW34306   3.585   3.817   6.413 -0.1186 -0.1883 -0.0071
 7615SOL    HW134307   3.500   3.809   6.456 -1.6278  0.9933 -2.7669
 7615SOL    HW234308   3.608   3.728   6.385  0.1209 -1.0851  3.0075
 7616SOL     OW34309   3.894   0.170   9.427 -0.5682  0.0690  0.2369
 7616SOL    HW134310   3.879   0.140   9.337 -1.6259  2.0406 -0.2332
 7616SOL    HW234311   3.957   0.099   9.443 -0.8341 -0.5498 -1.4653
 7617SOL     OW34312   1.844   0.406   3.881  0.6971  0.1400  0.3516
 7617SOL    HW134313   1.919   0.394   3.823  0.6901  1.6787  0.0334
 7617SOL    HW234314   1.789   0.479   3.853 -0.4229 -0.3197  1.3661
 7618SOL     OW34315   4.563   3.471  14.438 -0.2747 -0.2471  0.2688
 7618SOL    HW134316   4.482   3.456  14.389  0.4810  0.8413 -1.3049
 7618SOL    HW234317   4.604   3.384  14.438 -1.3243 -0.7481  1.0990
 7619SOL     OW34318   0.093   2.905  13.292 -0.5357  0.0896  0.6909
 7619SOL    HW134319   0.062   2.834  13.349 -1.6986  1.3961  1.6780
 7619SOL    HW234320   0.090   2.979  13.352 -0.8610  3.3836 -3.3862
 7620SOL     OW34321   1.981   0.095   4.104  0.2093  0.3010 -0.2411
 7620SOL    HW134322   2.068   0.099   4.143 -0.6287  1.3513  1.5181
 7620SOL    HW234323   2.001   0.047   4.023  1.4619 -1.9450  1.4048
 7621SOL     OW34324   2.618   2.991   0.824 -0.5637 -0.1425  0.0396
 7621SOL    HW134325   2.584   3.048   0.755 -2.5395 -0.8687  0.4047
 7621SOL    HW234326   2.664   3.044   0.889  0.3414 -0.7436 -0.1073
 7622SOL     OW34327   0.358   2.270   5.417  0.8633 -0.2018  0.0756
 7622SOL    HW134328   0.345   2.200   5.481 -0.4897 -0.9419 -0.9981
 7622SOL    HW234329   0.453   2.267   5.409  0.7872 -0.6688 -0.6491
 7623SOL     OW34330   2.754   2.237   5.358  0.2147  0.6618 -0.1225
 7623SOL    HW134331   2.821   2.283   5.307  1.5390 -1.0099  0.1466
 7623SOL    HW234332   2.748   2.159   5.303 -0.5624  0.8210 -0.2747
 7624SOL     OW34333   1.490   1.522   2.232 -0.7062 -0.0489 -0.1736
 7624SOL    HW134334   1.555   1.453   2.219 -0.2365  0.1133  1.2125
 7624SOL    HW234335   1.431   1.512   2.158  0.9451  1.8575 -1.7540
 7625SOL     OW34336   3.972   1.080   6.287  0.1737 -0.4027 -0.3806
 7625SOL    HW134337   3.899   1.090   6.347  1.0913  0.4139  0.5910
 7625SOL    HW234338   3.981   0.988   6.313  1.3106 -0.6909 -1.7629
 7626SOL     OW34339   3.668   1.806   8.751 -0.3280  0.2329  0.4025
 7626SOL    HW134340   3.694   1.874   8.813  1.6521 -1.0099  0.9352
 7626SOL    HW234341   3.676   1.742   8.822  0.0377  0.4771  0.5842
 7627SOL     OW34342   0.926   2.166  11.405 -0.0100  0.4002 -0.0496
 7627SOL    HW134343   0.915   2.224  11.329 -0.5332 -0.3303 -0.5207
 7627SOL    HW234344   1.016   2.192  11.427 -0.3790 -0.4152  2.4506
 7628SOL     OW34345   2.078   3.306  13.449  0.5183  0.0224 -0.5910
 7628SOL    HW134346   2.151   3.246  13.432  1.5381  0.2829  2.7937
 7628SOL    HW234347   2.125   3.382  13.483  0.3839  0.2214 -0.8560
 7629SOL     OW34348   2.619   3.750   3.707  0.6678 -0.5413  0.4501
 7629SOL    HW134349   2.611   3.671   3.760 -2.7738  0.8142  1.9215
 7629SOL    HW234350   2.712   3.743   3.682 -0.1133  0.0913 -2.5920
 7630SOL     OW34351   3.396   2.557   6.385  0.3892  0.3544 -0.5896
 7630SOL    HW134352   3.391   2.474   6.337  2.2983 -0.1846  0.1195
 7630SOL    HW234353   3.409   2.620   6.314  2.0841  1.0677  0.3393
 7631SOL     OW34354   3.542   1.047   7.506 -0.3371 -0.0983 -0.1753
 7631SOL    HW134355   3.519   0.958   7.533 -1.9423 -0.0307 -1.3828
 7631SOL    HW234356   3.626   1.026   7.465 -0.2866  2.3374 -1.3354
 7632SOL     OW34357   0.024   0.292   3.242 -0.2245  0.9307  0.4640
 7632SOL    HW134358   0.082   0.368   3.243 -1.1324  1.6312  0.0742
 7632SOL    HW234359   4.673   0.331   3.195  0.0037  0.0708 -0.6156
 7633SOL     OW34360   3.954   2.972   4.964  0.2252 -0.4829  0.3608
 7633SOL    HW134361   3.998   2.922   4.896  1.0438  0.5363  0.1328
 7633SOL    HW234362   3.897   3.024   4.907 -0.3553 -0.7859  0.6615
 7634SOL     OW34363   2.202   2.987   3.940  0.5373 -0.3331  0.1231
 7634SOL    HW134364   2.195   3.009   3.847 -0.6969  2.1237  0.8172
 7634SOL    HW234365   2.231   3.067   3.983  1.6018 -0.1752 -0.8810
 7635SOL     OW34366   2.110   3.581   7.545 -0.0543 -0.1960 -0.0116
 7635SOL    HW134367   2.174   3.535   7.600 -0.2207 -0.1026  0.2607
 7635SOL    HW234368   2.115   3.674   7.564  2.6446 -0.0854 -1.2677
 7636SOL     OW34369   0.609   2.178   3.766 -0.2595 -0.0635 -0.2681
 7636SOL    HW134370   0.523   2.157   3.730 -0.2410 -0.4988 -0.0638
 7636SOL    HW234371   0.651   2.222   3.693 -0.0961  0.8603  0.3891
 7637SOL     OW34372   0.924   1.009  15.527  0.3130 -0.7119 -0.2481
 7637SOL    HW134373   0.864   1.034  15.598  1.7648  0.5064  0.5624
 7637SOL    HW234374   0.938   1.088  15.475  4.2201 -0.3130  1.3420
 7638SOL     OW34375   1.919   2.536   4.509 -0.4148  0.2963  0.1186
 7638SOL    HW134376   1.932   2.559   4.601  0.2066 -0.7002  0.2712
 7638SOL    HW234377   1.827   2.563   4.499 -1.2120 -2.5809 -0.3487
 7639SOL     OW34378   4.263   1.243   6.288 -0.3539 -0.2040 -0.0914
 7639SOL    HW134379   4.321   1.228   6.213 -0.3621 -0.2345 -0.0919
 7639SOL    HW234380   4.180   1.252   6.241 -1.3130 -2.2598  1.1892
 7640SOL     OW34381   1.123   1.284   7.513 -0.3269  0.1439  0.2171
 7640SOL    HW134382   1.043   1.297   7.461  1.0668  0.8550 -1.7167
 7640SOL    HW234383   1.103   1.331   7.594 -0.5683  1.0535 -0.3731
 7641SOL     OW34384   3.178   1.314   2.769  0.5140  0.2752  0.2912
 7641SOL    HW134385   3.180   1.363   2.687 -3.9170  2.2068  1.3698
 7641SOL    HW234386   3.196   1.228   2.731  1.0930 -0.7117  2.8032
 7642SOL     OW34387   1.349   0.251   5.116  0.4284 -0.6708 -0.2601
 7642SOL    HW134388   1.327   0.286   5.030  0.5288  1.1396  0.4431
 7642SOL    HW234389   1.387   0.165   5.102  0.4636 -0.2643 -2.5943
 7643SOL     OW34390   3.921   3.825   9.986  0.9158 -0.5522 -0.0595
 7643SOL    HW134391   4.013   3.800   9.996  1.6664  1.8021 -0.9636
 7643SOL    HW234392   3.910   3.897  10.049  0.1999 -0.1737 -0.6179
 7644SOL     OW34393   3.984   2.014  15.606 -0.1296 -0.9543  0.2908
 7644SOL    HW134394   4.062   1.993  15.658  0.3036 -0.5318 -0.1875
 7644SOL    HW234395   4.014   2.079  15.542 -0.3254  0.6513  1.8117
 7645SOL     OW34396   4.015   1.745   4.250  0.3113 -0.3454  0.2248
 7645SOL    HW134397   4.007   1.781   4.162 -1.3242 -4.0074 -1.1109
 7645SOL    HW234398   3.965   1.809   4.300  0.2362 -0.1802 -0.0644
 7646SOL     OW34399   2.024   2.693   0.283  0.2415 -0.2477 -0.0772
 7646SOL    HW134400   2.046   2.745   0.206  1.5697  0.2301  0.6249
 7646SOL    HW234401   2.021   2.756   0.356  0.0345 -0.3847  0.0322
 7647SOL     OW34402   3.416   0.501   7.359  0.2501 -0.1885  0.4824
 7647SOL    HW134403   3.440   0.584   7.319  1.1344 -1.0953 -0.8479
 7647SOL    HW234404   3.499   0.467   7.392  0.7694 -0.7345 -1.3832
 7648SOL     OW34405   1.497   4.076   2.498 -0.1964 -0.1758  0.2244
 7648SOL    HW134406   1.447   4.103   2.421  0.1233 -1.7666 -0.5580
 7648SOL    HW234407   1.435   4.090   2.569 -0.4171  0.5897 -0.1200
 7649SOL     OW34408   0.450   3.633   2.597  0.2294  0.2104  0.0888
 7649SOL    HW134409   0.466   3.541   2.619  0.1623 -0.4162 -2.4697
 7649SOL    HW234410   0.540   3.665   2.585  0.5083 -0.2294  0.9799
 7650SOL     OW34411   1.331   4.190   8.293  0.0122 -0.0749 -0.1396
 7650SOL    HW134412   1.303   4.273   8.255  3.0038  0.9038 -0.1526
 7650SOL    HW234413   1.264   4.169   8.358 -1.1115 -0.3513 -1.3810
 7651SOL     OW34414   3.252   0.985  16.093  0.4596  0.4483 -0.2259
 7651SOL    HW134415   3.199   1.044  16.146 -2.3328 -0.5445 -1.9241
 7651SOL    HW234416   3.278   0.920  16.159  0.7804  1.1858  0.3666
 7652SOL     OW34417   0.772   3.510   2.177 -0.0050 -0.6440 -0.2871
 7652SOL    HW134418   0.687   3.476   2.150 -1.5331  2.0047  1.1993
 7652SOL    HW234419   0.817   3.511   2.093 -1.6455 -0.9096 -1.1740
 7653SOL     OW34420   4.424   3.767   6.392  0.2994  0.3045 -0.0241
 7653SOL    HW134421   4.398   3.675   6.391  3.8353 -0.6748 -2.2971
 7653SOL    HW234422   4.509   3.767   6.349  0.5811 -0.3863  0.5278
 7654SOL     OW34423   1.721   1.763   4.093  0.3848  0.5533  0.5633
 7654SOL    HW134424   1.786   1.733   4.029  1.1403  1.8491  0.7203
 7654SOL    HW234425   1.650   1.757   4.029  1.4068  0.4201 -0.5648
 7655SOL     OW34426   0.690   4.018   6.206  0.2924 -0.3011 -0.2154
 7655SOL    HW134427   0.680   4.113   6.194  0.8841 -0.1271  0.6902
 7655SOL    HW234428   0.765   3.991   6.153 -0.4863 -0.4264 -1.2627
 7656SOL     OW34429   3.131   1.943  14.999 -0.0223  0.0143 -0.5074
 7656SOL    HW134430   3.051   1.913  15.041 -0.4260  1.3172 -0.3518
 7656SOL    HW234431   3.179   1.982  15.072 -0.6262  0.0926 -0.1558
 7657SOL     OW34432   2.436   2.870   5.426  0.0865  0.6254 -0.1271
 7657SOL    HW134433   2.416   2.879   5.519  2.9700 -2.2451  0.7929
 7657SOL    HW234434   2.424   2.962   5.406  0.7050 -0.0463 -3.5413
 7658SOL     OW34435   0.608   1.715   4.562 -0.0225  0.0381  0.0988
 7658SOL    HW134436   0.558   1.751   4.635 -0.0108  0.3440 -0.0470
 7658SOL    HW234437   0.552   1.644   4.531  0.1854 -0.4169  0.7528
 7659SOL     OW34438   4.240   1.053   8.227 -0.5444 -0.2960 -0.3350
 7659SOL    HW134439   4.200   1.140   8.220 -0.0028 -0.1778 -2.0160
 7659SOL    HW234440   4.211   1.035   8.316 -1.3827  1.4089 -0.2684
 7660SOL     OW34441   2.676   3.707   9.197 -0.4900 -0.2699 -0.3931
 7660SOL    HW134442   2.613   3.758   9.146  0.7287  2.9467  1.3269
 7660SOL    HW234443   2.696   3.633   9.139  0.2240  0.3643 -0.9520
 7661SOL     OW34444   0.435   4.119  12.168 -0.2484 -0.2664  0.3630
 7661SOL    HW134445   0.360   4.099  12.224 -0.4319  0.8230  0.5044
 7661SOL    HW234446   0.469   4.030  12.172  0.7956  0.1285  0.2679
 7662SOL     OW34447   4.147   1.520   2.395 -0.0160  0.2050 -0.5645
 7662SOL    HW134448   4.240   1.543   2.403 -0.0346  0.4268 -0.9847
 7662SOL    HW234449   4.160   1.427   2.416 -0.5662  0.8694  2.7393
 7663SOL     OW34450   0.509   0.138   2.420  0.0642  0.0537  0.1952
 7663SOL    HW134451   0.507   0.167   2.328  2.3202  0.3995  0.2431
 7663SOL    HW234452   0.586   0.178   2.461  2.0178 -3.9176  0.4048
 7664SOL     OW34453   0.171   4.268   0.440  0.5002  0.4659 -0.3919
 7664SOL    HW134454   0.165   4.318   0.359  0.8174  1.3287  0.1086
 7664SOL    HW234455   0.174   4.340   0.504  0.6722 -0.9887  1.2416
 7665SOL     OW34456   1.640   1.145   3.369  0.1635  0.4428  0.1035
 7665SOL    HW134457   1.574   1.076   3.375  0.2858  0.1357 -2.0099
 7665SOL    HW234458   1.724   1.099   3.368  0.1508  0.4187  0.2413
 7666SOL     OW34459   2.853   1.618  13.471 -0.3581 -0.0711  0.5025
 7666SOL    HW134460   2.813   1.704  13.485 -0.6569  0.1253 -1.4885
 7666SOL    HW234461   2.783   1.567  13.430  0.5260 -1.0796  0.2639
 7667SOL     OW34462   0.004   4.212   4.784  0.8750 -0.2400  0.1780
 7667SOL    HW134463   4.670   4.252   4.719 -0.4621  0.6857  1.9096
 7667SOL    HW234464   4.719   4.288   4.841 -0.3881 -0.4004  0.2021
 7668SOL     OW34465   1.789   2.102   0.589 -0.1154  0.0866  0.0044
 7668SOL    HW134466   1.847   2.108   0.513 -0.3582  1.9246 -0.0266
 7668SOL    HW234467   1.745   2.187   0.586  0.8488  0.6233  1.0528
 7669SOL     OW34468   4.651   1.139  14.305 -0.2341 -0.2757  0.2127
 7669SOL    HW134469   0.015   1.118  14.269 -0.8959 -1.5028 -0.6507
 7669SOL    HW234470   4.619   1.214  14.255 -0.8560 -1.2150 -0.7867
 7670SOL     OW34471   3.822   1.861   6.549  0.3233  0.5073 -1.0533
 7670SOL    HW134472   3.765   1.892   6.479 -1.2604  0.1006  0.0619
 7670SOL    HW234473   3.870   1.936   6.585  0.8560  0.1493 -1.0131
 7671SOL     OW34474   3.029   4.462   7.959 -0.1226  0.6012 -0.4086
 7671SOL    HW134475   3.123   4.474   7.951  0.3088 -2.7149 -0.2224
 7671SOL    HW234476   3.013   4.516   8.037  3.3975  1.7880 -0.5108
 7672SOL     OW34477   2.878   1.943   6.784  0.7018 -0.0939  0.5377
 7672SOL    HW134478   2.838   1.960   6.870 -0.0745  3.2384 -0.5115
 7672SOL    HW234479   2.909   2.027   6.752 -1.6184  0.3175 -0.5915
 7673SOL     OW34480   3.396   1.115   9.739  0.0039 -0.0618 -0.0027
 7673SOL    HW134481   3.489   1.130   9.722 -0.6014  1.6368 -1.8473
 7673SOL    HW234482   3.349   1.140   9.660  0.0874 -0.0842 -0.0591
 7674SOL     OW34483   3.064   3.737  13.176  0.0658  0.1650 -0.1768
 7674SOL    HW134484   3.140   3.737  13.119 -0.1307 -1.3363 -0.4457
 7674SOL    HW234485   3.073   3.820  13.222  0.1739 -0.6113  1.1945
 7675SOL     OW34486   1.502   0.471   2.101  0.2590  0.5749  0.5195
 7675SOL    HW134487   1.483   0.564   2.097 -0.2751  0.3842 -1.7532
 7675SOL    HW234488   1.473   0.433   2.017 -1.1512 -0.6706  1.5522
 7676SOL     OW34489   0.463   1.962  15.760  0.1908  0.0404 -0.0168
 7676SOL    HW134490   0.449   1.917  15.677 -0.0769  0.4114 -0.1683
 7676SOL    HW234491   0.378   2.000  15.783  0.4982  0.4435  0.4598
 7677SOL     OW34492   4.643   3.665   1.173  0.5500  0.2389  0.3153
 7677SOL    HW134493   4.620   3.607   1.100 -1.3251 -1.1331  2.0133
 7677SOL    HW234494   4.643   3.751   1.130 -1.7952 -0.5500 -1.2459
 7678SOL     OW34495   2.216   3.558   6.592  0.2623  0.3206 -0.2070
 7678SOL    HW134496   2.286   3.522   6.646  1.1176 -1.8573 -2.7062
 7678SOL    HW234497   2.160   3.595   6.660 -1.6645  0.3955 -1.8362
 7679SOL     OW34498   1.072   2.261   6.351  0.3049 -0.4230 -0.1735
 7679SOL    HW134499   1.031   2.177   6.329  0.6024 -1.0742  1.7496
 7679SOL    HW234500   0.990   2.308   6.367  0.6451 -0.6804  2.2852
 7680SOL     OW34501   2.493   0.453   9.226 -0.0296 -0.0642 -0.9119
 7680SOL    HW134502   2.546   0.409   9.293  0.5056  2.0235  0.0332
 7680SOL    HW234503   2.410   0.472   9.269  0.6485 -1.5495  1.0819
 7681SOL     OW34504   0.942   0.738  13.131  0.4566 -0.3226  0.2080
 7681SOL    HW134505   0.908   0.824  13.108 -1.6057 -1.6850 -1.8654
 7681SOL    HW234506   0.900   0.738  13.217  1.0590 -0.8656  0.5038
 7682SOL     OW34507   2.539   3.309   9.298 -0.0281 -0.2656  0.0265
 7682SOL    HW134508   2.592   3.359   9.360  0.3564 -1.2191  0.4742
 7682SOL    HW234509   2.450   3.324   9.327 -0.4353  0.0572 -1.4160
 7683SOL     OW34510   0.583   2.452   4.224  0.5264  0.4421 -0.4582
 7683SOL    HW134511   0.541   2.376   4.265  1.5757  0.5070  0.7344
 7683SOL    HW234512   0.649   2.396   4.184 -0.9940 -1.9915  0.4184
 7684SOL     OW34513   1.024   1.621  16.658  0.5318  0.0517 -0.5371
 7684SOL    HW134514   1.029   1.621  16.562  1.2529 -0.7890 -0.5043
 7684SOL    HW234515   1.107   1.583  16.686  0.9318  0.9543 -0.5321
 7685SOL     OW34516   2.218   4.333   9.962  0.2953 -0.2708  0.4476
 7685SOL    HW134517   2.259   4.251   9.991 -0.3599 -0.5075  0.7120
 7685SOL    HW234518   2.287   4.361   9.902  1.3780 -0.2127  1.6985
 7686SOL     OW34519   2.999   1.915   7.580  0.3882 -0.4882  0.2060
 7686SOL    HW134520   3.040   1.901   7.494  1.3906 -0.5209  0.6940
 7686SOL    HW234521   2.992   1.829   7.622  1.2849 -1.1228 -0.9251
 7687SOL     OW34522   3.443   1.723   7.419  0.1622  0.3024  0.1858
 7687SOL    HW134523   3.482   1.717   7.506 -0.9436 -0.7316  0.5951
 7687SOL    HW234524   3.519   1.721   7.361 -0.8348  1.5729 -1.1639
 7688SOL     OW34525   1.696   1.499   9.049  0.9960 -0.9445  0.3962
 7688SOL    HW134526   1.658   1.566   9.106 -0.8797 -1.5013 -0.1975
 7688SOL    HW234527   1.789   1.517   9.066  0.3916 -0.0701  2.8096
 7689SOL     OW34528   2.565   3.351  14.173 -0.2532 -0.1631 -0.2318
 7689SOL    HW134529   2.469   3.354  14.174 -0.2335  0.6961 -0.5868
 7689SOL    HW234530   2.584   3.289  14.244  1.2329 -0.9716 -1.3314
 7690SOL     OW34531   3.392   1.916  17.413  0.1295 -0.3005  0.2242
 7690SOL    HW134532   3.454   1.931  17.485  0.1226  1.7217 -0.1824
 7690SOL    HW234533   3.303   1.923  17.447 -0.0462 -0.9032 -0.1144
 7691SOL     OW34534   4.713   1.023  15.835  0.2144  0.2567 -0.9134
 7691SOL    HW134535   4.660   1.075  15.775 -1.1350  0.3487  0.3723
 7691SOL    HW234536   4.722   1.083  15.909  0.7390 -0.8093 -0.1097
 7692SOL     OW34537   2.521   4.018   3.680 -0.0479  0.2933  0.8126
 7692SOL    HW134538   2.558   3.932   3.660 -0.1724  0.1232  1.3268
 7692SOL    HW234539   2.531   4.065   3.597 -0.5290  1.0460  1.1821
 7693SOL     OW34540   0.057   3.615   7.543  0.1116  0.0788 -0.0445
 7693SOL    HW134541   0.034   3.683   7.606  0.6075  2.3871 -2.3661
 7693SOL    HW234542   0.051   3.664   7.461 -0.8051  1.9257  1.1363
 7694SOL     OW34543   0.840   1.369   6.495 -0.2881  0.0179 -0.0217
 7694SOL    HW134544   0.903   1.348   6.564  0.2960 -1.0071 -0.8705
 7694SOL    HW234545   0.769   1.402   6.549 -0.1668  0.2540 -0.0036
 7695SOL     OW34546   2.525   3.414  16.398  0.1841 -0.2468  0.0465
 7695SOL    HW134547   2.620   3.405  16.392  0.1958  1.0748 -1.4646
 7695SOL    HW234548   2.503   3.478  16.331  0.4162  0.1952  0.3953
 7696SOL     OW34549   1.432   0.663  12.478 -0.4263  0.4377 -0.0784
 7696SOL    HW134550   1.426   0.568  12.484 -0.1613  0.4398  0.2725
 7696SOL    HW234551   1.444   0.684  12.386 -0.6948  2.0967  0.2623
 7697SOL     OW34552   3.380   0.359   5.285  0.4465 -0.2268 -0.1105
 7697SOL    HW134553   3.332   0.417   5.226  0.0050  0.1256  0.6038
 7697SOL    HW234554   3.423   0.295   5.227 -0.7215  0.6794 -1.9833
 7698SOL     OW34555   2.692   1.248   1.765  0.9514  0.4917 -0.0332
 7698SOL    HW134556   2.732   1.305   1.699 -0.5393 -0.5499 -1.8299
 7698SOL    HW234557   2.643   1.189   1.708  1.1818  1.7968 -1.5908
 7699SOL     OW34558   2.854   1.733   0.175 -0.0712  0.5510 -0.1079
 7699SOL    HW134559   2.949   1.737   0.160 -0.3614 -1.6632 -2.4054
 7699SOL    HW234560   2.841   1.804   0.238 -2.7072  0.7761 -0.9101
 7700SOL     OW34561   0.763   2.870   1.079 -0.4201 -0.6482  0.2312
 7700SOL    HW134562   0.849   2.859   1.038 -1.1552  1.4727 -1.8906
 7700SOL    HW234563   0.729   2.782   1.094  2.7487 -1.7881  0.7199
 7701SOL     OW34564   1.805   2.574   4.125 -0.1407 -0.0883  0.2600
 7701SOL    HW134565   1.899   2.557   4.122 -0.5707 -2.4869  0.9622
 7701SOL    HW234566   1.762   2.492   4.146 -0.3716 -0.5534 -1.9808
 7702SOL     OW34567   2.752   0.561  12.615  0.2592  0.5122 -0.1251
 7702SOL    HW134568   2.663   0.542  12.645  0.0085  0.1336 -1.1156
 7702SOL    HW234569   2.794   0.515  12.688 -1.4566  0.6077  0.9350
 7703SOL     OW34570   0.662   2.823   7.965 -0.7229  0.3421 -0.0272
 7703SOL    HW134571   0.725   2.755   7.988  0.5673  0.7692 -2.4009
 7703SOL    HW234572   0.667   2.816   7.870 -0.8712 -1.6563  0.1151
 7704SOL     OW34573   2.333   4.550  13.750  0.7737 -0.4313  0.5805
 7704SOL    HW134574   2.251   4.600  13.752  1.5391  0.7386  4.1438
 7704SOL    HW234575   2.388   4.613  13.796 -0.3381  2.5905 -2.2627
 7705SOL     OW34576   3.853   1.376   0.619 -0.0970  0.5919  0.0196
 7705SOL    HW134577   3.865   1.326   0.538  1.1675  1.0583 -0.0889
 7705SOL    HW234578   3.934   1.427   0.624  1.8967 -2.5312 -0.2888
 7706SOL     OW34579   1.459   2.237   8.201 -0.1653  0.7981 -0.3563
 7706SOL    HW134580   1.518   2.219   8.274 -2.8598 -0.1439  1.6255
 7706SOL    HW234581   1.372   2.248   8.239 -0.1904  0.5178 -0.3356
 7707SOL     OW34582   4.674   1.863   3.424 -0.0822 -0.7435 -0.3415
 7707SOL    HW134583   4.594   1.901   3.460 -0.8144 -1.6996 -0.9517
 7707SOL    HW234584   4.637   1.842   3.339 -0.2512 -2.1388  0.0652
 7708SOL     OW34585   3.457   3.586   3.237 -0.0039 -0.1526  0.2063
 7708SOL    HW134586   3.547   3.613   3.221  0.1257 -0.0621  1.0897
 7708SOL    HW234587   3.442   3.615   3.327 -0.2799  1.7256 -0.4433
 7709SOL     OW34588   0.529   3.986  11.493  0.4877 -0.0200 -0.5157
 7709SOL    HW134589   0.617   4.023  11.503 -0.5185  2.5943 -1.4934
 7709SOL    HW234590   0.541   3.899  11.532 -1.3976 -0.3976 -0.7959
 7710SOL     OW34591   1.594   1.257   9.084  0.1531 -0.0437  0.2083
 7710SOL    HW134592   1.623   1.347   9.069  0.4648 -0.2169 -0.2121
 7710SOL    HW234593   1.624   1.241   9.174 -1.0972  0.6183  0.7458
 7711SOL     OW34594   1.061   4.260  10.937 -0.1843  0.1668  0.1226
 7711SOL    HW134595   1.046   4.346  10.977  2.0188  0.4791  0.3063
 7711SOL    HW234596   1.149   4.275  10.902 -0.5815  1.0791 -0.4877
 7712SOL     OW34597   0.458   0.750   0.170 -0.0982  0.0880  0.2486
 7712SOL    HW134598   0.371   0.756   0.129  0.3794 -0.6131 -0.8728
 7712SOL    HW234599   0.450   0.660   0.203  2.6336  0.0897  0.8631
 7713SOL     OW34600   2.609   2.389  11.880  0.0732  0.8528 -0.1199
 7713SOL    HW134601   2.681   2.385  11.817  0.8741 -1.5895  0.9570
 7713SOL    HW234602   2.573   2.473  11.852 -1.7959 -0.1374 -0.6997
 7714SOL     OW34603   3.903   3.475   6.657 -0.3461  0.0658 -0.4017
 7714SOL    HW134604   3.975   3.499   6.716  1.0126 -0.7605 -1.7212
 7714SOL    HW234605   3.888   3.383   6.679  1.2672 -0.4585 -1.5327
 7715SOL     OW34606   0.603   2.489   5.491 -0.7122  0.3081  0.0304
 7715SOL    HW134607   0.698   2.482   5.498 -0.9146 -0.1325  2.5047
 7715SOL    HW234608   0.591   2.402   5.454  0.8328  0.3683 -0.5945
 7716SOL     OW34609   0.827   0.373   6.044  0.1936 -0.6010 -0.2149
 7716SOL    HW134610   0.850   0.290   6.002 -1.4905 -1.1307 -0.1007
 7716SOL    HW234611   0.743   0.388   5.999  0.7011  1.1527 -0.5682
 7717SOL     OW34612   1.933   4.038   2.773 -0.0254 -0.0634  0.3727
 7717SOL    HW134613   2.003   4.100   2.751 -0.3869 -0.2331 -1.2349
 7717SOL    HW234614   1.975   3.964   2.816 -0.1761 -0.1856  0.3069
 7718SOL     OW34615   4.715   0.467   6.425 -0.0595 -0.0640  0.0229
 7718SOL    HW134616   0.040   0.426   6.353  0.9959  1.1546  0.0327
 7718SOL    HW234617   4.691   0.392   6.479 -0.1937 -0.8641 -1.1508
 7719SOL     OW34618   0.341   3.674   8.464 -0.2933  0.1078 -0.2883
 7719SOL    HW134619   0.260   3.702   8.421 -1.5332 -2.2752  0.4686
 7719SOL    HW234620   0.349   3.583   8.437  1.7573  0.9329 -2.3469
 7720SOL     OW34621   4.129   0.572   2.506 -0.3300  0.0019  0.3092
 7720SOL    HW134622   4.188   0.526   2.446 -1.1154 -2.8277  1.7006
 7720SOL    HW234623   4.065   0.501   2.512 -1.5132  0.9555 -0.9036
 7721SOL     OW34624   3.303   4.191   9.310 -0.3699  0.0449  0.2980
 7721SOL    HW134625   3.347   4.229   9.386  0.6689 -1.7936  0.5932
 7721SOL    HW234626   3.228   4.154   9.358  0.9534 -0.5963  1.8674
 7722SOL     OW34627   2.293   2.270   4.712  0.4451  0.0825 -0.3194
 7722SOL    HW134628   2.245   2.250   4.632 -0.5294  0.6473  0.1251
 7722SOL    HW234629   2.311   2.180   4.738 -2.0738 -0.5877 -0.9722
 7723SOL     OW34630   3.044   3.048   3.335  0.0281  0.1830  0.0683
 7723SOL    HW134631   3.019   2.987   3.265 -2.6442  1.3333 -0.0198
 7723SOL    HW234632   3.025   2.982   3.402 -1.6700  0.1695 -0.4036
 7724SOL     OW34633   0.753   3.339   3.449 -0.0228  0.3325  0.6951
 7724SOL    HW134634   0.690   3.405   3.479 -1.0817 -0.6075  0.5617
 7724SOL    HW234635   0.708   3.257   3.467  1.8626 -0.8729 -0.1451
 7725SOL     OW34636   3.382   0.476  10.716 -0.3730  0.2021  0.3009
 7725SOL    HW134637   3.429   0.395  10.694  1.3475  0.8616  1.5548
 7725SOL    HW234638   3.420   0.499  10.800 -1.4017 -1.0485  1.0944
 7726SOL     OW34639   1.868   3.424  12.708 -0.3729  0.0592 -0.1729
 7726SOL    HW134640   1.904   3.495  12.655 -1.2706 -1.4479 -2.7764
 7726SOL    HW234641   1.943   3.399  12.762 -0.6977 -3.1269 -1.1968
 7727SOL     OW34642   1.437   2.420   9.022  0.3961  0.5254  0.4130
 7727SOL    HW134643   1.447   2.400   8.929 -1.2212  0.1065  0.3356
 7727SOL    HW234644   1.527   2.426   9.055  0.3809 -2.7264  1.0635
 7728SOL     OW34645   3.029   3.674  12.867 -0.2606  0.6161 -0.2125
 7728SOL    HW134646   2.951   3.646  12.819 -0.7879  2.1958 -0.2962
 7728SOL    HW234647   3.084   3.731  12.812 -1.8629  0.6312 -1.8234
 7729SOL     OW34648   0.295   2.838   8.195 -0.1595 -0.2973 -0.1485
 7729SOL    HW134649   0.233   2.823   8.267  1.1687  0.1481  1.0928
 7729SOL    HW234650   0.238   2.892   8.140  0.4953  0.3216 -0.2133
 7730SOL     OW34651   3.806   1.138   9.242  0.4579  0.4622 -0.5303
 7730SOL    HW134652   3.786   1.103   9.329  5.0988 -0.9857 -0.0145
 7730SOL    HW234653   3.839   1.224   9.268  2.6016 -0.4849 -0.0765
 7731SOL     OW34654   0.086   4.638  10.910  0.2211 -0.4808 -0.1601
 7731SOL    HW134655   0.021   4.568  10.899 -0.3856  0.3046 -1.4763
 7731SOL    HW234656   0.093   4.627  11.005 -1.0319  0.8202  0.0872
 7732SOL     OW34657   4.065   0.170   6.360 -0.6012 -0.7178 -0.0823
 7732SOL    HW134658   4.104   0.084   6.374  0.3218  0.0033  1.9576
 7732SOL    HW234659   4.105   0.200   6.279 -0.1742  1.0678  0.7685
 7733SOL     OW34660   0.204   2.445   2.619  0.2758 -0.2845 -0.1533
 7733SOL    HW134661   0.221   2.514   2.555 -3.3626  1.2000  0.4892
 7733SOL    HW234662   0.172   2.379   2.557  1.2974 -0.0961 -0.8787
 7734SOL     OW34663   1.615   0.520  16.501 -0.4342  0.0375 -0.4499
 7734SOL    HW134664   1.607   0.613  16.524  2.7816 -0.0757  1.0840
 7734SOL    HW234665   1.588   0.520  16.410 -1.6109 -0.0291 -0.1030
 7735SOL     OW34666   3.056   3.462   8.334 -0.0317  0.7410 -0.1233
 7735SOL    HW134667   3.092   3.427   8.415 -2.7747 -3.2360 -0.6138
 7735SOL    HW234668   3.077   3.388   8.277 -0.1761 -0.7132  1.7060
 7736SOL     OW34669   3.509   0.656   5.012  0.3362 -0.5295  0.2237
 7736SOL    HW134670   3.426   0.681   4.971  0.5754 -0.7205 -0.3793
 7736SOL    HW234671   3.549   0.606   4.940  1.8906 -1.0504  1.4395
 7737SOL     OW34672   0.618   0.675   3.691  0.2916  0.1811  0.1595
 7737SOL    HW134673   0.542   0.627   3.657  0.4755  0.5654 -0.7808
 7737SOL    HW234674   0.689   0.632   3.645  0.2478  2.7016 -2.2773
 7738SOL     OW34675   1.849   4.406  14.487  0.2061  0.3622  0.3082
 7738SOL    HW134676   1.927   4.405  14.431 -0.5812 -1.0464 -0.7462
 7738SOL    HW234677   1.883   4.451  14.565 -0.9373  0.7416  0.5845
 7739SOL     OW34678   0.007   2.680   2.630 -0.6174  0.0854 -0.2395
 7739SOL    HW134679   0.000   2.769   2.597 -1.2224 -0.3164 -1.1883
 7739SOL    HW234680   0.074   2.685   2.699  0.1141 -3.3484 -0.6890
 7740SOL     OW34681   1.533   0.134   3.651  0.0942 -0.4056 -0.5970
 7740SOL    HW134682   1.556   0.068   3.586 -0.1494 -0.0575 -1.0384
 7740SOL    HW234683   1.442   0.149   3.626  0.8128  1.5811 -2.1136
 7741SOL     OW34684   4.280   1.521   8.293  0.3984 -0.1615 -0.0675
 7741SOL    HW134685   4.306   1.566   8.373  1.1575  2.0880 -1.5820
 7741SOL    HW234686   4.355   1.537   8.236  0.7210  0.1270  0.4355
 7742SOL     OW34687   4.499   4.001   2.622 -0.7791  0.1558  0.6316
 7742SOL    HW134688   4.411   4.038   2.623  0.2159  2.5750  0.2180
 7742SOL    HW234689   4.502   3.959   2.536 -0.6595  0.4807  0.4753
 7743SOL     OW34690   2.245   1.388   4.715 -0.4173 -0.4034 -0.4281
 7743SOL    HW134691   2.244   1.338   4.796  2.0277 -1.8250 -1.2743
 7743SOL    HW234692   2.214   1.324   4.651  0.1778  0.0606 -1.1925
 7744SOL     OW34693   1.846   3.724  11.961 -0.2390 -0.4169  0.3364
 7744SOL    HW134694   1.766   3.754  11.918 -0.5291 -1.5208  0.0907
 7744SOL    HW234695   1.902   3.796  11.934  1.2890 -1.7626 -0.1061
 7745SOL     OW34696   0.998   1.932   5.251 -0.9216  0.5396  0.5311
 7745SOL    HW134697   1.012   1.843   5.218  1.3987  1.5189 -1.1199
 7745SOL    HW234698   1.064   1.929   5.320  1.0735 -0.1228 -1.4218
 7746SOL     OW34699   4.652   3.962   1.922 -0.0566 -0.2861 -0.4273
 7746SOL    HW134700   4.571   4.000   1.957  0.5627  1.7010 -1.1964
 7746SOL    HW234701   4.692   3.922   1.999  0.3265 -0.5456 -0.7614
 7747SOL     OW34702   1.311   2.680   5.487  0.1508 -0.0064  0.3171
 7747SOL    HW134703   1.360   2.763   5.487  0.6137 -0.2889  1.6834
 7747SOL    HW234704   1.369   2.616   5.528 -0.9460 -0.8723  0.5004
 7748SOL     OW34705   0.553   4.115  14.113  0.4224 -0.7120 -0.0322
 7748SOL    HW134706   0.468   4.075  14.094  0.0011  1.6880 -3.3432
 7748SOL    HW234707   0.549   4.136  14.206  2.4269  2.2583 -0.6192
 7749SOL     OW34708   1.576   4.094   8.461  0.4354  0.4313 -0.1206
 7749SOL    HW134709   1.536   4.008   8.475 -2.2665  1.5152 -1.1670
 7749SOL    HW234710   1.514   4.122   8.394  1.5419  2.0944 -0.4687
 7750SOL     OW34711   4.500   1.862  10.679 -0.1911 -0.2486 -0.0901
 7750SOL    HW134712   4.439   1.803  10.634  2.7256  0.2062 -4.5698
 7750SOL    HW234713   4.519   1.921  10.607 -0.7262 -1.8670 -1.5472
 7751SOL     OW34714   1.188   4.290   4.395 -0.2666  0.2943 -0.8268
 7751SOL    HW134715   1.117   4.331   4.446 -1.3062 -0.5491 -1.6042
 7751SOL    HW234716   1.159   4.204   4.365  1.9659 -0.2991 -1.2280
 7752SOL     OW34717   0.117   3.148   6.163 -0.0581  0.2554 -0.0396
 7752SOL    HW134718   0.097   3.236   6.196 -1.5548  0.0637 -0.4880
 7752SOL    HW234719   0.060   3.138   6.088 -0.4246  3.8129 -0.2674
 7753SOL     OW34720   2.422   4.064  14.726  0.4345  0.7764 -0.1542
 7753SOL    HW134721   2.356   4.090  14.790 -0.1791  0.3325 -0.6068
 7753SOL    HW234722   2.475   4.016  14.790  0.6370  0.2767 -0.6983
 7754SOL     OW34723   1.386   4.245   7.288  0.3895  0.2994  0.2694
 7754SOL    HW134724   1.423   4.241   7.199 -1.5293 -0.5236 -0.4981
 7754SOL    HW234725   1.423   4.328   7.319 -3.6808  2.2224 -0.0462
 7755SOL     OW34726   3.712   1.581   2.290 -0.6412 -0.1055  0.4106
 7755SOL    HW134727   3.707   1.499   2.241  3.8052 -0.0892 -0.0993
 7755SOL    HW234728   3.620   1.604   2.302 -0.5462 -0.8127  2.5637
 7756SOL     OW34729   3.968   0.691   7.714  0.2131 -0.1918 -0.4161
 7756SOL    HW134730   3.968   0.623   7.646  1.1903 -1.2063  0.6081
 7756SOL    HW234731   3.877   0.701   7.741 -0.0700 -0.5036 -1.2354
 7757SOL     OW34732   0.317   3.468   7.942  0.0915 -0.0004 -0.1033
 7757SOL    HW134733   0.354   3.477   8.030 -0.5408  0.3476  0.1270
 7757SOL    HW234734   0.249   3.401   7.950  1.0919 -1.1447 -1.2675
 7758SOL     OW34735   2.805   1.834   9.136  0.6402  0.3318 -0.6758
 7758SOL    HW134736   2.757   1.819   9.055  0.4592  2.0635 -0.8797
 7758SOL    HW234737   2.807   1.928   9.151  0.3142  0.2454 -0.0835
 7759SOL     OW34738   2.533   2.272   1.851 -0.0523  0.1008 -0.0964
 7759SOL    HW134739   2.579   2.189   1.846 -1.3315 -0.6172  0.1531
 7759SOL    HW234740   2.476   2.274   1.928 -1.1267 -3.5200 -0.7906
 7760SOL     OW34741   0.726   3.123   6.864  1.2935  0.3083  0.1791
 7760SOL    HW134742   0.814   3.101   6.834  1.3103 -0.3587  0.7120
 7760SOL    HW234743   0.691   3.176   6.792 -0.6047  1.7070  2.1565
 7761SOL     OW34744   2.579   2.327  16.284  0.1859 -0.5757 -0.5201
 7761SOL    HW134745   2.635   2.386  16.336 -0.1178 -0.4273 -0.3623
 7761SOL    HW234746   2.570   2.383  16.206  0.5475  0.4782  0.1958
 7762SOL     OW34747   4.020   2.809   7.073  0.5482  0.0707  0.0807
 7762SOL    HW134748   4.058   2.873   7.134 -2.7451  0.5136  1.6682
 7762SOL    HW234749   4.097   2.761   7.045 -0.4998 -1.6994  0.2453
 7763SOL     OW34750   3.319   0.085   4.628  0.5960 -0.2936  0.2625
 7763SOL    HW134751   3.373   0.007   4.642 -1.1177 -1.5790 -0.1808
 7763SOL    HW234752   3.364   0.153   4.677  2.0897  1.0572 -2.9755
 7764SOL     OW34753   3.200   1.512   7.636 -0.4028 -0.5081  0.1673
 7764SOL    HW134754   3.194   1.449   7.707  1.8952 -1.6513 -0.6411
 7764SOL    HW234755   3.294   1.528   7.628 -0.8215  2.4174  1.1178
 7765SOL     OW34756   1.509   1.824  11.745 -0.5080 -0.0503  0.1504
 7765SOL    HW134757   1.566   1.752  11.720  1.7881  1.7413  0.1987
 7765SOL    HW234758   1.577   1.880  11.783  0.7153 -0.7742 -1.0050
 7766SOL     OW34759   4.372   0.747   3.864 -0.3012 -0.0252  0.0630
 7766SOL    HW134760   4.297   0.692   3.888 -1.1301  1.0466 -0.0672
 7766SOL    HW234761   4.343   0.806   3.795  0.0299 -0.0981 -0.1400
 7767SOL     OW34762   0.356   0.640   8.579 -0.3527  0.4563  0.3023
 7767SOL    HW134763   0.392   0.590   8.505  1.1698  2.7257 -0.5085
 7767SOL    HW234764   0.294   0.578   8.616 -2.3438  3.6444  2.3082
 7768SOL     OW34765   0.213   0.039  14.968 -0.0796 -0.0300 -0.0381
 7768SOL    HW134766   0.234   0.116  14.917 -0.3925  0.5607  0.7304
 7768SOL    HW234767   0.146   0.073  15.027  0.0854 -0.5001  0.4257
 7769SOL     OW34768   2.559   1.888   4.953 -0.1540 -0.4239 -0.1895
 7769SOL    HW134769   2.614   1.934   4.890 -2.1171  2.8360  0.4729
 7769SOL    HW234770   2.589   1.799   4.936 -0.4623 -0.5486 -0.0825
 7770SOL     OW34771   1.011   3.288   3.409 -0.2000 -0.0396 -0.9047
 7770SOL    HW134772   0.921   3.312   3.429  0.3015 -0.4857  1.9013
 7770SOL    HW234773   1.003   3.215   3.347 -1.2753 -0.2971 -0.4652
 7771SOL     OW34774   1.969   4.257   9.877 -0.5363  0.7384 -0.1394
 7771SOL    HW134775   2.047   4.312   9.884  1.7308 -2.4064 -0.7549
 7771SOL    HW234776   1.902   4.309   9.922  0.8180  1.0579  1.5019
 7772SOL     OW34777   0.188   2.702  15.021  0.2784 -0.3705 -0.6973
 7772SOL    HW134778   0.134   2.670  15.093  0.2212  0.0798 -0.5436
 7772SOL    HW234779   0.222   2.621  14.983 -0.5845 -1.2758  0.4643
 7773SOL     OW34780   0.657   2.792   8.311 -0.5415  0.0480  0.7933
 7773SOL    HW134781   0.662   2.714   8.366  0.4636 -1.5068 -1.4896
 7773SOL    HW234782   0.673   2.861   8.375  0.7057 -0.4301  0.9906
 7774SOL     OW34783   4.547   3.827   2.382  0.0625  0.0258  0.2745
 7774SOL    HW134784   4.584   3.784   2.305 -0.8797  0.2903 -0.3276
 7774SOL    HW234785   4.479   3.762   2.403  1.7205 -1.6841  0.3855
 7775SOL     OW34786   0.759   1.382   9.432  0.0175 -0.0036  0.0744
 7775SOL    HW134787   0.709   1.366   9.512  0.9504  0.7614  0.8020
 7775SOL    HW234788   0.694   1.433   9.384 -1.1260 -1.4280  0.0833
 7776SOL     OW34789   4.298   2.586   6.862  0.1552  0.3153 -0.8281
 7776SOL    HW134790   4.317   2.564   6.954 -0.6198 -0.1468 -0.7853
 7776SOL    HW234791   4.323   2.506   6.817 -1.7958  0.0047 -1.3404
 7777SOL     OW34792   2.503   1.742  12.757 -0.1232 -0.3850  0.1601
 7777SOL    HW134793   2.454   1.806  12.810  2.0254  2.9064 -1.8036
 7777SOL    HW234794   2.586   1.768  12.798  0.7149 -0.2685 -1.6318
 7778SOL     OW34795   0.043   1.974   5.731 -0.7142 -0.0682  0.0475
 7778SOL    HW134796   0.022   2.059   5.770 -0.0542  0.5736 -1.0094
 7778SOL    HW234797   0.108   1.932   5.787 -0.4004  0.2421 -0.0864
 7779SOL     OW34798   3.904   2.506   4.692 -0.0864  0.4827 -0.2270
 7779SOL    HW134799   3.899   2.472   4.603  0.0306 -2.2405  0.7927
 7779SOL    HW234800   3.888   2.430   4.748  0.6297  0.0931 -0.5430
 7780SOL     OW34801   1.470   0.412   4.456  0.5860 -0.2400 -0.1047
 7780SOL    HW134802   1.467   0.507   4.470  0.4425 -0.0417 -1.4760
 7780SOL    HW234803   1.469   0.411   4.360  2.7829  1.7172 -0.1620
 7781SOL     OW34804   2.411   4.532   2.558  0.3999 -0.6213  0.0009
 7781SOL    HW134805   2.459   4.586   2.495  0.2081 -0.7655 -0.2667
 7781SOL    HW234806   2.487   4.514   2.613  1.1209  3.7984  0.4146
 7782SOL     OW34807   1.765   3.127   2.327 -0.5149 -0.3131 -0.3461
 7782SOL    HW134808   1.785   3.051   2.274 -1.9230 -2.2011  1.8337
 7782SOL    HW234809   1.694   3.171   2.280  1.8094  0.5380 -3.0470
 7783SOL     OW34810   3.064   1.178   1.627  0.1707  0.3534 -0.0838
 7783SOL    HW134811   3.007   1.102   1.621  0.6893 -0.0116 -0.3722
 7783SOL    HW234812   3.017   1.235   1.689  0.0319 -0.7284  0.8016
 7784SOL     OW34813   1.250   1.510  13.614 -0.5577 -0.1656 -0.1414
 7784SOL    HW134814   1.334   1.474  13.641 -0.6185 -0.3218 -0.1635
 7784SOL    HW234815   1.244   1.586  13.672  2.8608  0.9479 -1.2147
 7785SOL     OW34816   3.441   1.043   9.255 -0.5352  0.1151 -0.5354
 7785SOL    HW134817   3.440   0.994   9.337 -2.7480 -1.3049 -1.3722
 7785SOL    HW234818   3.376   1.112   9.265  1.8163  2.4636 -1.5576
 7786SOL     OW34819   0.883   3.553   4.941  0.0634  0.0802  0.1895
 7786SOL    HW134820   0.956   3.521   4.994  0.4195 -2.1326 -1.6179
 7786SOL    HW234821   0.927   3.619   4.888 -0.0141 -1.0703 -1.3083
 7787SOL     OW34822   2.931   2.870   5.030  0.2873 -0.3898  0.0700
 7787SOL    HW134823   2.961   2.888   4.941 -2.1487  1.0492 -0.4405
 7787SOL    HW234824   2.837   2.860   5.015 -0.0197 -0.7019  2.1331
 7788SOL     OW34825   3.122   3.473   1.238 -0.1647  0.2647  0.2725
 7788SOL    HW134826   3.109   3.386   1.276  0.5330 -0.2245 -0.6106
 7788SOL    HW234827   3.044   3.505   1.193 -0.2746  0.0948  0.3438
 7789SOL     OW34828   0.944   4.566  17.589 -0.3334  0.0421  0.5881
 7789SOL    HW134829   0.878   4.603  17.531  1.1269  0.0587 -1.0561
 7789SOL    HW234830   0.936   4.474  17.566  1.6457 -0.2683  1.1144
 7790SOL     OW34831   4.246   3.555   6.390 -0.4080  0.1073 -0.2299
 7790SOL    HW134832   4.292   3.506   6.323  0.4240  1.0603 -0.3516
 7790SOL    HW234833   4.157   3.563   6.356 -0.5441 -0.4768 -0.0011
 7791SOL     OW34834   1.660   2.404   3.242 -0.4763  0.2638  0.4092
 7791SOL    HW134835   1.600   2.369   3.175  1.3782 -3.3863  0.6818
 7791SOL    HW234836   1.721   2.450   3.185 -0.4256 -1.2985 -0.8244
 7792SOL     OW34837   0.725   3.849  10.055 -0.1999  0.0961  0.2201
 7792SOL    HW134838   0.668   3.774  10.037  1.0696 -1.1701  1.5209
 7792SOL    HW234839   0.685   3.888  10.133 -1.1016  0.4261 -0.4146
 7793SOL     OW34840   1.366   4.114  12.892  0.5805  0.0109 -0.2064
 7793SOL    HW134841   1.455   4.082  12.904  0.6409  0.8160  1.4531
 7793SOL    HW234842   1.318   4.041  12.853  2.4472 -0.8719 -0.8549
 7794SOL     OW34843   4.445   4.280   4.365  0.6281  0.4933  0.0700
 7794SOL    HW134844   4.431   4.360   4.315 -0.9333 -0.7937 -1.5772
 7794SOL    HW234845   4.360   4.235   4.361  0.3015  1.1386 -0.3794
 7795SOL     OW34846   3.267   4.073   2.488  0.0342  0.0169 -0.9488
 7795SOL    HW134847   3.334   4.135   2.459  1.7831 -1.2770  0.3190
 7795SOL    HW234848   3.187   4.125   2.496 -0.0635 -0.2378 -0.3058
 7796SOL     OW34849   0.603   0.118   6.167  0.0891 -0.4358 -0.1498
 7796SOL    HW134850   0.566   0.029   6.167  0.2507 -0.5039 -0.3948
 7796SOL    HW234851   0.679   0.103   6.223 -0.5785  0.6504  1.0362
 7797SOL     OW34852   4.687   1.241   4.289 -0.2833  0.2183 -0.1101
 7797SOL    HW134853   4.603   1.203   4.314  0.0936 -0.6224 -0.0923
 7797SOL    HW234854   0.017   1.185   4.347  1.3337 -0.0553 -1.8606
 7798SOL     OW34855   0.741   0.082   8.010  0.5365 -0.4681  0.1528
 7798SOL    HW134856   0.801   0.020   7.967  0.5973  1.1322 -2.0473
 7798SOL    HW234857   0.801   0.156   8.018 -0.2147  0.1727 -0.2050
 7799SOL     OW34858   2.965   4.463  12.599  0.2827 -0.0474  0.3685
 7799SOL    HW134859   2.900   4.442  12.667 -0.0089 -0.2660  0.0196
 7799SOL    HW234860   3.003   4.376  12.589  0.8122  0.1442  0.7338
 7800SOL     OW34861   3.788   0.435   1.151 -1.0286 -0.8546  0.0730
 7800SOL    HW134862   3.820   0.500   1.213 -0.8844  0.8983 -1.8609
 7800SOL    HW234863   3.726   0.393   1.211 -1.3089  0.3064  0.5900
 7801SOL     OW34864   2.303   2.712   1.811 -0.6935 -0.4601 -0.3017
 7801SOL    HW134865   2.352   2.652   1.755 -0.5748 -0.1872 -0.4939
 7801SOL    HW234866   2.233   2.649   1.829 -1.2970  0.3369  0.1292
 7802SOL     OW34867   0.591   1.306  11.123  0.1368  0.3307 -0.0044
 7802SOL    HW134868   0.561   1.260  11.045 -0.5240 -0.3946  0.6692
 7802SOL    HW234869   0.547   1.256  11.192  0.7838  2.8937  2.2807
 7803SOL     OW34870   1.930   2.852   3.237  0.3793 -0.5126 -0.1710
 7803SOL    HW134871   1.851   2.820   3.193 -0.5670 -1.9219  2.5473
 7803SOL    HW234872   2.000   2.837   3.174  0.6924  1.0639 -0.2024
 7804SOL     OW34873   1.126   3.994   6.627 -0.6087 -0.0472 -0.3465
 7804SOL    HW134874   1.100   4.065   6.686  0.0765  0.4826 -0.6742
 7804SOL    HW234875   1.060   4.003   6.559 -0.1920  0.2085 -0.7195
 7805SOL     OW34876   2.650   3.780   6.545 -0.3308 -0.0668  0.5250
 7805SOL    HW134877   2.672   3.873   6.537  0.2094 -0.0798  1.8812
 7805SOL    HW234878   2.602   3.750   6.468 -0.3008 -1.6098  1.1111
 7806SOL     OW34879   1.999   3.260   3.827 -0.3665  0.0353  0.6613
 7806SOL    HW134880   1.968   3.194   3.889 -0.4738  1.6611  2.3367
 7806SOL    HW234881   1.967   3.341   3.866 -0.8687  0.8177 -1.3378
 7807SOL     OW34882   0.880   3.697   7.053  0.1895 -0.1894  0.1743
 7807SOL    HW134883   0.831   3.617   7.037  0.2519 -0.0519 -0.7580
 7807SOL    HW234884   0.966   3.661   7.074  0.3696  0.8762  1.2743
 7808SOL     OW34885   2.518   1.943  10.281  0.5709 -0.1271  0.3160
 7808SOL    HW134886   2.488   2.024  10.322  1.7679 -0.3798  1.6914
 7808SOL    HW234887   2.462   1.872  10.310 -0.5331  0.3646 -0.6140
 7809SOL     OW34888   0.624   0.355   7.317 -0.7091 -0.6861  0.9270
 7809SOL    HW134889   0.684   0.427   7.335 -1.0897 -0.5024  1.4425
 7809SOL    HW234890   0.591   0.400   7.240  1.6401 -0.4496  0.0546
 7810SOL     OW34891   1.679   2.549   9.060 -0.3834 -0.2270  0.7679
 7810SOL    HW134892   1.722   2.510   8.985  1.1994 -0.1239  1.6287
 7810SOL    HW234893   1.745   2.527   9.126  0.1846 -1.6695 -0.2994
 7811SOL     OW34894   1.977   0.261   7.476 -0.3781 -0.8095 -0.4354
 7811SOL    HW134895   2.043   0.242   7.410  2.1339 -0.2455  1.9226
 7811SOL    HW234896   1.893   0.250   7.432  0.0311 -1.9121 -0.9208
 7812SOL     OW34897   3.043   2.763   7.337 -0.2810 -0.1428 -0.2974
 7812SOL    HW134898   3.135   2.734   7.334 -0.4451 -0.8041  0.7693
 7812SOL    HW234899   3.033   2.761   7.242  0.6188 -1.3590 -0.3788
 7813SOL     OW34900   2.320   3.518   5.238  0.5933  0.6894  0.0097
 7813SOL    HW134901   2.286   3.586   5.180 -2.0356  0.1116  0.8564
 7813SOL    HW234902   2.379   3.570   5.292  1.8112 -1.2164  0.5240
 7814SOL     OW34903   4.571   3.442  14.068 -0.3216  0.0689 -0.5761
 7814SOL    HW134904   4.513   3.412  14.138  0.2007  2.2633  0.7931
 7814SOL    HW234905   4.519   3.466  13.992  0.4613  0.1910 -1.0769
 7815SOL     OW34906   0.865   1.251   4.073 -0.1920 -0.2692  0.2508
 7815SOL    HW134907   0.903   1.166   4.093 -2.3976 -1.3228 -0.0466
 7815SOL    HW234908   0.808   1.268   4.148  0.5419 -1.3143  1.0421
 7816SOL     OW34909   0.392   1.114   5.341 -0.0494 -0.4042 -0.3174
 7816SOL    HW134910   0.410   1.131   5.433  1.1395  0.3801 -0.6930
 7816SOL    HW234911   0.434   1.194   5.311  0.9223 -1.1819 -1.0509
 7817SOL     OW34912   4.523   2.065   2.629 -0.3752  0.4417 -0.5713
 7817SOL    HW134913   4.472   2.081   2.709  0.4714 -1.1975  0.2868
 7817SOL    HW234914   4.612   2.056   2.663 -0.6876 -0.2386  0.0796
 7818SOL     OW34915   4.286   0.815  11.631 -0.1962  0.1490 -0.1217
 7818SOL    HW134916   4.337   0.893  11.609 -1.0800  1.2493  1.7678
 7818SOL    HW234917   4.223   0.817  11.558 -0.0304 -2.8455 -0.3371
 7819SOL     OW34918   1.446   0.193   7.780  0.7985  0.2060 -0.2870
 7819SOL    HW134919   1.440   0.127   7.710 -0.4390 -0.9948  0.9519
 7819SOL    HW234920   1.538   0.218   7.775  0.7856  0.1324 -0.9820
 7820SOL     OW34921   1.183   0.942   4.014  0.1921  0.3101  0.2418
 7820SOL    HW134922   1.245   0.997   4.062 -1.6860  1.9604  0.8067
 7820SOL    HW234923   1.114   0.934   4.080 -1.1822 -0.9599 -1.3325
 7821SOL     OW34924   2.803   3.845   5.764 -0.1447  0.0790 -0.0594
 7821SOL    HW134925   2.894   3.816   5.770 -0.1077  0.0474 -0.7613
 7821SOL    HW234926   2.808   3.917   5.701 -1.8145 -0.4701 -0.8112
 7822SOL     OW34927   3.937   4.352   3.202  0.6210 -0.5099 -0.6017
 7822SOL    HW134928   3.842   4.356   3.200  0.7172  2.5319  0.3396
 7822SOL    HW234929   3.952   4.436   3.245  3.1570 -2.2053  1.8165
 7823SOL     OW34930   2.754   1.693   8.399  0.7279 -0.0793  0.7790
 7823SOL    HW134931   2.756   1.766   8.337 -0.3678 -1.9242 -1.4226
 7823SOL    HW234932   2.747   1.747   8.477  1.4020 -0.5569  1.1755
 7824SOL     OW34933   4.158   4.632   6.331  0.6265  0.3940 -0.4248
 7824SOL    HW134934   4.240   4.584   6.342  1.5845  2.2620  0.4482
 7824SOL    HW234935   4.151   4.645   6.236  0.7103 -3.1483 -0.9143
 7825SOL     OW34936   3.188   4.288   6.101  0.0196  0.0381 -0.4241
 7825SOL    HW134937   3.155   4.355   6.161  1.0549  0.0697  0.1151
 7825SOL    HW234938   3.165   4.209   6.150  1.8775 -0.2719 -0.0620
 7826SOL     OW34939   1.374   3.039   1.889 -0.3373  0.4627 -0.5423
 7826SOL    HW134940   1.300   3.096   1.907 -0.6486  0.6788 -2.4320
 7826SOL    HW234941   1.332   2.957   1.864  0.6146 -0.7805  2.0069
 7827SOL     OW34942   1.358   1.859   1.515  0.7007  0.2323  0.0107
 7827SOL    HW134943   1.368   1.954   1.522 -2.3037  0.6539 -1.1462
 7827SOL    HW234944   1.267   1.836   1.495  1.7495 -2.5205 -1.5973
 7828SOL     OW34945   1.138   3.666   1.874 -0.0386  0.1798 -0.1057
 7828SOL    HW134946   1.232   3.653   1.872  0.0835  1.5211 -2.6932
 7828SOL    HW234947   1.117   3.716   1.795  2.1448  3.1723  1.2257
 7829SOL     OW34948   3.757   2.395   2.482 -0.0194 -0.7382 -0.1096
 7829SOL    HW134949   3.830   2.361   2.430 -0.1322 -0.4439 -0.4594
 7829SOL    HW234950   3.707   2.315   2.497  0.2171 -0.5649  1.5778
 7830SOL     OW34951   4.644   0.133   5.148 -0.1519 -0.3759 -0.1068
 7830SOL    HW134952   4.604   0.096   5.069  1.6574 -0.0518 -1.1865
 7830SOL    HW234953   0.002   0.083   5.140  1.0238  1.6120 -0.8133
 7831SOL     OW34954   4.368   0.687   2.735  0.0581 -0.6563  0.0041
 7831SOL    HW134955   4.334   0.598   2.733 -1.3405 -0.1043 -0.6233
 7831SOL    HW234956   4.380   0.708   2.827  0.7488 -2.1088  0.2483
 7832SOL     OW34957   4.122   1.372   7.484  0.1290  0.1358 -0.0309
 7832SOL    HW134958   4.134   1.324   7.566  0.2216 -0.6368 -0.5010
 7832SOL    HW234959   4.210   1.407   7.469  0.3418 -0.5138 -0.2806
 7833SOL     OW34960   4.708   3.078   4.843 -0.0116  0.2258  0.1778
 7833SOL    HW134961   4.624   3.106   4.881 -1.2972 -0.7511 -1.9324
 7833SOL    HW234962   4.703   2.984   4.864 -1.4515  0.4722  0.9255
 7834SOL     OW34963   3.048   4.069   3.148  0.2746  0.1859 -0.0264
 7834SOL    HW134964   3.015   4.004   3.210  2.1302 -1.0954 -0.4010
 7834SOL    HW234965   3.061   4.145   3.204 -0.8298 -0.2810  0.8550
 7835SOL     OW34966   1.737   3.029   1.115  0.7673 -0.4910 -0.2345
 7835SOL    HW134967   1.661   3.086   1.126  0.9460 -0.1812 -0.5791
 7835SOL    HW234968   1.706   2.945   1.082  0.5292 -1.8372  3.4271
 7836SOL     OW34969   1.524   4.335   1.459 -0.3040  0.0517 -0.1084
 7836SOL    HW134970   1.453   4.365   1.403  0.6404  1.1827 -0.6888
 7836SOL    HW234971   1.588   4.349   1.389 -0.0930  1.5577  0.3853
 7837SOL     OW34972   0.066   3.016  13.058  0.1531  0.3819  0.0832
 7837SOL    HW134973   0.154   3.001  13.024  0.8485 -0.2795  2.1716
 7837SOL    HW234974   0.066   2.975  13.144 -1.8205 -0.1179 -0.1555
 7838SOL     OW34975   1.896   4.533   0.495  0.5524 -0.2466  0.0222
 7838SOL    HW134976   1.895   4.483   0.576 -1.8207 -2.4708 -1.3960
 7838SOL    HW234977   1.885   4.628   0.504 -3.7262 -0.6655 -0.6621
 7839SOL     OW34978   3.529   1.722  13.373  0.2896 -0.0364 -0.2047
 7839SOL    HW134979   3.455   1.674  13.336 -0.1059 -1.6617  2.6909
 7839SOL    HW234980   3.582   1.642  13.364 -0.9759 -0.8122 -0.8129
 7840SOL     OW34981   3.386   2.176  12.502 -0.3693 -0.1463 -0.3008
 7840SOL    HW134982   3.421   2.265  12.501 -0.2339 -0.1893  0.3254
 7840SOL    HW234983   3.468   2.135  12.530  0.4569  1.3214 -0.5616
 7841SOL     OW34984   2.888   2.415   9.258 -0.0771 -0.8398  0.4783
 7841SOL    HW134985   2.811   2.436   9.311 -1.1414  1.0307 -1.8669
 7841SOL    HW234986   2.839   2.402   9.177  0.1314  0.1514  0.2001
 7842SOL     OW34987   1.808   2.875   2.236  0.1194  0.6548  0.1665
 7842SOL    HW134988   1.776   2.847   2.150  0.5613  0.6459  0.0059
 7842SOL    HW234989   1.833   2.788   2.268 -0.4083  0.8384  1.0802
 7843SOL     OW34990   4.638   4.030  14.952  0.0795 -0.0922 -0.3882
 7843SOL    HW134991   4.546   4.006  14.965  0.5139 -0.1978  2.5021
 7843SOL    HW234992   4.664   4.002  15.039 -0.8785 -2.2349 -0.7617
 7844SOL     OW34993   1.615   0.354   2.876  0.7009 -0.4256  0.8095
 7844SOL    HW134994   1.655   0.318   2.797 -0.8756 -2.4892  0.9510
 7844SOL    HW234995   1.648   0.443   2.871 -1.2794  0.2053 -0.7748
 7845SOL     OW34996   1.182   2.982   8.300  0.2368 -0.6078 -0.7398
 7845SOL    HW134997   1.225   3.025   8.374 -1.0309  0.9737 -0.9264
 7845SOL    HW234998   1.091   2.975   8.328  0.6348 -1.3244  0.4113
 7846SOL     OW34999   1.872   3.950   3.080  0.3338 -0.5738  0.3844
 7846SOL    HW135000   1.965   3.937   3.059  0.8830 -1.0827  3.2081
 7846SOL    HW235001   1.877   3.928   3.173 -1.4635  1.6686  1.0209
 7847SOL     OW35002   3.950   0.012  16.515 -0.1390  0.4171 -0.2038
 7847SOL    HW135003   3.857   0.004  16.535  0.2988  1.4203  2.2034
 7847SOL    HW235004   3.941   4.704  16.425  1.7738 -0.9130  0.0508
 7848SOL     OW35005   3.209   1.650   5.681  0.2207 -0.6066  0.0936
 7848SOL    HW135006   3.293   1.667   5.638  1.4932 -1.9402  2.0141
 7848SOL    HW235007   3.235   1.602   5.760 -0.6649  1.1961  1.4874
 7849SOL     OW35008   2.966   3.145   3.756 -0.6366 -0.6823  0.3214
 7849SOL    HW135009   3.053   3.185   3.748  0.2299 -2.0945  2.9121
 7849SOL    HW235010   2.940   3.180   3.841  0.5231 -1.7355  1.0979
 7850SOL     OW35011   2.432   4.279   7.483 -0.3305 -0.3988 -0.2454
 7850SOL    HW135012   2.510   4.285   7.538 -1.9656  0.8536  1.9435
 7850SOL    HW235013   2.456   4.207   7.424  0.9400  0.1663 -0.4081
 7851SOL     OW35014   2.534   3.505  15.947 -0.5901  0.1956 -0.1770
 7851SOL    HW135015   2.568   3.421  15.916  1.5866  1.0569 -0.1050
 7851SOL    HW235016   2.586   3.565  15.894  1.4511 -1.2187  0.2123
 7852SOL     OW35017   3.984   0.459   5.452 -0.1894  0.1388  0.1420
 7852SOL    HW135018   3.900   0.505   5.448 -0.3920 -0.1829  0.8009
 7852SOL    HW235019   3.998   0.447   5.546 -1.0553  0.0071  0.2508
 7853SOL     OW35020   1.956   1.540   9.120 -0.0080  0.4767  0.2069
 7853SOL    HW135021   2.001   1.509   9.199  3.4586  0.2392 -1.9065
 7853SOL    HW235022   1.950   1.633   9.144 -0.5631  1.4307 -3.7077
 7854SOL     OW35023   0.308   1.593   6.672 -0.0368 -0.7826 -0.1173
 7854SOL    HW135024   0.232   1.621   6.722  0.7246 -1.6013  1.4913
 7854SOL    HW235025   0.362   1.549   6.738  1.7187 -0.5565 -1.3980
 7855SOL     OW35026   0.743   0.925  12.793 -0.2164  0.3952 -0.3841
 7855SOL    HW135027   0.742   0.830  12.785  0.8641  0.3397  0.1064
 7855SOL    HW235028   0.684   0.923  12.868  0.0315  0.2656 -0.1919
 7856SOL     OW35029   1.976   3.984   3.591  0.4997  0.2988 -0.2954
 7856SOL    HW135030   1.955   3.974   3.684  0.7266  2.3637 -0.0143
 7856SOL    HW235031   1.915   4.055   3.575  0.0317  0.1375  0.7820
 7857SOL     OW35032   2.240   2.902   6.545  0.0695 -0.2360 -0.3583
 7857SOL    HW135033   2.254   2.815   6.507  2.6521 -1.4519  3.4042
 7857SOL    HW235034   2.324   2.947   6.546  0.9810 -1.9654  1.3635
 7858SOL     OW35035   2.531   0.491  17.235  0.3557  0.4007 -0.0299
 7858SOL    HW135036   2.592   0.504  17.163  1.4644  0.6135  0.9342
 7858SOL    HW235037   2.496   0.579  17.223 -0.6927  0.0618  0.5855
 7859SOL     OW35038   2.847   0.445   3.692  0.0837  0.7253  0.1221
 7859SOL    HW135039   2.805   0.490   3.618  1.3465 -1.0986 -1.6981
 7859SOL    HW235040   2.937   0.473   3.675 -0.0029  1.1643  0.3752
 7860SOL     OW35041   0.842   2.133   4.392 -0.5427  0.2291  0.0538
 7860SOL    HW135042   0.805   2.045   4.403  0.5643 -0.0787  1.2495
 7860SOL    HW235043   0.809   2.167   4.308 -1.7809  0.2236  0.5292
 7861SOL     OW35044   3.876   3.167   2.384 -0.4169  0.3031  0.0178
 7861SOL    HW135045   3.914   3.222   2.315  0.2279  1.0874  1.0092
 7861SOL    HW235046   3.940   3.184   2.453  0.9345 -5.9663  0.3484
 7862SOL     OW35047   2.073   2.300   5.173 -0.0741 -0.1917 -0.5474
 7862SOL    HW135048   2.062   2.391   5.202 -0.5687  0.0599 -1.5417
 7862SOL    HW235049   2.131   2.308   5.097  1.8132  1.2871  1.0095
 7863SOL     OW35050   3.431   2.676   6.116 -0.2055 -0.0577 -0.1331
 7863SOL    HW135051   3.499   2.735   6.086 -0.4171  0.1947 -0.1201
 7863SOL    HW235052   3.346   2.721   6.111 -0.4426 -0.3911  0.8681
 7864SOL     OW35053   3.006   3.676  14.700  0.0017 -0.2733 -0.0508
 7864SOL    HW135054   3.048   3.724  14.629 -0.0279  1.8625  1.3746
 7864SOL    HW235055   3.082   3.636  14.743  0.5651  0.6119 -0.2067
 7865SOL     OW35056   0.560   3.935  12.635  0.3889 -0.2572 -0.1585
 7865SOL    HW135057   0.610   3.854  12.637 -0.7796 -0.9836 -0.4529
 7865SOL    HW235058   0.578   3.974  12.721 -2.4448  1.6794 -0.4339
 7866SOL     OW35059   4.289   0.529   6.340 -0.3368 -0.3508 -0.6116
 7866SOL    HW135060   4.215   0.468   6.350 -2.1631  2.0303  0.4237
 7866SOL    HW235061   4.346   0.507   6.413 -1.7472 -2.4716 -0.1525
 7867SOL     OW35062   1.588   3.347   3.824  0.6403  0.5672 -0.5231
 7867SOL    HW135063   1.617   3.270   3.775  0.9224 -0.1434  0.7641
 7867SOL    HW235064   1.523   3.380   3.762 -1.4948 -2.0566  0.3435
 7868SOL     OW35065   2.955   3.447   7.786  0.1153 -0.0405  0.2924
 7868SOL    HW135066   3.028   3.464   7.846 -1.3695  0.2768  2.0215
 7868SOL    HW235067   2.892   3.516   7.806 -0.5604 -0.5809  0.0071
 7869SOL     OW35068   1.417   0.977   3.420 -0.2109 -0.0389 -0.0812
 7869SOL    HW135069   1.364   0.901   3.443  1.1013 -0.8329  0.2944
 7869SOL    HW235070   1.359   1.040   3.463  1.0860  0.7083  0.5513
 7870SOL     OW35071   3.736   4.504   1.346 -0.6900 -0.3398 -0.1931
 7870SOL    HW135072   3.729   4.600   1.339  3.1570 -0.1010 -1.0267
 7870SOL    HW235073   3.764   4.487   1.256 -0.2639  2.5631 -0.6403
 7871SOL     OW35074   2.098   4.046   4.714  0.0823 -1.1261  0.4712
 7871SOL    HW135075   2.053   4.027   4.796  0.3374  0.1093  0.8979
 7871SOL    HW235076   2.034   4.100   4.667 -0.7533 -2.5405 -0.0208
 7872SOL     OW35077   4.114   0.629   1.030 -0.0661  0.5113 -0.3897
 7872SOL    HW135078   4.106   0.721   1.057 -1.3714  1.1677 -3.0541
 7872SOL    HW235079   4.153   0.630   0.943  0.6156 -0.4451 -0.0961
 7873SOL     OW35080   1.827   3.091  12.167 -0.5253  0.1337 -0.7134
 7873SOL    HW135081   1.811   3.059  12.256 -1.3863 -1.6309 -1.5043
 7873SOL    HW235082   1.858   3.178  12.193 -0.8611  0.0509 -0.0392
 7874SOL     OW35083   4.685   3.360   5.075  0.0236  0.5173  0.1672
 7874SOL    HW135084   4.609   3.317   5.113  0.8165 -0.4220  0.6633
 7874SOL    HW235085   0.027   3.297   5.105  0.5495  1.7108  1.5495
 7875SOL     OW35086   0.593   3.660   8.199  0.2270  0.0169 -0.1974
 7875SOL    HW135087   0.608   3.651   8.293  2.3470 -0.1767 -0.5552
 7875SOL    HW235088   0.553   3.747   8.201  2.3704  1.0004  0.2412
 7876SOL     OW35089   4.073   4.579   3.309  0.1712  0.1833 -0.0393
 7876SOL    HW135090   4.164   4.549   3.318  0.5507  0.6918 -2.3146
 7876SOL    HW235091   4.073   4.645   3.379  1.6665 -0.0409  0.1749
 7877SOL     OW35092   3.771   3.596   5.805  0.1480 -0.2202  0.5196
 7877SOL    HW135093   3.705   3.604   5.737  0.6306  1.2088  0.2130
 7877SOL    HW235094   3.763   3.679   5.852  0.7798  0.3971 -0.4711
 7878SOL     OW35095   3.007   4.288   1.197  0.2869  0.0393 -0.1617
 7878SOL    HW135096   3.096   4.315   1.174 -0.4045  1.8951 -0.6019
 7878SOL    HW235097   2.988   4.220   1.132  0.6004 -0.8875  0.7273
 7879SOL     OW35098   4.574   3.405   8.976  0.1789  0.5340 -0.6914
 7879SOL    HW135099   4.489   3.433   9.010  0.7030  2.5510 -1.1044
 7879SOL    HW235100   4.622   3.423   9.057  3.4591 -2.4360 -1.9892
 7880SOL     OW35101   0.106   2.479   1.591 -0.5596  0.1249 -0.2052
 7880SOL    HW135102   0.151   2.418   1.533 -1.2268  1.0370 -1.6886
 7880SOL    HW235103   0.150   2.562   1.571  0.2429 -0.2922 -0.1564
 7881SOL     OW35104   4.419   0.413  12.927  0.3978  0.6340 -0.0674
 7881SOL    HW135105   4.390   0.352  12.859 -1.4684 -0.2442  1.5494
 7881SOL    HW235106   4.337   0.455  12.952 -0.0912 -0.9000  0.8872
 7882SOL     OW35107   1.860   0.525  16.048  0.4842  0.2515  0.4284
 7882SOL    HW135108   1.891   0.512  15.959  0.3198  1.4531  0.1885
 7882SOL    HW235109   1.765   0.533  16.052  0.4051 -0.4123 -0.2228
 7883SOL     OW35110   4.303   2.104  11.069  0.6713  0.0751 -0.1969
 7883SOL    HW135111   4.214   2.107  11.033  1.4059  0.2252 -2.0361
 7883SOL    HW235112   4.358   2.129  10.994  0.2500  3.4010  0.5947
 7884SOL     OW35113   3.985   2.263   6.901  0.2565  0.3212  0.2548
 7884SOL    HW135114   3.923   2.317   6.950  0.6634  0.1609  0.9503
 7884SOL    HW235115   4.054   2.250   6.967  0.7511  1.4450 -0.0398
 7885SOL     OW35116   2.224   0.732   9.600  0.1687  0.1315 -0.3010
 7885SOL    HW135117   2.135   0.710   9.625  0.3451  0.1568  0.3369
 7885SOL    HW235118   2.263   0.749   9.686  2.1490 -1.1358 -0.9298
 7886SOL     OW35119   1.644   0.694   8.910  0.4481 -0.3990  0.5336
 7886SOL    HW135120   1.633   0.718   9.002 -2.7484 -0.6930  0.2510
 7886SOL    HW235121   1.556   0.660   8.892  1.2593 -2.6216  0.7950
 7887SOL     OW35122   0.925   3.238   7.292 -0.9941 -0.3829  0.1941
 7887SOL    HW135123   0.897   3.324   7.322 -2.7223  0.0056 -2.5442
 7887SOL    HW235124   0.866   3.222   7.219 -1.8774 -0.1280  0.8528
 7888SOL     OW35125   2.165   1.387   6.836 -0.0798  0.2358 -0.3227
 7888SOL    HW135126   2.196   1.375   6.746 -1.0402  0.0391 -0.6278
 7888SOL    HW235127   2.163   1.482   6.825  1.9649  0.4840  1.4572
 7889SOL     OW35128   4.477   2.932   2.063  0.5445 -0.3146 -0.0969
 7889SOL    HW135129   4.552   2.896   2.110  0.5958 -0.5415 -0.3601
 7889SOL    HW235130   4.446   2.855   2.016  0.2069 -0.0282 -0.3393
 7890SOL     OW35131   2.930   1.102   9.926 -0.3415  0.2744  0.3188
 7890SOL    HW135132   2.996   1.134   9.988 -0.5213  1.8493 -0.3078
 7890SOL    HW235133   2.987   1.046   9.873  1.8001  0.1788  2.6655
 7891SOL     OW35134   0.137   1.825  11.238 -0.0459  0.3129  0.1182
 7891SOL    HW135135   0.149   1.735  11.266  1.5433  0.9206  1.3861
 7891SOL    HW235136   0.099   1.856  11.320 -0.5044  1.1977 -0.4332
 7892SOL     OW35137   3.564   3.014   7.788 -0.2754  0.4430  0.5522
 7892SOL    HW135138   3.599   2.949   7.728 -1.1271 -1.1917  1.8157
 7892SOL    HW235139   3.479   3.043   7.754  1.4274 -1.7723 -5.5710
 7893SOL     OW35140   2.046   1.548   4.567 -0.3226 -0.3103 -0.2959
 7893SOL    HW135141   2.066   1.478   4.629 -0.0619 -1.5612 -1.8149
 7893SOL    HW235142   1.988   1.605   4.617  0.0963  0.6725 -0.9134
 7894SOL     OW35143   0.004   0.292   2.121 -0.2689 -0.3462 -0.1606
 7894SOL    HW135144   0.034   0.210   2.158 -0.6730 -0.4756 -0.1250
 7894SOL    HW235145   0.039   0.267   2.035  0.4372  0.6383 -0.1636
 7895SOL     OW35146   2.840   0.099   8.527 -0.5732 -0.0570  0.1584
 7895SOL    HW135147   2.876   0.088   8.615 -0.7648  0.7381  0.3344
 7895SOL    HW235148   2.919   0.144   8.497 -1.4962  0.7763 -1.0242
 7896SOL     OW35149   4.550   1.957  12.290 -0.4423  0.3481  0.4873
 7896SOL    HW135150   4.608   1.942  12.215  1.2748 -3.5766  2.5748
 7896SOL    HW235151   4.611   1.959  12.364  2.3192  0.4361 -1.7487
 7897SOL     OW35152   0.916   2.935  14.884  0.1258 -0.7798  0.3536
 7897SOL    HW135153   0.888   2.995  14.953  1.4450  1.2319 -0.8879
 7897SOL    HW235154   1.011   2.945  14.876  0.0502  0.5633  1.0785
 7898SOL     OW35155   3.435   4.723   3.648  0.5321  0.4237  0.4305
 7898SOL    HW135156   3.501   0.041   3.704  0.7345 -0.8478  1.1206
 7898SOL    HW235157   3.479   4.713   3.564 -0.6105 -2.4848  0.1697
 7899SOL     OW35158   2.451   4.321   6.522  0.2879  0.2579  0.2778
 7899SOL    HW135159   2.468   4.394   6.462 -1.0222  0.2973 -0.0580
 7899SOL    HW235160   2.411   4.371   6.593  1.4920  0.5599  0.7434
 7900SOL     OW35161   1.031   4.274  12.416 -0.1011  0.0320 -0.0701
 7900SOL    HW135162   0.997   4.206  12.358  0.8022  0.3118 -0.9311
 7900SOL    HW235163   0.952   4.326  12.427  1.2767  1.9428  0.8040
 7901SOL     OW35164   1.657   3.712   8.478  0.0017  0.2878  0.3338
 7901SOL    HW135165   1.720   3.640   8.469 -0.4322 -0.4402  3.0498
 7901SOL    HW235166   1.584   3.672   8.432  0.7052 -1.8076  1.0272
 7902SOL     OW35167   4.709   2.478   6.116  0.0364  0.1625 -0.2434
 7902SOL    HW135168   0.081   2.487   6.111  0.0110  1.1505  1.1134
 7902SOL    HW235169   4.688   2.567   6.144  3.2421  1.4567 -1.9170
 7903SOL     OW35170   1.445   2.673   3.737  0.8757  0.1134 -0.2338
 7903SOL    HW135171   1.520   2.617   3.759 -0.9183 -1.0085  3.0112
 7903SOL    HW235172   1.440   2.658   3.642  0.5918 -1.9735  0.0900
 7904SOL     OW35173   0.769   1.304   3.520  0.8149  0.0278 -0.1134
 7904SOL    HW135174   0.758   1.319   3.614 -1.8296  1.1122 -0.6011
 7904SOL    HW235175   0.862   1.322   3.502  0.4902  1.4946 -0.2662
 7905SOL     OW35176   0.760   4.678   5.468  0.5241 -0.1631  0.1623
 7905SOL    HW135177   0.782   4.684   5.561 -1.0492  3.3307  0.2927
 7905SOL    HW235178   0.840   4.710   5.427  0.0168  0.6570 -0.1770
 7906SOL     OW35179   2.031   3.231   2.959 -0.9650 -0.5290  0.1647
 7906SOL    HW135180   1.972   3.172   2.912  1.0012 -1.5923 -0.9716
 7906SOL    HW235181   2.117   3.224   2.918  0.6280  2.1962  3.0405
 7907SOL     OW35182   0.382   0.583   8.993  0.5344 -0.3978  0.2063
 7907SOL    HW135183   0.324   0.655   9.018  0.2877  0.1784 -2.0034
 7907SOL    HW235184   0.316   0.516   8.976 -0.5319  0.7022 -0.0115
 7908SOL     OW35185   4.012   4.086   3.671  0.5161  0.7818 -0.1988
 7908SOL    HW135186   4.023   4.027   3.596 -1.0110 -1.6199  1.4437
 7908SOL    HW235187   4.097   4.101   3.711  0.1967  0.0589  0.7489
 7909SOL     OW35188   0.401   4.477   8.773 -0.2286 -0.0773  0.0351
 7909SOL    HW135189   0.450   4.409   8.820 -0.6777 -0.5482 -0.1734
 7909SOL    HW235190   0.381   4.537   8.845  0.1488  2.4204 -1.9489
 7910SOL     OW35191   3.430   0.727   6.738  0.2123 -0.2597  0.2042
 7910SOL    HW135192   3.338   0.702   6.749 -0.1251  0.5334 -0.8240
 7910SOL    HW235193   3.448   0.698   6.649  0.8104 -0.5780  0.4261
 7911SOL     OW35194   2.010   1.550   5.781  0.1304 -0.5462 -0.3145
 7911SOL    HW135195   1.935   1.520   5.832  0.0464  1.8162  0.9454
 7911SOL    HW235196   2.008   1.500   5.699  1.8015 -0.1626 -0.5900
 7912SOL     OW35197   1.860   0.407  10.956 -0.5654 -0.4840  0.2874
 7912SOL    HW135198   1.769   0.428  10.976 -0.0993  0.7131  1.1233
 7912SOL    HW235199   1.871   0.444  10.869  1.3199  0.8015  1.0750
 7913SOL     OW35200   4.230   1.576   6.750  0.4163  0.1500 -0.2578
 7913SOL    HW135201   4.193   1.540   6.831  0.5627 -0.2063 -0.3507
 7913SOL    HW235202   4.199   1.517   6.682 -0.7230  0.1887  0.2303
 7914SOL     OW35203   0.078   3.209  13.637  0.2098 -0.8187 -0.3591
 7914SOL    HW135204   0.017   3.265  13.684  0.8181 -0.2687 -0.2232
 7914SOL    HW235205   0.094   3.152  13.712  0.0820  1.2357  1.2296
 7915SOL     OW35206   1.793   1.519   6.583 -0.1603  0.4018  0.0806
 7915SOL    HW135207   1.710   1.474   6.570  0.8674 -1.7816  1.1044
 7915SOL    HW235208   1.836   1.481   6.507  0.2546  1.2188 -0.0933
 7916SOL     OW35209   3.444   2.456   3.697  0.0324 -0.0545 -0.0679
 7916SOL    HW135210   3.395   2.537   3.688 -2.6438 -1.7562 -0.7469
 7916SOL    HW235211   3.457   2.460   3.792  0.0896 -0.0441 -0.0763
 7917SOL     OW35212   1.117   2.353   7.408  0.7786 -0.0164 -0.2453
 7917SOL    HW135213   1.201   2.362   7.453  0.9021  0.4902 -0.5883
 7917SOL    HW235214   1.046   2.377   7.468 -1.6503 -3.9837 -1.5091
 7918SOL     OW35215   4.446   0.268   5.655  0.2799  0.2807 -0.7938
 7918SOL    HW135216   4.522   0.325   5.664  0.3243  0.4634 -2.2703
 7918SOL    HW235217   4.420   0.284   5.564 -0.4957  1.6130 -0.3490
 7919SOL     OW35218   4.655   4.572   6.851  0.3404 -0.0059 -0.7662
 7919SOL    HW135219   0.007   4.612   6.896 -0.3907 -0.7637  1.1143
 7919SOL    HW235220   4.692   4.517   6.782 -0.8622 -1.7130 -0.0406
 7920SOL     OW35221   1.357   3.545   3.358  0.1644  0.4672  0.3521
 7920SOL    HW135222   1.445   3.520   3.329  0.6365  0.7232  1.5317
 7920SOL    HW235223   1.334   3.461   3.397 -3.2554  0.7506 -1.0736
 7921SOL     OW35224   2.701   3.108   5.163  0.5815 -0.2336 -0.0255
 7921SOL    HW135225   2.621   3.156   5.181  1.9368  2.2465 -0.7109
 7921SOL    HW235226   2.680   3.063   5.081 -1.2667 -0.7953  0.7537
 7922SOL     OW35227   3.136   2.450   5.944 -0.3884 -0.2575 -0.4643
 7922SOL    HW135228   3.148   2.359   5.920  0.8059 -0.5962  1.4216
 7922SOL    HW235229   3.066   2.435   6.008 -0.7981  0.3654 -0.7573
 7923SOL     OW35230   3.352   0.014  11.604 -0.1776  0.0693 -0.0893
 7923SOL    HW135231   3.396   0.095  11.631  0.1044 -0.7752  1.9858
 7923SOL    HW235232   3.379   0.001  11.513  1.2630 -3.0823  0.7719
 7924SOL     OW35233   1.448   2.491   6.634  0.3407 -0.3985 -0.0293
 7924SOL    HW135234   1.383   2.421   6.631  0.1224 -0.3197  2.2991
 7924SOL    HW235235   1.489   2.476   6.549 -0.2474  0.8041 -0.5222
 7925SOL     OW35236   0.762   2.379   0.034  0.0019  0.1928 -0.3236
 7925SOL    HW135237   0.801   2.462   0.060 -0.4174  0.8846 -1.9286
 7925SOL    HW235238   0.671   2.384   0.066  0.3759 -0.4760  0.8615
 7926SOL     OW35239   2.393   0.335   3.595 -0.5736  0.2836 -0.0296
 7926SOL    HW135240   2.303   0.322   3.565 -0.3155  2.7904 -1.8420
 7926SOL    HW235241   2.416   0.409   3.540  1.3137  0.8159  1.4890
 7927SOL     OW35242   3.200   3.353   2.406  0.2937 -0.3010  0.0501
 7927SOL    HW135243   3.161   3.426   2.454 -1.7817 -1.7343  0.5550
 7927SOL    HW235244   3.270   3.325   2.467 -0.1087 -1.5755 -0.0699
 7928SOL     OW35245   1.360   1.106  12.837 -0.4048 -0.3636 -0.3840
 7928SOL    HW135246   1.345   1.018  12.801  0.6912 -0.5054 -0.4887
 7928SOL    HW235247   1.272   1.129  12.868  0.5670 -0.0759  2.1918
 7929SOL     OW35248   3.595   3.932   2.043 -0.2295 -0.2663  0.3808
 7929SOL    HW135249   3.524   3.870   2.031 -0.0916 -0.3325 -0.1104
 7929SOL    HW235250   3.666   3.868   2.046 -0.9914 -1.1097  0.4417
 7930SOL     OW35251   1.727   2.417   5.498 -0.2297 -0.0952  0.0318
 7930SOL    HW135252   1.704   2.433   5.406 -0.6667  0.9115  0.3065
 7930SOL    HW235253   1.817   2.450   5.496 -0.7613  1.4200  0.8545
 7931SOL     OW35254   0.784   3.700   8.537  0.2572  0.6418 -0.5426
 7931SOL    HW135255   0.855   3.764   8.534 -0.3857  1.3718 -0.0805
 7931SOL    HW235256   0.711   3.750   8.572  0.4885  0.0858  0.7309
 7932SOL     OW35257   4.173   3.217   0.214 -0.0661  0.2933  0.0152
 7932SOL    HW135258   4.110   3.174   0.272  1.0424 -0.4928  0.6542
 7932SOL    HW235259   4.144   3.307   0.197 -2.7742 -0.9721 -2.0082
 7933SOL     OW35260   3.431   3.304   7.601  0.5305 -0.0702 -0.2489
 7933SOL    HW135261   3.353   3.348   7.568 -0.0013 -0.7075  0.1831
 7933SOL    HW235262   3.382   3.234   7.644  0.6301  0.6372  1.0154
 7934SOL     OW35263   0.898   1.316   3.768 -0.0914 -0.0834  0.5008
 7934SOL    HW135264   0.860   1.312   3.856 -0.0627 -0.2505  0.5037
 7934SOL    HW235265   0.972   1.257   3.772 -0.3522 -0.4291  0.2226
 7935SOL     OW35266   3.177   2.069  12.971 -0.1822 -0.0275 -0.3514
 7935SOL    HW135267   3.156   2.006  12.902 -0.3464 -1.8107  1.3246
 7935SOL    HW235268   3.212   2.140  12.919  2.4650 -0.8285  0.3377
 7936SOL     OW35269   3.332   1.656  11.630  0.0367  0.2698  0.3977
 7936SOL    HW135270   3.316   1.565  11.653  0.1351 -0.4841 -2.4998
 7936SOL    HW235271   3.256   1.677  11.575  0.8164  2.6478  0.2160
 7937SOL     OW35272   1.607   3.120   6.126 -0.0002  0.6114  0.5542
 7937SOL    HW135273   1.626   3.126   6.220 -0.8012  1.5631  0.6549
 7937SOL    HW235274   1.522   3.163   6.120  1.0170  2.7132  1.0162
 7938SOL     OW35275   2.902   3.496  17.080 -0.1653  0.0624  0.2332
 7938SOL    HW135276   2.914   3.464  17.169  0.3990 -2.3378 -0.6823
 7938SOL    HW235277   2.807   3.508  17.083 -0.0098  1.1711  0.6146
 7939SOL     OW35278   3.632   0.312   3.525 -0.4544 -0.0177  0.2336
 7939SOL    HW135279   3.563   0.343   3.465  1.0199 -1.3990 -2.1816
 7939SOL    HW235280   3.614   0.366   3.602 -0.1890  1.3025 -0.6234
 7940SOL     OW35281   2.139   4.661  16.431  0.1307  0.3622  0.5133
 7940SOL    HW135282   2.076   4.618  16.488 -1.5362  0.3341 -1.3527
 7940SOL    HW235283   2.167   0.003  16.495 -0.5833  0.6560  0.5246
 7941SOL     OW35284   2.110   1.058   7.546  0.0044 -0.4862  0.3368
 7941SOL    HW135285   2.044   1.098   7.602 -1.5812  1.3675 -2.7953
 7941SOL    HW235286   2.132   1.136   7.494  1.1174  0.0827  1.6436
 7942SOL     OW35287   3.234   2.301   7.784  0.2886 -0.3086  0.6096
 7942SOL    HW135288   3.151   2.337   7.815  0.2163 -0.5656  0.7181
 7942SOL    HW235289   3.213   2.273   7.695  1.4689 -0.2578  0.3173
 7943SOL     OW35290   1.740   1.836   8.959  0.2302  0.0337  0.0485
 7943SOL    HW135291   1.818   1.866   8.914  0.5536 -0.1616  0.4736
 7943SOL    HW235292   1.681   1.814   8.887 -0.6484  0.4326  0.6385
 7944SOL     OW35293   0.741   3.344  14.357  0.5462 -0.4269 -0.3798
 7944SOL    HW135294   0.767   3.363  14.447  2.9886 -1.7671 -0.8202
 7944SOL    HW235295   0.762   3.426  14.312  0.8088 -0.3614 -0.1389
 7945SOL     OW35296   1.966   4.124   5.972  0.4899 -0.2704 -0.2267
 7945SOL    HW135297   1.968   4.120   5.876 -1.0938 -0.4928 -0.2591
 7945SOL    HW235298   2.046   4.076   5.991  1.1753  1.3074  0.9038
 7946SOL     OW35299   0.332   2.897  14.967 -0.0484 -0.0920  0.3483
 7946SOL    HW135300   0.281   2.825  15.003  1.3618 -2.2208 -1.9593
 7946SOL    HW235301   0.371   2.856  14.890 -3.8546 -2.3471 -0.3811
 7947SOL     OW35302   0.764   0.572   5.088  0.0144 -0.2396 -0.0890
 7947SOL    HW135303   0.859   0.564   5.098 -0.0504  1.1756  1.5415
 7947SOL    HW235304   0.733   0.554   5.177  3.0527  2.3672  1.4955
 7948SOL     OW35305   4.436   3.479  15.813  0.1363 -0.0140 -0.0285
 7948SOL    HW135306   4.433   3.511  15.723  1.6495  0.4106  0.0737
 7948SOL    HW235307   4.357   3.427  15.828  0.9218 -1.1908  0.0443
 7949SOL     OW35308   1.872   0.360   4.155 -0.0430 -0.1267 -0.2630
 7949SOL    HW135309   1.860   0.377   4.062 -0.0682 -0.3687 -0.3031
 7949SOL    HW235310   1.911   0.273   4.147  0.6525  0.1185  0.4463
 7950SOL     OW35311   2.321   4.114   2.493 -0.7951 -0.0906  0.0140
 7950SOL    HW135312   2.357   4.135   2.407 -0.2607 -0.3137  0.1853
 7950SOL    HW235313   2.371   4.038   2.524  0.5837  0.3545 -1.1270
 7951SOL     OW35314   4.034   2.102   3.651  0.3483 -0.6478 -0.1989
 7951SOL    HW135315   3.960   2.061   3.695  1.0734  1.2810  2.7418
 7951SOL    HW235316   4.049   2.034   3.585 -1.5826 -2.1528  0.9292
 7952SOL     OW35317   4.481   4.375  10.657  0.4361 -0.3061 -0.1287
 7952SOL    HW135318   4.409   4.429  10.623  0.5471  0.5824  1.0511
 7952SOL    HW235319   4.462   4.286  10.628 -2.3774  0.8059 -1.7401
 7953SOL     OW35320   1.276   2.690   0.905  0.5460 -0.0971 -0.2536
 7953SOL    HW135321   1.369   2.713   0.909  0.7399 -0.5837 -1.7943
 7953SOL    HW235322   1.249   2.728   0.988  1.5194 -0.2630  0.1465
 7954SOL     OW35323   0.688   1.030   3.531  0.2704 -0.2211 -0.2598
 7954SOL    HW135324   0.740   1.109   3.515 -2.4268  1.5382 -0.3420
 7954SOL    HW235325   0.728   0.974   3.465  0.4203  0.5637 -0.8260
 7955SOL     OW35326   3.044   0.127   8.731 -0.2690 -0.0139 -0.1594
 7955SOL    HW135327   3.135   0.104   8.710  0.5599  3.1173 -0.0489
 7955SOL    HW235328   3.049   0.179   8.811  1.0600  2.8661 -2.1175
 7956SOL     OW35329   0.996   2.165   9.096  0.5670 -0.5313 -0.4102
 7956SOL    HW135330   1.087   2.135   9.086  0.8076 -0.8956  3.0242
 7956SOL    HW235331   1.019   2.230   9.163  1.0836 -1.4465  0.2951
 7957SOL     OW35332   4.650   0.313  10.051 -0.4542 -0.5445  0.1563
 7957SOL    HW135333   4.603   0.234  10.023  0.3320 -1.3772  1.1620
 7957SOL    HW235334   4.597   0.385  10.017 -0.6586 -0.6411  0.2716
 7958SOL     OW35335   1.239   0.984   3.105 -0.1605 -0.5743  0.3671
 7958SOL    HW135336   1.234   1.080   3.101  0.0063 -0.5457  0.8105
 7958SOL    HW235337   1.179   0.972   3.179 -1.5088 -0.2395 -0.6839
 7959SOL     OW35338   3.506   3.644   5.685  0.1278  0.6969  0.6612
 7959SOL    HW135339   3.427   3.598   5.657  0.0168  0.1367  1.9225
 7959SOL    HW235340   3.474   3.690   5.762 -1.6104 -1.7838  1.4332
 7960SOL     OW35341   2.623   2.072   4.504 -0.0807 -0.7196 -0.0296
 7960SOL    HW135342   2.602   2.074   4.597  0.6198  1.0312  0.0930
 7960SOL    HW235343   2.717   2.056   4.512  0.0074  0.1295  0.5590
 7961SOL     OW35344   4.336   3.858   2.098 -0.0189  0.3757 -0.8033
 7961SOL    HW135345   4.302   3.798   2.164 -0.2347 -0.8333 -2.0220
 7961SOL    HW235346   4.320   3.944   2.138  2.4557  0.1250  0.7209
 7962SOL     OW35347   2.659   4.223  10.771 -0.2652 -0.2691 -0.4514
 7962SOL    HW135348   2.573   4.196  10.739 -1.0684  2.3064 -0.4723
 7962SOL    HW235349   2.700   4.145  10.809 -1.3759 -0.5978  0.0711
 7963SOL     OW35350   3.820   2.772   5.551  0.3634  0.7610 -0.3048
 7963SOL    HW135351   3.814   2.694   5.496 -1.6418 -0.3132  1.4255
 7963SOL    HW235352   3.886   2.830   5.512  1.5595 -0.0682  0.5048
 7964SOL     OW35353   0.486   2.656   4.869 -0.3605  0.0731  0.0227
 7964SOL    HW135354   0.392   2.672   4.864 -0.1580  0.5626 -2.1767
 7964SOL    HW235355   0.514   2.687   4.783 -2.2161  1.0584 -0.2139
 7965SOL     OW35356   1.822   2.921   0.805  0.3955  0.3243 -0.1908
 7965SOL    HW135357   1.782   3.008   0.798 -0.7266 -0.2543 -0.9507
 7965SOL    HW235358   1.748   2.864   0.782  1.7481 -1.4333 -0.1763
 7966SOL     OW35359   2.178   4.144  15.237 -0.1699 -0.3088 -0.0001
 7966SOL    HW135360   2.251   4.165  15.179  0.2032 -0.0769  0.5513
 7966SOL    HW235361   2.102   4.142  15.179  0.0550  0.0386 -0.3046
 7967SOL     OW35362   3.345   0.233   7.820  0.1643  0.1060 -0.4983
 7967SOL    HW135363   3.301   0.148   7.820  2.0306 -0.8660  0.7868
 7967SOL    HW235364   3.303   0.260   7.902 -1.0378 -0.6822 -0.8562
 7968SOL     OW35365   1.790   0.525   9.088  0.4214 -0.0353  0.1366
 7968SOL    HW135366   1.878   0.494   9.109 -0.6331 -2.1024  1.5741
 7968SOL    HW235367   1.802   0.560   8.999 -2.6843 -2.7647 -1.3776
 7969SOL     OW35368   3.735   2.970   2.024 -0.2592 -0.2233  0.2935
 7969SOL    HW135369   3.761   2.956   1.933  0.7409 -1.2626  0.7379
 7969SOL    HW235370   3.656   2.916   2.021  1.3537 -2.5764  0.3302
 7970SOL     OW35371   1.414   1.673   4.571  0.5302  0.9657 -0.2105
 7970SOL    HW135372   1.494   1.712   4.604  1.1749 -0.3073 -0.2460
 7970SOL    HW235373   1.448   1.628   4.493 -1.2205 -1.1930  0.2762
 7971SOL     OW35374   3.988   4.000  16.548 -0.0715 -0.0017  0.1366
 7971SOL    HW135375   3.909   4.053  16.541  0.7038  1.2146  0.6817
 7971SOL    HW235376   4.004   3.971  16.458  0.6606  0.2858  0.1754
 7972SOL     OW35377   2.581   1.774  13.059  0.0954 -0.1458 -0.1220
 7972SOL    HW135378   2.625   1.770  12.974 -1.2550  2.6347 -0.9396
 7972SOL    HW235379   2.522   1.845  13.034  2.6776  2.5530  1.5185
 7973SOL     OW35380   4.113   2.690  15.207  0.2543  0.7796  0.2182
 7973SOL    HW135381   4.074   2.645  15.282  1.4899  1.9297  1.5470
 7973SOL    HW235382   4.043   2.684  15.142  0.3821 -0.9381  0.2370
 7974SOL     OW35383   4.584   4.563   6.385 -0.0723  0.4507 -0.6588
 7974SOL    HW135384   4.608   4.654   6.370  1.3070  0.2363  0.2197
 7974SOL    HW235385   4.521   4.579   6.456 -0.5881 -1.5732 -0.6608
 7975SOL     OW35386   3.034   3.380   9.024  0.3978 -0.1888 -0.1587
 7975SOL    HW135387   2.953   3.345   8.988 -1.3757  2.1115  1.6070
 7975SOL    HW235388   3.000   3.454   9.074  0.3361  0.1861 -0.7596
 7976SOL     OW35389   2.306   3.027   1.249  0.4726 -0.1281 -0.4639
 7976SOL    HW135390   2.352   2.947   1.275  1.4981  0.3260 -0.8741
 7976SOL    HW235391   2.277   2.990   1.166 -1.0058 -0.1946  0.0753
 7977SOL     OW35392   3.829   1.941   4.356 -0.6171  0.6361 -0.4669
 7977SOL    HW135393   3.747   1.969   4.397  0.0793 -0.4345  1.6544
 7977SOL    HW235394   3.804   1.955   4.264 -0.0197 -1.1840 -0.9098
 7978SOL     OW35395   1.243   2.217   8.378  0.4350  1.0801 -0.2083
 7978SOL    HW135396   1.235   2.129   8.413 -1.5350  1.6769  0.8119
 7978SOL    HW235397   1.329   2.247   8.409  0.2127 -1.3661  2.7527
 7979SOL     OW35398   2.428   3.175   2.210 -0.3404 -0.2948 -0.2435
 7979SOL    HW135399   2.427   3.211   2.122 -0.9064  0.9876  0.2883
 7979SOL    HW235400   2.518   3.145   2.224 -0.7298 -1.7817 -0.8518
 7980SOL     OW35401   1.130   1.852  16.261 -0.6535  0.1160 -0.0345
 7980SOL    HW135402   1.064   1.915  16.292  0.0679  0.9907 -0.2695
 7980SOL    HW235403   1.206   1.867  16.317  0.5792 -0.6587 -1.5338
 7981SOL     OW35404   2.299   3.253  16.328  0.2459 -0.1042 -0.1488
 7981SOL    HW135405   2.256   3.300  16.400  3.5865 -0.2234  1.8936
 7981SOL    HW235406   2.384   3.296  16.337 -0.6531  1.5647  0.4604
 7982SOL     OW35407   2.735   2.771   4.731 -0.0504  0.3669  0.1533
 7982SOL    HW135408   2.697   2.727   4.654  1.6204 -0.0548 -0.4210
 7982SOL    HW235409   2.783   2.691   4.751 -3.0223 -1.5131 -0.2131
 7983SOL     OW35410   4.208   0.528  17.000 -0.4534  0.0730 -0.2220
 7983SOL    HW135411   4.283   0.544  16.942  0.7614  1.0867  1.6095
 7983SOL    HW235412   4.164   0.460  16.949 -3.8330  1.3888  0.9985
 7984SOL     OW35413   4.476   1.593   0.028  0.5404  0.6085  0.6422
 7984SOL    HW135414   4.503   1.591   0.119  0.9004  0.2276  0.5272
 7984SOL    HW235415   4.428   1.510   0.021  1.8556 -0.0936  0.0299
 7985SOL     OW35416   1.944   4.574  13.025 -0.5991 -0.6309  0.1081
 7985SOL    HW135417   1.860   4.616  13.006 -0.0873 -0.6968 -2.2816
 7985SOL    HW235418   1.919   4.482  13.018 -2.9234 -0.1591  1.9199
 7986SOL     OW35419   1.357   3.455  12.551 -0.1290  0.0236 -0.0887
 7986SOL    HW135420   1.336   3.363  12.532  2.0723 -0.7588  1.2361
 7986SOL    HW235421   1.452   3.451  12.538 -0.1561 -2.4540  0.3283
 7987SOL     OW35422   3.495   0.710   7.191 -0.0714  0.2904  0.4457
 7987SOL    HW135423   3.431   0.762   7.143 -1.0232 -0.5163  0.8533
 7987SOL    HW235424   3.534   0.657   7.121  2.3862  2.5785  0.0710
 7988SOL     OW35425   2.335   2.688   9.058 -0.5999 -0.0392  0.2313
 7988SOL    HW135426   2.270   2.748   9.023  1.4710  2.1846  0.2143
 7988SOL    HW235427   2.329   2.703   9.152 -2.6830 -2.5377  0.4933
 7989SOL     OW35428   0.902   4.203   4.556  0.7328  0.0440  0.3447
 7989SOL    HW135429   0.813   4.169   4.546  0.9944 -0.4353 -0.3490
 7989SOL    HW235430   0.940   4.130   4.604  1.6434 -0.1036 -0.5791
 7990SOL     OW35431   3.706   0.535  10.632  0.1018  0.3926  0.2171
 7990SOL    HW135432   3.764   0.546  10.556  0.6155 -1.0334  0.4109
 7990SOL    HW235433   3.695   0.440  10.632  0.1427  0.3875 -0.3724
 7991SOL     OW35434   3.800   1.214   3.258 -0.1699 -0.1891 -0.1212
 7991SOL    HW135435   3.752   1.225   3.175  2.2637 -0.4084 -1.5635
 7991SOL    HW235436   3.869   1.280   3.249 -2.5063  2.1831 -0.5809
 7992SOL     OW35437   2.398   4.085  13.000 -0.4257 -0.3141 -0.0765
 7992SOL    HW135438   2.399   4.007  13.056  2.3984  0.6234  1.1769
 7992SOL    HW235439   2.384   4.155  13.064  0.9319 -0.1341  0.0115
 7993SOL     OW35440   4.361   3.808   8.446 -0.2651  0.3045  0.2282
 7993SOL    HW135441   4.420   3.821   8.372  0.5587  1.2739  1.0432
 7993SOL    HW235442   4.398   3.854   8.522  2.0472  2.0952 -1.9733
 7994SOL     OW35443   3.218   0.586   8.126  0.3284 -0.3711 -0.5029
 7994SOL    HW135444   3.166   0.555   8.053  0.1700 -1.8956  0.2610
 7994SOL    HW235445   3.210   0.681   8.115  0.1421 -0.2834  0.3472
 7995SOL     OW35446   2.189   2.637  16.790 -0.3926 -0.2362 -0.0325
 7995SOL    HW135447   2.136   2.712  16.818 -0.8246  0.1729 -1.9748
 7995SOL    HW235448   2.246   2.672  16.722 -0.5269 -1.9713 -1.0472
 7996SOL     OW35449   0.998   4.593   4.070  0.2443  0.5475 -0.1232
 7996SOL    HW135450   0.940   4.623   4.000  1.7899  0.2913 -1.4988
 7996SOL    HW235451   1.026   4.513   4.027 -0.5821  0.5547 -0.6785
 7997SOL     OW35452   4.276   3.138   1.399  0.6728  0.2180 -0.2236
 7997SOL    HW135453   4.183   3.116   1.410  0.9169  0.0104  1.5642
 7997SOL    HW235454   4.284   3.226   1.437 -1.4717  0.2920  0.0326
 7998SOL     OW35455   2.708   2.046   4.816  0.1203  0.5493 -0.2936
 7998SOL    HW135456   2.715   2.139   4.835  1.0576 -0.1326  2.5962
 7998SOL    HW235457   2.800   2.022   4.819 -0.1047 -0.2905  0.0580
 7999SOL     OW35458   3.256   0.505   3.275 -0.3809 -0.1726 -0.1252
 7999SOL    HW135459   3.311   0.485   3.351 -2.3218 -0.5321  1.2136
 7999SOL    HW235460   3.274   0.444   3.204 -1.0151 -0.6159  0.0961
 8000SOL     OW35461   1.655   2.513   7.155 -0.0181 -0.0155  0.3268
 8000SOL    HW135462   1.732   2.551   7.197 -0.5769  0.0233  1.3093
 8000SOL    HW235463   1.626   2.455   7.225  0.9481 -0.4192  0.3880
 8001SOL     OW35464   3.896   1.267  12.954  0.3901  0.5169  0.2402
 8001SOL    HW135465   3.882   1.354  12.915  4.7472  0.1572 -2.0875
 8001SOL    HW235466   3.803   1.244  12.949  0.7870 -0.1258 -4.4476
 8002SOL     OW35467   1.683   4.488  14.738  0.0600  0.3542 -0.2243
 8002SOL    HW135468   1.589   4.469  14.734 -0.1869  1.4465  0.6358
 8002SOL    HW235469   1.707   4.396  14.727 -1.8305 -0.2255  0.4823
 8003SOL     OW35470   1.143   4.033   7.370  0.0905  0.2881 -0.4351
 8003SOL    HW135471   1.236   4.054   7.374  0.5340 -1.4977 -1.2095
 8003SOL    HW235472   1.113   4.063   7.456  0.3445 -3.8843  1.1187
 8004SOL     OW35473   1.859   4.619   9.776  0.2002  0.0707  0.4645
 8004SOL    HW135474   1.942   4.574   9.762  0.5028  0.2952  1.5617
 8004SOL    HW235475   1.799   4.550   9.747 -0.3531  0.5379  0.4965
 8005SOL     OW35476   4.681   2.275   8.302 -0.5077 -0.8268  0.5637
 8005SOL    HW135477   4.701   2.216   8.375 -2.7964  0.5980  2.3613
 8005SOL    HW235478   4.585   2.282   8.295 -0.4825 -2.0477 -1.1282
 8006SOL     OW35479   2.048   1.698   8.606  0.4659 -0.6729 -0.1470
 8006SOL    HW135480   2.021   1.788   8.622  0.0679 -0.9540  0.8050
 8006SOL    HW235481   1.956   1.676   8.593 -0.1379  1.7334  0.0811
 8007SOL     OW35482   0.995   1.183   6.975 -0.4552 -0.0604 -0.6630
 8007SOL    HW135483   1.013   1.275   6.993 -1.8363  0.6526 -2.8626
 8007SOL    HW235484   1.050   1.129   7.032 -0.8242  0.4213  0.1391
 8008SOL     OW35485   4.584   3.137   1.631  0.0554 -0.2225 -0.2766
 8008SOL    HW135486   4.578   3.087   1.550 -1.2685 -1.1523  0.3784
 8008SOL    HW235487   4.521   3.086   1.682 -0.2084  1.0848  0.6839
 8009SOL     OW35488   0.150   2.775   2.143  0.5665 -0.4329  0.1297
 8009SOL    HW135489   0.191   2.841   2.200 -0.0244  1.4280 -1.5950
 8009SOL    HW235490   0.088   2.737   2.205 -2.4833  0.3013 -2.4737
 8010SOL     OW35491   4.423   1.943   3.958  0.1298 -0.0394 -0.6673
 8010SOL    HW135492   4.372   1.914   3.882 -0.6271  0.2174 -0.2555
 8010SOL    HW235493   4.413   2.038   3.950 -1.7632 -0.2510 -0.7825
 8011SOL     OW35494   2.051   4.283   3.250 -0.5124 -0.0453  0.2383
 8011SOL    HW135495   1.969   4.256   3.291 -0.3718  2.0308  1.8698
 8011SOL    HW235496   2.105   4.207   3.269 -0.8374  0.2334  2.3134
 8012SOL     OW35497   0.272   1.084   7.066  0.3714  0.5088  0.4513
 8012SOL    HW135498   0.312   1.111   6.983  1.0722 -1.6850  0.0967
 8012SOL    HW235499   0.284   0.989   7.070 -1.6194  0.2548  0.1867
 8013SOL     OW35500   2.837   4.714  12.006 -0.2679  0.9594 -0.2179
 8013SOL    HW135501   2.826   0.038  11.923 -3.9005 -1.2609 -0.9564
 8013SOL    HW235502   2.915   0.036  12.041  0.5266 -0.5033 -0.1225
 8014SOL     OW35503   2.616   0.418   4.664  0.6090 -0.1046 -0.2792
 8014SOL    HW135504   2.661   0.339   4.693  0.0537  0.1595  1.3038
 8014SOL    HW235505   2.611   0.466   4.747  1.2196 -0.5926  0.0490
 8015SOL     OW35506   2.550   0.726   1.621 -0.7792  0.0926 -0.5750
 8015SOL    HW135507   2.523   0.663   1.689 -0.6414 -0.7356 -1.2801
 8015SOL    HW235508   2.459   0.750   1.602 -1.0850 -0.3421  0.2887
 8016SOL     OW35509   0.052   1.792   1.981 -0.3978 -0.2662  0.2165
 8016SOL    HW135510   0.119   1.725   1.969  0.5815  0.6749  0.3928
 8016SOL    HW235511   0.092   1.851   2.045 -0.2913  1.1808 -1.1846
 8017SOL     OW35512   2.728   4.068   6.391  0.1689 -0.6733 -0.6314
 8017SOL    HW135513   2.815   4.033   6.374 -0.1412 -1.7237 -0.0601
 8017SOL    HW235514   2.741   4.162   6.389 -3.6178 -0.1323  0.5571
 8018SOL     OW35515   4.072   1.777   8.509 -0.1121  0.2697  0.2826
 8018SOL    HW135516   4.054   1.684   8.522 -0.2010  0.4144  1.2095
 8018SOL    HW235517   3.985   1.816   8.494 -0.4022 -1.6844 -3.0648
 8019SOL     OW35518   4.003   3.965   5.142  0.6306 -0.7872 -0.2459
 8019SOL    HW135519   3.976   3.881   5.179 -1.0741 -0.2714 -0.3198
 8019SOL    HW235520   3.958   3.972   5.058 -0.9700  0.3667  0.6854
 8020SOL     OW35521   2.411   0.559   1.773  0.5976  0.0723 -0.2958
 8020SOL    HW135522   2.401   0.500   1.848 -0.3003  0.9628  0.2785
 8020SOL    HW235523   2.326   0.552   1.730 -0.2804  0.6754  1.3541
 8021SOL     OW35524   0.218   3.651   6.208 -0.4025  0.2547 -0.0268
 8021SOL    HW135525   0.192   3.574   6.158  0.6041 -0.3525  0.3748
 8021SOL    HW235526   0.140   3.706   6.215 -0.9811 -0.3928 -1.3579
 8022SOL     OW35527   2.910   3.795   6.780  0.3433  0.4906  0.0927
 8022SOL    HW135528   2.879   3.727   6.720 -0.7793  2.1904 -1.2768
 8022SOL    HW235529   2.828   3.842   6.794 -0.1285  0.0538 -1.1444
 8023SOL     OW35530   0.273   1.459  11.694  0.4358  0.1676  0.3291
 8023SOL    HW135531   0.274   1.543  11.647 -1.1775  0.3350  0.5920
 8023SOL    HW235532   0.189   1.463  11.739  1.0420 -1.3263  1.5721
 8024SOL     OW35533   3.340   1.914   4.413  0.4900 -1.0013 -0.1635
 8024SOL    HW135534   3.412   1.898   4.353  0.2176  4.8120 -1.9498
 8024SOL    HW235535   3.362   2.000   4.449 -0.3654 -1.7679  2.2264
 8025SOL     OW35536   2.932   4.118   5.185  0.0614  0.2597 -0.1684
 8025SOL    HW135537   2.871   4.179   5.144  0.3178  2.2140  2.3456
 8025SOL    HW235538   2.976   4.172   5.251 -1.4347  2.7077 -1.1877
 8026SOL     OW35539   1.502   3.239  17.080  0.6018 -0.3860  0.0190
 8026SOL    HW135540   1.573   3.176  17.085  0.2189 -0.8536 -0.4752
 8026SOL    HW235541   1.529   3.294  17.153 -0.7339 -0.1949  0.3581
 8027SOL     OW35542   2.443   4.697  12.978  0.2983  0.1352  0.2031
 8027SOL    HW135543   2.375   4.660  13.033  0.0219  1.9985  1.1176
 8027SOL    HW235544   2.523   4.681  13.028  1.4709  1.0848 -1.3679
 8028SOL     OW35545   3.697   0.903   2.452  0.1252  0.3993  0.6061
 8028SOL    HW135546   3.636   0.869   2.388  0.1499 -1.0026  1.3337
 8028SOL    HW235547   3.667   0.994   2.459 -1.9502 -0.0907 -1.9216
 8029SOL     OW35548   0.853   4.030   9.752  0.5081  0.2283 -0.1575
 8029SOL    HW135549   0.822   4.044   9.841 -0.1514  0.1557 -0.3803
 8029SOL    HW235550   0.903   3.948   9.758  0.5478  0.2240 -0.5285
 8030SOL     OW35551   1.765   1.507  15.807  0.3335  0.6437 -0.6965
 8030SOL    HW135552   1.783   1.488  15.899 -0.4720 -1.1517 -0.9188
 8030SOL    HW235553   1.789   1.599  15.803  0.0230  0.8041  1.2466
 8031SOL     OW35554   0.790   3.531   4.195  0.0281 -0.1702  0.2419
 8031SOL    HW135555   0.701   3.497   4.203  0.4891 -1.2621  0.8234
 8031SOL    HW235556   0.826   3.468   4.132 -0.8676 -1.2650  0.8388
 8032SOL     OW35557   1.343   3.639   1.209 -0.4283  0.5095 -0.1028
 8032SOL    HW135558   1.287   3.715   1.225  0.2105  1.1411 -0.8904
 8032SOL    HW235559   1.368   3.625   1.301  0.8923 -3.1546 -1.0210
 8033SOL     OW35560   1.416   1.540   9.494 -0.5636  0.6141 -0.6914
 8033SOL    HW135561   1.464   1.600   9.551 -0.0357  0.4875 -1.0072
 8033SOL    HW235562   1.407   1.460   9.547 -3.6660  1.9670  0.8553
 8034SOL     OW35563   1.175   4.023   5.288  0.5911  0.2113  0.1929
 8034SOL    HW135564   1.246   4.058   5.233  0.7706 -0.4411  0.0077
 8034SOL    HW235565   1.123   3.996   5.212  1.0812 -0.1730 -0.0087
 8035SOL     OW35566   0.936   3.540   1.517 -0.1297 -0.3371  0.0450
 8035SOL    HW135567   0.927   3.582   1.432 -1.7181 -0.6356  0.0779
 8035SOL    HW235568   0.985   3.605   1.567  2.6309  1.0714 -4.4794
 8036SOL     OW35569   2.469   0.067  13.781 -0.1051  0.2872  0.2315
 8036SOL    HW135570   2.533   0.103  13.720 -1.0876  0.8767 -0.4555
 8036SOL    HW235571   2.392   0.109  13.743  1.3565  1.7062 -1.2186
 8037SOL     OW35572   0.948   0.300   7.424 -0.2158  0.3392  0.0358
 8037SOL    HW135573   0.957   0.244   7.347 -0.1399 -0.7336  0.8181
 8037SOL    HW235574   0.982   0.385   7.397 -0.3057 -0.0324 -1.2449
 8038SOL     OW35575   2.151   2.817  16.552 -0.4969 -0.5273  0.0165
 8038SOL    HW135576   2.103   2.768  16.485 -0.0470 -1.4374  0.3547
 8038SOL    HW235577   2.193   2.882  16.496 -2.2684  1.0204  0.4778
 8039SOL     OW35578   1.937   2.243   7.184  0.0831 -0.0386 -0.2311
 8039SOL    HW135579   2.006   2.294   7.140 -1.1158  1.3430 -0.5086
 8039SOL    HW235580   1.943   2.273   7.275  1.9034  0.0486 -0.3667
 8040SOL     OW35581   3.093   0.321   4.415 -0.0827 -0.4480  0.1416
 8040SOL    HW135582   3.076   0.232   4.447  0.4074 -0.4605  0.3699
 8040SOL    HW235583   3.000   0.343   4.410  0.0866 -0.2119 -1.8405
 8041SOL     OW35584   3.691   3.648  13.116 -0.4542 -0.9732  0.2289
 8041SOL    HW135585   3.711   3.683  13.029  0.7827  0.2178  1.0049
 8041SOL    HW235586   3.619   3.587  13.097  2.4227 -4.0393 -0.8600
 8042SOL     OW35587   1.376   2.908   1.292 -0.6440 -0.3104  0.1821
 8042SOL    HW135588   1.366   2.995   1.255  0.2223  0.3155  1.4206
 8042SOL    HW235589   1.430   2.934   1.367 -0.2705  0.6174 -0.4068
 8043SOL     OW35590   0.098   1.434  14.095  0.0285  0.1256  0.1156
 8043SOL    HW135591   0.090   1.358  14.037 -0.1167  0.3278 -0.1266
 8043SOL    HW235592   0.004   1.437  14.114 -0.3021  1.0214 -1.7300
 8044SOL     OW35593   0.773   2.681   0.825 -0.3250  0.2678 -0.1178
 8044SOL    HW135594   0.784   2.774   0.845 -3.1964  0.3907  0.9042
 8044SOL    HW235595   0.862   2.646   0.832 -0.1172  1.0270  1.0842
 8045SOL     OW35596   0.951   1.275   6.257 -0.1760 -0.4246 -0.2684
 8045SOL    HW135597   0.916   1.307   6.340  2.7105 -0.6505  1.0299
 8045SOL    HW235598   1.010   1.202   6.277  1.1913  0.5467 -0.6750
 8046SOL     OW35599   4.019   3.355   3.699 -0.2419  0.1850  0.4056
 8046SOL    HW135600   3.938   3.382   3.655  0.5670 -2.4129 -2.6556
 8046SOL    HW235601   4.053   3.444   3.708 -0.9640  0.6024 -0.9566
 8047SOL     OW35602   2.677   3.264   4.913 -0.3980  0.2731  0.4376
 8047SOL    HW135603   2.600   3.216   4.942 -0.0440 -2.4923 -3.1880
 8047SOL    HW235604   2.730   3.261   4.992  0.7704  1.5052 -0.2983
 8048SOL     OW35605   0.620   4.601   2.313  0.0390 -0.6444 -0.2309
 8048SOL    HW135606   0.566   4.583   2.390 -2.1972  0.6487 -1.4850
 8048SOL    HW235607   0.680   4.670   2.338 -0.3712 -0.1576 -0.5940
 8049SOL     OW35608   0.255   2.655  16.812 -0.1009  0.0193  0.1622
 8049SOL    HW135609   0.197   2.729  16.832 -1.8356 -0.9052 -1.5091
 8049SOL    HW235610   0.335   2.683  16.857  0.3841  0.5644 -1.0346
 8050SOL     OW35611   4.465   3.123   4.958 -0.1081  0.4645  0.3236
 8050SOL    HW135612   4.476   3.211   4.994 -1.9109  1.5093 -1.7343
 8050SOL    HW235613   4.390   3.130   4.899  0.9266 -0.0623 -1.0660
 8051SOL     OW35614   0.509   2.686   5.654  0.2358  0.1494  0.2921
 8051SOL    HW135615   0.534   2.649   5.739  0.6343 -1.2477 -0.4274
 8051SOL    HW235616   0.517   2.609   5.597  0.1285  1.3919 -1.3980
 8052SOL     OW35617   4.695   0.677  16.680  0.5705  0.8998  0.0915
 8052SOL    HW135618   4.646   0.751  16.643  1.2207 -0.2529 -3.0903
 8052SOL    HW235619   0.049   0.723  16.715  0.4931  1.4683 -0.4899
 8053SOL     OW35620   0.012   0.706   1.189 -0.3123  0.1384 -0.2783
 8053SOL    HW135621   0.036   0.778   1.131  0.3642 -1.7699 -2.3675
 8053SOL    HW235622   0.095   0.668   1.217 -0.4294 -0.5884 -0.9150
 8054SOL     OW35623   4.024   1.925   6.198 -0.1242 -0.0666 -0.4456
 8054SOL    HW135624   4.091   1.916   6.130 -1.8549 -1.2608 -1.9815
 8054SOL    HW235625   4.065   1.907   6.282 -3.4757  0.8953  1.3942
 8055SOL     OW35626   4.612   3.207  11.376  0.2166 -0.4549  0.1117
 8055SOL    HW135627   4.635   3.124  11.417  3.3936  0.3226 -0.0651
 8055SOL    HW235628   4.673   3.268  11.418  2.5743 -2.2922 -0.6186
 8056SOL     OW35629   2.877   2.072   2.374 -0.2765  0.2662  0.5739
 8056SOL    HW135630   2.790   2.109   2.356 -1.0577 -1.3665  0.9434
 8056SOL    HW235631   2.867   1.982   2.404  1.3241 -0.6938 -1.7988
 8057SOL     OW35632   3.569   0.495   9.845 -0.0159 -0.2045  0.0221
 8057SOL    HW135633   3.488   0.445   9.848 -0.6323  0.7393 -0.6535
 8057SOL    HW235634   3.635   0.426   9.837  0.9088  0.5493  1.2245
 8058SOL     OW35635   1.236   1.969   8.508  0.4711  0.0273  0.0318
 8058SOL    HW135636   1.319   1.931   8.483  1.2623  1.1359  0.9727
 8058SOL    HW235637   1.225   1.944   8.599 -0.0351 -0.9350 -0.2974
 8059SOL     OW35638   2.396   0.458   5.287 -0.0674  0.2637  0.9313
 8059SOL    HW135639   2.377   0.498   5.202  1.5263 -0.8383  0.0338
 8059SOL    HW235640   2.314   0.419   5.317  1.0931 -0.4709  3.1201
 8060SOL     OW35641   3.283   4.307   5.833  0.3252  0.1759  0.1704
 8060SOL    HW135642   3.209   4.289   5.891  0.7917  1.5559  1.1803
 8060SOL    HW235643   3.347   4.245   5.867  2.5835  1.4400 -1.8003
 8061SOL     OW35644   0.190   1.793  15.778  0.4501 -0.0162  0.1568
 8061SOL    HW135645   0.151   1.877  15.755  0.2379  0.0817  0.8800
 8061SOL    HW235646   0.121   1.728  15.763  0.1538  0.7368 -1.7607
 8062SOL     OW35647   2.535   3.940   8.154 -0.7235 -0.2445  0.0504
 8062SOL    HW135648   2.499   3.929   8.243 -0.4271  0.0959  0.2101
 8062SOL    HW235649   2.627   3.960   8.164 -1.1131  1.4186  0.2775
 8063SOL     OW35650   4.633   0.141   7.988 -0.4945  0.7834  0.6653
 8063SOL    HW135651   4.622   0.076   8.058  1.3098 -0.0213  0.1902
 8063SOL    HW235652   4.639   0.091   7.906  1.6132  0.9943  0.6954
 8064SOL     OW35653   4.213   4.269   1.287  0.3527 -0.0354 -0.0829
 8064SOL    HW135654   4.144   4.287   1.351  0.4237  0.9112 -0.2662
 8064SOL    HW235655   4.251   4.357   1.281  0.8429 -0.3284 -1.2041
 8065SOL     OW35656   1.983   0.773   3.306  0.1788 -0.4381  0.4559
 8065SOL    HW135657   1.936   0.739   3.230  1.3303  1.6685 -1.1902
 8065SOL    HW235658   2.008   0.693   3.353 -0.8562 -0.0289  1.7127
 8066SOL     OW35659   1.571   1.356   6.801 -0.3029 -0.9924 -0.1422
 8066SOL    HW135660   1.560   1.411   6.878 -1.8756 -1.1495 -0.2470
 8066SOL    HW235661   1.624   1.284   6.836  1.4536  0.5938  0.4485
 8067SOL     OW35662   4.529   0.006   2.755  0.5036  0.9718  0.0959
 8067SOL    HW135663   4.593   4.662   2.729  0.7752  1.1114  0.4027
 8067SOL    HW235664   4.514   4.709   2.847  1.6404  0.5105  0.1824
 8068SOL     OW35665   2.425   1.605  13.735  0.7562  0.3763 -0.3517
 8068SOL    HW135666   2.508   1.650  13.752  1.9865 -1.4302 -1.6720
 8068SOL    HW235667   2.407   1.632  13.645 -3.2270 -1.1074  0.0045
 8069SOL     OW35668   2.066   2.817   3.513 -0.6508  0.1814 -0.1949
 8069SOL    HW135669   2.076   2.722   3.515 -0.9415  0.1600  0.1577
 8069SOL    HW235670   2.027   2.832   3.427  0.5026  0.5914 -0.6478
 8070SOL     OW35671   1.443   1.557   7.177 -0.3875  0.2644  0.4948
 8070SOL    HW135672   1.372   1.619   7.162 -1.7087 -0.4961  3.5648
 8070SOL    HW235673   1.421   1.526   7.265 -1.6321 -0.3702 -0.0433
 8071SOL     OW35674   0.050   4.028   7.651 -0.5667  0.1397 -0.5770
 8071SOL    HW135675   4.708   3.960   7.629 -0.4458  0.2523 -1.2889
 8071SOL    HW235676   0.129   3.981   7.623 -1.3299 -1.7959  0.4988
 8072SOL     OW35677   4.060   1.431   4.904 -0.1526  0.2033  0.3080
 8072SOL    HW135678   4.040   1.363   4.968  1.2377 -1.1003 -0.6405
 8072SOL    HW235679   4.139   1.473   4.936  0.1603 -0.1086 -0.0582
 8073SOL     OW35680   0.563   2.217   6.457 -0.1957 -0.6461 -0.6367
 8073SOL    HW135681   0.544   2.124   6.470 -0.4041 -0.4747  0.2936
 8073SOL    HW235682   0.480   2.239   6.414 -0.6880 -0.2164  0.5250
 8074SOL     OW35683   2.627   2.660   8.545  0.1822 -0.6333  0.6962
 8074SOL    HW135684   2.533   2.652   8.562 -0.3373  1.4029 -1.2715
 8074SOL    HW235685   2.626   2.651   8.450 -2.6330 -0.8040  0.7550
 8075SOL     OW35686   3.815   4.560   9.273  0.4215  0.1758 -0.3261
 8075SOL    HW135687   3.825   4.581   9.366 -0.1738 -2.6328  0.3952
 8075SOL    HW235688   3.906   4.539   9.252  0.6595 -1.4036  2.2533
 8076SOL     OW35689   0.704   1.330   4.842  0.4735 -0.3587 -0.4217
 8076SOL    HW135690   0.621   1.372   4.864  0.2954 -1.2524  0.6251
 8076SOL    HW235691   0.669   1.258   4.790 -1.0636  1.0436 -1.3145
 8077SOL     OW35692   3.216   2.758   2.128  0.3483 -0.3671  0.1784
 8077SOL    HW135693   3.147   2.793   2.184  1.3255 -1.1054  1.8685
 8077SOL    HW235694   3.203   2.797   2.042 -1.6254  1.0007  1.1116
 8078SOL     OW35695   4.618   1.779  14.115 -0.3640 -0.3927 -0.0938
 8078SOL    HW135696   4.701   1.826  14.106 -0.8705  0.3344 -0.9206
 8078SOL    HW235697   4.556   1.836  14.070 -3.0471 -1.9879  1.5783
 8079SOL     OW35698   2.898   1.275   3.203  0.1029 -0.3168 -0.4555
 8079SOL    HW135699   2.927   1.260   3.113  1.2213  1.1268 -0.3456
 8079SOL    HW235700   2.822   1.332   3.194  0.5504  0.0729 -1.7895
 8080SOL     OW35701   1.781   2.833   9.145 -0.2096  0.3000  0.0756
 8080SOL    HW135702   1.742   2.757   9.101  3.1424 -2.5456  2.0630
 8080SOL    HW235703   1.760   2.903   9.083  0.6296 -0.0206 -0.5710
 8081SOL     OW35704   0.226   1.346   1.498  0.0234  0.4078  0.3356
 8081SOL    HW135705   0.188   1.432   1.515  0.1662  0.0301  2.5672
 8081SOL    HW235706   0.163   1.283   1.535 -0.0050  0.0680 -0.2840
 8082SOL     OW35707   3.313   0.779   2.156  0.4913  0.1907  0.7857
 8082SOL    HW135708   3.230   0.748   2.192  0.7691  0.5176  1.7333
 8082SOL    HW235709   3.303   0.745   2.067 -0.5923 -0.4548  1.1548
 8083SOL     OW35710   3.004   3.361   6.567  0.2475  0.5776  0.3434
 8083SOL    HW135711   3.070   3.406   6.514  0.3237  0.6186  0.4748
 8083SOL    HW235712   3.060   3.345   6.642  0.4733 -0.6557 -0.0823
 8084SOL     OW35713   2.420   2.078   7.672  0.1131 -0.6790  0.1857
 8084SOL    HW135714   2.414   2.148   7.607 -2.5859 -0.6235  0.5245
 8084SOL    HW235715   2.433   2.010   7.605  1.2009 -0.9113  0.6269
 8085SOL     OW35716   2.400   3.638   6.410 -0.1431  0.2273  0.3520
 8085SOL    HW135717   2.368   3.588   6.335 -0.3896 -0.4321  0.8988
 8085SOL    HW235718   2.332   3.625   6.477 -0.8623 -0.4702 -0.5186
 8086SOL     OW35719   4.624   4.183   3.969 -0.4227  0.4927 -0.6517
 8086SOL    HW135720   4.623   4.190   3.873  0.9116 -0.1566 -0.7241
 8086SOL    HW235721   4.534   4.150   3.967 -0.3622  0.2420  1.4310
 8087SOL     OW35722   0.216   2.723   1.594 -0.1414 -0.0571  0.4833
 8087SOL    HW135723   0.301   2.763   1.576 -0.6672 -0.0869 -2.0782
 8087SOL    HW235724   0.159   2.783   1.544 -1.4971 -1.0749  0.7968
 8088SOL     OW35725   0.907   4.136   7.578 -0.7519  0.3901  0.6485
 8088SOL    HW135726   0.978   4.085   7.617 -0.9576 -0.1860  0.2600
 8088SOL    HW235727   0.876   4.182   7.656 -1.1012  1.1730  0.0436
 8089SOL     OW35728   3.749   4.543  12.356  0.2414 -0.2794  0.0485
 8089SOL    HW135729   3.787   4.520  12.271  2.9749  0.9685  0.9370
 8089SOL    HW235730   3.654   4.528  12.349  0.6407 -2.8494  0.2602
 8090SOL     OW35731   0.522   3.308   3.731 -0.3442 -0.3659  0.5179
 8090SOL    HW135732   0.608   3.315   3.773 -0.6936  0.4804  1.1035
 8090SOL    HW235733   0.541   3.239   3.667  1.1017 -2.2619  2.9722
 8091SOL     OW35734   2.004   1.206   3.982  0.3947 -0.5280  0.1614
 8091SOL    HW135735   2.062   1.270   4.023 -0.3426 -0.9016  1.7597
 8091SOL    HW235736   2.071   1.141   3.958  0.6111 -0.4196  0.4708
 8092SOL     OW35737   4.488   2.229   7.514  0.0816  0.6270 -0.2074
 8092SOL    HW135738   4.555   2.255   7.578  0.2422 -0.9366  0.2735
 8092SOL    HW235739   4.457   2.146   7.550  2.0629 -0.5042 -1.0993
 8093SOL     OW35740   2.282   0.219  16.707  0.5545  0.5843  0.4342
 8093SOL    HW135741   2.236   0.196  16.788  2.1749 -1.6370  0.7404
 8093SOL    HW235742   2.359   0.163  16.717 -0.8429 -1.9186 -2.7791
 8094SOL     OW35743   4.587   4.506   9.525  0.2901 -0.3904  0.9699
 8094SOL    HW135744   4.651   4.538   9.462  0.1763 -1.5979  0.2362
 8094SOL    HW235745   4.522   4.478   9.460  0.5508  1.5426 -0.1310
 8095SOL     OW35746   2.396   2.091  13.989  0.1525 -0.1741  0.0712
 8095SOL    HW135747   2.420   2.182  13.971 -1.6634  0.4364  0.7659
 8095SOL    HW235748   2.457   2.044  13.932  2.1693  1.4588  0.8899
 8096SOL     OW35749   1.553   0.936   0.068  0.3050  0.5785  0.1185
 8096SOL    HW135750   1.502   0.860   0.098  1.9331 -0.6547 -0.2788
 8096SOL    HW235751   1.534   0.997   0.139 -0.7986  1.1330 -0.6535
 8097SOL     OW35752   1.492   1.166   2.418 -0.3284 -0.7817  0.1236
 8097SOL    HW135753   1.535   1.124   2.493 -0.6578 -1.1704  0.0913
 8097SOL    HW235754   1.450   1.241   2.459  2.1275 -1.6121  4.2169
 8098SOL     OW35755   1.008   3.393   9.715  0.0190  0.1995  0.2831
 8098SOL    HW135756   0.991   3.310   9.670  0.2006  0.1210  0.3562
 8098SOL    HW235757   1.070   3.435   9.655 -3.2133  3.5781 -0.6381
 8099SOL     OW35758   2.486   4.600  10.161  0.3463  0.1526  0.5740
 8099SOL    HW135759   2.563   4.550  10.187  0.4182 -0.3204 -0.5532
 8099SOL    HW235760   2.535   4.666  10.112  0.6931 -0.1514  0.5066
 8100SOL     OW35761   1.957   1.061   8.471  0.1924 -0.0383  0.0522
 8100SOL    HW135762   1.902   0.983   8.464  0.7207 -0.6129  2.4992
 8100SOL    HW235763   2.011   1.036   8.545  0.1749 -1.1516 -0.3134
 8101SOL     OW35764   3.760   0.358   6.513 -0.7122 -0.3961 -0.2016
 8101SOL    HW135765   3.776   0.294   6.582 -0.2393  0.6394  0.6344
 8101SOL    HW235766   3.684   0.336   6.459  0.9228 -3.3535 -1.3101
 8102SOL     OW35767   0.397   4.509   7.029 -0.1085  0.2577  0.1760
 8102SOL    HW135768   0.396   4.603   7.047 -1.0181 -0.1483  2.1922
 8102SOL    HW235769   0.304   4.486   7.029 -0.3847  1.3827 -0.8343
 8103SOL     OW35770   3.826   0.356   9.890 -0.4225 -0.2707  0.7420
 8103SOL    HW135771   3.864   0.335   9.805 -2.1920 -0.1703 -0.0611
 8103SOL    HW235772   3.768   0.281   9.892  0.8906 -1.2986  0.1987
 8104SOL     OW35773   1.945   3.291   9.109  0.1604  0.6148 -0.2105
 8104SOL    HW135774   2.034   3.324   9.096  0.3911  0.2146  0.3317
 8104SOL    HW235775   1.943   3.282   9.204 -3.1801  2.5370 -0.0829
 8105SOL     OW35776   1.798   3.458   8.467  0.3426  0.6444  0.0353
 8105SOL    HW135777   1.786   3.406   8.388 -1.6522 -0.7538  1.2577
 8105SOL    HW235778   1.885   3.427   8.491 -0.4319  0.1015  2.0842
 8106SOL     OW35779   2.285   1.526   7.543 -0.4429  0.0564  0.3461
 8106SOL    HW135780   2.270   1.474   7.622 -0.2064 -0.0753  0.3048
 8106SOL    HW235781   2.197   1.554   7.517 -0.2715 -1.4566 -1.9306
 8107SOL     OW35782   2.427   4.535   0.613 -0.3569  0.2085  0.4419
 8107SOL    HW135783   2.369   4.519   0.538  0.4881  1.9970 -0.5875
 8107SOL    HW235784   2.415   4.471   0.684  0.5979 -0.2243  0.2166
 8108SOL     OW35785   2.047   0.677   8.625  0.4547 -0.3748 -0.1353
 8108SOL    HW135786   2.031   0.771   8.608 -0.7862 -0.8938 -1.9490
 8108SOL    HW235787   2.112   0.691   8.693  1.3569 -2.1479 -0.6503
 8109SOL     OW35788   3.904   4.207   1.657  0.5459  0.2184  0.5356
 8109SOL    HW135789   3.839   4.247   1.715  0.1251 -0.5403  0.5819
 8109SOL    HW235790   3.871   4.119   1.670 -0.5833  0.5627  0.0513
 8110SOL     OW35791   2.565   0.039   3.030 -0.2695  0.5512 -0.6858
 8110SOL    HW135792   2.570   0.091   2.950 -1.3331 -0.2227 -1.2681
 8110SOL    HW235793   2.474   0.008   3.030 -0.8233  2.2053  1.7297
 8111SOL     OW35794   1.582   4.137   0.396 -0.7477 -0.5700 -0.4305
 8111SOL    HW135795   1.487   4.126   0.388 -0.7785 -0.0881 -0.7168
 8111SOL    HW235796   1.616   4.054   0.364 -0.8177 -0.4209 -0.8926
 8112SOL     OW35797   1.558   0.515   7.104  0.0759 -0.2837 -0.4260
 8112SOL    HW135798   1.575   0.602   7.068  2.1420 -1.3134 -1.9868
 8112SOL    HW235799   1.606   0.506   7.186  0.6498 -1.7095 -0.9218
 8113SOL     OW35800   4.360   0.033   8.797 -0.1488 -0.0563  0.0101
 8113SOL    HW135801   4.322   0.089   8.730  0.5787 -0.0603 -0.4053
 8113SOL    HW235802   4.366   0.103   8.862  1.8880 -0.9102  0.7544
 8114SOL     OW35803   2.840   3.973   9.073 -0.1409 -0.1738  0.5694
 8114SOL    HW135804   2.869   3.969   9.164 -0.3599  2.0904  0.7451
 8114SOL    HW235805   2.746   3.959   9.079 -0.0892 -0.7353  0.1390
 8115SOL     OW35806   1.515   2.676   5.168  0.3355 -0.4662 -0.3286
 8115SOL    HW135807   1.506   2.743   5.236 -3.3860 -1.2046 -0.1229
 8115SOL    HW235808   1.435   2.626   5.159 -0.7085  0.5919  3.2021
 8116SOL     OW35809   0.987   2.341   4.699 -0.0689  0.3875  0.7462
 8116SOL    HW135810   1.044   2.374   4.629 -1.4538  1.1367 -0.0243
 8116SOL    HW235811   1.045   2.285   4.750  0.1963  1.3700  1.5153
 8117SOL     OW35812   2.175   4.403  15.368  0.8896  0.3308  0.2218
 8117SOL    HW135813   2.155   4.330  15.426 -1.0735  1.7324  1.3119
 8117SOL    HW235814   2.195   4.368  15.281  1.9692  2.6227 -0.4745
 8118SOL     OW35815   1.647   4.601   9.337 -0.0928 -0.2326 -0.1361
 8118SOL    HW135816   1.673   4.510   9.348 -0.2555 -0.1082  1.3849
 8118SOL    HW235817   1.566   4.596   9.287  1.5582 -1.9782 -2.5852
 8119SOL     OW35818   3.664   0.866   7.354 -0.5160  0.3647 -0.2231
 8119SOL    HW135819   3.588   0.829   7.310  1.9808 -3.3579 -1.3652
 8119SOL    HW235820   3.736   0.833   7.301 -1.7985 -0.9939 -1.1084
 8120SOL     OW35821   3.922   3.191  16.609 -0.2215 -0.3429 -0.1519
 8120SOL    HW135822   3.974   3.147  16.541  0.1909  1.5323 -1.0852
 8120SOL    HW235823   3.943   3.284  16.597 -0.5073 -0.1788  0.6210
 8121SOL     OW35824   1.096   1.448   2.631  0.2790 -0.1858 -0.2184
 8121SOL    HW135825   1.057   1.525   2.672 -0.3558 -0.3037 -0.6065
 8121SOL    HW235826   1.033   1.383   2.660  0.8915 -0.8695 -0.4123
 8122SOL     OW35827   0.026   1.283   7.856 -0.2905 -0.1571  0.1246
 8122SOL    HW135828   0.115   1.250   7.861 -0.5193 -0.7247  0.4351
 8122SOL    HW235829   0.030   1.353   7.921  1.2686 -0.4340  0.3188
 8123SOL     OW35830   1.890   0.665   2.705 -0.7173  0.6348  0.3646
 8123SOL    HW135831   1.906   0.760   2.707  0.1532  0.5361 -2.9218
 8123SOL    HW235832   1.922   0.628   2.624 -1.2971 -1.0741  0.9086
 8124SOL     OW35833   0.759   2.828   8.936 -0.1670 -0.3011  0.1124
 8124SOL    HW135834   0.693   2.792   8.877 -0.0752 -1.0409  0.4593
 8124SOL    HW235835   0.844   2.791   8.912  0.1782 -0.0500  0.9307
 8125SOL     OW35836   4.210   3.842   2.369 -0.0038  0.0682  0.0710
 8125SOL    HW135837   4.146   3.861   2.438 -0.0967 -0.7868  0.2182
 8125SOL    HW235838   4.244   3.761   2.408 -0.5819 -0.8552 -1.3772
 8126SOL     OW35839   0.334   0.330   2.998 -0.1076  0.5291 -0.5840
 8126SOL    HW135840   0.395   0.280   3.053 -0.5242  0.1627 -0.4558
 8126SOL    HW235841   0.387   0.359   2.924 -0.9448  0.8929 -1.0373
 8127SOL     OW35842   3.318   1.119   1.075 -0.1715 -0.4188 -0.2354
 8127SOL    HW135843   3.374   1.190   1.107  0.9941 -0.0513 -3.0666
 8127SOL    HW235844   3.364   1.103   0.992 -1.4708 -2.4847 -0.5456
 8128SOL     OW35845   1.048   3.187  12.574  0.3120  0.6819 -0.5781
 8128SOL    HW135846   1.142   3.190  12.592  0.0655  0.7453  0.6555
 8128SOL    HW235847   1.021   3.276  12.596  2.4349  1.5576 -1.5326
 8129SOL     OW35848   2.035   0.918   2.742 -0.3592 -0.5923  0.7403
 8129SOL    HW135849   2.050   1.007   2.773  1.0770 -1.2081  1.8222
 8129SOL    HW235850   2.123   0.883   2.757  0.9095  1.1296 -2.5732
 8130SOL     OW35851   1.876   2.524   3.038 -0.0381  0.8656  0.2727
 8130SOL    HW135852   1.894   2.618   3.040 -1.5348  1.1634 -0.1909
 8130SOL    HW235853   1.960   2.484   3.018 -0.9712 -0.4168 -1.0157
 8131SOL     OW35854   2.528   1.611   2.072 -0.5098 -0.2860 -0.2641
 8131SOL    HW135855   2.449   1.618   2.125 -0.7889  0.5711 -0.8019
 8131SOL    HW235856   2.494   1.568   1.993 -0.0779  1.0878 -1.1965
 8132SOL     OW35857   3.412   4.480   6.368  0.1560 -0.1439 -0.2822
 8132SOL    HW135858   3.408   4.501   6.274 -0.8126 -2.4062 -0.7385
 8132SOL    HW235859   3.324   4.501   6.399  0.2254 -0.3430  0.0457
 8133SOL     OW35860   2.615   4.137  14.385  0.4123  0.4240  0.2560
 8133SOL    HW135861   2.650   4.128  14.296  0.3119  0.7320  0.1866
 8133SOL    HW235862   2.688   4.093  14.428 -1.4914 -2.0117  1.0081
 8134SOL     OW35863   0.915   4.236   1.984 -0.4438 -0.4916  0.1122
 8134SOL    HW135864   0.967   4.286   1.922 -1.5871 -0.2880 -0.6880
 8134SOL    HW235865   0.856   4.302   2.020  0.2129  0.1617 -0.0117
 8135SOL     OW35866   2.995   1.602  15.946  0.1853  0.0628  0.0870
 8135SOL    HW135867   3.051   1.589  16.022  0.1546  0.9108  0.2612
 8135SOL    HW235868   2.912   1.615  15.992 -1.4447  0.5290 -2.9293
 8136SOL     OW35869   1.074   3.107  12.859  0.7551  0.1511 -0.0480
 8136SOL    HW135870   1.019   3.180  12.890 -0.1873 -0.8268  0.5684
 8136SOL    HW235871   1.037   3.080  12.776  3.0197  0.2317 -1.0897
 8137SOL     OW35872   1.935   0.439  12.416  0.1614 -0.0014 -0.0026
 8137SOL    HW135873   1.874   0.365  12.418 -0.1300  0.3665  3.5158
 8137SOL    HW235874   1.873   0.510  12.398  1.1162  1.0264  0.7701
 8138SOL     OW35875   2.689   2.284   7.540  0.3235  0.2039  0.1604
 8138SOL    HW135876   2.646   2.216   7.488 -0.8196  1.0588 -0.0094
 8138SOL    HW235877   2.738   2.228   7.600  0.5706  0.7983  0.5169
 8139SOL     OW35878   0.963   4.415   0.148 -0.1196  0.3799  0.3182
 8139SOL    HW135879   0.870   4.394   0.154 -0.1018 -0.1617 -1.2983
 8139SOL    HW235880   0.958   4.467   0.068 -0.4425  0.7412  0.5736
 8140SOL     OW35881   3.901   3.410   4.874  0.2014 -0.5379  0.4803
 8140SOL    HW135882   3.928   3.356   4.800 -0.1347  1.6204 -1.2089
 8140SOL    HW235883   3.970   3.383   4.936  2.1347 -1.8746 -2.2313
 8141SOL     OW35884   3.329   4.532   4.324  0.1635 -0.2017 -0.5163
 8141SOL    HW135885   3.412   4.534   4.371  0.2010  2.4089 -0.6783
 8141SOL    HW235886   3.341   4.456   4.267  1.9782 -0.0114 -0.3788
 8142SOL     OW35887   4.442   1.474   2.980  0.2443  0.1468 -0.1114
 8142SOL    HW135888   4.463   1.398   2.926  0.8575  0.7355 -0.7163
 8142SOL    HW235889   4.391   1.442   3.054  0.9632 -1.2812 -0.2421
 8143SOL     OW35890   1.741   3.217   3.001  0.1742  0.4778  0.5691
 8143SOL    HW135891   1.704   3.298   3.034 -3.0912  0.0127 -1.9483
 8143SOL    HW235892   1.831   3.247   2.983  0.7015 -2.1854 -1.3594
 8144SOL     OW35893   4.612   0.019   5.933 -0.2180  0.5586  0.7469
 8144SOL    HW135894   4.528   4.723   5.889  1.0578 -0.5453 -1.2222
 8144SOL    HW235895   4.630   4.664   5.986 -1.6257  0.0253  0.4545
 8145SOL     OW35896   1.705   3.058   4.224  0.2343 -0.1874  0.7355
 8145SOL    HW135897   1.707   3.140   4.273  2.1713 -0.7441  1.5818
 8145SOL    HW235898   1.650   3.081   4.149  1.9873  0.5881 -0.3345
 8146SOL     OW35899   0.855   1.387  16.624  0.0941 -0.7505  0.2669
 8146SOL    HW135900   0.890   1.474  16.604  0.7097 -0.8780  0.8035
 8146SOL    HW235901   0.783   1.405  16.684  0.1149  0.8892 -0.1917
 8147SOL     OW35902   0.173   1.796  16.781  0.1010 -0.5533 -0.0546
 8147SOL    HW135903   0.220   1.879  16.796 -1.7743  0.2777  1.2187
 8147SOL    HW235904   0.204   1.741  16.852  1.4817  2.5764  1.7987
 8148SOL     OW35905   0.484   3.116   1.573 -0.0325  0.3016  0.6019
 8148SOL    HW135906   0.406   3.156   1.612  1.1939  1.5884  1.7185
 8148SOL    HW235907   0.470   3.023   1.592 -1.5256  0.3179 -0.4159
 8149SOL     OW35908   1.868   1.413   7.640 -0.0344  0.1777 -0.0243
 8149SOL    HW135909   1.815   1.368   7.574  0.3500  0.1419 -0.3048
 8149SOL    HW235910   1.859   1.357   7.718 -0.2231  2.7376  1.7806
 8150SOL     OW35911   0.381   0.237   7.410  0.4715  0.3530  0.6889
 8150SOL    HW135912   0.463   0.266   7.370  0.3826  0.7788  0.8138
 8150SOL    HW235913   0.374   0.289   7.491  1.2284  0.9960  0.3417
 8151SOL     OW35914   2.356   3.421   3.714  0.1953  0.6022  0.0429
 8151SOL    HW135915   2.285   3.361   3.738  2.6938 -1.0881  3.1757
 8151SOL    HW235916   2.316   3.498   3.753 -2.3820 -0.7057 -0.0005
 8152SOL     OW35917   1.096   4.576  15.892 -0.1909 -0.0165 -0.6866
 8152SOL    HW135918   1.178   4.606  15.931 -2.0044 -0.6596  3.6293
 8152SOL    HW235919   1.099   4.614  15.804 -0.2578  0.9021 -0.2960
 8153SOL     OW35920   0.258   3.298   8.864  0.1559  0.1895  0.5924
 8153SOL    HW135921   0.216   3.362   8.806  1.3350  0.0188 -0.4535
 8153SOL    HW235922   0.343   3.279   8.824  0.7292 -0.3380  2.0540
 8154SOL     OW35923   0.057   0.145   8.898  0.3327  0.1518 -0.4754
 8154SOL    HW135924   0.134   0.106   8.856  1.6301  1.9080  0.2920
 8154SOL    HW235925   0.023   0.068   8.944  3.0941 -0.4902  0.5261
 8155SOL     OW35926   2.413   0.119   9.448  0.1985  0.2303  0.4002
 8155SOL    HW135927   2.384   0.073   9.526  1.1939 -1.8139 -0.4302
 8155SOL    HW235928   2.335   0.136   9.396  1.2407 -0.4744 -1.3944
 8156SOL     OW35929   2.591   1.465  13.416  0.2675  0.3744  0.0214
 8156SOL    HW135930   2.558   1.385  13.373  1.7354 -0.4935  0.5024
 8156SOL    HW235931   2.555   1.536  13.363  2.6778  0.8444 -0.9896
 8157SOL     OW35932   2.097   1.516   7.216  0.3051  0.1057  0.2363
 8157SOL    HW135933   2.172   1.456   7.208 -2.2239 -2.7847 -1.5861
 8157SOL    HW235934   2.071   1.503   7.307 -0.9506 -2.7702 -0.5434
 8158SOL     OW35935   2.270   1.307  14.971 -0.4466  0.2162 -0.4763
 8158SOL    HW135936   2.196   1.347  15.017 -1.3212 -1.0289 -0.8218
 8158SOL    HW235937   2.273   1.216  15.000 -0.1874  0.8311  1.3833
 8159SOL     OW35938   2.543   1.922  17.464  0.3586  0.0265 -0.2217
 8159SOL    HW135939   2.634   1.902  17.444  1.2335  0.7175  3.2242
 8159SOL    HW235940   2.545   1.968  17.548 -1.4838 -0.1851 -0.0624
 8160SOL     OW35941   4.266   0.607   0.270 -0.3992 -0.3489 -0.2399
 8160SOL    HW135942   4.334   0.640   0.328 -2.1345 -1.3369  2.3594
 8160SOL    HW235943   4.315   0.614   0.188 -0.9078  0.1265 -0.5084
 8161SOL     OW35944   0.435   0.574   6.022 -0.3892 -0.2438 -0.4632
 8161SOL    HW135945   0.448   0.631   6.097  0.4277  0.6186 -1.2576
 8161SOL    HW235946   0.428   0.492   6.070 -2.2151  0.7809  1.0007
 8162SOL     OW35947   0.421   0.827   6.243 -0.5901  0.2298  0.2279
 8162SOL    HW135948   0.448   0.855   6.331  1.6421  1.3242 -0.7996
 8162SOL    HW235949   0.352   0.763   6.259  0.3434 -1.0151 -0.7728
 8163SOL     OW35950   1.846   3.274   5.694  0.3757  0.4646 -0.2752
 8163SOL    HW135951   1.865   3.342   5.758 -0.0618  0.0227  0.3184
 8163SOL    HW235952   1.803   3.214   5.755 -1.2263  2.1363  0.2225
 8164SOL     OW35953   2.159   1.656   6.766  0.6225  0.3270  0.1930
 8164SOL    HW135954   2.231   1.683   6.708  0.4926 -0.2975 -0.2663
 8164SOL    HW235955   2.093   1.724   6.754  0.4277  0.0903 -0.0991
 8165SOL     OW35956   0.907   0.961  10.770 -0.1034 -0.3284 -0.4661
 8165SOL    HW135957   0.896   0.963  10.865  0.1919  1.1852 -0.4564
 8165SOL    HW235958   0.961   0.883  10.756  0.6959  0.5253 -2.1475
 8166SOL     OW35959   4.539   2.040   9.213 -0.7294 -0.0388 -0.2091
 8166SOL    HW135960   4.592   2.060   9.289 -0.6601  0.3260 -0.3556
 8166SOL    HW235961   4.505   1.955   9.243 -1.3629  0.0455 -0.6713
 8167SOL     OW35962   4.141   4.143  16.713 -0.7389  0.2445 -0.3594
 8167SOL    HW135963   4.077   4.103  16.655  1.2436 -0.2351 -2.2144
 8167SOL    HW235964   4.204   4.072  16.721 -1.3525 -0.3600 -0.8618
 8168SOL     OW35965   4.451   3.014  15.525 -0.2210 -0.3298  0.2251
 8168SOL    HW135966   4.505   2.973  15.457 -0.4739  3.0521 -2.0151
 8168SOL    HW235967   4.403   2.936  15.551 -3.0645  1.7688  1.2955
 8169SOL     OW35968   3.834   4.358   5.280  0.0859 -0.1779  0.4838
 8169SOL    HW135969   3.789   4.317   5.206  0.9914 -0.8718  0.3072
 8169SOL    HW235970   3.875   4.285   5.326 -0.8622 -0.7606  0.3831
 8170SOL     OW35971   1.523   1.908   0.602  0.2205 -0.0958  0.7256
 8170SOL    HW135972   1.592   1.896   0.667  0.2109 -0.0605  0.7424
 8170SOL    HW235973   1.475   1.828   0.624  1.0987 -0.8072  0.0358
 8171SOL     OW35974   1.439   1.609   5.617  0.3600  0.4420  0.0894
 8171SOL    HW135975   1.533   1.594   5.627  0.3890  0.7325  0.2698
 8171SOL    HW235976   1.404   1.526   5.649  0.4074  0.4785  0.2359
 8172SOL     OW35977   1.576   0.655   8.322  0.7802 -0.2506  0.0593
 8172SOL    HW135978   1.609   0.627   8.237 -0.7667  0.7251 -0.8731
 8172SOL    HW235979   1.658   0.677   8.365  0.8825  0.0776 -0.2984
 8173SOL     OW35980   1.754   1.836  16.879 -0.2246 -0.1543  0.0739
 8173SOL    HW135981   1.797   1.904  16.826  1.2558 -0.8275  0.3940
 8173SOL    HW235982   1.664   1.840  16.848  1.0274  0.1013 -3.5125
 8174SOL     OW35983   4.455   0.643   4.631 -0.4895 -0.1596  0.1510
 8174SOL    HW135984   4.493   0.577   4.689  2.5765  1.1482 -0.3736
 8174SOL    HW235985   4.528   0.703   4.619 -0.5449 -0.1411 -0.1031
 8175SOL     OW35986   3.896   1.178   8.482  0.0324  0.2286 -0.1157
 8175SOL    HW135987   3.965   1.112   8.475 -1.5264 -1.5609  1.2806
 8175SOL    HW235988   3.944   1.261   8.478 -1.6333  1.2202  0.2713
 8176SOL     OW35989   4.705   1.732   6.320  0.6313  0.3089 -0.2247
 8176SOL    HW135990   4.721   1.824   6.301 -0.9426  0.4685 -0.7577
 8176SOL    HW235991   0.057   1.721   6.379  0.9159  0.4225 -0.5641
 8177SOL     OW35992   4.581   0.593   8.664  0.2780 -0.3262  0.4049
 8177SOL    HW135993   4.614   0.509   8.696  0.5627 -0.0229  0.9126
 8177SOL    HW235994   4.488   0.571   8.656 -0.0754  1.2978  0.1413
 8178SOL     OW35995   2.966   2.410   7.512  0.3372 -0.4046  0.2928
 8178SOL    HW135996   3.020   2.331   7.512  1.4522  0.3498  0.9726
 8178SOL    HW235997   2.876   2.378   7.510  0.4487 -0.7894  2.3199
 8179SOL     OW35998   3.814   4.157   7.614 -0.3097 -0.2525 -0.3744
 8179SOL    HW135999   3.852   4.241   7.588  1.4375 -1.0470 -0.3903
 8179SOL    HW236000   3.761   4.189   7.688  1.7950  0.4884  0.8177
 8180SOL     OW36001   2.412   2.679   7.014  0.2866  0.0723 -0.2575
 8180SOL    HW136002   2.471   2.674   6.939 -0.7869 -0.3535 -1.0838
 8180SOL    HW236003   2.454   2.624   7.079 -0.0858 -1.6464 -1.4625
 8181SOL     OW36004   0.579   1.686  12.703 -0.0250  0.1273  0.5588
 8181SOL    HW136005   0.653   1.626  12.693 -1.1893 -1.2302  0.0043
 8181SOL    HW236006   0.569   1.713  12.612  0.2767 -1.4021  0.0740
 8182SOL     OW36007   2.898   3.085   4.462  0.0842 -0.1256 -0.1703
 8182SOL    HW136008   2.802   3.082   4.452  0.0239 -1.6355  0.7699
 8182SOL    HW236009   2.915   3.084   4.557  1.1539 -1.1122 -0.3748
 8183SOL     OW36010   1.940   3.348   6.179  0.7630 -0.0592 -0.2949
 8183SOL    HW136011   1.962   3.311   6.264 -0.3558  0.7297  0.3323
 8183SOL    HW236012   1.886   3.425   6.197  2.0941  0.5020  1.2177
 8184SOL     OW36013   0.214   0.849   3.963 -0.1814 -0.8714 -0.2957
 8184SOL    HW136014   0.285   0.792   3.936  0.1978  0.5131 -2.2148
 8184SOL    HW236015   0.244   0.926   4.012  1.4677 -2.6140  1.4352
 8185SOL     OW36016   3.843   0.658  12.362  0.1959 -0.1264  0.5993
 8185SOL    HW136017   3.880   0.605  12.432  2.3445 -0.4760 -0.8014
 8185SOL    HW236018   3.855   0.600  12.287 -1.9423 -0.1391  0.2544
 8186SOL     OW36019   4.582   4.087   6.369  0.1122 -0.2973  0.0552
 8186SOL    HW136020   4.675   4.075   6.349 -0.0015 -0.7909 -0.1974
 8186SOL    HW236021   4.534   4.029   6.310  0.7561 -0.7541 -0.0243
 8187SOL     OW36022   0.004   0.154   4.409  0.5012 -0.3132  0.3691
 8187SOL    HW136023   0.058   0.119   4.339 -0.4544 -1.3928  0.1624
 8187SOL    HW236024   4.639   0.149   4.372  1.0763 -0.8544 -0.9197
 8188SOL     OW36025   1.324   1.244   8.421 -0.1535  0.5472 -0.1199
 8188SOL    HW136026   1.309   1.226   8.328 -0.5276  0.9052 -0.1308
 8188SOL    HW236027   1.240   1.219   8.460 -0.1075  0.7804  0.1298
 8189SOL     OW36028   3.657   2.703  17.477 -0.1942  0.3043 -0.3509
 8189SOL    HW136029   3.585   2.760  17.448  0.9051  2.4612  1.2540
 8189SOL    HW236030   3.699   2.687  17.393 -0.5103  0.2134 -0.4960
 8190SOL     OW36031   0.036   0.220   6.948  0.0391  0.5673  0.1141
 8190SOL    HW136032   0.098   0.227   6.876  1.6004  0.8677  1.4934
 8190SOL    HW236033   0.065   0.132   6.970  2.9486  1.4092 -0.4006
 8191SOL     OW36034   2.227   1.977   6.534  0.2760  0.3420 -0.2466
 8191SOL    HW136035   2.243   2.072   6.537 -0.7028  0.5145 -0.4213
 8191SOL    HW236036   2.153   1.967   6.593  1.1919 -1.3034  0.6018
 8192SOL     OW36037   4.540   4.688   3.011  0.1656  0.1091  0.1797
 8192SOL    HW136038   4.606   4.645   3.064 -0.8039 -1.6253 -0.0154
 8192SOL    HW236039   4.459   4.647   3.043  0.6758 -0.6991  0.4293
 8193SOL     OW36040   3.772   1.750  11.301 -0.0428 -0.1447 -0.2306
 8193SOL    HW136041   3.695   1.806  11.304 -0.5609 -0.7564 -2.0894
 8193SOL    HW236042   3.787   1.734  11.208  1.2141 -1.6707  0.2380
 8194SOL     OW36043   2.995   1.402  14.928 -0.2914 -0.3920  0.8325
 8194SOL    HW136044   3.065   1.449  14.882 -0.4815 -2.3611 -1.4758
 8194SOL    HW236045   2.921   1.437  14.879  1.0389 -0.3132 -1.1645
 8195SOL     OW36046   1.332   3.146   1.186  0.6795  0.5921 -0.4378
 8195SOL    HW136047   1.366   3.180   1.103  2.4901 -0.9937 -0.3505
 8195SOL    HW236048   1.241   3.129   1.164  0.1645  3.5498 -0.6288
 8196SOL     OW36049   4.056   2.577   2.371 -0.1115 -0.0662 -0.5306
 8196SOL    HW136050   4.116   2.634   2.321  0.0405  0.5975  0.4099
 8196SOL    HW236051   4.006   2.646   2.415 -0.4688 -2.7851  3.3323
 8197SOL     OW36052   0.503   2.706   0.867 -0.1124  0.0033 -0.6134
 8197SOL    HW136053   0.457   2.643   0.812 -0.8285 -1.1786  1.3708
 8197SOL    HW236054   0.594   2.694   0.841  0.2349  2.3458 -0.5084
 8198SOL     OW36055   1.184   1.189   4.196 -0.4788  0.3787  0.6742
 8198SOL    HW136056   1.232   1.166   4.276  0.1416 -2.7116 -0.5549
 8198SOL    HW236057   1.205   1.281   4.182 -1.5099  0.7516  1.6003
 8199SOL     OW36058   1.923   0.495   2.944  0.1209  0.4253 -0.0089
 8199SOL    HW136059   1.904   0.559   2.875 -0.1587 -2.9969 -3.1400
 8199SOL    HW236060   2.017   0.479   2.934 -0.3026 -0.5989 -2.3056
 8200SOL     OW36061   1.742   3.784   7.552  0.0049 -0.1000  0.0238
 8200SOL    HW136062   1.778   3.868   7.581  4.6836 -2.0100 -0.3532
 8200SOL    HW236063   1.797   3.728   7.607  0.3600  0.2555  0.0275
 8201SOL     OW36064   4.646   4.221   7.074  0.4377 -0.3692 -0.0397
 8201SOL    HW136065   4.576   4.233   7.138  0.5419 -2.7025  0.5164
 8201SOL    HW236066   4.611   4.187   6.992  0.3892  0.5710 -0.4091
 8202SOL     OW36067   3.393   0.621  17.241 -0.0928 -0.0943  0.6152
 8202SOL    HW136068   3.407   0.715  17.253  1.9515 -0.4096  0.6854
 8202SOL    HW236069   3.343   0.585  17.314  0.4928 -1.4512  0.3559
 8203SOL     OW36070   1.880   2.430  12.708  0.1733 -0.7486 -0.3217
 8203SOL    HW136071   1.952   2.487  12.680  0.6530 -2.0280 -1.7039
 8203SOL    HW236072   1.834   2.413  12.626 -1.9102 -0.2433  0.7359
 8204SOL     OW36073   0.213   3.328   2.250  0.2315 -0.6856  0.1209
 8204SOL    HW136074   0.163   3.279   2.316 -2.8943  2.2841 -0.0238
 8204SOL    HW236075   0.182   3.416   2.272 -2.4665 -2.0547  1.8770
 8205SOL     OW36076   0.024   3.410   6.348 -0.0476  0.0694  0.1343
 8205SOL    HW136077   0.006   3.318   6.369  0.6855 -0.4736 -1.5700
 8205SOL    HW236078   0.116   3.420   6.372  0.1703  0.1425 -0.7127
 8206SOL     OW36079   2.625   2.404   6.675  0.1868  0.0079  0.2841
 8206SOL    HW136080   2.600   2.475   6.616 -0.0347  0.2168  0.6309
 8206SOL    HW236081   2.720   2.420   6.678 -0.2175  2.3636  0.3483
 8207SOL     OW36082   2.123   0.199  10.121  0.3485  0.6769  0.2649
 8207SOL    HW136083   2.178   0.147  10.062  0.0324 -0.0891  0.6412
 8207SOL    HW236084   2.131   0.288  10.088  1.1883  0.9918  1.3049
 8208SOL     OW36085   2.055   0.523   1.884 -0.5031  0.1967 -0.1148
 8208SOL    HW136086   1.972   0.571   1.882  0.2339  1.3813 -3.1161
 8208SOL    HW236087   2.091   0.566   1.807  2.4000  0.1498  1.2365
 8209SOL     OW36088   0.340   0.534   4.120 -0.3074 -0.0656 -0.2786
 8209SOL    HW136089   0.347   0.621   4.160 -0.8769 -0.8399  1.5192
 8209SOL    HW236090   0.434   0.527   4.105 -0.0603  0.1581  1.1003
 8210SOL     OW36091   4.631   1.485   2.150  0.2741  0.2074 -0.4495
 8210SOL    HW136092   4.568   1.489   2.077 -2.5223  0.7019  1.9770
 8210SOL    HW236093   4.674   1.404   2.123 -1.7103 -0.8547 -0.4242
 8211SOL     OW36094   3.926   1.204   2.889  0.5002  0.5551 -0.2062
 8211SOL    HW136095   3.892   1.291   2.871 -0.7806  0.4257  1.5739
 8211SOL    HW236096   3.852   1.171   2.939  1.5833 -0.1915  0.9045
 8212SOL     OW36097   2.779   4.342  11.918 -0.5777 -0.4384 -0.0749
 8212SOL    HW136098   2.791   4.408  11.850 -3.4092  1.2190  1.0539
 8212SOL    HW236099   2.709   4.382  11.969  0.1197  2.1681 -1.1540
 8213SOL     OW36100   3.212   2.769   0.229 -0.3466  0.1221 -0.2780
 8213SOL    HW136101   3.293   2.743   0.272 -0.5859 -0.8030 -0.3943
 8213SOL    HW236102   3.149   2.714   0.276 -1.3701 -1.1622 -3.1708
 8214SOL     OW36103   3.168   3.055   2.850 -0.1825  0.8567  0.1689
 8214SOL    HW136104   3.087   3.004   2.853 -1.7072  3.1994 -0.9386
 8214SOL    HW236105   3.172   3.095   2.763  1.2423  2.5450  1.0134
 8215SOL     OW36106   2.216   3.862  15.414  0.5878 -0.3256  0.1060
 8215SOL    HW136107   2.255   3.936  15.368  1.2097  1.4467  3.4780
 8215SOL    HW236108   2.163   3.826  15.343  0.2495  0.0160  0.1850
 8216SOL     OW36109   0.151   3.928   1.726  0.1951 -0.4255  0.2156
 8216SOL    HW136110   0.189   3.904   1.811 -2.1612 -1.6298  0.9438
 8216SOL    HW236111   0.059   3.904   1.737  0.0408 -1.0163 -2.4814
 8217SOL     OW36112   3.169   1.863   2.937 -0.1448 -0.3693 -0.1989
 8217SOL    HW136113   3.110   1.885   3.010 -0.5626  1.5051 -1.0944
 8217SOL    HW236114   3.133   1.781   2.905  1.8043 -1.5651  0.7301
 8218SOL     OW36115   2.603   3.425   7.941 -0.3850  0.0357  0.1502
 8218SOL    HW136116   2.551   3.473   7.877 -0.6360  0.2998  0.5505
 8218SOL    HW236117   2.681   3.477   7.924 -1.7481  2.2537  0.7932
 8219SOL     OW36118   0.839   1.198   8.652  0.0011  0.2808 -0.5162
 8219SOL    HW136119   0.810   1.161   8.736  2.3197 -0.4994 -0.0535
 8219SOL    HW236120   0.760   1.175   8.604 -0.1830 -0.6393  0.2209
 8220SOL     OW36121   4.233   1.219   8.886 -0.3782 -0.0613  0.2587
 8220SOL    HW136122   4.182   1.201   8.807 -1.1193  1.1332  0.4707
 8220SOL    HW236123   4.180   1.283   8.933  3.1468  1.8682  1.5636
 8221SOL     OW36124   3.319   0.779   6.284  0.1504 -0.1757 -0.5062
 8221SOL    HW136125   3.324   0.874   6.292 -2.9361 -0.0559  0.1905
 8221SOL    HW236126   3.239   0.775   6.231  0.8880  0.2321 -1.6434
 8222SOL     OW36127   3.243   0.019   5.871  0.1622 -0.6067 -0.0981
 8222SOL    HW136128   3.315   4.683   5.889  2.3784  2.0655 -0.1270
 8222SOL    HW236129   3.166   4.696   5.904  0.6038 -0.3159  1.3346
 8223SOL     OW36130   0.204   4.589   5.923  0.0551  0.2045 -0.3758
 8223SOL    HW136131   0.194   4.549   5.837  2.2256 -0.4174 -0.3441
 8223SOL    HW236132   0.287   4.636   5.914  1.0559 -1.2855  1.0520
 8224SOL     OW36133   4.429   0.316   2.047  0.0907  0.5852  0.2777
 8224SOL    HW136134   4.376   0.236   2.051 -1.6709  1.8074  1.0054
 8224SOL    HW236135   4.513   0.269   2.042 -0.1785 -0.0097  1.4286
 8225SOL     OW36136   1.582   1.510  15.553 -0.1045  0.1194 -0.7128
 8225SOL    HW136137   1.513   1.561  15.511  0.4110  2.1805  0.9672
 8225SOL    HW236138   1.544   1.523  15.640  2.7616 -3.2650  1.0537
 8226SOL     OW36139   3.866   2.437   1.631  0.4994 -0.1335 -0.0494
 8226SOL    HW136140   3.847   2.469   1.543 -1.9818  2.7650  1.5298
 8226SOL    HW236141   3.788   2.463   1.680 -2.0732 -2.7541 -2.7672
 8227SOL     OW36142   0.039   2.754   8.406 -0.0698  0.0556  0.0797
 8227SOL    HW136143   4.678   2.800   8.408 -0.4212 -0.6135  0.9761
 8227SOL    HW236144   0.025   2.694   8.480  1.7745  1.2064  1.3365
 8228SOL     OW36145   3.896   1.298   7.390 -0.1222  0.0574  0.4629
 8228SOL    HW136146   3.987   1.310   7.417 -0.5164  3.9543 -0.0016
 8228SOL    HW236147   3.850   1.348   7.457 -2.0813  0.3154 -1.0524
 8229SOL     OW36148   0.121   0.705   8.792  0.4523 -0.6744 -0.1312
 8229SOL    HW136149   0.029   0.690   8.812  0.5936  0.9515  1.7986
 8229SOL    HW236150   0.151   0.623   8.752  2.4237  0.2003 -0.4442
 8230SOL     OW36151   3.263   1.944   6.657  0.0449  0.8418 -0.4085
 8230SOL    HW136152   3.189   1.895   6.692  1.2731  1.0274  2.4663
 8230SOL    HW236153   3.233   2.034   6.674 -0.3385  1.4176 -4.2785
 8231SOL     OW36154   1.514   2.924   3.827  0.1934  0.9046 -0.0154
 8231SOL    HW136155   1.497   2.843   3.777  1.3029 -0.1674  1.3363
 8231SOL    HW236156   1.526   2.891   3.916 -1.1183  2.1550  0.6125
 8232SOL     OW36157   1.016   1.563  10.950  0.0631  0.6250  0.1491
 8232SOL    HW136158   0.944   1.500  10.954 -0.4916  1.2453  0.0635
 8232SOL    HW236159   1.008   1.597  11.039 -1.9484 -2.5534  1.1701
 8233SOL     OW36160   0.055   3.788  11.294 -0.2466 -0.0096  0.0414
 8233SOL    HW136161   4.702   3.840  11.320 -0.1795 -0.0708  0.3638
 8233SOL    HW236162   0.133   3.819  11.341 -0.6263  1.9191 -0.5824
 8234SOL     OW36163   0.148   2.973   2.352  0.2696  0.2494  0.1891
 8234SOL    HW136164   0.114   3.012   2.271  0.8322 -2.9472 -1.6013
 8234SOL    HW236165   0.062   2.965   2.393  0.1173  1.4008  0.0811
 8235SOL     OW36166   4.675   4.168  14.236  0.0859 -1.1711 -0.0821
 8235SOL    HW136167   4.633   4.119  14.165  0.0500  0.1583 -0.9906
 8235SOL    HW236168   4.627   4.150  14.316 -3.5048  3.3204 -1.2123
 8236SOL     OW36169   1.076   1.760   8.040  0.3113  0.2300  0.3978
 8236SOL    HW136170   1.033   1.813   8.107 -0.0719  0.0944  0.2560
 8236SOL    HW236171   1.029   1.792   7.963  1.1158  2.4248  0.8133
 8237SOL     OW36172   2.027   4.222   5.583 -0.5108 -0.3978  0.1407
 8237SOL    HW136173   2.023   4.311   5.618 -2.0529 -1.2946  2.2292
 8237SOL    HW236174   2.083   4.176   5.646 -0.4850 -1.6805 -0.8272
 8238SOL     OW36175   2.576   1.770   6.905 -0.4381 -0.4838 -0.0262
 8238SOL    HW136176   2.497   1.760   6.852 -1.1984  1.2777  0.7633
 8238SOL    HW236177   2.572   1.693   6.961  1.3885  0.1477  0.9739
 8239SOL     OW36178   2.486   4.078   2.034  0.8410  0.1763 -0.3690
 8239SOL    HW136179   2.439   4.133   2.097  1.1669  1.8851 -1.6261
 8239SOL    HW236180   2.436   4.096   1.954  0.1784  0.5300  0.1268
 8240SOL     OW36181   2.493   0.422   4.417 -0.5224  0.1767  0.2800
 8240SOL    HW136182   2.520   0.399   4.506 -0.9854 -0.4761  0.2575
 8240SOL    HW236183   2.486   0.517   4.423 -1.9676  0.0072  1.4296
 8241SOL     OW36184   4.053   3.085   6.308  0.9717  0.1809  0.0818
 8241SOL    HW136185   4.053   3.146   6.234 -0.6794 -1.1695 -1.0309
 8241SOL    HW236186   4.059   3.004   6.257 -1.8368  0.5818 -0.8505
 8242SOL     OW36187   1.121   3.598   4.390 -0.3425  0.1570 -0.4070
 8242SOL    HW136188   1.058   3.651   4.439 -0.8936 -0.5995 -0.3011
 8242SOL    HW236189   1.194   3.634   4.440 -1.3642 -0.8923  1.8664
 8243SOL     OW36190   2.708   4.436  15.624  0.5712  0.2274 -0.2882
 8243SOL    HW136191   2.672   4.372  15.563  0.8390  0.1372 -0.3530
 8243SOL    HW236192   2.628   4.452  15.674  0.8033  1.5194 -0.3277
 8244SOL     OW36193   4.613   4.111   1.677 -0.2563 -0.2446 -0.7235
 8244SOL    HW136194   4.624   4.060   1.757  2.7970 -0.3088 -1.2128
 8244SOL    HW236195   4.607   4.043   1.610 -0.2055 -1.1294  0.1615
 8245SOL     OW36196   4.318   3.626   5.199 -0.4629 -0.2011  0.7612
 8245SOL    HW136197   4.313   3.721   5.193  2.0877 -0.1539 -0.4074
 8245SOL    HW236198   4.341   3.609   5.290 -1.1328  0.4363  1.0466
 8246SOL     OW36199   0.878   0.721  17.380  0.0321 -0.9323  0.7123
 8246SOL    HW136200   0.879   0.805  17.334  0.2725 -2.7131 -2.5418
 8246SOL    HW236201   0.968   0.687  17.373 -0.8375 -3.2897  0.9531
 8247SOL     OW36202   1.601   1.736  13.051 -0.8099 -0.0954 -0.2141
 8247SOL    HW136203   1.567   1.660  13.100 -1.1360 -0.4774 -1.0383
 8247SOL    HW236204   1.557   1.795  13.113  1.0071 -0.0415  1.0024
 8248SOL     OW36205   3.889   2.074  10.006 -0.6417  0.0436  0.2962
 8248SOL    HW136206   3.819   2.019  10.043 -1.0624  0.9500  0.8575
 8248SOL    HW236207   3.931   2.018   9.942  0.5217  0.9883  0.2441
 8249SOL     OW36208   4.132   0.793   8.200  0.3840  0.0472 -0.1730
 8249SOL    HW136209   4.173   0.852   8.137 -2.7712  0.8798 -1.4643
 8249SOL    HW236210   4.045   0.832   8.209  1.0110  0.8440  2.4122
 8250SOL     OW36211   2.152   0.118   9.341 -0.0960  0.1239  0.2247
 8250SOL    HW136212   2.108   0.200   9.316  0.9081  1.2042  2.0121
 8250SOL    HW236213   2.072   0.071   9.365 -0.0639  0.5467  1.1663
 8251SOL     OW36214   1.639   3.421  12.575 -0.4617  0.5729  0.1875
 8251SOL    HW136215   1.703   3.444  12.641  1.1403 -1.7357 -0.5809
 8251SOL    HW236216   1.602   3.343  12.616 -1.7681  0.3376 -1.3889
 8252SOL     OW36217   1.248   2.695   5.920 -0.2121  0.1717  0.3240
 8252SOL    HW136218   1.202   2.693   6.004 -0.0067  0.5682  0.4489
 8252SOL    HW236219   1.194   2.629   5.877  1.5616 -0.8908 -0.2729
 8253SOL     OW36220   2.661   2.418   2.401 -0.2648  0.3721  0.0155
 8253SOL    HW136221   2.634   2.367   2.325  3.1048 -0.4235 -0.6715
 8253SOL    HW236222   2.645   2.360   2.476 -1.3024  0.2637 -0.2946
 8254SOL     OW36223   2.732   1.196  12.468 -0.5723 -0.3132 -0.0423
 8254SOL    HW136224   2.826   1.190  12.484 -0.5678  0.5360  0.2203
 8254SOL    HW236225   2.710   1.123  12.410  1.2716 -0.0105 -1.1091
 8255SOL     OW36226   0.211   1.067   3.286  0.1260  0.0350 -0.4556
 8255SOL    HW136227   0.187   1.159   3.287  0.5777  0.1555 -1.2019
 8255SOL    HW236228   0.147   1.033   3.349  0.4058 -0.1168 -0.2567
 8256SOL     OW36229   2.798   3.383  15.829  0.0900 -0.5067 -0.1263
 8256SOL    HW136230   2.790   3.400  15.735 -0.8244 -1.0347 -0.1397
 8256SOL    HW236231   2.889   3.353  15.829  1.4996  3.8002 -2.8071
 8257SOL     OW36232   3.499   4.479   3.995 -0.2223 -0.4479  0.2657
 8257SOL    HW136233   3.556   4.442   3.928 -0.6204 -0.0943 -0.2661
 8257SOL    HW236234   3.542   4.450   4.076 -1.8813  0.0590  1.3327
 8258SOL     OW36235   1.309   4.447   8.212  0.2119  0.1944  0.6650
 8258SOL    HW136236   1.239   4.440   8.147  0.2588  2.0081  0.4206
 8258SOL    HW236237   1.275   4.513   8.272 -0.5033  0.0645  0.4059
 8259SOL     OW36238   3.326   4.080   4.959  0.2822  0.0486 -0.5541
 8259SOL    HW136239   3.268   4.132   4.902 -0.3979 -0.7964 -0.6283
 8259SOL    HW236240   3.260   4.042   5.016 -0.0032  1.1174 -0.1788
 8260SOL     OW36241   1.340   4.194  16.867 -0.7421  0.2951 -0.3107
 8260SOL    HW136242   1.310   4.259  16.803  0.2916  1.0304 -0.0297
 8260SOL    HW236243   1.397   4.142  16.811 -1.7419 -1.1235 -0.0263
 8261SOL     OW36244   4.663   2.753   6.173  0.5574  0.5827  0.6946
 8261SOL    HW136245   4.574   2.785   6.186 -0.2084 -1.5370  0.6778
 8261SOL    HW236246   4.686   2.798   6.092  1.0891 -0.3977  0.3008
 8262SOL     OW36247   2.750   1.727   3.212  0.1767 -0.0239 -0.5417
 8262SOL    HW136248   2.694   1.756   3.284  0.7222  0.1492 -0.1875
 8262SOL    HW236249   2.834   1.728   3.259  0.0084 -0.3922 -0.2371
 8263SOL     OW36250   0.689   3.451   8.527 -0.1551  0.2668 -0.6640
 8263SOL    HW136251   0.743   3.530   8.537  1.5645 -1.1170  0.9825
 8263SOL    HW236252   0.630   3.455   8.602  2.2000 -0.7170  1.2577
 8264SOL     OW36253   1.639   4.554   8.329  0.2129  0.3101  0.2589
 8264SOL    HW136254   1.550   4.579   8.306  0.6511  0.2583 -1.4968
 8264SOL    HW236255   1.670   4.498   8.257  1.2189 -0.7175  1.4902
 8265SOL     OW36256   0.035   1.564  15.970 -0.3788 -0.0253 -0.3388
 8265SOL    HW136257   0.098   1.614  16.022  2.0565 -3.0056 -0.4213
 8265SOL    HW236258   4.719   1.630  15.913 -2.2163 -0.4540  0.3906
 8266SOL     OW36259   1.650   2.401  11.777  0.4071 -0.2122 -0.2490
 8266SOL    HW136260   1.649   2.310  11.805 -0.4845  0.4115  1.7926
 8266SOL    HW236261   1.724   2.397  11.717  0.7759  0.5789  0.1492
 8267SOL     OW36262   1.599   0.019   3.992  0.3154 -0.0439 -0.5431
 8267SOL    HW136263   1.551   0.101   4.004 -0.2517  0.0448 -3.4310
 8267SOL    HW236264   1.671   0.047   3.935  1.3223 -0.8267  0.3520
 8268SOL     OW36265   0.469   0.284   1.056 -0.2958  0.2872  0.4665
 8268SOL    HW136266   0.533   0.346   1.021 -0.4977 -0.6421 -1.5345
 8268SOL    HW236267   0.414   0.343   1.108  1.1420  2.8744 -0.9739
 8269SOL     OW36268   1.393   0.736  11.027 -0.0807 -0.3201 -0.7722
 8269SOL    HW136269   1.361   0.654  11.067  0.6156 -0.8049 -1.2156
 8269SOL    HW236270   1.404   0.798  11.099 -0.5170 -1.5330  0.3537
 8270SOL     OW36271   4.400   3.215  17.638 -0.0983  0.0975 -0.1146
 8270SOL    HW136272   4.409   3.309  17.620 -2.5648  0.1680 -1.0686
 8270SOL    HW236273   4.362   3.218   0.032  1.9051  0.5847  0.7240
 8271SOL     OW36274   4.574   0.812   2.477  0.3796 -0.5227  0.5185
 8271SOL    HW136275   4.491   0.767   2.492  1.3741 -3.1054 -1.8791
 8271SOL    HW236276   4.613   0.760   2.408 -0.9029  0.1071 -0.6874
 8272SOL     OW36277   0.207   1.961   4.523  0.2162 -0.3897  0.8415
 8272SOL    HW136278   0.148   2.010   4.579  0.9402 -0.5589  1.7472
 8272SOL    HW236279   0.293   1.987   4.557  0.5178 -1.8052  1.1613
 8273SOL     OW36280   3.563   2.040   5.933 -0.2615 -0.2562 -0.1557
 8273SOL    HW136281   3.588   2.034   5.840  2.7319 -1.7231  0.7424
 8273SOL    HW236282   3.651   2.046   5.969 -1.3615 -1.6578  2.7230
 8274SOL     OW36283   3.805   0.222   7.570 -0.4623  0.1839  0.1014
 8274SOL    HW136284   3.873   0.236   7.636 -0.7021  0.9023  0.2028
 8274SOL    HW236285   3.854   0.201   7.491  0.0681  2.6076 -0.2085
 8275SOL     OW36286   1.323   4.427   8.702 -0.3390  0.5928  0.2659
 8275SOL    HW136287   1.294   4.512   8.735 -3.6381 -0.1328 -0.7899
 8275SOL    HW236288   1.406   4.452   8.659 -0.5680  1.3826  0.2747
 8276SOL     OW36289   4.477   3.902   5.315  0.7009  1.1019 -0.1120
 8276SOL    HW136290   4.417   3.891   5.389  2.6847  1.8024  1.6167
 8276SOL    HW236291   4.409   3.928   5.254 -0.8282  0.8703  1.4875
 8277SOL     OW36292   2.841   0.206  10.241 -0.3775 -0.3632 -0.0226
 8277SOL    HW136293   2.866   0.299  10.236 -1.5071 -0.0303  0.5095
 8277SOL    HW236294   2.929   0.171  10.256  0.2186  1.0621 -0.1560
 8278SOL     OW36295   0.294   0.629   1.236  0.1623 -0.0567 -0.4771
 8278SOL    HW136296   0.389   0.627   1.226  0.1269 -0.2231 -0.7871
 8278SOL    HW236297   0.289   0.668   1.323 -0.9205 -1.9435  0.2903
 8279SOL     OW36298   4.534   4.617  12.041  0.2976 -0.2634 -0.1919
 8279SOL    HW136299   4.549   4.547  12.105  1.2852  0.3616  0.2626
 8279SOL    HW236300   4.581   4.686  12.088  0.4526 -1.4487  1.3896
 8280SOL     OW36301   3.397   2.189  13.220  0.7338  0.2506 -0.5390
 8280SOL    HW136302   3.414   2.230  13.135  3.4645 -2.0609 -1.1135
 8280SOL    HW236303   3.310   2.221  13.244  0.6029 -0.5220  0.0123
 8281SOL     OW36304   1.841   3.157   6.001  0.1950 -0.3510  0.2958
 8281SOL    HW136305   1.873   3.226   6.059 -0.9849 -0.3415  0.9305
 8281SOL    HW236306   1.758   3.144   6.047 -0.9234  1.0303 -1.3273
 8282SOL     OW36307   2.987   1.560   3.077 -0.1689  0.5539 -0.2846
 8282SOL    HW136308   2.937   1.494   3.125 -1.0787  1.2138 -0.3300
 8282SOL    HW236309   3.040   1.597   3.148  0.0081 -0.2959  0.0252
 8283SOL     OW36310   1.758   4.417   9.629 -0.4275  0.0794 -0.4399
 8283SOL    HW136311   1.840   4.376   9.602  0.1517  0.3715  0.8550
 8283SOL    HW236312   1.696   4.412   9.557 -1.9651  0.3521  0.8648
 8284SOL     OW36313   4.500   0.871   4.062 -0.3592  0.0733 -0.0255
 8284SOL    HW136314   4.435   0.847   4.128  0.1553 -0.2421  0.3650
 8284SOL    HW236315   4.460   0.831   3.985  0.9340  1.8650 -1.6440
 8285SOL     OW36316   1.064   3.445  17.416 -0.9358 -0.1938  0.3925
 8285SOL    HW136317   1.008   3.413  17.487  0.7129 -2.2792  0.7661
 8285SOL    HW236318   0.995   3.489  17.366 -1.5109 -1.4280  0.0761
 8286SOL     OW36319   4.197   0.859   7.867  0.0734 -0.4877  0.1786
 8286SOL    HW136320   4.236   0.792   7.811 -1.7840 -1.4813  0.0575
 8286SOL    HW236321   4.105   0.836   7.853  0.2754 -1.1378 -0.0758
 8287SOL     OW36322   2.218   0.661   1.071  0.2943  0.6161 -0.1861
 8287SOL    HW136323   2.245   0.697   1.156  1.9142  0.2288 -0.5378
 8287SOL    HW236324   2.141   0.606   1.085 -1.2081  2.4147 -1.4008
 8288SOL     OW36325   0.408   1.785   7.071  0.1497  0.0785 -0.3366
 8288SOL    HW136326   0.341   1.843   7.036  0.6834 -0.1382 -1.7302
 8288SOL    HW236327   0.394   1.788   7.166  0.0801 -0.6164 -0.3284
 8289SOL     OW36328   3.794   3.310   7.022  0.1535 -0.2415  0.5901
 8289SOL    HW136329   3.832   3.236   7.069  0.9074 -0.5389 -0.4967
 8289SOL    HW236330   3.719   3.335   7.075  0.1505  1.1364 -0.0661
 8290SOL     OW36331   0.565   0.856   2.266 -0.2793  0.4611  0.4146
 8290SOL    HW136332   0.491   0.882   2.211  0.8211  0.9906 -0.8360
 8290SOL    HW236333   0.542   0.763   2.267  0.1120  0.3261 -1.3836
 8291SOL     OW36334   2.301   0.431   4.782  0.4424 -0.0057  1.0568
 8291SOL    HW136335   2.370   0.370   4.756  0.2025 -0.8971  2.5467
 8291SOL    HW236336   2.325   0.513   4.738 -0.0177  0.6966  2.1354
 8292SOL     OW36337   4.093   3.293   2.503  0.0835  0.0483  0.3691
 8292SOL    HW136338   4.177   3.254   2.527  0.7991  1.1216 -0.3786
 8292SOL    HW236339   4.124   3.383   2.506 -0.3545  0.1322  2.7006
 8293SOL     OW36340   0.476   3.937   3.497  0.4085  0.7254  0.0380
 8293SOL    HW136341   0.401   3.954   3.440  0.7349 -1.3885 -1.0387
 8293SOL    HW236342   0.532   3.902   3.428 -0.4880 -1.1189  0.2100
 8294SOL     OW36343   4.554   0.233   6.110  0.3399  0.0138  0.2172
 8294SOL    HW136344   4.572   0.287   6.033 -0.9364  2.5716  1.6978
 8294SOL    HW236345   4.585   0.157   6.060 -0.2364  1.1706 -1.9064
 8295SOL     OW36346   2.790   3.276  11.612  0.0176 -0.3983  0.0911
 8295SOL    HW136347   2.766   3.203  11.555  0.4388  0.0565 -0.6780
 8295SOL    HW236348   2.885   3.267  11.623  0.1311  0.9044  0.1995
 8296SOL     OW36349   1.639   1.256  15.474  0.4871  0.4057 -0.1834
 8296SOL    HW136350   1.609   1.343  15.499 -0.5724  0.1043 -0.3676
 8296SOL    HW236351   1.695   1.226  15.545  1.0727 -1.1169 -1.2922
 8297SOL     OW36352   1.895   4.068   9.685 -0.1193  0.2798  0.9668
 8297SOL    HW136353   1.920   4.134   9.749  3.2166 -0.7835  0.7614
 8297SOL    HW236354   1.935   3.989   9.720  0.6841  0.2101 -0.0900
 8298SOL     OW36355   2.657   1.992   0.935  0.1174  0.2681 -0.6298
 8298SOL    HW136356   2.594   1.998   0.863 -1.2377  1.5378  0.6976
 8298SOL    HW236357   2.588   1.960   0.993 -0.3578  1.9705 -0.2492
 8299SOL     OW36358   2.101   0.477  10.110  0.5889  0.4219 -0.2541
 8299SOL    HW136359   2.150   0.510  10.185  0.4790  0.7769 -0.3410
 8299SOL    HW236360   2.071   0.556  10.066 -1.8752  0.4871  1.4972
 8300SOL     OW36361   2.127   3.674   3.190  0.1434  0.1014  0.4460
 8300SOL    HW136362   2.148   3.752   3.138  0.0381  0.4693  0.9575
 8300SOL    HW236363   2.062   3.705   3.253 -1.2670  0.3846 -1.1441
 8301SOL     OW36364   3.463   0.399  11.352  0.7223  0.9960 -0.0226
 8301SOL    HW136365   3.483   0.356  11.435 -1.3117  1.3604  0.6551
 8301SOL    HW236366   3.391   0.458  11.376 -2.0235 -1.2896 -2.7043
 8302SOL     OW36367   1.534   3.620   7.101  0.2067  0.6648 -0.3632
 8302SOL    HW136368   1.525   3.528   7.124 -1.5509  0.7564 -0.6852
 8302SOL    HW236369   1.575   3.623   7.014 -0.4465 -1.5915 -0.7380
 8303SOL     OW36370   0.113   1.383   4.962 -0.1303  0.1026  0.1736
 8303SOL    HW136371   0.046   1.347   5.021 -0.2296  0.3022  0.1840
 8303SOL    HW236372   0.091   1.347   4.876  2.6360  0.0107 -0.4686
 8304SOL     OW36373   2.863   0.417   8.212 -0.4610  0.2317 -0.3843
 8304SOL    HW136374   2.937   0.442   8.268 -0.0859  0.6609 -1.0670
 8304SOL    HW236375   2.847   0.495   8.158 -1.3577  0.4206  0.1522
 8305SOL     OW36376   1.125   2.509   5.777  0.1027  0.1201 -0.0088
 8305SOL    HW136377   1.152   2.496   5.686 -0.5326 -0.5158 -0.1089
 8305SOL    HW236378   1.152   2.424   5.812  0.4213 -0.0025 -0.5443
 8306SOL     OW36379   1.451   4.678   6.587  0.5686  0.3967  0.0254
 8306SOL    HW136380   1.471   4.677   6.680 -0.4186  1.8081  0.2581
 8306SOL    HW236381   1.397   4.599   6.587  0.9838  0.1152 -0.4438
 8307SOL     OW36382   0.838   3.434   6.781 -0.1076 -0.0365 -0.0436
 8307SOL    HW136383   0.907   3.414   6.844  0.3001 -0.0399 -0.4974
 8307SOL    HW236384   0.764   3.445   6.841  0.4638  0.9638  0.5006
 8308SOL     OW36385   3.601   2.083   7.982 -0.5226  0.1984  0.3652
 8308SOL    HW136386   3.580   2.156   7.923 -0.2002  2.2456  2.7793
 8308SOL    HW236387   3.695   2.065   7.973 -0.7469  0.4131 -2.3758
 8309SOL     OW36388   3.565   2.090   4.411  0.1426 -0.4099 -0.0124
 8309SOL    HW136389   3.506   2.162   4.390  2.1575  0.8555 -1.2100
 8309SOL    HW236390   3.593   2.106   4.502 -0.1760  0.6315 -0.0941
 8310SOL     OW36391   3.555   0.557   6.942  0.2034  0.3357  0.0919
 8310SOL    HW136392   3.511   0.603   6.871  0.9063 -2.9539 -2.5102
 8310SOL    HW236393   3.527   0.467   6.924  1.7283  0.1750 -1.4547
 8311SOL     OW36394   0.697   2.776   7.261  0.4741 -0.3426 -0.0671
 8311SOL    HW136395   0.743   2.816   7.188 -0.0817  0.9410  0.2957
 8311SOL    HW236396   0.717   2.843   7.326  1.5332 -1.4968  0.8055
 8312SOL     OW36397   3.388   2.073   6.869 -0.0914  0.3505 -0.8575
 8312SOL    HW136398   3.346   2.002   6.820  1.1520 -1.6722  1.0143
 8312SOL    HW236399   3.326   2.144   6.853 -0.2917  0.4648  0.4272
 8313SOL     OW36400   2.977   4.139   1.884 -0.3558 -0.0751  0.2835
 8313SOL    HW136401   2.918   4.099   1.821  1.6463  1.5112 -2.6205
 8313SOL    HW236402   2.928   4.144   1.966 -0.8233  2.0951 -0.1233
 8314SOL     OW36403   2.051   2.979   2.571 -0.6228 -0.0661  0.1754
 8314SOL    HW136404   2.034   2.892   2.606  1.0604 -0.9084 -1.1365
 8314SOL    HW236405   2.099   2.957   2.491  0.1012  0.7913  0.3715
 8315SOL     OW36406   2.745   3.028  13.335 -0.3501  0.1008 -0.2831
 8315SOL    HW136407   2.784   2.982  13.260 -0.1527 -0.1224 -0.0439
 8315SOL    HW236408   2.793   3.110  13.331 -1.2500  0.6196 -0.4043
 8316SOL     OW36409   2.927   3.924  16.921  0.4225  0.1683 -0.3743
 8316SOL    HW136410   2.946   3.935  17.015 -2.1007  0.0772  0.1627
 8316SOL    HW236411   3.003   3.874  16.894 -0.5147 -1.4505  0.0078
 8317SOL     OW36412   3.193   0.856   7.511  0.1444 -0.1784  0.0767
 8317SOL    HW136413   3.117   0.887   7.560 -0.8781 -1.8325 -0.4399
 8317SOL    HW236414   3.265   0.893   7.561 -0.2551  1.9570 -0.9308
 8318SOL     OW36415   2.379   2.658   2.642  0.1349 -0.3636  0.3480
 8318SOL    HW136416   2.416   2.676   2.556 -1.6658  3.5932  0.3871
 8318SOL    HW236417   2.452   2.607   2.679 -1.7207 -1.4783  2.4438
 8319SOL     OW36418   0.411   4.588   4.116  0.5170 -0.5178 -0.0605
 8319SOL    HW136419   0.501   4.575   4.144  0.1417 -2.2211  0.3374
 8319SOL    HW236420   0.417   4.625   4.028  1.5304 -0.2945  0.1006
 8320SOL     OW36421   1.632   4.062   3.645  0.2815  0.0836  0.4025
 8320SOL    HW136422   1.649   4.088   3.736 -2.1429  0.7837  0.6511
 8320SOL    HW236423   1.550   4.109   3.631  1.5077  1.7521 -1.0475
 8321SOL     OW36424   1.172   3.058   4.875 -0.5236 -0.3906  0.7248
 8321SOL    HW136425   1.243   2.996   4.857  0.0145  0.1706  0.9416
 8321SOL    HW236426   1.194   3.075   4.966  0.4387 -0.1210  0.4407
 8322SOL     OW36427   0.795   1.483   4.616  0.1804  0.4351  0.4989
 8322SOL    HW136428   0.727   1.550   4.606 -1.0745 -0.6808  1.5675
 8322SOL    HW236429   0.791   1.455   4.708  1.5226  1.7791  0.9718
 8323SOL     OW36430   3.745   2.716  14.072 -0.3124  0.4048 -0.3738
 8323SOL    HW136431   3.698   2.792  14.107 -0.3711 -1.0557  2.7539
 8323SOL    HW236432   3.836   2.740  14.058  0.1874 -0.8938  0.6197
 8324SOL     OW36433   0.658   1.114  12.586  0.1011 -0.0113  0.0703
 8324SOL    HW136434   0.569   1.082  12.570  0.5069 -0.7436 -0.7182
 8324SOL    HW236435   0.688   1.053  12.653 -0.6388 -1.5623 -1.0019
 8325SOL     OW36436   2.967   2.887   2.591 -0.3441 -0.6511 -0.3995
 8325SOL    HW136437   3.040   2.930   2.546 -0.5744 -1.4338 -1.5253
 8325SOL    HW236438   2.949   2.815   2.530  1.2544 -1.2666 -0.1381
 8326SOL     OW36439   2.148   3.824   2.774 -0.0652 -0.5576 -0.1839
 8326SOL    HW136440   2.243   3.830   2.772 -0.0459 -0.1558  2.1765
 8326SOL    HW236441   2.124   3.840   2.682  1.3753 -2.5716 -0.9181
 8327SOL     OW36442   2.619   3.220  16.969 -0.0905 -0.0588  0.8576
 8327SOL    HW136443   2.660   3.302  16.942  1.0637 -0.0811  2.5358
 8327SOL    HW236444   2.532   3.246  16.997  0.1811 -0.5467  2.1615
 8328SOL     OW36445   3.850   1.053   9.791 -0.2071  0.6021  0.0498
 8328SOL    HW136446   3.929   1.079   9.840 -0.7516 -1.3653  1.9403
 8328SOL    HW236447   3.900   1.007   9.724  2.1587  1.9124  0.8789
 8329SOL     OW36448   0.095   0.377   5.072  0.1286  0.3246 -0.3307
 8329SOL    HW136449   0.049   0.351   5.152  2.4483 -0.2952  0.7921
 8329SOL    HW236450   0.034   0.435   5.027 -0.0474 -0.9402 -1.6892
 8330SOL     OW36451   2.345   2.284   8.723  0.1226  0.3665  0.4192
 8330SOL    HW136452   2.394   2.337   8.785  1.8169 -1.3148  0.4902
 8330SOL    HW236453   2.337   2.204   8.774 -0.1190  0.0970 -0.0372
 8331SOL     OW36454   4.634   1.097   6.496  0.5794 -0.9778 -0.1848
 8331SOL    HW136455   4.579   1.078   6.421  1.7155 -0.6479 -1.1068
 8331SOL    HW236456   4.666   1.011   6.524 -2.4080 -1.7488  0.8195
 8332SOL     OW36457   2.364   1.451  10.728  0.1224  0.4156 -0.7337
 8332SOL    HW136458   2.277   1.479  10.701 -0.3199 -1.8291 -1.6641
 8332SOL    HW236459   2.381   1.382  10.664  0.6318 -0.9743  0.9056
 8333SOL     OW36460   2.694   3.038   3.686  0.3440  0.0077 -0.2366
 8333SOL    HW136461   2.772   3.093   3.679  0.4100 -0.2133 -1.3688
 8333SOL    HW236462   2.681   3.037   3.780 -0.9127  0.9727 -0.3899
 8334SOL     OW36463   0.004   3.029   4.576  0.1252 -0.1360 -0.2168
 8334SOL    HW136464   0.014   3.054   4.668  0.4946  2.1714 -0.8941
 8334SOL    HW236465   0.059   2.950   4.581 -3.5255 -2.7349 -1.1058
 8335SOL     OW36466   0.073   2.489   0.198 -0.3135  0.3456 -0.1327
 8335SOL    HW136467   0.119   2.472   0.280  0.3506  1.3402 -0.3056
 8335SOL    HW236468   4.704   2.500   0.224  0.0398  0.8796  0.8493
 8336SOL     OW36469   1.976   4.348   2.559  0.3693  0.5799  0.2867
 8336SOL    HW136470   1.882   4.331   2.551  0.6603  0.1156 -2.1211
 8336SOL    HW236471   1.972   4.423   2.618  1.3101 -0.4136  1.6315
 8337SOL     OW36472   2.421   0.588   3.516  0.2960  0.8413 -0.3531
 8337SOL    HW136473   2.390   0.643   3.587 -0.5776 -0.3869  0.2176
 8337SOL    HW236474   2.371   0.609   3.437 -2.4584  1.1930  1.4718
 8338SOL     OW36475   3.930   2.707   5.142 -0.1229  0.8642 -0.8234
 8338SOL    HW136476   3.953   2.764   5.215 -1.9195  0.2637  0.1953
 8338SOL    HW236477   3.950   2.771   5.074  1.4684  2.6169  1.2747
 8339SOL     OW36478   1.679   4.597  10.210 -0.5544  0.3139 -0.4508
 8339SOL    HW136479   1.758   4.631  10.169 -1.7614  2.1978 -1.1664
 8339SOL    HW236480   1.644   4.550  10.134  1.5509 -0.8876 -0.6826
 8340SOL     OW36481   3.127   1.499  17.121 -0.4096  0.6010 -0.6081
 8340SOL    HW136482   3.103   1.573  17.065  0.1499  1.7783  0.7081
 8340SOL    HW236483   3.045   1.452  17.105 -0.8221  1.1975 -0.2776
 8341SOL     OW36484   3.774   3.383   4.529  0.2555 -0.2860  0.0229
 8341SOL    HW136485   3.835   3.352   4.597 -0.6987  2.2941  2.0473
 8341SOL    HW236486   3.728   3.302   4.507 -0.3977  0.4457 -1.2678
 8342SOL     OW36487   2.571   1.396  16.599 -0.6699 -0.6382 -0.1651
 8342SOL    HW136488   2.498   1.435  16.646  0.5196  2.3486 -0.8417
 8342SOL    HW236489   2.640   1.400  16.665 -1.2011 -0.1830  0.3495
 8343SOL     OW36490   4.469   0.733   1.284  0.4009 -0.1412 -0.1978
 8343SOL    HW136491   4.459   0.816   1.238  1.9350 -0.0788 -0.4190
 8343SOL    HW236492   4.553   0.700   1.253 -1.3384 -2.0226 -2.9454
 8344SOL     OW36493   0.492   4.440   5.855 -0.5363  0.5343  0.4426
 8344SOL    HW136494   0.578   4.449   5.815 -1.1373  0.6440 -0.8336
 8344SOL    HW236495   0.438   4.421   5.778  1.0386 -0.0060 -0.5357
 8345SOL     OW36496   2.321   3.692   6.930  0.2036 -0.1415  0.1587
 8345SOL    HW136497   2.255   3.683   6.999  0.7557  0.2014  0.7316
 8345SOL    HW236498   2.364   3.771   6.961  0.5297 -1.1497  2.2469
 8346SOL     OW36499   3.050   0.172  14.378  0.0727  0.5209 -0.1447
 8346SOL    HW136500   2.962   0.209  14.379 -0.1141  0.2110 -3.1435
 8346SOL    HW236501   3.064   0.113  14.303  0.2743 -0.8193  0.9560
 8347SOL     OW36502   3.161   0.445  14.771 -0.4780  0.1121 -0.0055
 8347SOL    HW136503   3.224   0.489  14.714  0.2310 -1.0119 -0.0977
 8347SOL    HW236504   3.108   0.524  14.779 -1.1946 -0.4083  0.3509
 8348SOL     OW36505   1.427   0.430  14.918 -0.1759 -0.2563  0.1106
 8348SOL    HW136506   1.441   0.413  15.011  3.1126 -1.7418 -0.6566
 8348SOL    HW236507   1.333   0.448  14.906  0.4151  2.4906 -0.5003
 8349SOL     OW36508   4.143   2.452   0.606 -0.1799  0.1760  0.1988
 8349SOL    HW136509   4.105   2.539   0.619 -0.6484 -0.0534  0.3488
 8349SOL    HW236510   4.069   2.400   0.575 -0.2952 -0.4227  1.4794
 8350SOL     OW36511   2.723   1.459  14.785  0.4342  0.2303 -0.1551
 8350SOL    HW136512   2.781   1.534  14.779  0.1943  0.4384  0.1004
 8350SOL    HW236513   2.644   1.492  14.741  0.4986  0.6238  0.0301
 8351SOL     OW36514   2.669   1.183   5.280  0.2397  0.0007 -0.1859
 8351SOL    HW136515   2.691   1.100   5.238  0.1921 -0.3899  0.5631
 8351SOL    HW236516   2.759   1.191   5.313  0.0483 -0.3841  0.4199
 8352SOL     OW36517   2.785   1.164   3.980 -0.4906 -0.1815 -0.4180
 8352SOL    HW136518   2.827   1.179   3.895  3.7617  0.9547  1.8766
 8352SOL    HW236519   2.694   1.184   3.958 -0.6234 -0.3304 -0.0124
 8353SOL     OW36520   3.782   2.824   1.082  0.0249 -0.6904 -0.1597
 8353SOL    HW136521   3.816   2.837   1.170  0.6487  1.2130 -0.6893
 8353SOL    HW236522   3.770   2.915   1.056  1.6054 -0.6562 -0.8121
 8354SOL     OW36523   3.602   0.222   9.126 -0.3030  0.3087 -0.1889
 8354SOL    HW136524   3.529   0.273   9.092  1.0617  1.5583 -1.2280
 8354SOL    HW236525   3.616   0.260   9.213  0.6186  3.4101 -1.7054
 8355SOL     OW36526   3.675   3.063  13.068 -0.2601  0.1801 -0.1730
 8355SOL    HW136527   3.733   3.132  13.035 -1.1435 -0.0130 -2.1263
 8355SOL    HW236528   3.599   3.077  13.011 -0.5430  2.3489  0.7281
 8356SOL     OW36529   1.795   2.164  16.073 -0.5123  0.0983 -0.3076
 8356SOL    HW136530   1.848   2.197  16.146 -1.4569  0.1883  0.3453
 8356SOL    HW236531   1.791   2.241  16.016 -0.1073  0.6207  0.3558
 8357SOL     OW36532   1.802   3.682   8.113 -0.4704 -0.1063  0.1590
 8357SOL    HW136533   1.805   3.729   8.030  1.4874 -1.3529 -0.4810
 8357SOL    HW236534   1.753   3.608   8.079 -0.8052  0.0786  0.2447
 8358SOL     OW36535   0.788   3.155   6.193 -0.8620 -0.0367 -0.8465
 8358SOL    HW136536   0.754   3.244   6.194  1.4203  0.8279 -0.3452
 8358SOL    HW236537   0.734   3.108   6.129 -1.0825  2.0920 -2.2090
 8359SOL     OW36538   0.994   0.397  13.349 -0.6815 -0.5812  0.5628
 8359SOL    HW136539   1.083   0.434  13.346 -2.0330  2.6656  0.6342
 8359SOL    HW236540   0.946   0.474  13.379 -0.5825 -1.3506  2.6767
 8360SOL     OW36541   1.299   0.975   8.935 -0.5083 -0.3145 -0.8988
 8360SOL    HW136542   1.279   0.929   8.854 -4.0167 -1.2599  0.5296
 8360SOL    HW236543   1.267   0.911   8.998 -1.0730  0.7848 -0.0726
 8361SOL     OW36544   3.734   3.814  12.889  0.4374 -0.2240 -0.0747
 8361SOL    HW136545   3.641   3.825  12.867  0.0321  0.2434  1.8665
 8361SOL    HW236546   3.769   3.895  12.850  0.4987 -0.0752  0.2948
 8362SOL     OW36547   0.063   1.859   2.436  0.9075  0.0599  0.1195
 8362SOL    HW136548   0.047   1.770   2.407 -0.4438 -0.4156  2.3396
 8362SOL    HW236549   0.048   1.852   2.531  0.0501  2.1884  0.1456
 8363SOL     OW36550   0.811   0.924   6.273 -0.3743  0.1523 -0.3831
 8363SOL    HW136551   0.804   0.852   6.210 -2.8417 -2.0231  2.4006
 8363SOL    HW236552   0.750   0.988   6.236 -1.8151 -0.3371  1.1114
 8364SOL     OW36553   4.211   4.403   2.358 -0.0226  0.4299 -0.2169
 8364SOL    HW136554   4.220   4.492   2.323 -1.3234  1.1617  1.3188
 8364SOL    HW236555   4.116   4.394   2.360  0.3171 -2.8305  1.1554
 8365SOL     OW36556   4.634   3.241   5.477  0.2446  0.3148  0.1422
 8365SOL    HW136557   4.582   3.188   5.538  2.0888 -3.6749 -1.7179
 8365SOL    HW236558   4.716   3.243   5.526  0.6756  1.6493 -0.6522
 8366SOL     OW36559   0.013   4.613   4.234  0.4865  0.1609  0.4819
 8366SOL    HW136560   4.717   4.521   4.254  0.3600 -0.0783 -0.7115
 8366SOL    HW236561   4.711   4.610   4.141 -0.1470 -0.2471  0.6657
 8367SOL     OW36562   1.156   3.559   7.154 -0.5697  0.4995  0.3574
 8367SOL    HW136563   1.173   3.634   7.212  1.1024  0.2976  0.1447
 8367SOL    HW236564   1.158   3.489   7.219  2.0006 -0.1677 -0.4340
 8368SOL     OW36565   4.351   4.570  16.092  0.0981 -0.2059  0.7530
 8368SOL    HW136566   4.292   4.639  16.122  2.1046  0.7735  2.4785
 8368SOL    HW236567   4.288   4.498  16.086 -0.1178 -0.0021  0.5694
 8369SOL     OW36568   0.545   2.640   2.934  0.4248  0.3256 -0.3968
 8369SOL    HW136569   0.457   2.670   2.956  0.7165  0.9156 -0.0407
 8369SOL    HW236570   0.527   2.598   2.850  1.1620  1.5063 -1.1440
 8370SOL     OW36571   3.437   4.624   0.187 -0.0111  0.0075 -0.1130
 8370SOL    HW136572   3.426   4.671   0.270 -1.0055  1.5193 -1.0907
 8370SOL    HW236573   3.442   4.693   0.121 -1.1512  0.9217  0.7618
 8371SOL     OW36574   4.359   0.193  16.616 -0.4543  0.2801  0.1582
 8371SOL    HW136575   4.352   0.163  16.707 -0.5028  0.2005  0.1279
 8371SOL    HW236576   4.452   0.214  16.601 -0.3006  0.5305  1.4893
 8372SOL     OW36577   0.859   4.364   7.364  0.3555 -0.6926 -0.4487
 8372SOL    HW136578   0.873   4.297   7.297 -2.6719 -0.2615 -1.5428
 8372SOL    HW236579   0.892   4.324   7.444 -0.0491 -1.0940 -0.4806
 8373SOL     OW36580   2.928   3.757   7.150  0.1428 -0.3082  0.8486
 8373SOL    HW136581   2.909   3.669   7.185 -4.1041 -1.1265 -3.5283
 8373SOL    HW236582   3.003   3.740   7.093  0.3435  0.9410  0.7463
 8374SOL     OW36583   2.428   1.316  10.285 -0.1369 -0.4918  0.6481
 8374SOL    HW136584   2.496   1.371  10.246 -0.3567  0.8893  2.2061
 8374SOL    HW236585   2.353   1.374  10.280  0.5632  0.4940  1.5088
 8375SOL     OW36586   4.556   4.066   3.671  0.2428 -0.1524 -0.0720
 8375SOL    HW136587   4.515   3.990   3.711 -0.4546  1.0454  1.4562
 8375SOL    HW236588   4.487   4.091   3.610 -0.4231 -1.5993  0.0910
 8376SOL     OW36589   1.798   0.592  16.947 -0.4900 -0.1884  0.1301
 8376SOL    HW136590   1.811   0.670  17.002  1.1423  0.1148 -0.6882
 8376SOL    HW236591   1.792   0.628  16.858 -0.2956 -1.0024 -0.2084
 8377SOL     OW36592   3.342   1.016   6.401  0.0763  0.3269 -1.0661
 8377SOL    HW136593   3.388   1.092   6.365 -0.1467  1.0421  0.1590
 8377SOL    HW236594   3.405   0.987   6.467 -0.2723 -2.0658 -1.7841
 8378SOL     OW36595   2.080   0.784   3.006  0.2060  0.8698  0.1520
 8378SOL    HW136596   1.990   0.812   2.987 -1.2952 -2.6096  2.0270
 8378SOL    HW236597   2.068   0.692   3.030 -1.4870  0.4598 -2.2870
 8379SOL     OW36598   1.441   1.812   3.293 -0.1879 -0.1081  0.3575
 8379SOL    HW136599   1.431   1.721   3.319  0.8567 -0.6076 -0.9833
 8379SOL    HW236600   1.416   1.807   3.201 -0.7174  0.5322  0.4668
 8380SOL     OW36601   2.969   2.039   9.438 -0.1999  0.0482  0.7174
 8380SOL    HW136602   3.054   2.064   9.402 -0.0885 -1.8306 -0.2785
 8380SOL    HW236603   2.985   2.053   9.532 -0.9517 -0.1092  0.8640
 8381SOL     OW36604   3.841   2.332   3.164  0.3308 -0.0071  0.7500
 8381SOL    HW136605   3.877   2.284   3.089  0.6024  1.0343  0.2107
 8381SOL    HW236606   3.768   2.273   3.185  0.3068 -0.6920 -1.2347
 8382SOL     OW36607   3.819   2.064   6.080 -0.1203  0.5563 -0.0407
 8382SOL    HW136608   3.883   2.014   6.030  0.5600  1.3224  0.0808
 8382SOL    HW236609   3.815   2.021   6.166 -1.3829  1.5721  0.4083
 8383SOL     OW36610   2.000   4.303  16.573  0.2946  0.4039  0.1604
 8383SOL    HW136611   2.047   4.315  16.491 -1.0535  2.1484 -0.3618
 8383SOL    HW236612   1.970   4.391  16.597 -0.2668  1.0394 -2.9703
 8384SOL     OW36613   1.868   3.154   5.435  0.0467  0.6117 -0.0494
 8384SOL    HW136614   1.868   3.180   5.527  0.7848  3.1096 -0.7672
 8384SOL    HW236615   1.799   3.088   5.432  1.2855 -0.6053 -1.6245
 8385SOL     OW36616   1.466   0.073   8.847 -0.2373  0.4041  0.6378
 8385SOL    HW136617   1.446   4.708   8.877  0.0059  0.1732  0.1205
 8385SOL    HW236618   1.500   0.113   8.927  0.8537 -1.0786  0.9038
 8386SOL     OW36619   3.049   1.783  13.350  0.0912 -0.5966 -0.4461
 8386SOL    HW136620   3.137   1.746  13.338  0.2988 -0.1890 -0.1564
 8386SOL    HW236621   3.005   1.720  13.407 -1.8197 -0.3243 -1.6155
 8387SOL     OW36622   3.601   3.600   1.702 -0.1280 -0.4092 -0.2203
 8387SOL    HW136623   3.545   3.563   1.634 -0.3147 -0.3332 -0.1074
 8387SOL    HW236624   3.567   3.689   1.703 -0.0679 -0.3869 -0.1586
 8388SOL     OW36625   0.364   2.064   7.351  1.0260 -0.0845  0.1103
 8388SOL    HW136626   0.423   2.020   7.412  0.0812 -1.3437  0.1164
 8388SOL    HW236627   0.276   2.042   7.381  0.7898  0.5652 -0.1087
 8389SOL     OW36628   1.777   3.662   0.540  0.2472 -0.2222 -0.1586
 8389SOL    HW136629   1.836   3.618   0.478  0.4329  2.0073 -1.5705
 8389SOL    HW236630   1.733   3.709   0.469 -1.7308 -2.3560 -0.3646
 8390SOL     OW36631   1.243   0.618   2.252  0.1511  0.1629  0.1384
 8390SOL    HW136632   1.293   0.611   2.170  1.9908  0.6055  1.2291
 8390SOL    HW236633   1.151   0.622   2.227 -0.2311 -1.4457  1.2468
 8391SOL     OW36634   0.030   3.091   2.157 -0.0095 -0.3853 -0.1986
 8391SOL    HW136635   4.682   3.107   2.096  0.0382 -0.1205 -0.1829
 8391SOL    HW236636   0.102   3.133   2.110  0.5470 -1.4013 -0.2633
 8392SOL     OW36637   4.050   1.140   5.603 -0.0505  0.4096  0.0109
 8392SOL    HW136638   4.008   1.117   5.685 -0.1321  0.0080 -0.1440
 8392SOL    HW236639   3.997   1.085   5.546  2.5059 -3.8501  1.7636
 8393SOL     OW36640   1.078   0.034   0.063  0.4516 -0.1924 -0.0929
 8393SOL    HW136641   1.097   0.092  17.682 -1.0549  0.4344  0.0185
 8393SOL    HW236642   1.049   4.677   0.018 -0.2090  0.0042 -0.0118
 8394SOL     OW36643   4.492   1.306   6.597 -0.2403 -0.2737 -0.1854
 8394SOL    HW136644   4.430   1.237   6.621  1.4741 -1.1646  1.7553
 8394SOL    HW236645   4.572   1.259   6.572  0.2694 -0.2163  1.3018
 8395SOL     OW36646   0.432   0.048   7.117  0.2246 -0.6335 -0.3172
 8395SOL    HW136647   0.346   0.066   7.155 -0.3013  0.5961 -2.1201
 8395SOL    HW236648   0.481   0.051   7.199 -0.1077 -0.5670 -0.1198
 8396SOL     OW36649   0.498   1.926  14.366 -0.3733 -0.0361 -0.8499
 8396SOL    HW136650   0.490   1.891  14.454 -1.1081  0.5910 -0.6682
 8396SOL    HW236651   0.592   1.927  14.347  0.2803 -1.3605  2.3834
 8397SOL     OW36652   3.556   0.365   4.239  0.0571  0.8444  0.1969
 8397SOL    HW136653   3.547   0.456   4.267  0.2246  0.4923  1.4096
 8397SOL    HW236654   3.468   0.327   4.240 -0.8551  2.9589  1.5950
 8398SOL     OW36655   3.146   2.006   3.441 -0.0986  0.1165 -0.3913
 8398SOL    HW136656   3.100   2.015   3.525 -0.5362  0.1663 -0.6390
 8398SOL    HW236657   3.200   2.085   3.437  0.5852 -0.3733 -0.9381
 8399SOL     OW36658   4.619   1.021  13.923 -0.0671  0.0826  0.0961
 8399SOL    HW136659   4.593   0.968  13.847  0.4476  2.4454 -1.7360
 8399SOL    HW236660   4.703   0.983  13.949  0.5223  0.2481 -1.5091
 8400SOL     OW36661   1.938   3.324   6.898 -0.5208  0.3897  0.0154
 8400SOL    HW136662   1.905   3.235   6.900 -2.3636  1.0897  1.4199
 8400SOL    HW236663   1.851   3.363   6.884 -0.6707 -0.3478 -1.0628
 8401SOL     OW36664   3.000   4.253   9.635  0.2625 -0.6563  0.2338
 8401SOL    HW136665   2.991   4.214   9.548 -3.4332 -2.4001  1.3598
 8401SOL    HW236666   2.966   4.339   9.612  0.5836 -0.4489  0.5454
 8402SOL     OW36667   3.358   0.671   8.474  0.0343 -0.7666  0.3340
 8402SOL    HW136668   3.416   0.660   8.549  2.1186  0.0396 -1.1673
 8402SOL    HW236669   3.274   0.682   8.519 -0.7519  1.9467 -1.7995
 8403SOL     OW36670   4.418   2.008   8.602  0.0486 -0.6148  0.1867
 8403SOL    HW136671   4.386   2.089   8.642  0.4498 -0.3140 -0.1040
 8403SOL    HW236672   4.346   1.976   8.548  0.3443 -1.9466  0.5640
 8404SOL     OW36673   4.613   1.987   8.922 -0.6826  0.4399 -0.0854
 8404SOL    HW136674   4.555   2.019   8.990 -0.3741 -0.5071  0.6236
 8404SOL    HW236675   4.666   1.918   8.961 -0.8832 -0.5019 -1.4595
 8405SOL     OW36676   4.351   0.847  14.635  0.3974 -0.6038  0.0964
 8405SOL    HW136677   4.394   0.792  14.570  0.1432  1.0842 -1.4719
 8405SOL    HW236678   4.401   0.925  14.614  0.5189 -0.9264 -0.8029
 8406SOL     OW36679   2.121   1.845  12.920 -0.1242  0.0268 -0.0568
 8406SOL    HW136680   2.167   1.916  12.874 -1.7733  0.7491 -0.5759
 8406SOL    HW236681   2.095   1.784  12.851 -0.8795 -0.4757  0.6747
 8407SOL     OW36682   0.249   3.767   8.141  0.0419  0.7427 -0.4347
 8407SOL    HW136683   0.279   3.755   8.051 -1.4429  0.3198 -0.8721
 8407SOL    HW236684   0.156   3.748   8.130  0.6898 -2.6965 -0.1978
 8408SOL     OW36685   1.783   1.146   5.085 -0.5622  0.2812 -0.2832
 8408SOL    HW136686   1.693   1.142   5.118 -0.4121  1.0710  0.2419
 8408SOL    HW236687   1.786   1.225   5.030  2.1321  0.2023 -0.2333
 8409SOL     OW36688   4.350   2.972   8.543  0.2159  0.5005  0.5566
 8409SOL    HW136689   4.381   2.975   8.633  0.5850  0.1793  0.4405
 8409SOL    HW236690   4.291   3.046   8.551  0.4976  0.7859 -0.0004
 8410SOL     OW36691   4.557   4.581  12.514  0.2851  0.0370 -0.3207
 8410SOL    HW136692   4.484   4.520  12.523  0.9266 -1.0556 -2.3547
 8410SOL    HW236693   4.613   4.516  12.471  0.4383  1.2869 -1.9864
 8411SOL     OW36694   3.617   3.370   2.639 -0.5699 -0.0316  0.1869
 8411SOL    HW136695   3.683   3.302   2.651 -0.8239 -0.3771 -0.3578
 8411SOL    HW236696   3.572   3.372   2.723  0.3240  2.0835  0.6177
 8412SOL     OW36697   3.186   1.583   7.039  0.0827  0.3473 -0.7805
 8412SOL    HW136698   3.092   1.579   7.024  0.8034  0.4128 -5.2063
 8412SOL    HW236699   3.186   1.613   7.130 -0.8813  2.7294 -1.5654
 8413SOL     OW36700   3.458   3.190   8.693  0.3374 -0.3671  0.0688
 8413SOL    HW136701   3.537   3.244   8.691  0.0720  0.0481  0.7664
 8413SOL    HW236702   3.472   3.120   8.629 -0.8284 -0.2189 -0.3521
 8414SOL     OW36703   3.565   1.939  11.267  0.2410  0.5888 -0.3554
 8414SOL    HW136704   3.546   2.012  11.326 -0.2477 -0.8594  1.2701
 8414SOL    HW236705   3.615   1.989  11.202  1.1891  1.0315  0.7037
 8415SOL     OW36706   2.876   2.536   4.714  0.0668  0.0581 -0.5895
 8415SOL    HW136707   2.893   2.482   4.791  0.1284  0.7375 -0.1320
 8415SOL    HW236708   2.937   2.497   4.651  0.5874  1.1882 -0.7718
 8416SOL     OW36709   0.181   4.585   4.613 -0.1445 -0.4725  0.4957
 8416SOL    HW136710   0.208   4.665   4.568  4.3706 -1.0155  2.2868
 8416SOL    HW236711   0.219   4.593   4.700  3.0436 -0.0950 -0.9275
 8417SOL     OW36712   3.483   3.926   4.083  0.4411  0.2559  0.0188
 8417SOL    HW136713   3.498   3.931   3.989  0.9949  1.6225  0.1792
 8417SOL    HW236714   3.388   3.937   4.085  0.5424  0.9813  0.8584
 8418SOL     OW36715   3.949   4.242   1.259  0.1897 -0.2086 -0.5315
 8418SOL    HW136716   3.875   4.300   1.240 -0.4764 -0.9924 -0.3179
 8418SOL    HW236717   4.000   4.239   1.179 -1.0396 -1.7627 -1.2454
 8419SOL     OW36718   1.069   3.858  14.333 -0.2272 -0.9000 -0.2019
 8419SOL    HW136719   0.975   3.842  14.323 -0.2707 -1.3114  0.9589
 8419SOL    HW236720   1.102   3.769  14.322  1.7458 -0.0539 -1.1486
 8420SOL     OW36721   2.722   0.722   5.322 -0.5305 -0.0560 -0.7031
 8420SOL    HW136722   2.648   0.715   5.382 -1.8442  1.2446 -2.1837
 8420SOL    HW236723   2.718   0.636   5.280  0.0234  1.2028 -3.3841
 8421SOL     OW36724   2.888   3.592   1.115  0.0061 -0.3024 -0.9587
 8421SOL    HW136725   2.826   3.662   1.134  0.5027  0.2986 -1.5694
 8421SOL    HW236726   2.828   3.519   1.133  0.5780 -1.2055 -2.7142
 8422SOL     OW36727   4.259   1.403   3.919  0.5032 -0.0050  0.0558
 8422SOL    HW136728   4.180   1.453   3.898  0.9996  0.7818  0.0643
 8422SOL    HW236729   4.337   1.457   3.912  0.2764  0.2129 -0.8492
 8423SOL     OW36730   2.607   0.946   8.597  0.6891 -0.4296  0.3806
 8423SOL    HW136731   2.700   0.959   8.615  0.7585  1.2708 -1.2155
 8423SOL    HW236732   2.564   0.954   8.682  1.1274  4.4497  0.1520
 8424SOL     OW36733   4.459   3.508   2.070 -0.2711  0.0194 -0.0352
 8424SOL    HW136734   4.393   3.455   2.114 -1.4866  0.1129 -1.7410
 8424SOL    HW236735   4.445   3.473   1.982 -0.6500  0.9129 -0.3292
 8425SOL     OW36736   1.012   3.344   7.541 -0.9028 -0.0315 -0.2209
 8425SOL    HW136737   1.034   3.288   7.467 -0.1049  1.1341 -0.8648
 8425SOL    HW236738   0.926   3.316   7.571 -1.0229  2.3803  1.7195
 8426SOL     OW36739   4.175   3.555   5.786 -0.6191  0.4098 -0.2306
 8426SOL    HW136740   4.133   3.640   5.796 -2.8704 -0.7025 -0.0521
 8426SOL    HW236741   4.102   3.497   5.808 -0.5894  1.4124  2.4900
 8427SOL     OW36742   1.777   2.171   5.879  0.2651  0.2240  0.0189
 8427SOL    HW136743   1.741   2.180   5.791  0.2046  3.8518  0.3973
 8427SOL    HW236744   1.775   2.260   5.915  0.0780  0.7158 -1.2174
 8428SOL     OW36745   1.925   1.241   9.131 -0.2488  0.6315  0.4821
 8428SOL    HW136746   1.918   1.228   9.225  1.4588  2.2440  0.8359
 8428SOL    HW236747   1.963   1.329   9.129 -0.1905  0.5538 -2.4520
 8429SOL     OW36748   4.714   4.443   9.301 -0.3645 -0.4106  0.6658
 8429SOL    HW136749   0.038   4.373   9.256 -0.6039 -0.7285  0.9048
 8429SOL    HW236750   4.709   4.513   9.237  1.5516  0.4459  1.4715
 8430SOL     OW36751   0.567   1.714   2.218 -0.2987  0.3672 -0.1913
 8430SOL    HW136752   0.530   1.802   2.211  1.6517  1.2125  0.1255
 8430SOL    HW236753   0.532   1.681   2.301  1.0410 -1.6096 -0.4281
 8431SOL     OW36754   2.845   0.996  10.462  0.3225  0.1238 -0.5184
 8431SOL    HW136755   2.847   0.901  10.454  1.1944  0.1442 -0.5509
 8431SOL    HW236756   2.848   1.035  10.374 -0.5702  0.2410 -0.4970
 8432SOL     OW36757   4.413   2.361  17.506 -0.9182  0.0159  0.1502
 8432SOL    HW136758   4.353   2.360  17.432 -0.0670  0.2003 -0.5387
 8432SOL    HW236759   4.461   2.440  17.482  1.4465 -1.3152  0.5232
 8433SOL     OW36760   2.858   0.580   2.541 -0.5904 -0.1232  0.4025
 8433SOL    HW136761   2.787   0.625   2.585 -0.1471  1.2860 -0.2916
 8433SOL    HW236762   2.862   0.605   2.448 -0.8553  0.2877  0.5038
 8434SOL     OW36763   2.764   3.344  15.264 -0.2040 -0.0945  0.0396
 8434SOL    HW136764   2.700   3.336  15.193 -0.7092 -0.3833  0.5262
 8434SOL    HW236765   2.810   3.261  15.265 -2.2667 -1.2758 -2.8390
 8435SOL     OW36766   1.135   2.722   7.820 -0.2090 -0.2190  0.0102
 8435SOL    HW136767   1.206   2.758   7.767 -0.7438 -0.4834 -0.8972
 8435SOL    HW236768   1.149   2.627   7.812  1.0722 -0.2073  2.3041
 8436SOL     OW36769   1.742   0.237   4.981  0.5227  0.2782 -0.3519
 8436SOL    HW136770   1.791   0.305   4.934 -1.5211  1.5707 -0.5913
 8436SOL    HW236771   1.727   0.169   4.916 -0.7734  0.3552 -0.1351
 8437SOL     OW36772   2.756   2.698  10.744 -0.5499 -0.4633  0.3942
 8437SOL    HW136773   2.782   2.616  10.703 -0.6281 -0.2775 -0.0272
 8437SOL    HW236774   2.696   2.731  10.676 -0.4069  1.4036  1.1678
 8438SOL     OW36775   4.165   3.279   7.951 -0.3393  0.3192 -0.6242
 8438SOL    HW136776   4.166   3.274   8.046  0.7419  1.0434 -0.5978
 8438SOL    HW236777   4.104   3.206   7.943 -0.5144  0.4045 -0.0820
 8439SOL     OW36778   1.469   3.418   8.275  0.1425  0.4812  0.5616
 8439SOL    HW136779   1.386   3.407   8.227 -0.7392  0.5627  2.0843
 8439SOL    HW236780   1.492   3.505   8.242  0.3818 -0.1399 -0.9325
 8440SOL     OW36781   0.383   3.089   7.908 -0.4538 -0.6258 -0.4057
 8440SOL    HW136782   0.370   3.093   8.003 -0.8737 -0.8568 -0.4530
 8440SOL    HW236783   0.390   2.995   7.891  1.4350 -0.7923  1.3955
 8441SOL     OW36784   4.416   0.559  13.306  0.2635  0.0563 -0.0181
 8441SOL    HW136785   4.354   0.487  13.293 -0.6771  0.5400  1.7178
 8441SOL    HW236786   4.367   0.638  13.283 -4.0511 -2.3449  0.8689
 8442SOL     OW36787   3.702   1.310   3.707 -0.6430 -0.1437 -0.4833
 8442SOL    HW136788   3.691   1.299   3.613 -0.6783 -0.1068 -0.4836
 8442SOL    HW236789   3.635   1.255   3.746 -0.4312  1.0006  1.4923
 8443SOL     OW36790   1.318   0.009   6.300 -0.6397 -0.3030 -0.0555
 8443SOL    HW136791   1.369   4.692   6.229  2.3216  3.1423  0.1100
 8443SOL    HW236792   1.369   4.705   6.377  1.2278  1.8704 -0.5414
 8444SOL     OW36793   0.857   2.204   2.849 -0.0436 -0.0747 -0.0484
 8444SOL    HW136794   0.863   2.273   2.783  0.0078 -2.1241 -2.1379
 8444SOL    HW236795   0.918   2.136   2.821  1.0550  0.2556  1.5024
 8445SOL     OW36796   4.611   1.763  16.707  0.0590 -0.5079 -0.6741
 8445SOL    HW136797   4.706   1.775  16.717  0.2771 -1.1193 -1.9792
 8445SOL    HW236798   4.599   1.756  16.612 -1.4360  0.4348 -0.5474
 8446SOL     OW36799   3.907   1.334   0.181  0.2393  0.3349  0.0616
 8446SOL    HW136800   3.845   1.283   0.234  0.6608 -0.5231 -0.2721
 8446SOL    HW236801   3.931   1.402   0.244  0.7749  0.3191 -0.1274
 8447SOL     OW36802   0.856   0.754   7.097 -0.5016 -0.1627 -0.4582
 8447SOL    HW136803   0.947   0.745   7.124 -0.6921 -1.5354 -0.3198
 8447SOL    HW236804   0.834   0.840   7.134  1.2791  0.0422  0.1020
 8448SOL     OW36805   0.401   2.568   3.895 -0.3756 -0.5104 -0.0871
 8448SOL    HW136806   0.492   2.541   3.908  0.3999  0.7860 -3.0049
 8448SOL    HW236807   0.386   2.530   3.809  2.4490  0.5304 -1.0421
 8449SOL     OW36808   3.884   2.710  11.263  0.0181 -0.5111 -0.0658
 8449SOL    HW136809   3.820   2.779  11.278 -0.1688 -0.7156  0.0868
 8449SOL    HW236810   3.902   2.724  11.171 -1.7181 -2.4296 -0.7039
 8450SOL     OW36811   1.541   0.477   3.165  0.0120  0.3189 -0.3769
 8450SOL    HW136812   1.485   0.547   3.131 -0.3939  0.7936  1.2744
 8450SOL    HW236813   1.474   0.417   3.195  0.0827  1.0480  1.2050
 8451SOL     OW36814   2.844   4.454   9.012  0.3372  0.3637  0.0136
 8451SOL    HW136815   2.903   4.471   8.939  1.0664  1.2333  0.8020
 8451SOL    HW236816   2.759   4.484   8.979 -1.0808 -2.1147  1.3994
 8452SOL     OW36817   1.094   3.728   7.689 -0.0211  0.1510  0.3041
 8452SOL    HW136818   1.187   3.736   7.667  0.0445 -2.7664 -0.4024
 8452SOL    HW236819   1.069   3.671   7.616  1.7203 -0.7574  0.4297
 8453SOL     OW36820   0.277   4.550  15.196  0.0450 -0.2102 -0.8061
 8453SOL    HW136821   0.212   4.555  15.125  0.9091  0.4748 -1.5580
 8453SOL    HW236822   0.230   4.572  15.276  0.1168 -1.6888 -0.3661
 8454SOL     OW36823   3.079   1.825   4.323  0.2029  0.1142  0.1440
 8454SOL    HW136824   3.131   1.763   4.272  1.8953  1.1585  0.6140
 8454SOL    HW236825   3.150   1.860   4.377  0.0894 -0.4855  0.6871
 8455SOL     OW36826   2.697   4.707   7.687  0.2400 -0.3726 -0.3490
 8455SOL    HW136827   2.789   4.686   7.701  0.8135  1.9457 -0.6468
 8455SOL    HW236828   2.654   4.679   7.768 -0.0926  0.6405 -0.1699
 8456SOL     OW36829   3.990   2.861   2.108 -0.3806 -0.5826 -0.2845
 8456SOL    HW136830   3.937   2.929   2.149 -0.1291 -1.3790  1.3563
 8456SOL    HW236831   3.940   2.803   2.050 -3.3433  0.9389  0.7629
 8457SOL     OW36832   3.266   3.358   6.416 -0.0174  0.8403 -0.6046
 8457SOL    HW136833   3.280   3.336   6.324 -0.9773 -1.8903 -0.1019
 8457SOL    HW236834   3.321   3.291   6.457 -1.7434  0.3764  0.9216
 8458SOL     OW36835   3.307   2.633   6.631 -0.0745  0.1465 -0.0763
 8458SOL    HW136836   3.310   2.579   6.551 -2.8769 -2.2948  1.4779
 8458SOL    HW236837   3.377   2.697   6.619  0.7594 -0.4136  1.8260
 8459SOL     OW36838   1.643   1.235   8.204 -0.0725  0.0944  0.0655
 8459SOL    HW136839   1.612   1.269   8.288 -2.6657 -1.6086 -0.2077
 8459SOL    HW236840   1.738   1.248   8.212 -0.5212  2.9420  0.8962
 8460SOL     OW36841   1.115   3.946   5.024 -0.1455 -0.0735 -0.5169
 8460SOL    HW136842   1.037   3.897   4.999  0.0179 -0.3284 -0.5279
 8460SOL    HW236843   1.097   4.034   4.990  2.4704  1.5045  2.1774
 8461SOL     OW36844   1.823   4.532   2.744  0.5131  0.2294 -0.2542
 8461SOL    HW136845   1.865   4.602   2.695  0.6191 -0.3353 -0.9717
 8461SOL    HW236846   1.734   4.568   2.747  2.0916  3.8449  1.5591
 8462SOL     OW36847   1.316   3.311   7.287 -0.1191  0.0015  0.1351
 8462SOL    HW136848   1.370   3.340   7.214 -2.3390  0.8334 -1.1705
 8462SOL    HW236849   1.369   3.320   7.366  0.6829 -0.0791 -0.3994
 8463SOL     OW36850   4.576   1.290   2.516  0.9887 -0.3671  0.4462
 8463SOL    HW136851   4.585   1.195   2.523 -0.4446 -0.4409  1.2974
 8463SOL    HW236852   4.667   1.313   2.535  1.4619 -1.5164 -0.4543
 8464SOL     OW36853   0.414   0.683   7.266 -0.5680 -0.1006  0.0218
 8464SOL    HW136854   0.462   0.751   7.313  0.5726 -0.2019 -1.0036
 8464SOL    HW236855   0.471   0.616   7.228  0.7711  0.6815  0.6572
 8465SOL     OW36856   2.371   1.306  13.711 -0.5528  0.1335  0.7330
 8465SOL    HW136857   2.462   1.284  13.692 -0.9610  0.2675 -1.3137
 8465SOL    HW236858   2.378   1.402  13.708  1.1902 -0.0707 -1.7241
 8466SOL     OW36859   4.703   0.726   2.725 -0.4807  0.0741 -0.0640
 8466SOL    HW136860   4.629   0.671   2.754 -0.0052 -1.0428 -0.9605
 8466SOL    HW236861   4.680   0.744   2.634 -0.5758  0.9851  0.1435
 8467SOL     OW36862   4.314   3.605   0.428  0.1625  0.1008  0.0637
 8467SOL    HW136863   4.225   3.608   0.393  0.7849 -0.6243 -1.5409
 8467SOL    HW236864   4.304   3.543   0.501  1.5534 -0.2531 -0.0587
 8468SOL     OW36865   0.379   2.648   2.458 -0.2343  0.2113  0.0650
 8468SOL    HW136866   0.447   2.660   2.525  1.2529  1.2194 -1.6266
 8468SOL    HW236867   0.392   2.717   2.393 -0.5712 -1.6350 -1.9490
 8469SOL     OW36868   2.156   0.232   3.464  0.2343 -0.2384  0.0545
 8469SOL    HW136869   2.109   0.152   3.441 -0.3619  0.3808 -0.8349
 8469SOL    HW236870   2.195   0.244   3.378 -0.2302  0.0382 -0.1152
 8470SOL     OW36871   3.101   2.025   3.163  0.2770  0.5211  0.6354
 8470SOL    HW136872   3.095   2.003   3.256 -0.0130 -0.1090  0.4711
 8470SOL    HW236873   3.015   2.062   3.144 -0.9845 -2.7365 -0.0978
 8471SOL     OW36874   1.152   0.124   7.506 -0.1968  0.0929  0.1733
 8471SOL    HW136875   1.090   0.196   7.492  0.5767  0.2847 -2.3103
 8471SOL    HW236876   1.125   0.076   7.584 -0.5382 -1.5675 -0.9619
 8472SOL     OW36877   2.354   0.926  13.170 -0.0372  0.4309  0.0977
 8472SOL    HW136878   2.306   0.917  13.088 -0.1468 -0.1149  0.2229
 8472SOL    HW236879   2.433   0.975  13.151  0.1947  0.2450  0.5981
 8473SOL     OW36880   3.796   0.128  15.600 -0.0345  0.3764 -0.7064
 8473SOL    HW136881   3.789   0.167  15.514  2.1942  0.4641 -0.8241
 8473SOL    HW236882   3.889   0.116  15.619 -0.1896  0.1813 -0.0389
 8474SOL     OW36883   1.512   4.078   8.994  0.5056 -0.3988  0.2141
 8474SOL    HW136884   1.472   3.993   9.013 -0.3423 -0.5146 -2.0957
 8474SOL    HW236885   1.492   4.085   8.901 -0.7413  0.1097  0.5152
 8475SOL     OW36886   2.716   1.316   6.081  0.5177  0.3462  0.2798
 8475SOL    HW136887   2.739   1.386   6.020  2.0256  0.6091  1.1574
 8475SOL    HW236888   2.649   1.360   6.135  0.7929 -0.7406  1.5014
 8476SOL     OW36889   3.565   2.792   6.922 -0.0189 -0.1546 -0.4492
 8476SOL    HW136890   3.636   2.855   6.932 -1.2544  1.1124  0.2760
 8476SOL    HW236891   3.614   2.722   6.877 -1.1260 -0.2872 -1.4527
 8477SOL     OW36892   0.909   1.889  15.165 -0.1922 -0.4186  0.4829
 8477SOL    HW136893   0.965   1.836  15.221  0.8622 -1.3668 -1.4552
 8477SOL    HW236894   0.948   1.879  15.078 -2.4876 -2.1854 -0.3216
 8478SOL     OW36895   2.679   3.542   4.248  0.3973  0.8939 -0.4486
 8478SOL    HW136896   2.736   3.529   4.172  0.6225  0.9430 -0.2884
 8478SOL    HW236897   2.733   3.497   4.312 -0.4523  1.9781  1.0350
 8479SOL     OW36898   4.071   0.103   3.450  0.2114 -0.5017  0.6780
 8479SOL    HW136899   4.037   0.179   3.496  0.2634  0.5393 -0.9867
 8479SOL    HW236900   4.130   0.130   3.379 -2.0162  0.8821 -0.6381
 8480SOL     OW36901   3.415   3.731   9.209 -0.2748  0.1028  0.4778
 8480SOL    HW136902   3.368   3.648   9.202  0.5986 -0.2033 -1.8271
 8480SOL    HW236903   3.368   3.786   9.271 -2.1673  0.3821 -1.1973
 8481SOL     OW36904   1.437   4.706   7.597 -0.3772  0.2465  0.5778
 8481SOL    HW136905   1.349   4.670   7.612  0.1136 -1.9375 -1.8433
 8481SOL    HW236906   1.491   4.670   7.667 -0.0461  2.9481  1.7204
 8482SOL     OW36907   4.454   0.101   4.270  0.0376 -0.0634  0.0530
 8482SOL    HW136908   4.454   0.126   4.178  1.5503 -1.4017 -0.3213
 8482SOL    HW236909   4.398   0.023   4.265 -2.0805  1.4288  0.4235
 8483SOL     OW36910   0.626   4.473   7.625  0.5573  0.2278 -0.0111
 8483SOL    HW136911   0.629   4.436   7.536 -2.5268 -0.5827  0.2249
 8483SOL    HW236912   0.666   4.559   7.613  0.0741  0.3589 -0.7463
 8484SOL     OW36913   2.457   4.089  11.467  0.3819  0.5764  0.2176
 8484SOL    HW136914   2.537   4.080  11.520 -0.4282 -1.8001  1.0449
 8484SOL    HW236915   2.396   4.043  11.525  0.6584 -0.7003 -0.5053
 8485SOL     OW36916   1.158   2.021  11.745  0.0408  0.2605  0.0640
 8485SOL    HW136917   1.186   1.947  11.799  4.3290  1.6337 -0.3196
 8485SOL    HW236918   1.096   1.972  11.692 -0.4094  1.2158 -0.2867
 8486SOL     OW36919   3.036   2.550  14.605 -0.7844  0.5107 -0.2248
 8486SOL    HW136920   2.944   2.572  14.589 -0.4436  2.7488  0.9107
 8486SOL    HW236921   3.077   2.614  14.547  1.3377  0.8307  1.6278
 8487SOL     OW36922   3.064   2.732   5.949  0.3482  0.0194 -0.1827
 8487SOL    HW136923   3.042   2.658   6.007 -3.1880 -0.6973 -2.4602
 8487SOL    HW236924   3.095   2.800   6.008 -1.5929  0.8587 -0.1341
 8488SOL     OW36925   1.100   1.241  16.184 -0.3367 -0.0608  0.3330
 8488SOL    HW136926   1.177   1.271  16.233  0.8513  0.7619 -1.9861
 8488SOL    HW236927   1.143   1.183  16.121 -2.7958  0.8294 -2.1789
 8489SOL     OW36928   1.279   1.114  11.241  0.4541 -0.2294 -0.2020
 8489SOL    HW136929   1.196   1.148  11.208  1.4219  1.9815 -0.4066
 8489SOL    HW236930   1.291   1.043  11.178  1.9921 -1.2433  1.2614
 8490SOL     OW36931   1.542   2.213   6.858  0.6316  0.6473  0.0906
 8490SOL    HW136932   1.549   2.176   6.946 -1.0368 -1.8495 -0.8169
 8490SOL    HW236933   1.632   2.245   6.861  1.7606 -2.7077  1.7621
 8491SOL     OW36934   3.259   3.186   6.877 -0.8931  0.0459  0.2684
 8491SOL    HW136935   3.355   3.191   6.885 -0.9276  1.4068 -0.1479
 8491SOL    HW236936   3.236   3.178   6.969  1.7778  0.1862  0.9734
 8492SOL     OW36937   3.276   4.693   7.803  1.1983  0.4740  0.0634
 8492SOL    HW136938   3.218   0.001   7.872  1.7299 -2.4789  1.8081
 8492SOL    HW236939   3.307   4.615   7.847  2.8217  1.1678  0.1381
 8493SOL     OW36940   3.893   0.836   9.205 -0.9647  1.0841 -0.2793
 8493SOL    HW136941   3.911   0.929   9.210 -1.7891  1.2190  0.2169
 8493SOL    HW236942   3.805   0.839   9.168 -0.8284  1.8754 -0.5382
 8494SOL     OW36943   1.809   1.452   3.485  0.0235 -0.2913 -0.1737
 8494SOL    HW136944   1.764   1.431   3.567 -0.9402  1.2778 -0.3086
 8494SOL    HW236945   1.741   1.431   3.421  1.1402 -0.3412 -1.3332
 8495SOL     OW36946   2.943   4.073   8.843 -0.5224 -0.2265  0.1449
 8495SOL    HW136947   2.892   4.049   8.921 -0.8259  0.3852  0.1356
 8495SOL    HW236948   2.916   3.999   8.789 -1.6163  0.0704  0.2874
 8496SOL     OW36949   0.793   3.456   7.359 -0.5391  0.5670 -0.0010
 8496SOL    HW136950   0.735   3.521   7.319  1.5541  2.0131 -0.7129
 8496SOL    HW236951   0.836   3.516   7.420 -0.8421 -0.2775  1.0359
 8497SOL     OW36952   1.143   2.147   4.160 -0.5059 -0.3662  0.0551
 8497SOL    HW136953   1.099   2.122   4.079 -0.5631 -1.0507  0.3004
 8497SOL    HW236954   1.224   2.100   4.138 -0.4187 -0.1880 -0.0124
 8498SOL     OW36955   1.577   0.851   7.465 -0.5687 -0.6671  0.1461
 8498SOL    HW136956   1.667   0.832   7.437 -0.0499  1.1381  0.5840
 8498SOL    HW236957   1.528   0.792   7.407  0.6364 -1.0558 -0.4689
 8499SOL     OW36958   3.007   4.323   5.370 -0.3377  0.0736  0.4396
 8499SOL    HW136959   3.088   4.367   5.342  0.4816 -0.4672  1.9943
 8499SOL    HW236960   3.035   4.268   5.443 -0.8333 -0.1525  0.4609
 8500SOL     OW36961   4.167   1.328  12.016  0.4292  0.0254  0.1292
 8500SOL    HW136962   4.113   1.286  12.083 -0.3893  2.8275  1.2084
 8500SOL    HW236963   4.192   1.407  12.065  1.1003  0.4334 -0.8609
 8501SOL     OW36964   0.759   4.190   9.271 -0.4733  0.2521 -0.0484
 8501SOL    HW136965   0.673   4.200   9.313 -0.1213 -1.2084  1.0390
 8501SOL    HW236966   0.809   4.184   9.352 -0.2951  0.0643 -0.1735
 8502SOL     OW36967   3.762   1.385   9.421  0.6669 -0.0198  0.2392
 8502SOL    HW136968   3.837   1.370   9.479 -0.0196 -0.6704  0.9740
 8502SOL    HW236969   3.807   1.411   9.340  1.8287 -1.8336  0.2956
 8503SOL     OW36970   0.224   2.604   6.141  0.3646  0.3675 -0.2143
 8503SOL    HW136971   0.225   2.672   6.210 -1.6970  0.5393 -0.3409
 8503SOL    HW236972   0.307   2.557   6.150  0.8256  1.1710 -0.2469
 8504SOL     OW36973   2.574   0.890   6.804 -0.1229  0.3017 -0.8552
 8504SOL    HW136974   2.485   0.913   6.830  0.1101  0.8507 -0.5421
 8504SOL    HW236975   2.613   0.972   6.834 -1.1773  0.5182 -0.0908
 8505SOL     OW36976   0.076   3.407   0.013 -0.3822 -0.6017 -0.1126
 8505SOL    HW136977   0.038   3.416   0.100  1.3841 -0.4692  0.6384
 8505SOL    HW236978   0.002   3.434  17.652  0.0772  1.0291  0.0657
 8506SOL     OW36979   1.468   1.546   3.419  0.1445  0.0008  0.5732
 8506SOL    HW136980   1.429   1.459   3.426  0.4291 -0.1099  0.7873
 8506SOL    HW236981   1.521   1.524   3.342 -0.6833  0.3171 -0.0807
 8507SOL     OW36982   0.931   0.868   8.853  0.4934  0.0965 -0.3581
 8507SOL    HW136983   1.015   0.901   8.819 -0.5733  3.2149  0.0614
 8507SOL    HW236984   0.870   0.942   8.850  1.5853  1.0935  1.3987
 8508SOL     OW36985   4.614   1.555   9.394  0.5011  0.0828 -0.4555
 8508SOL    HW136986   4.615   1.620   9.464 -0.0747  1.1660 -1.4651
 8508SOL    HW236987   4.521   1.544   9.376  0.9339  0.1143 -2.6826
 8509SOL     OW36988   0.374   2.734  12.709 -0.1252  0.0276  0.1773
 8509SOL    HW136989   0.407   2.775  12.629 -1.7957  1.2663  0.1189
 8509SOL    HW236990   0.282   2.759  12.703  0.4904  1.7930 -2.2041
 8510SOL     OW36991   2.339   0.094   7.892  0.1751  0.0818 -0.0781
 8510SOL    HW136992   2.283   0.160   7.850  1.9753  0.7209 -1.4732
 8510SOL    HW236993   2.425   0.115   7.855  0.3514  0.5067  0.5693
 8511SOL     OW36994   0.269   3.873   7.552 -0.5203 -0.1168 -0.1741
 8511SOL    HW136995   0.254   3.910   7.465  0.7438  3.5468  1.2069
 8511SOL    HW236996   0.302   3.790   7.516  1.0217 -0.2395  1.5091
 8512SOL     OW36997   4.449   1.868   4.727  0.2974 -0.6341  0.1723
 8512SOL    HW136998   4.476   1.902   4.812 -0.2821  0.7987 -0.2138
 8512SOL    HW236999   4.532   1.836   4.692 -0.0454 -2.1998  0.7979
 8513SOL     OW37000   3.710   1.771   3.777 -0.1066 -0.0440 -0.3641
 8513SOL    HW137001   3.764   1.723   3.841 -1.6754 -0.9331  0.2983
 8513SOL    HW237002   3.653   1.697   3.759  0.6884 -0.6639 -0.3563
 8514SOL     OW37003   0.191   0.429   3.905 -0.4889  0.1987  0.0467
 8514SOL    HW137004   0.179   0.334   3.913 -2.3728  0.5556  1.2693
 8514SOL    HW237005   0.254   0.440   3.976 -0.4447 -1.8762  0.3533
 8515SOL     OW37006   3.972   1.827   1.431  0.6237  0.5818 -0.5614
 8515SOL    HW137007   3.902   1.880   1.396 -0.8198 -1.1012 -0.2218
 8515SOL    HW237008   4.003   1.871   1.510  0.0143  1.5401 -0.8614
 8516SOL     OW37009   3.549   2.385   0.808  0.1855 -0.3399 -0.4949
 8516SOL    HW137010   3.524   2.426   0.891 -1.5979 -0.4756 -0.9544
 8516SOL    HW237011   3.475   2.326   0.797 -0.0405 -0.2268  0.4447
 8517SOL     OW37012   4.546   1.473   8.681  0.2983 -0.4595 -0.5099
 8517SOL    HW137013   4.612   1.420   8.636  1.8117  0.0209  1.1147
 8517SOL    HW237014   4.468   1.418   8.675 -0.3772  0.3213  1.0613
 8518SOL     OW37015   4.688   2.949   7.593  0.1012 -0.3067 -0.2106
 8518SOL    HW137016   4.719   3.005   7.664 -1.9718  0.3490  0.1793
 8518SOL    HW237017   4.707   2.864   7.633  0.9744 -0.4706 -0.9759
 8519SOL     OW37018   2.685   1.213   9.873  0.2534 -1.0070  0.2771
 8519SOL    HW137019   2.741   1.286   9.851 -1.0620 -0.3352 -0.8401
 8519SOL    HW237020   2.759   1.157   9.897  0.4833  0.7689  3.7873
 8520SOL     OW37021   4.543   1.030   3.082  0.3316 -0.2745 -0.0410
 8520SOL    HW137022   4.469   1.091   3.087 -0.7845 -1.7628  1.5531
 8520SOL    HW237023   4.570   1.038   3.173  1.6290 -0.9913 -0.3715
 8521SOL     OW37024   2.120   2.805  15.640  0.5071 -0.0982  0.0357
 8521SOL    HW137025   2.067   2.826  15.717  1.0204  2.6945 -0.3996
 8521SOL    HW237026   2.120   2.709  15.632  1.6526  0.2771 -4.2628
 8522SOL     OW37027   3.177   1.132   3.298 -0.3550  0.0885  0.3536
 8522SOL    HW137028   3.089   1.163   3.275  0.1012  0.3746 -0.9863
 8522SOL    HW237029   3.191   1.068   3.228 -5.1115  1.1787 -1.6455
 8523SOL     OW37030   4.459   0.507  10.507 -0.1060 -0.5121 -0.2180
 8523SOL    HW137031   4.438   0.468  10.422  0.4269 -1.2566 -0.0104
 8523SOL    HW237032   4.376   0.546  10.534 -0.1719 -1.3366  0.7717
 8524SOL     OW37033   3.542   3.926   7.566 -0.3423  0.0674  0.5516
 8524SOL    HW137034   3.504   3.948   7.481  1.3076  1.3499  0.1297
 8524SOL    HW237035   3.588   4.006   7.593  1.8260 -1.0592  0.2133
 8525SOL     OW37036   3.757   0.944  13.479 -0.3794 -0.3711  0.2194
 8525SOL    HW137037   3.815   1.012  13.513  1.8324 -2.5335  0.8110
 8525SOL    HW237038   3.774   0.868  13.536  2.9453 -0.9249 -1.5253
 8526SOL     OW37039   1.549   4.432   1.133 -0.5772  0.2941  0.5506
 8526SOL    HW137040   1.618   4.399   1.190 -2.2786 -0.4688  2.1903
 8526SOL    HW237041   1.479   4.437   1.198 -0.3516 -0.0844  0.8275
 8527SOL     OW37042   4.106   2.154   5.853  0.1815  0.5154  0.2575
 8527SOL    HW137043   4.108   2.083   5.918  0.5816 -0.4224 -0.7783
 8527SOL    HW237044   4.156   2.109   5.785 -1.4766 -1.4681  0.3326
 8528SOL     OW37045   2.246   0.706   5.375 -0.3771  0.1493  0.7828
 8528SOL    HW137046   2.271   0.775   5.313 -2.7798 -1.1528 -1.6711
 8528SOL    HW237047   2.167   0.673   5.332 -0.6025  1.0660  0.5068
 8529SOL     OW37048   0.637   0.329  13.242  0.3172  0.1916  0.8164
 8529SOL    HW137049   0.608   0.323  13.333  0.9461  1.1852  1.0927
 8529SOL    HW237050   0.631   0.424  13.230 -0.3394 -0.3561 -3.0994
 8530SOL     OW37051   0.312   3.972  15.088 -0.1385 -0.5499 -0.2400
 8530SOL    HW137052   0.241   3.917  15.056 -1.6172  1.7366 -0.8410
 8530SOL    HW237053   0.290   3.954  15.180 -1.0270  2.2097  0.0813
 8531SOL     OW37054   2.783   3.459   5.671 -0.1400  0.2477  0.9580
 8531SOL    HW137055   2.836   3.410   5.608  0.1149 -1.4291  2.4691
 8531SOL    HW237056   2.732   3.392   5.717 -1.3118 -0.4259 -1.3014
 8532SOL     OW37057   0.971   3.653   2.322  0.0453 -0.4559 -0.7973
 8532SOL    HW137058   0.901   3.601   2.283  0.7643 -1.1943 -1.0824
 8532SOL    HW237059   0.963   3.732   2.269 -0.3134  1.1354  1.6086
 8533SOL     OW37060   0.974   2.037   8.695 -0.2831 -0.2224  0.2863
 8533SOL    HW137061   1.023   1.960   8.664 -0.2719  0.3331 -1.0919
 8533SOL    HW237062   1.044   2.101   8.682  0.5018 -0.6073  2.7021
 8534SOL     OW37063   2.041   3.856  14.072  0.0453  0.0570 -0.4989
 8534SOL    HW137064   2.134   3.837  14.066  0.1569 -0.0513  1.3233
 8534SOL    HW237065   2.039   3.942  14.113 -1.8111  0.3799 -1.2732
 8535SOL     OW37066   2.990   0.779   5.739 -0.2516 -0.1862 -0.1063
 8535SOL    HW137067   3.012   0.799   5.830  1.1459  1.6266 -0.8364
 8535SOL    HW237068   2.956   0.690   5.749 -1.6646  0.0810 -2.4031
 8536SOL     OW37069   4.402   3.883   5.819  0.1570 -0.2898 -0.4202
 8536SOL    HW137070   4.389   3.882   5.914 -1.3836  2.4423 -0.6128
 8536SOL    HW237071   4.489   3.921   5.806  0.8874 -1.0286  2.1011
 8537SOL     OW37072   3.165   1.640   8.951 -0.4415  0.3625  0.0951
 8537SOL    HW137073   3.248   1.601   8.980 -0.9835  0.8725  2.3818
 8537SOL    HW237074   3.169   1.641   8.856  0.7354  0.1280  0.1347
 8538SOL     OW37075   4.613   3.590   8.327 -0.4776 -0.1149  0.2687
 8538SOL    HW137076   4.526   3.555   8.347 -0.6398 -0.4811 -1.0804
 8538SOL    HW237077   4.653   3.616   8.410  0.3286  0.4471 -0.2931
 8539SOL     OW37078   0.579   4.206   2.898 -0.5523  0.0975 -0.1952
 8539SOL    HW137079   0.502   4.244   2.939  0.3254  1.9615 -0.2793
 8539SOL    HW237080   0.603   4.276   2.836 -0.4932 -1.2943 -1.7517
 8540SOL     OW37081   0.114   2.435   3.971  0.6206  0.1260 -0.7952
 8540SOL    HW137082   0.049   2.414   4.038  0.8039 -2.3178 -1.3682
 8540SOL    HW237083   0.201   2.429   4.012  0.7701 -1.6410 -1.3657
 8541SOL     OW37084   0.468   3.961   2.872  0.2467 -0.0394  1.1037
 8541SOL    HW137085   0.518   4.041   2.890  1.4874 -0.1348 -2.0018
 8541SOL    HW237086   0.383   4.004   2.867 -0.4440 -1.5820 -0.1115
 8542SOL     OW37087   2.938   1.610  17.502  0.0007  0.4707  0.4103
 8542SOL    HW137088   2.882   1.659  17.443 -0.6557 -0.4712  0.2578
 8542SOL    HW237089   2.876   1.571  17.564 -1.4815 -0.7463 -1.8817
 8543SOL     OW37090   3.652   2.001   6.372 -0.4653 -0.0938  0.3780
 8543SOL    HW137091   3.607   1.963   6.297  1.1049  0.2982 -0.7700
 8543SOL    HW237092   3.602   2.080   6.393  2.0868  2.4557 -3.3453
 8544SOL     OW37093   4.111   2.614   9.073 -0.1742 -0.7404 -0.0737
 8544SOL    HW137094   4.155   2.529   9.072  1.4105  0.0710  0.3874
 8544SOL    HW237095   4.187   2.671   9.061 -0.8809  0.3400  0.5921
 8545SOL     OW37096   1.883   0.820   4.440  0.1216  0.7247 -0.5602
 8545SOL    HW137097   1.974   0.837   4.467 -0.1314 -1.3820  1.6526
 8545SOL    HW237098   1.889   0.848   4.349 -1.3611  0.3930 -0.7455
 8546SOL     OW37099   1.144   2.423   3.806 -0.1737  0.0184  0.2158
 8546SOL    HW137100   1.175   2.376   3.729  1.0678 -1.5382  1.6750
 8546SOL    HW237101   1.221   2.394   3.855  2.7284  0.2253 -4.2179
 8547SOL     OW37102   4.328   3.166  17.027  0.1386 -0.1074  0.0269
 8547SOL    HW137103   4.253   3.155  17.085 -0.9208  1.3843 -1.0700
 8547SOL    HW237104   4.328   3.081  16.982 -0.3652  0.3392 -0.8032
 8548SOL     OW37105   0.848   3.748   6.691 -0.1785  0.1375 -0.3034
 8548SOL    HW137106   0.936   3.782   6.673  1.3308 -2.1717  2.4823
 8548SOL    HW237107   0.872   3.656   6.708 -1.2094  0.2498  1.7143
 8549SOL     OW37108   1.204   3.685  17.525  0.0313 -0.1607 -0.0542
 8549SOL    HW137109   1.216   3.648  17.613 -0.3379 -0.0992  0.0252
 8549SOL    HW237110   1.168   3.616  17.469 -0.0281  1.0104 -1.4508
 8550SOL     OW37111   3.917   4.710  10.137 -0.6272 -0.3525 -0.0604
 8550SOL    HW137112   3.914   4.717  10.042  2.1150  1.0425 -0.0377
 8550SOL    HW237113   3.976   0.053  10.172  0.6709 -0.8852 -1.2400
 8551SOL     OW37114   0.383   2.761  16.470  0.0676 -0.2716  0.1334
 8551SOL    HW137115   0.406   2.775  16.378 -1.0924 -0.8664 -0.2474
 8551SOL    HW237116   0.411   2.839  16.517 -1.0998 -1.0788  2.1717
 8552SOL     OW37117   1.539   4.340   4.547  0.3932  0.4330  0.2494
 8552SOL    HW137118   1.580   4.426   4.543 -0.8399  1.0864  1.5710
 8552SOL    HW237119   1.508   4.322   4.459  0.1258  1.4087  0.1493
 8553SOL     OW37120   1.067   0.439  10.569 -0.0494  0.5872  0.1633
 8553SOL    HW137121   1.019   0.521  10.584  0.4404  0.9149 -0.0541
 8553SOL    HW237122   1.093   0.411  10.657 -1.2615 -2.9580 -0.5903
 8554SOL     OW37123   2.209   1.710   7.038 -0.2173 -0.4997  0.0506
 8554SOL    HW137124   2.161   1.647   7.092  0.6755  1.0623  2.6701
 8554SOL    HW237125   2.174   1.700   6.949 -0.0542 -1.8981  0.1362
 8555SOL     OW37126   4.351   3.112  15.160  0.2639 -0.2822 -0.2627
 8555SOL    HW137127   4.411   3.138  15.091  0.5540 -0.8309 -0.2150
 8555SOL    HW237128   4.384   3.031  15.199 -0.9119 -0.7766 -0.2752
 8556SOL     OW37129   3.182   1.184  17.472  0.3688 -0.1402  0.5980
 8556SOL    HW137130   3.107   1.129  17.452  1.3966 -1.0816 -0.6968
 8556SOL    HW237131   3.135   1.260  17.437 -0.6718 -0.1784  1.9100
 8557SOL     OW37132   3.597   2.165   8.442  0.0848 -0.1793 -0.3535
 8557SOL    HW137133   3.542   2.094   8.476 -1.6171  0.7465 -1.1484
 8557SOL    HW237134   3.574   2.250   8.481  2.2012  0.5266 -0.6338
 8558SOL     OW37135   4.141   1.433   5.951 -0.5344  0.1810 -0.0331
 8558SOL    HW137136   4.109   1.473   5.870  0.9480  1.1053 -0.1481
 8558SOL    HW237137   4.183   1.513   5.982 -0.4597  0.5648 -1.1241
 8559SOL     OW37138   3.738   1.985   8.916 -0.2418  0.3014 -0.5291
 8559SOL    HW137139   3.708   2.017   9.001 -0.6810  0.0564 -0.5898
 8559SOL    HW237140   3.798   2.055   8.891  0.5769  0.1523  1.0699
 8560SOL     OW37141   3.086   0.409  10.345  0.3901  0.1291  0.0903
 8560SOL    HW137142   3.136   0.452  10.414  2.5187 -0.0574 -1.3410
 8560SOL    HW237143   3.047   0.485  10.303  1.0981 -0.2584 -1.2513
 8561SOL     OW37144   3.856   0.629   9.738 -0.0098 -0.1743  0.8735
 8561SOL    HW137145   3.838   0.669   9.824 -2.2638 -1.2690  0.9042
 8561SOL    HW237146   3.861   0.535   9.756 -3.5376 -0.6093 -0.4396
 8562SOL     OW37147   1.409   3.894  13.091  0.8443  0.6577 -0.4850
 8562SOL    HW137148   1.320   3.867  13.068  0.9061  2.8002 -3.1910
 8562SOL    HW237149   1.430   3.953  13.019  1.2320  0.3980 -0.5788
 8563SOL     OW37150   3.600   1.332   6.271  0.1255  0.5806  0.2825
 8563SOL    HW137151   3.560   1.295   6.350 -0.7788  0.6674 -0.1349
 8563SOL    HW237152   3.527   1.389   6.247 -1.4193 -1.0044  1.2127
 8564SOL     OW37153   0.973   3.944   7.799  0.1829  0.5736 -0.3010
 8564SOL    HW137154   0.987   3.864   7.747  0.0275 -0.0542  0.6260
 8564SOL    HW237155   1.063   3.950   7.832  0.2085 -1.0009 -0.0797
 8565SOL     OW37156   0.274   1.584   2.197  0.5043  0.4614 -0.1180
 8565SOL    HW137157   0.319   1.500   2.188  1.1741  0.6652  1.3176
 8565SOL    HW237158   0.276   1.613   2.105  0.0985  1.8185  0.3036
 8566SOL     OW37159   1.094   4.199   4.860  0.0278  0.3627  0.3672
 8566SOL    HW137160   1.035   4.218   4.932 -1.0539  0.4932 -0.5432
 8566SOL    HW237161   1.117   4.290   4.841 -1.2150  0.4650 -0.6788
 8567SOL     OW37162   0.340   0.053   4.513  0.2641 -0.0655 -0.0493
 8567SOL    HW137163   0.305   0.050   4.424 -2.8682 -0.7501  1.1871
 8567SOL    HW237164   0.421   0.003   4.503  0.5296  0.0699  1.3681
 8568SOL     OW37165   0.397   3.493   3.897  0.9103  0.0526 -0.0847
 8568SOL    HW137166   0.434   3.434   3.832  0.3440 -0.2617 -0.1145
 8568SOL    HW237167   0.474   3.531   3.941  1.5173  0.3781 -1.4377
 8569SOL     OW37168   0.672   4.162   6.778  0.4297  1.1206 -0.0709
 8569SOL    HW137169   0.676   4.074   6.815 -0.1910  0.1304 -2.3882
 8569SOL    HW237170   0.599   4.204   6.824  0.4855  1.4418 -0.2747
 8570SOL     OW37171   1.442   3.815   8.985 -0.7343  0.5625 -0.7692
 8570SOL    HW137172   1.494   3.778   8.914 -0.8246 -1.1643  0.0524
 8570SOL    HW237173   1.355   3.786   8.955 -1.1835  1.4003 -0.2834
 8571SOL     OW37174   1.937   3.017   6.297  0.2589  0.0150 -0.3996
 8571SOL    HW137175   1.880   3.093   6.313  0.8218  0.4690 -0.5648
 8571SOL    HW237176   1.940   2.975   6.383 -2.4618 -0.0697 -0.3373
 8572SOL     OW37177   4.425   4.362   2.530 -0.2284 -0.3709 -0.3899
 8572SOL    HW137178   4.486   4.432   2.507 -1.8947  0.3773 -2.4750
 8572SOL    HW237179   4.353   4.379   2.469 -0.5651 -2.5744 -0.6173
 8573SOL     OW37180   3.180   2.209   7.545  0.0870  0.2844  0.1121
 8573SOL    HW137181   3.235   2.185   7.470  0.8197  2.7368 -0.1385
 8573SOL    HW237182   3.154   2.125   7.580 -0.1858 -0.7726 -2.6187
 8574SOL     OW37183   0.505   1.332   7.127  0.4604 -0.2181 -0.0697
 8574SOL    HW137184   0.425   1.383   7.117 -1.2498 -2.4875  2.1617
 8574SOL    HW237185   0.515   1.282   7.046 -0.1086  1.8894 -1.4404
 8575SOL     OW37186   0.799   0.160  13.565  0.4871 -0.0858 -0.1442
 8575SOL    HW137187   0.780   0.067  13.569 -1.0951  0.1161 -3.0796
 8575SOL    HW237188   0.809   0.168  13.470  0.0738  2.3731  0.0012
 8576SOL     OW37189   2.926   4.640   8.152  0.0521  0.6129  0.0569
 8576SOL    HW137190   2.879   4.579   8.208  1.3180 -1.5415 -1.2025
 8576SOL    HW237191   2.877   4.719   8.171 -1.8566 -0.8844  1.2654
 8577SOL     OW37192   4.112   2.109  14.861  0.3578 -0.5733  0.2410
 8577SOL    HW137193   4.074   2.163  14.792  1.6264 -1.5319 -1.1936
 8577SOL    HW237194   4.156   2.179  14.910  2.7277 -0.4398 -2.0575
 8578SOL     OW37195   1.096   1.626   8.873  0.1464  0.2658 -0.0954
 8578SOL    HW137196   1.030   1.645   8.941  0.8339 -0.4740  0.7712
 8578SOL    HW237197   1.070   1.537   8.851  0.9264 -0.0912  0.4363
 8579SOL     OW37198   1.758   0.699   0.130 -0.4387  0.0690  0.7985
 8579SOL    HW137199   1.665   0.718   0.142 -0.4278  1.8787 -1.9165
 8579SOL    HW237200   1.746   0.606   0.152  2.7669 -0.8297 -1.1381
 8580SOL     OW37201   4.042   2.742   0.278  0.2313  0.9065  0.2494
 8580SOL    HW137202   3.970   2.805   0.285  0.1359  0.9221 -0.8767
 8580SOL    HW237203   4.041   2.722   0.184 -1.8636  2.9987 -0.1839
 8581SOL     OW37204   3.745   4.362   3.823  0.4721  0.5148  0.3764
 8581SOL    HW137205   3.740   4.442   3.772  3.2353  1.5501  1.7357
 8581SOL    HW237206   3.828   4.379   3.867  1.8314  0.0287 -2.0354
 8582SOL     OW37207   2.499   0.732  10.421  0.3836 -0.6274  0.0202
 8582SOL    HW137208   2.483   0.806  10.363 -0.4317  0.1223  1.2070
 8582SOL    HW237209   2.458   0.765  10.501 -0.8651  0.8373 -1.2112
 8583SOL     OW37210   0.083   2.237   9.219  0.2799  0.3029 -0.6113
 8583SOL    HW137211   0.032   2.290   9.156 -1.7101 -0.9545 -0.0512
 8583SOL    HW237212   0.092   2.153   9.174  0.3033  1.0681 -2.0333
 8584SOL     OW37213   3.383   0.857   8.286  0.0727  0.1043 -0.0900
 8584SOL    HW137214   3.387   0.779   8.340  2.1912  1.1002  1.2236
 8584SOL    HW237215   3.298   0.896   8.306 -0.4897 -1.4547  0.5324
 8585SOL     OW37216   4.465   1.389   7.938 -0.4238 -0.0578  0.4323
 8585SOL    HW137217   4.434   1.385   8.028 -1.8713  0.4822 -0.0389
 8585SOL    HW237218   4.432   1.478   7.923  0.5106  0.2871  0.4006
 8586SOL     OW37219   2.958   0.567   5.060  0.5127  0.1719  0.1189
 8586SOL    HW137220   2.924   0.528   4.979  0.7707  0.0457  0.0730
 8586SOL    HW237221   2.889   0.547   5.124  1.1547  0.8763  1.0175
 8587SOL     OW37222   0.120   0.445   7.641  0.1466  0.1666 -0.2755
 8587SOL    HW137223   0.141   0.508   7.572  1.3825  0.5593  0.4536
 8587SOL    HW237224   0.125   0.363   7.593 -1.7942  0.2023 -0.5329
 8588SOL     OW37225   1.773   3.654  13.170 -0.3198 -0.1650  0.4662
 8588SOL    HW137226   1.715   3.610  13.109 -1.2445  0.2726  1.0322
 8588SOL    HW237227   1.831   3.583  13.198 -0.6855 -1.1704 -1.3165
 8589SOL     OW37228   4.180   4.057   1.961  0.4485 -0.0609 -0.1464
 8589SOL    HW137229   4.233   3.977   1.961  0.3435 -0.1243 -1.1815
 8589SOL    HW237230   4.207   4.093   1.877 -2.2079 -1.2558 -1.4961
 8590SOL     OW37231   1.162   2.359   8.645 -0.2857  0.2282  0.3071
 8590SOL    HW137232   1.235   2.376   8.585  0.4390 -3.5790  0.1339
 8590SOL    HW237233   1.198   2.302   8.713  0.8536 -1.1169 -1.4262
 8591SOL     OW37234   0.271   1.455   7.066  0.8296 -0.3898 -0.0279
 8591SOL    HW137235   0.196   1.399   7.086 -0.0969  0.3542 -1.4889
 8591SOL    HW237236   0.237   1.539   7.036  0.7911 -0.1525  0.6620
 8592SOL     OW37237   2.392   1.920   0.473 -0.2602  0.0235 -0.2823
 8592SOL    HW137238   2.310   1.961   0.446 -0.2733 -0.5876 -1.1623
 8592SOL    HW237239   2.391   1.836   0.428 -0.6325  0.0453 -0.3126
 8593SOL     OW37240   4.644   3.498  17.482  0.5360  0.4336 -0.0201
 8593SOL    HW137241   4.550   3.501  17.499  0.9141  1.4604  1.8554
 8593SOL    HW237242   4.646   3.422  17.423  1.1256 -0.1168  0.7070
 8594SOL     OW37243   1.695   2.590   2.600 -0.1392  0.8652  0.4288
 8594SOL    HW137244   1.740   2.507   2.616 -1.4606  0.1877  0.6742
 8594SOL    HW237245   1.607   2.552   2.593 -0.6239  2.2641 -1.0932
 8595SOL     OW37246   2.746   2.412  10.758  0.2414 -0.0526  0.0029
 8595SOL    HW137247   2.673   2.435  10.816  2.1475 -0.0812  2.4377
 8595SOL    HW237248   2.803   2.356  10.812 -0.4742 -0.8457 -0.0804
 8596SOL     OW37249   0.920   1.482  15.931 -0.2433  0.3567 -0.3508
 8596SOL    HW137250   0.932   1.474  15.837 -1.5466  1.2639 -0.5903
 8596SOL    HW237251   0.828   1.457  15.933  0.0900 -0.9167 -1.1442
 8597SOL     OW37252   3.544   2.173  10.734  0.3050 -0.5178  0.2716
 8597SOL    HW137253   3.471   2.228  10.763  2.5789  2.0022  1.1665
 8597SOL    HW237254   3.542   2.095  10.789  1.8090 -0.4755  0.3705
 8598SOL     OW37255   0.611   0.355  10.702  0.0402  0.5964 -0.4369
 8598SOL    HW137256   0.654   0.429  10.745 -0.3476 -0.1307  1.2311
 8598SOL    HW237257   0.684   0.311  10.657 -0.1124  0.3001 -0.3989
 8599SOL     OW37258   0.383   1.796   8.693  0.5552 -0.0155  0.2407
 8599SOL    HW137259   0.378   1.771   8.785 -0.7705  2.4686  0.8259
 8599SOL    HW237260   0.399   1.890   8.686  0.2727 -0.0631 -1.2112
 8600SOL     OW37261   0.884   2.771  13.069 -0.1358 -0.1518  0.4259
 8600SOL    HW137262   0.849   2.844  13.120  0.4971 -0.8138  1.7945
 8600SOL    HW237263   0.857   2.804  12.982 -1.2139 -0.1827  0.7434
 8601SOL     OW37264   2.585   0.700  12.161 -0.6879  0.0564  0.1658
 8601SOL    HW137265   2.651   0.762  12.128  0.8553 -2.2214 -0.9870
 8601SOL    HW237266   2.524   0.759  12.206 -1.2991 -1.8711  1.8914
 8602SOL     OW37267   2.366   2.534  11.328  0.0219  0.4587 -0.1001
 8602SOL    HW137268   2.433   2.467  11.344 -0.9240 -0.8227 -1.5864
 8602SOL    HW237269   2.415   2.616  11.342 -1.9478  1.9056 -1.6500
 8603SOL     OW37270   1.619   0.462  11.013 -0.0235 -0.3386 -0.1733
 8603SOL    HW137271   1.558   0.442  11.084 -2.5098  2.9767 -1.3651
 8603SOL    HW237272   1.582   0.415  10.938 -0.4747  2.7983 -1.9094
 8604SOL     OW37273   3.016   4.544  11.236  0.0109  0.1507  0.2072
 8604SOL    HW137274   2.927   4.579  11.237  0.3613  1.1711 -2.3320
 8604SOL    HW237275   3.050   4.615  11.290  1.7379 -0.1775 -0.4185
 8605SOL     OW37276   1.970   3.776  16.413 -1.0895 -0.4244 -0.0359
 8605SOL    HW137277   2.044   3.799  16.469 -0.6888 -2.2004  0.1756
 8605SOL    HW237278   1.903   3.745  16.475  1.4508 -1.4222  2.2236
 8606SOL     OW37279   1.873   3.857   6.478 -0.4417  0.4760 -0.6464
 8606SOL    HW137280   1.870   3.925   6.411 -0.9304  0.3817 -0.7211
 8606SOL    HW237281   1.809   3.898   6.536  0.5934 -1.2322  1.7405
 8607SOL     OW37282   4.575   2.972   3.452 -0.1682 -0.3074 -0.3252
 8607SOL    HW137283   4.499   3.028   3.470  0.8927  0.6095  1.3342
 8607SOL    HW237284   4.647   3.033   3.436 -1.1336  0.6841 -0.8971
 8608SOL     OW37285   3.262   1.303   6.656  0.2559 -0.0559 -0.4049
 8608SOL    HW137286   3.191   1.361   6.683  0.3291 -0.7789  1.2868
 8608SOL    HW237287   3.234   1.238   6.721 -0.5848 -1.2298 -1.9364
 8609SOL     OW37288   0.428   1.357  13.798  0.3310  0.0606  0.1593
 8609SOL    HW137289   0.348   1.393  13.759  0.5334  0.1655 -0.1639
 8609SOL    HW237290   0.400   1.353  13.889 -1.8984 -0.1648 -0.5189
 8610SOL     OW37291   2.840   0.434   4.372 -0.6408 -0.1687  0.2351
 8610SOL    HW137292   2.745   0.438   4.368 -0.5839  1.0460 -0.1901
 8610SOL    HW237293   2.854   0.450   4.279  0.8215  0.0651  0.4949
 8611SOL     OW37294   4.366   2.042   5.697  0.0891  0.6809 -0.3817
 8611SOL    HW137295   4.388   2.106   5.764  1.3401  1.7890 -1.8665
 8611SOL    HW237296   4.426   1.971   5.718 -1.7862 -0.0039  2.5887
 8612SOL     OW37297   2.463   1.159   8.471 -0.2349 -0.0153  0.5511
 8612SOL    HW137298   2.505   1.088   8.519  2.6282  1.0402 -0.4053
 8612SOL    HW237299   2.377   1.124   8.450  0.1606 -1.7917  1.9088
 8613SOL     OW37300   3.205   1.071   6.813 -0.0205 -0.6714  0.5594
 8613SOL    HW137301   3.182   0.997   6.869 -0.8470 -0.7640  0.0918
 8613SOL    HW237302   3.201   1.030   6.727 -2.3817 -0.7037  0.6962
 8614SOL     OW37303   4.066   4.480  10.211 -0.1840  0.3464 -0.2653
 8614SOL    HW137304   4.015   4.557  10.184 -0.1670  0.1610 -0.8429
 8614SOL    HW237305   4.059   4.490  10.305  1.2470  1.4229 -0.2778
 8615SOL     OW37306   3.374   1.283   4.370 -0.0016  0.0506 -0.5095
 8615SOL    HW137307   3.361   1.190   4.390 -0.1661 -0.0640 -1.1357
 8615SOL    HW237308   3.391   1.321   4.456 -1.8337 -0.1424 -0.0827
 8616SOL     OW37309   2.631   2.754   8.987  0.0740 -0.3876  0.0603
 8616SOL    HW137310   2.687   2.696   8.936  0.8007 -0.5085  1.0132
 8616SOL    HW237311   2.545   2.716   8.967 -0.6373 -0.1593  2.7120
 8617SOL     OW37312   1.223   2.705   9.502 -0.6383  0.1544  0.5069
 8617SOL    HW137313   1.311   2.686   9.533  0.2003 -0.3529 -2.1746
 8617SOL    HW237314   1.175   2.622   9.499  0.6564 -0.5428 -0.8750
 8618SOL     OW37315   4.214   4.249   3.819 -0.1361 -0.3790  0.7986
 8618SOL    HW137316   4.171   4.298   3.889 -2.6331  0.2743 -1.1887
 8618SOL    HW237317   4.220   4.166   3.866  1.5332 -1.1030 -0.7018
 8619SOL     OW37318   1.143   2.340   0.631  0.0761 -0.3567  0.2398
 8619SOL    HW137319   1.218   2.372   0.681 -1.1986  2.1754  0.5606
 8619SOL    HW237320   1.149   2.249   0.660  1.1632 -0.3823 -0.0873
 8620SOL     OW37321   2.169   1.992   3.946  0.1758  0.2520  0.0449
 8620SOL    HW137322   2.259   1.962   3.935  0.8097  2.3086 -0.3632
 8620SOL    HW237323   2.163   1.996   4.042 -0.7213  1.3394 -0.0526
 8621SOL     OW37324   2.986   0.698   4.297  0.0948  0.1153  0.7245
 8621SOL    HW137325   3.079   0.686   4.280  0.1411  0.1553  0.9437
 8621SOL    HW237326   2.950   0.623   4.249 -1.0850 -0.2340  2.1306
 8622SOL     OW37327   0.793   3.045  13.065 -0.2005  0.3597  0.0293
 8622SOL    HW137328   0.728   3.085  13.008 -0.2700 -0.5410 -0.5263
 8622SOL    HW237329   0.740   3.049  13.145  0.6756 -0.2869  0.6500
 8623SOL     OW37330   4.321   0.145  12.145  0.1594 -0.7537  0.2184
 8623SOL    HW137331   4.312   0.207  12.216 -0.3373 -0.3332 -0.2099
 8623SOL    HW237332   4.367   0.196  12.079 -1.3456  1.1453  0.6372
 8624SOL     OW37333   3.407   2.179   6.482 -0.2354  0.2991  0.3411
 8624SOL    HW137334   3.322   2.179   6.527 -0.8862 -2.1960 -0.9042
 8624SOL    HW237335   3.370   2.152   6.398  0.9239  1.1252 -0.4237
 8625SOL     OW37336   0.966   4.285   8.759  0.1558 -0.1405  0.5031
 8625SOL    HW137337   0.961   4.249   8.670 -0.1731 -1.6912  1.1562
 8625SOL    HW237338   0.969   4.380   8.748  0.4724 -0.2464 -0.3327
 8626SOL     OW37339   1.466   4.383  12.909 -0.0147 -0.2889  0.6467
 8626SOL    HW137340   1.426   4.298  12.925 -2.0850  0.6868  0.6743
 8626SOL    HW237341   1.506   4.375  12.822 -0.7097 -1.2957  0.4196
 8627SOL     OW37342   1.877   1.936   7.904  0.2985  0.3542 -0.3499
 8627SOL    HW137343   1.972   1.939   7.902  0.2495  1.3803 -0.7873
 8627SOL    HW237344   1.855   1.966   7.816 -0.9745  0.3446 -0.0454
 8628SOL     OW37345   2.813   1.230  15.237  0.0097  0.0301 -0.4589
 8628SOL    HW137346   2.760   1.288  15.182  0.3149 -1.6044 -2.4801
 8628SOL    HW237347   2.877   1.187  15.181  0.6746  0.1938  0.1707
 8629SOL     OW37348   1.795   1.601   7.348 -0.3886  0.4192 -0.1998
 8629SOL    HW137349   1.781   1.665   7.278 -2.4368  1.4437  1.1382
 8629SOL    HW237350   1.713   1.604   7.397 -0.6765 -0.2031 -0.6403
 8630SOL     OW37351   4.076   3.335  13.922  0.7893  0.2886  0.2341
 8630SOL    HW137352   4.047   3.261  13.869 -2.0915  0.9461  0.8617
 8630SOL    HW237353   4.028   3.318  14.004 -0.0731 -1.1629 -0.5810
 8631SOL     OW37354   2.248   3.216   3.494  0.1775  0.2121  0.3325
 8631SOL    HW137355   2.311   3.147   3.514 -0.7791 -1.0359 -0.9281
 8631SOL    HW237356   2.309   3.284   3.468  2.1307 -0.8349  2.1905
 8632SOL     OW37357   4.222   0.333  17.669 -0.0093 -0.0808  0.3486
 8632SOL    HW137358   4.243   0.266  17.605  0.8256  2.2826 -1.8445
 8632SOL    HW237359   4.157   0.281   0.023 -0.8454  1.0531  0.4472
 8633SOL     OW37360   4.297   0.261   8.694 -0.4604  0.4957  0.4173
 8633SOL    HW137361   4.221   0.295   8.647  0.0780 -1.4102 -1.8452
 8633SOL    HW237362   4.315   0.322   8.765  1.1119  0.1463  0.3109
 8634SOL     OW37363   3.828   1.535   3.305  0.7167 -0.2556 -0.3660
 8634SOL    HW137364   3.782   1.549   3.222  0.6340 -0.7683 -0.4051
 8634SOL    HW237365   3.905   1.496   3.265  1.3422  0.7923 -0.1765
 8635SOL     OW37366   1.560   1.258   7.953 -0.0260  0.8977 -0.7052
 8635SOL    HW137367   1.575   1.243   8.047 -1.3363  0.4400 -0.5700
 8635SOL    HW237368   1.468   1.284   7.951 -0.6871 -1.3618 -0.3757
 8636SOL     OW37369   1.728   2.987   1.754  0.1083 -0.2551  0.3043
 8636SOL    HW137370   1.793   3.055   1.735 -0.6646  0.8162  1.5287
 8636SOL    HW237371   1.734   2.942   1.670 -1.8823  3.1316 -1.6444
 8637SOL     OW37372   1.300   1.458   7.890 -0.0876  0.5862 -0.5609
 8637SOL    HW137373   1.270   1.470   7.980 -0.3202  1.5001 -0.7578
 8637SOL    HW237374   1.228   1.490   7.835  0.7811  1.2650 -1.2977
 8638SOL     OW37375   1.815   2.493   6.528  0.2446  0.6169 -0.2627
 8638SOL    HW137376   1.832   2.566   6.588 -0.0087 -0.7340  1.4707
 8638SOL    HW237377   1.779   2.543   6.455 -3.1296 -1.6444 -0.1606
 8639SOL     OW37378   3.393   4.281   7.767 -0.4990 -0.5054  0.1306
 8639SOL    HW137379   3.394   4.321   7.680  1.7134  0.9882  0.8302
 8639SOL    HW237380   3.481   4.243   7.772  1.3878  3.5666 -2.3278
 8640SOL     OW37381   4.429   3.353  11.859 -0.6671 -0.4482 -0.5405
 8640SOL    HW137382   4.439   3.401  11.777 -0.1265  0.2353 -0.0764
 8640SOL    HW237383   4.437   3.424  11.922  1.3126 -1.4444  0.3469
 8641SOL     OW37384   3.257   3.218   1.501 -0.2369 -0.1933  0.3834
 8641SOL    HW137385   3.224   3.210   1.412 -2.0259  2.0108  0.8558
 8641SOL    HW237386   3.175   3.208   1.549 -1.0111  0.3722 -0.8129
 8642SOL     OW37387   1.778   2.030   6.092  0.0482  0.2682  0.1941
 8642SOL    HW137388   1.686   2.004   6.090 -0.1501  0.8942  1.3208
 8642SOL    HW237389   1.773   2.095   6.022 -1.4787  1.3862  1.3661
 8643SOL     OW37390   0.579   1.943  14.072  0.7679  0.5465 -0.7555
 8643SOL    HW137391   0.509   1.916  14.132  0.1670 -1.7510 -2.4781
 8643SOL    HW237392   0.653   1.938  14.133  1.6713  1.9158 -1.7430
 8644SOL     OW37393   4.195   4.426   5.866 -0.1026  0.7370  0.0953
 8644SOL    HW137394   4.251   4.352   5.891 -2.2641 -1.0872 -0.4327
 8644SOL    HW237395   4.108   4.387   5.873  0.0404 -0.2468 -3.9713
 8645SOL     OW37396   3.212   0.436   7.102 -0.9244  0.2202 -0.3482
 8645SOL    HW137397   3.287   0.456   7.158 -1.6251  0.3032  0.5494
 8645SOL    HW237398   3.261   0.382   7.040 -0.4228 -0.4044  0.5891
 8646SOL     OW37399   3.169   2.175   8.570  0.0045  0.1259  0.0949
 8646SOL    HW137400   3.161   2.107   8.503 -1.1224  0.1915  0.1527
 8646SOL    HW237401   3.194   2.119   8.643 -0.0313  1.1331  0.8792
 8647SOL     OW37402   3.422   1.756   4.995 -0.0358 -0.4158 -0.6651
 8647SOL    HW137403   3.341   1.705   5.003 -1.8626  2.8409  1.6878
 8647SOL    HW237404   3.391   1.839   5.032 -0.4494 -0.4150 -1.0064
 8648SOL     OW37405   4.126   2.020   3.058 -0.0756 -0.2820  0.0545
 8648SOL    HW137406   4.139   2.080   3.131  0.4366  0.3513 -0.5576
 8648SOL    HW237407   4.198   1.957   3.063  0.7576  0.7836  1.4761
 8649SOL     OW37408   0.713   4.591  17.381 -0.3677 -0.5951 -0.0249
 8649SOL    HW137409   0.641   4.619  17.324 -0.3285  0.9580  0.6748
 8649SOL    HW237410   0.676   4.603  17.469  1.2159 -2.3139  0.8881
 8650SOL     OW37411   1.447   2.958  12.793 -0.6016 -0.8390 -0.3607
 8650SOL    HW137412   1.356   2.939  12.816 -0.8883 -1.3670 -1.9636
 8650SOL    HW237413   1.478   2.961  12.884 -1.0983  2.2939 -0.3226
 8651SOL     OW37414   2.430   4.702   2.220 -0.2331 -0.9367 -0.2297
 8651SOL    HW137415   2.482   0.015   2.292  1.4093  0.5240 -2.1501
 8651SOL    HW237416   2.399   0.065   2.191  0.3058 -1.0473 -1.1431
 8652SOL     OW37417   1.957   4.632   8.424  0.1779 -0.0131  0.4402
 8652SOL    HW137418   1.883   4.574   8.407 -0.1710  0.3199  0.7945
 8652SOL    HW237419   1.908   4.711   8.449 -0.0997 -0.2520  0.6505
 8653SOL     OW37420   4.251   1.227   5.807 -0.2554  0.0344  1.1220
 8653SOL    HW137421   4.188   1.206   5.738  2.3197 -0.2775 -1.1021
 8653SOL    HW237422   4.206   1.294   5.860 -0.8499  0.2469  0.3528
 8654SOL     OW37423   2.368   2.411   4.329 -0.7925  0.9144 -0.5251
 8654SOL    HW137424   2.426   2.336   4.341 -0.5011  1.1793 -0.2499
 8654SOL    HW237425   2.374   2.424   4.234  0.9046 -1.7305 -0.7914
 8655SOL     OW37426   1.686   2.644  16.020  0.6534  0.4984 -0.6939
 8655SOL    HW137427   1.601   2.669  16.055 -0.9918 -2.2778 -2.6206
 8655SOL    HW237428   1.725   2.637  16.107  0.6559  1.5652 -0.6183
 8656SOL     OW37429   1.744   2.451   5.915  0.3126 -0.0332 -0.7319
 8656SOL    HW137430   1.741   2.445   6.010 -0.0005  0.8275 -0.6877
 8656SOL    HW237431   1.665   2.500   5.894  1.2349  1.4482 -0.7530
 8657SOL     OW37432   2.355   2.210   7.177  0.0222  0.0675 -0.5081
 8657SOL    HW137433   2.290   2.201   7.246  2.0752 -1.6798  1.2055
 8657SOL    HW237434   2.361   2.121   7.142  2.7147 -0.6515  1.7698
 8658SOL     OW37435   3.273   2.699  12.291  0.1728 -0.3417  0.3436
 8658SOL    HW137436   3.335   2.718  12.362  1.5061  0.3845 -1.0161
 8658SOL    HW237437   3.231   2.622  12.329 -0.3336  0.4614  1.4194
 8659SOL     OW37438   2.708   0.939   3.592  0.1784  0.7391  0.3817
 8659SOL    HW137439   2.760   1.020   3.589  0.6390  0.4517  0.7977
 8659SOL    HW237440   2.693   0.913   3.501  0.1315 -2.1062  1.2126
 8660SOL     OW37441   1.973   3.462  17.608  0.1764  0.3106  0.3260
 8660SOL    HW137442   1.888   3.467  17.563 -0.4078 -1.8759  1.1810
 8660SOL    HW237443   1.955   3.516  17.685 -0.9230  1.1957 -0.5387
 8661SOL     OW37444   2.065   4.092   2.142 -0.0000 -0.4255 -0.0525
 8661SOL    HW137445   2.057   4.181   2.178  1.0037  0.2335 -1.4679
 8661SOL    HW237446   2.005   4.114   2.071 -1.4300  0.5060  1.4366
 8662SOL     OW37447   2.512   3.599   2.641  0.2173 -0.1202  0.4694
 8662SOL    HW137448   2.603   3.583   2.619 -0.6720  0.2175 -3.4459
 8662SOL    HW237449   2.475   3.515   2.669 -1.2383  0.0556 -0.9327
 8663SOL     OW37450   1.810   2.634  13.361 -0.0246  1.4145 -0.6618
 8663SOL    HW137451   1.827   2.659  13.452 -0.5426 -2.1510  0.4188
 8663SOL    HW237452   1.882   2.672  13.311 -0.5322 -0.9990 -3.2032
 8664SOL     OW37453   1.169   2.675   2.134  0.3175  0.5809  0.0306
 8664SOL    HW137454   1.088   2.719   2.161 -0.3445 -0.4586 -0.2847
 8664SOL    HW237455   1.150   2.583   2.147 -2.0572  1.1260  0.4894
 8665SOL     OW37456   2.803   0.995   7.492  0.0875 -0.0365  0.0629
 8665SOL    HW137457   2.774   1.052   7.563 -0.5301 -0.9767  0.5669
 8665SOL    HW237458   2.857   1.067   7.460 -1.8003  2.0419  1.5803
 8666SOL     OW37459   1.673   3.262  13.350  0.2111  0.3212  0.0772
 8666SOL    HW137460   1.716   3.330  13.403  0.2522 -0.9492  1.6760
 8666SOL    HW237461   1.747   3.226  13.300  0.4692 -0.6111  1.1314
 8667SOL     OW37462   3.982   0.833   6.470 -0.1944  0.3786 -0.0410
 8667SOL    HW137463   3.895   0.802   6.444  0.7318  0.1874 -2.9137
 8667SOL    HW237464   4.007   0.754   6.519  1.0014  1.2471  0.7509
 8668SOL     OW37465   3.854   2.299   4.862 -0.6171  0.1559  0.0890
 8668SOL    HW137466   3.855   2.349   4.944  1.9764  0.8687 -0.3631
 8668SOL    HW237467   3.939   2.255   4.866 -0.6683  0.4301  3.7388
 8669SOL     OW37468   0.179   0.360   6.228  0.0889 -0.1857  0.1448
 8669SOL    HW137469   0.151   0.271   6.204 -0.2120 -0.6731  2.3076
 8669SOL    HW237470   0.272   0.353   6.206  0.0471 -0.4142  0.0382
 8670SOL     OW37471   1.744   3.483  10.038  0.4406  0.3033  0.6999
 8670SOL    HW137472   1.701   3.463  10.121 -1.6613 -0.7126 -0.6272
 8670SOL    HW237473   1.798   3.554  10.072  0.7735 -0.2238  1.2588
 8671SOL     OW37474   4.383   1.037  15.251 -0.4386  0.0769  0.2486
 8671SOL    HW137475   4.359   1.124  15.219 -0.9386 -0.6394 -1.3398
 8671SOL    HW237476   4.448   1.010  15.186 -0.2803  1.5874 -0.2136
 8672SOL     OW37477   2.833   0.998   7.894  0.0319  0.5242  0.5336
 8672SOL    HW137478   2.758   0.940   7.884  0.6018 -0.0044 -0.7890
 8672SOL    HW237479   2.790   1.083   7.899 -1.7651 -0.4241  1.0292
 8673SOL     OW37480   2.265   2.209  14.221 -0.4176 -0.1067  0.3077
 8673SOL    HW137481   2.221   2.267  14.160 -0.2029  0.1750  0.4219
 8673SOL    HW237482   2.327   2.159  14.167  1.3410  1.0546  1.2813
 8674SOL     OW37483   3.652   3.893   2.472 -0.6424 -0.4447  0.2887
 8674SOL    HW137484   3.575   3.888   2.529  0.2099 -1.9367  1.2955
 8674SOL    HW237485   3.679   3.802   2.464  0.0734 -0.2522  0.4554
 8675SOL     OW37486   3.706   2.102   3.354  0.2080 -0.2634  0.3869
 8675SOL    HW137487   3.628   2.046   3.352  1.0241 -1.4886  3.0911
 8675SOL    HW237488   3.678   2.146   3.435  2.9049  0.1434  1.0976
 8676SOL     OW37489   4.615   4.601   5.481  0.7472  0.2748  0.1467
 8676SOL    HW137490   4.662   4.684   5.472  0.4758  0.0377 -3.4954
 8676SOL    HW237491   4.532   4.632   5.518  0.9666 -1.0878  1.7949
 8677SOL     OW37492   2.094   1.865   7.283  0.5283  0.2909  0.0402
 8677SOL    HW137493   2.137   1.935   7.332 -1.0029  0.1584  1.5753
 8677SOL    HW237494   2.167   1.845   7.224 -2.1476  2.1076 -3.8105
 8678SOL     OW37495   3.077   1.266   4.524  0.5891  0.6588 -0.3952
 8678SOL    HW137496   3.012   1.314   4.576  0.5487 -0.1585  0.3101
 8678SOL    HW237497   3.154   1.277   4.579  0.2051 -0.6766  0.4165
 8679SOL     OW37498   0.529   3.790   6.683  0.3142 -0.0964  0.0932
 8679SOL    HW137499   0.614   3.829   6.663  0.7073 -0.0298  1.9084
 8679SOL    HW237500   0.525   3.725   6.612 -1.9536 -1.7681  1.7463
 8680SOL     OW37501   1.491   3.167   2.680  0.2898 -0.1500 -0.4708
 8680SOL    HW137502   1.526   3.099   2.623  0.0638  0.5131 -1.4091
 8680SOL    HW237503   1.561   3.233   2.673 -0.7779  1.0073 -0.3500
 8681SOL     OW37504   4.530   3.297   5.778  0.1201  0.1590  0.4830
 8681SOL    HW137505   4.475   3.251   5.714 -1.9448 -0.6748  2.8772
 8681SOL    HW237506   4.484   3.379   5.793  2.5859  1.4579  0.9208
 8682SOL     OW37507   3.589   3.946  10.932 -0.1732 -0.6105  0.3574
 8682SOL    HW137508   3.551   3.862  10.905 -1.9083 -0.7723  3.2867
 8682SOL    HW237509   3.530   4.015  10.901 -1.7387 -1.4849  1.3723
 8683SOL     OW37510   3.834   0.815  10.189 -0.4483 -0.1695 -0.0765
 8683SOL    HW137511   3.808   0.753  10.122 -2.4475  0.8906 -0.2872
 8683SOL    HW237512   3.862   0.770  10.268 -0.3157  1.2847  0.7193
 8684SOL     OW37513   0.929   2.696  15.072  0.4329  0.0156 -0.8097
 8684SOL    HW137514   0.924   2.777  15.020 -0.7066 -1.2451 -2.6573
 8684SOL    HW237515   1.016   2.673  15.038  0.1096 -2.5980  0.1892
 8685SOL     OW37516   4.074   2.047   8.723  0.3280 -0.2114 -0.5219
 8685SOL    HW137517   4.015   2.085   8.788 -1.0502 -2.9122 -0.2266
 8685SOL    HW237518   4.072   1.953   8.740 -1.4928  0.1977  1.5054
 8686SOL     OW37519   3.044   2.235   5.324 -0.3877 -0.2473 -0.3156
 8686SOL    HW137520   3.051   2.151   5.369  1.5168  0.7347  1.2438
 8686SOL    HW237521   3.125   2.272   5.361 -0.2915 -0.5910 -0.1770
 8687SOL     OW37522   4.025   0.525   2.812 -0.0720 -0.1638 -0.5502
 8687SOL    HW137523   4.106   0.478   2.791 -0.2950 -0.3185 -1.0629
 8687SOL    HW237524   4.027   0.583   2.735  1.0473 -0.5943 -0.8466
 8688SOL     OW37525   2.767   2.641   2.372 -0.5719  0.2769  0.4655
 8688SOL    HW137526   2.729   2.553   2.375  2.8474 -1.2159  0.4799
 8688SOL    HW237527   2.855   2.620   2.401 -0.2871  0.6751 -0.1007
 8689SOL     OW37528   3.887   2.170  16.233 -0.4768 -0.4141  0.1113
 8689SOL    HW137529   3.940   2.143  16.158 -1.1865  3.3464 -1.7644
 8689SOL    HW237530   3.799   2.179  16.196 -0.2453 -0.9609 -0.5815
 8690SOL     OW37531   3.525   4.720  12.605 -0.0958 -0.3614  0.0095
 8690SOL    HW137532   3.527   0.042  12.521  2.6515 -0.5873 -0.0465
 8690SOL    HW237533   3.585   0.055  12.653 -0.6305  1.1259 -1.1058
 8691SOL     OW37534   3.698   0.683   7.579  0.7607 -0.3281  0.3600
 8691SOL    HW137535   3.699   0.750   7.511 -1.3853 -0.5827  0.0673
 8691SOL    HW237536   3.665   0.605   7.536 -2.2282  1.5953 -0.8211
 8692SOL     OW37537   3.089   4.093   7.980  0.7917  0.2530 -0.5435
 8692SOL    HW137538   3.178   4.064   7.960  0.2024 -1.1565 -1.0846
 8692SOL    HW237539   3.105   4.187   7.982 -0.9408  0.5091  2.3401
 8693SOL     OW37540   1.553   3.904   7.130  0.0658  0.4092 -0.1283
 8693SOL    HW137541   1.531   3.812   7.119  0.4687  0.3781 -0.6325
 8693SOL    HW237542   1.500   3.922   7.208  0.6568  0.2107  0.3175
 8694SOL     OW37543   1.886   3.113  10.782 -0.3062 -0.4110 -0.8190
 8694SOL    HW137544   1.893   3.092  10.689 -0.7849  1.7991 -1.3653
 8694SOL    HW237545   1.886   3.027  10.822 -1.5077 -0.0186  0.0125
 8695SOL     OW37546   0.818   4.449   2.699 -0.5275  0.7161 -0.5626
 8695SOL    HW137547   0.861   4.502   2.632  1.2248 -1.2304 -0.9690
 8695SOL    HW237548   0.857   4.362   2.687 -0.0834  0.3966  3.1215
 8696SOL     OW37549   2.076   1.264   3.081 -0.3621 -0.0115 -0.1057
 8696SOL    HW137550   2.119   1.237   3.000  1.0175  1.1805  0.2222
 8696SOL    HW237551   2.110   1.204   3.147  1.7723  2.6580  1.2273
 8697SOL     OW37552   0.320   3.586   1.654 -0.0045 -0.3712 -0.4359
 8697SOL    HW137553   0.329   3.679   1.635 -2.3344 -0.1061 -0.2849
 8697SOL    HW237554   0.412   3.563   1.660 -0.5934 -2.5110  0.7145
 8698SOL     OW37555   2.571   3.125   1.950 -0.1441  0.1893 -0.1354
 8698SOL    HW137556   2.641   3.166   2.000  1.8611 -0.7416 -2.2159
 8698SOL    HW237557   2.618   3.051   1.911 -1.9741 -2.1947  2.1429
 8699SOL     OW37558   3.003   4.504   9.804 -0.2792  0.2053  0.7050
 8699SOL    HW137559   3.073   4.515   9.740 -2.1154 -0.9819 -1.4891
 8699SOL    HW237560   3.051   4.444   9.862 -1.5449 -2.1092 -0.6428
 8700SOL     OW37561   2.041   2.366   6.135  0.0163  0.2995  0.4934
 8700SOL    HW137562   2.126   2.384   6.094 -0.1993 -0.6873 -0.3814
 8700SOL    HW237563   2.030   2.276   6.104 -1.4066  0.2521  1.1022
 8701SOL     OW37564   4.187   0.741   3.604 -0.2774  0.1874  0.4314
 8701SOL    HW137565   4.226   0.827   3.618 -0.2769 -0.0369  1.8515
 8701SOL    HW237566   4.137   0.750   3.523 -1.9897 -1.8333  1.2811
 8702SOL     OW37567   3.327   0.661  15.651 -0.3927 -0.1179  0.6270
 8702SOL    HW137568   3.347   0.669  15.745  1.9496 -0.3561  0.1360
 8702SOL    HW237569   3.336   0.751  15.620  3.3934 -1.0465 -0.9452
 8703SOL     OW37570   3.288   4.031   3.581  0.4713 -0.3488  0.2748
 8703SOL    HW137571   3.336   4.076   3.651  0.3387 -1.8749  1.3479
 8703SOL    HW237572   3.338   4.032   3.500 -1.1226  0.1821 -0.7050
 8704SOL     OW37573   3.308   2.418   1.791  0.0951 -0.0226  0.6312
 8704SOL    HW137574   3.222   2.405   1.831  0.1821  1.1669  1.2122
 8704SOL    HW237575   3.348   2.331   1.787  1.2940  0.5743 -0.4404
 8705SOL     OW37576   0.362   2.658  15.749  0.2395  0.0778  0.4140
 8705SOL    HW137577   0.374   2.578  15.698  0.4507  0.7012 -0.5222
 8705SOL    HW237578   0.325   2.721  15.686 -2.7203 -1.2303  0.8080
 8706SOL     OW37579   1.839   0.868   7.407  0.2398  0.4030  0.4843
 8706SOL    HW137580   1.895   0.946   7.411  1.3847 -0.4703  1.6834
 8706SOL    HW237581   1.893   0.817   7.346 -0.4205  2.8492 -2.1412
 8707SOL     OW37582   3.832   0.758   8.728 -0.4219  0.1320 -0.5022
 8707SOL    HW137583   3.829   0.794   8.639  0.8121  1.7011  0.0985
 8707SOL    HW237584   3.927   0.755   8.743 -0.4449 -2.3681 -0.9134
 8708SOL     OW37585   1.341   2.239  15.581 -0.1257  0.2546 -0.1149
 8708SOL    HW137586   1.375   2.234  15.670  0.7219 -2.0189 -0.5837
 8708SOL    HW237587   1.427   2.255  15.543 -0.8431  0.0629 -1.8118
 8709SOL     OW37588   2.059   0.277   2.638  0.0633  0.2122 -0.6974
 8709SOL    HW137589   2.101   0.333   2.573  1.1824  0.4266  0.2132
 8709SOL    HW237590   2.080   0.321   2.720 -0.4625 -2.1086  0.6712
 8710SOL     OW37591   3.951   0.661   4.688  0.3893  0.3220  0.2318
 8710SOL    HW137592   3.935   0.567   4.699  1.5048  0.0124 -0.8429
 8710SOL    HW237593   4.021   0.684   4.749  0.3720  0.7116  0.1048
 8711SOL     OW37594   0.106   4.285   1.502 -0.3132  0.7171  0.5764
 8711SOL    HW137595   0.102   4.264   1.595  0.5817  0.5565  0.5732
 8711SOL    HW237596   0.127   4.378   1.506 -0.1497  0.7246 -0.6227
 8712SOL     OW37597   0.566   1.838   2.756 -0.4257 -0.1034  0.2434
 8712SOL    HW137598   0.612   1.901   2.701 -0.9421  0.0351 -0.0309
 8712SOL    HW237599   0.625   1.807   2.824  1.7913  1.0749 -1.1403
 8713SOL     OW37600   2.876   4.613   6.851  0.0187 -0.3132  0.2727
 8713SOL    HW137601   2.788   4.645   6.870 -0.7855 -0.9123 -2.3394
 8713SOL    HW237602   2.874   4.619   6.755  0.2769 -0.0923  0.2828
 8714SOL     OW37603   4.305   3.813   4.150 -0.3009 -0.0737 -0.5848
 8714SOL    HW137604   4.339   3.866   4.223 -0.8663 -0.6092  0.0707
 8714SOL    HW237605   4.350   3.731   4.170  0.0726  0.4825  0.8677
 8715SOL     OW37606   0.533   2.179   8.009 -0.1230 -0.0314 -0.5462
 8715SOL    HW137607   0.595   2.142   8.072  0.2591  0.2559 -0.7548
 8715SOL    HW237608   0.453   2.185   8.060  0.8242 -0.8638  1.0263
 8716SOL     OW37609   4.645   2.970   2.614  0.1176  0.0309 -0.3143
 8716SOL    HW137610   4.593   2.987   2.692  1.3540 -1.5510  0.8609
 8716SOL    HW237611   4.584   2.966   2.541 -0.1184 -0.0228 -0.1128
 8717SOL     OW37612   3.108   1.164   7.612 -0.0051  0.4292 -0.0591
 8717SOL    HW137613   3.195   1.159   7.573  0.0327  0.0912  0.0734
 8717SOL    HW237614   3.057   1.205   7.542 -1.1752 -1.9951 -0.6145
 8718SOL     OW37615   3.007   1.428   9.018 -0.1307 -0.0327 -0.1719
 8718SOL    HW137616   3.061   1.501   8.987 -1.9701  1.6608  0.6441
 8718SOL    HW237617   3.027   1.364   8.950  1.3884  0.6313 -0.3448
 8719SOL     OW37618   3.468   0.682   8.714  0.2161 -0.1395  0.3234
 8719SOL    HW137619   3.514   0.766   8.719  0.3651 -0.2043  0.0530
 8719SOL    HW237620   3.430   0.672   8.801 -0.3434 -0.9981 -0.0127
 8720SOL     OW37621   0.258   2.051  16.798  0.0732  0.1080 -0.1944
 8720SOL    HW137622   0.171   2.064  16.760  0.4860 -0.5587 -1.3626
 8720SOL    HW237623   0.303   2.118  16.745  0.9307 -0.8733 -0.7165
 8721SOL     OW37624   4.141   2.950   5.184  0.0206 -0.1365 -0.0462
 8721SOL    HW137625   4.221   2.975   5.138  1.5893 -3.2874  0.9778
 8721SOL    HW237626   4.086   2.976   5.109  0.2555 -1.0436 -0.5391
 8722SOL     OW37627   1.334   0.546   9.815 -0.1190  0.7773  0.4483
 8722SOL    HW137628   1.301   0.500   9.738  1.5358 -0.9186  0.7495
 8722SOL    HW237629   1.267   0.516   9.876  0.2956 -1.3286 -0.1482
 8723SOL     OW37630   4.701   2.710  13.444 -0.1261 -0.5255  0.3398
 8723SOL    HW137631   4.632   2.644  13.441 -0.3199 -0.3587  1.0112
 8723SOL    HW237632   4.707   2.728  13.538  0.1990 -0.1656  0.2524
 8724SOL     OW37633   1.666   2.002   3.861  0.2045 -0.7369 -0.4445
 8724SOL    HW137634   1.674   1.907   3.852  1.4206 -0.6639 -0.1734
 8724SOL    HW237635   1.728   2.032   3.795  0.8748 -0.2189  0.4084
 8725SOL     OW37636   4.721   2.187  15.191  0.4823  0.0224  0.3186
 8725SOL    HW137637   0.027   2.117  15.133 -1.7422  2.0668 -3.3002
 8725SOL    HW237638   0.064   2.256  15.179  1.6689 -0.8259  1.9052
 8726SOL     OW37639   4.457   2.361  16.254 -0.1267 -1.3211  0.3473
 8726SOL    HW137640   4.549   2.370  16.229 -0.1129  0.7142  1.1824
 8726SOL    HW237641   4.429   2.441  16.298 -0.0495 -1.3550  0.4581
 8727SOL     OW37642   1.838   2.154  11.378  0.0096  0.3104  0.5794
 8727SOL    HW137643   1.811   2.125  11.291 -0.0674  0.1557  0.6563
 8727SOL    HW237644   1.860   2.244  11.352  0.5571  0.6463  2.1583
 8728SOL     OW37645   0.272   0.990   8.526 -0.6223 -0.0071  0.1906
 8728SOL    HW137646   0.218   0.986   8.447 -1.5615 -2.3533  0.9676
 8728SOL    HW237647   0.340   0.925   8.506 -2.2642 -1.6616  0.0870
 8729SOL     OW37648   2.767   1.371  16.813 -0.4042 -0.0103  0.2521
 8729SOL    HW137649   2.776   1.466  16.822 -0.6383 -0.1173  1.6178
 8729SOL    HW237650   2.809   1.350  16.896 -0.4775 -0.7164  0.1068
 8730SOL     OW37651   2.987   3.815   7.408  0.4041 -0.1917 -0.5170
 8730SOL    HW137652   3.001   3.721   7.421  0.9331 -0.1103 -0.4932
 8730SOL    HW237653   2.953   3.823   7.319  0.6289 -0.5091 -0.6321
 8731SOL     OW37654   0.083   3.036  17.067 -0.2786  0.2697  0.4119
 8731SOL    HW137655   0.032   2.978  17.123 -2.0978  0.7152 -0.7828
 8731SOL    HW237656   0.108   2.970  17.002 -1.1261 -0.1163  0.4820
 8732SOL     OW37657   0.215   1.944   7.002 -0.3713 -0.4190  0.1877
 8732SOL    HW137658   0.214   2.035   6.970  0.9132 -0.8282 -0.9901
 8732SOL    HW237659   0.158   1.961   7.077  1.7551  1.5802  1.3739
 8733SOL     OW37660   3.327   3.905  17.116  0.1680  0.5569 -0.5332
 8733SOL    HW137661   3.374   3.851  17.180 -1.2156  1.1290  0.9664
 8733SOL    HW237662   3.255   3.847  17.090  1.1604 -0.2226 -1.5321
 8734SOL     OW37663   0.322   2.371   9.675 -0.0199 -1.1216  0.2084
 8734SOL    HW137664   0.227   2.381   9.686 -0.1528  0.5371 -2.6825
 8734SOL    HW237665   0.318   2.307   9.604  0.6229 -0.7890 -0.1235
 8735SOL     OW37666   2.042   3.515   7.293  0.5094 -0.4037 -0.1801
 8735SOL    HW137667   1.948   3.525   7.305  0.5171  0.8086 -1.2415
 8735SOL    HW237668   2.080   3.533   7.379 -2.3970  0.4813  0.9243
 8736SOL     OW37669   1.081   1.615   3.833 -0.0912  0.2428 -0.2338
 8736SOL    HW137670   1.082   1.587   3.741 -1.2995  0.1864 -0.2265
 8736SOL    HW237671   1.088   1.531   3.879  2.2546  0.0126 -0.9958
 8737SOL     OW37672   4.309   1.707  10.561  0.0410 -0.2423 -0.0996
 8737SOL    HW137673   4.267   1.737  10.481 -0.5043 -2.1801 -0.5423
 8737SOL    HW237674   4.236   1.659  10.599 -0.9264  0.3405 -1.2117
 8738SOL     OW37675   3.466   4.707  10.535 -0.0149 -0.0072  0.1139
 8738SOL    HW137676   3.428   0.071  10.526 -0.9799 -0.3407  0.9805
 8738SOL    HW237677   3.513   4.720  10.618  1.2058 -0.1297 -0.5489
 8739SOL     OW37678   3.224   0.335   6.118 -0.3209 -0.0277  0.2087
 8739SOL    HW137679   3.172   0.254   6.119  1.6580 -1.3094 -0.6790
 8739SOL    HW237680   3.173   0.376   6.049 -0.7617 -0.4693  0.2692
 8740SOL     OW37681   0.697   0.233   8.364  0.2626  0.4437  0.2489
 8740SOL    HW137682   0.604   0.228   8.343  0.2786  0.9935  0.0478
 8740SOL    HW237683   0.722   0.310   8.313  0.6808  1.2019  1.5668
 8741SOL     OW37684   4.072   4.150   8.756 -0.1765  0.5517  0.6361
 8741SOL    HW137685   4.062   4.216   8.825  0.9868 -1.5164  2.7533
 8741SOL    HW237686   4.105   4.081   8.813 -0.4278  0.0220  0.1388
 8742SOL     OW37687   3.348   4.408  11.979  0.1486  0.6544 -0.3747
 8742SOL    HW137688   3.419   4.440  11.923 -0.2460  1.2101 -0.5562
 8742SOL    HW237689   3.284   4.470  11.944 -1.0793 -0.5445 -0.2326
 8743SOL     OW37690   1.837   3.339  16.990 -0.0359  0.3203 -0.8315
 8743SOL    HW137691   1.875   3.383  17.066 -0.1001  0.6114 -0.9683
 8743SOL    HW237692   1.812   3.256  17.031  0.3409  0.9647  0.6862
 8744SOL     OW37693   1.143   2.425   3.165 -0.6149 -0.7842 -0.2923
 8744SOL    HW137694   1.216   2.399   3.222 -1.7056  0.9271  1.9062
 8744SOL    HW237695   1.189   2.415   3.082 -0.6509  0.2707 -0.4454
 8745SOL     OW37696   1.509   1.181   7.585 -0.2380 -0.3613 -0.8812
 8745SOL    HW137697   1.558   1.145   7.660 -1.2813 -1.7490 -0.8667
 8745SOL    HW237698   1.575   1.211   7.523  0.6862 -0.7572 -0.1030
 8746SOL     OW37699   3.528   3.928   4.818  0.1393 -0.0532  0.2136
 8746SOL    HW137700   3.448   3.961   4.859  1.2284  0.6733  1.7690
 8746SOL    HW237701   3.490   3.849   4.780 -1.6861  0.5329  0.8282
 8747SOL     OW37702   0.259   0.599   6.750  0.3812  0.5988  0.3110
 8747SOL    HW137703   0.279   0.544   6.826 -0.5932  2.2528  1.7404
 8747SOL    HW237704   0.337   0.635   6.708 -0.8312  3.1193  0.2297
 8748SOL     OW37705   1.453   2.444   4.446  0.3692 -0.1630  0.7074
 8748SOL    HW137706   1.384   2.480   4.390  1.2999  0.8917  0.2409
 8748SOL    HW237707   1.522   2.459   4.382  1.9404  0.7251  2.6046
 8749SOL     OW37708   2.238   3.575   6.182  0.2556 -0.3028  0.0996
 8749SOL    HW137709   2.217   3.663   6.150  0.0212 -1.0732 -1.8540
 8749SOL    HW237710   2.154   3.552   6.224  0.1013  2.6159  1.4411
 8750SOL     OW37711   3.850   2.015  13.050 -0.1819 -0.1775  0.4690
 8750SOL    HW137712   3.936   2.045  13.020 -0.4583  0.1210 -0.0094
 8750SOL    HW237713   3.820   2.099  13.083 -2.4444 -1.0425  0.6209
 8751SOL     OW37714   1.518   3.126  12.287 -0.6209 -0.0775 -0.3808
 8751SOL    HW137715   1.547   3.217  12.297  0.5124 -0.3884 -0.8553
 8751SOL    HW237716   1.595   3.091  12.331 -0.5900 -0.8712 -1.0757
 8752SOL     OW37717   4.081   4.617   2.681  0.7283  0.2130 -0.3957
 8752SOL    HW137718   4.120   4.610   2.768 -0.9042  1.6742  0.4526
 8752SOL    HW237719   4.041   4.530   2.688  0.2359  0.4072 -0.8055
 8753SOL     OW37720   3.890   1.290  11.152 -0.2481 -0.8648 -0.3494
 8753SOL    HW137721   3.806   1.255  11.121 -0.7187  0.8090 -0.9561
 8753SOL    HW237722   3.944   1.272  11.076 -0.6316  0.3613 -0.9157
 8754SOL     OW37723   4.096   1.450   5.308  0.4552 -0.3654  0.8005
 8754SOL    HW137724   4.179   1.425   5.348 -0.3926 -0.1823  2.6631
 8754SOL    HW237725   4.096   1.382   5.241 -1.9133  1.3533 -0.9393
 8755SOL     OW37726   0.981   0.773  16.236 -0.4362  0.2618  0.3580
 8755SOL    HW137727   0.904   0.791  16.182 -0.6271  2.9931  1.5155
 8755SOL    HW237728   0.955   0.798  16.325 -1.7459  0.6281 -0.1155
 8756SOL     OW37729   3.060   0.959  11.602 -0.4450 -0.3524 -0.2470
 8756SOL    HW137730   3.117   1.016  11.550 -1.2472  0.1765 -0.5366
 8756SOL    HW237731   3.072   0.876  11.556  0.5540 -0.3235 -0.0349
 8757SOL     OW37732   3.135   3.196  16.689  0.2345  0.1965 -0.1270
 8757SOL    HW137733   3.223   3.194  16.727  0.0803  1.6103  0.2827
 8757SOL    HW237734   3.101   3.268  16.742  0.8175 -0.0391  0.5734
 8758SOL     OW37735   4.383   1.458   7.426  0.4301 -0.0701  0.2349
 8758SOL    HW137736   4.428   1.483   7.506 -1.1906  0.2413  1.0606
 8758SOL    HW237737   4.434   1.383   7.398  1.4561  1.1736 -1.2327
 8759SOL     OW37738   3.723   1.159   0.322  0.0384  0.1418  0.0558
 8759SOL    HW137739   3.654   1.106   0.360 -1.9765  2.0446 -0.9732
 8759SOL    HW237740   3.795   1.105   0.355  1.3748 -0.4914 -3.8966
 8760SOL     OW37741   0.922   4.635   7.580 -0.8609 -0.2043  0.3494
 8760SOL    HW137742   0.902   4.656   7.489  0.9079  0.2919  0.0827
 8760SOL    HW237743   0.868   4.697   7.628  0.7320  0.6870  0.9759
 8761SOL     OW37744   2.726   1.214   7.616  0.4584  0.1631  0.3205
 8761SOL    HW137745   2.772   1.298   7.614 -1.6738  1.3118 -0.6734
 8761SOL    HW237746   2.713   1.215   7.711 -3.7673  0.6104 -0.2641
 8762SOL     OW37747   1.969   0.028   4.445 -0.1610 -0.2161 -0.7721
 8762SOL    HW137748   2.051   0.008   4.401  0.1706  0.5583 -0.5091
 8762SOL    HW237749   1.909   0.044   4.373 -0.0099  1.3199 -0.5668
 8763SOL     OW37750   1.907   4.343   5.337  0.1485 -0.6051  0.0830
 8763SOL    HW137751   1.852   4.405   5.289 -2.0768 -0.5534  2.6527
 8763SOL    HW237752   1.851   4.326   5.413  0.9293 -1.4310  0.4759
 8764SOL     OW37753   1.478   2.506   5.620 -0.2787 -0.0882  0.1718
 8764SOL    HW137754   1.481   2.467   5.707  2.0860 -1.6146 -0.5904
 8764SOL    HW237755   1.567   2.480   5.595  0.3141  1.6799  0.4050
 8765SOL     OW37756   2.738   2.728   2.747 -0.4680 -0.5698 -0.1673
 8765SOL    HW137757   2.671   2.663   2.728 -0.3506 -0.6390 -0.3420
 8765SOL    HW237758   2.809   2.664   2.744  0.4199  0.3473  1.3459
 8766SOL     OW37759   2.988   3.156  14.998 -0.2951  0.0923 -0.4632
 8766SOL    HW137760   3.017   3.113  15.079 -0.1407 -0.0488 -0.5941
 8766SOL    HW237761   3.026   3.244  15.005  0.8299 -0.5223  1.1746
 8767SOL     OW37762   2.484   0.408  14.360  0.0409  0.2405 -0.0087
 8767SOL    HW137763   2.495   0.478  14.424  1.8812  0.2286 -0.3119
 8767SOL    HW237764   2.517   0.437  14.275 -2.0310 -1.7943 -1.5319
 8768SOL     OW37765   0.930   3.082   2.502 -0.3370  0.2915  0.0166
 8768SOL    HW137766   1.015   3.071   2.543 -0.9430 -0.6975  0.9992
 8768SOL    HW237767   0.917   2.988   2.490 -0.9677  0.5056 -0.9494
 8769SOL     OW37768   3.102   3.581  10.515  0.3844  0.1125 -0.3022
 8769SOL    HW137769   3.114   3.504  10.571  3.6723  1.8666  1.4670
 8769SOL    HW237770   3.153   3.560  10.437 -0.2140 -0.5902 -0.5030
 8770SOL     OW37771   0.472   0.815  11.382 -0.3538 -0.5609  0.3327
 8770SOL    HW137772   0.518   0.731  11.379 -1.2523 -1.0239 -0.6903
 8770SOL    HW237773   0.418   0.814  11.303  2.0213 -2.0119 -1.3002
 8771SOL     OW37774   0.225   0.637   6.290 -0.3309  0.3281  0.5451
 8771SOL    HW137775   0.222   0.543   6.309 -1.1521  0.2995  0.2845
 8771SOL    HW237776   0.197   0.634   6.198  2.5112  0.5404 -0.3187
 8772SOL     OW37777   4.562   1.937   6.668 -0.3486  0.0953  0.7068
 8772SOL    HW137778   4.486   1.942   6.610  0.2770 -1.1050 -0.2276
 8772SOL    HW237779   4.518   1.937   6.753 -4.8063  0.0880 -1.5847
 8773SOL     OW37780   1.205   0.568   1.424 -0.1986  0.2230 -0.0845
 8773SOL    HW137781   1.300   0.555   1.432 -0.6374 -2.4653  0.7009
 8773SOL    HW237782   1.207   0.595   1.332 -1.0408  0.1916 -0.1122
 8774SOL     OW37783   0.315   3.339   6.417  0.2451  0.1877  0.4459
 8774SOL    HW137784   0.304   3.244   6.418  4.1168 -0.2581  1.3136
 8774SOL    HW237785   0.337   3.366   6.506  2.8188  2.3207 -0.8481
 8775SOL     OW37786   1.011   2.935   9.075 -0.1993  0.4894 -0.6788
 8775SOL    HW137787   0.928   2.943   9.122 -0.7184 -0.1865 -1.4784
 8775SOL    HW237788   1.008   2.845   9.043 -1.2634 -0.2710  1.5542
 8776SOL     OW37789   1.758   0.147   3.805  0.3205  0.2853  0.2204
 8776SOL    HW137790   1.783   0.238   3.820 -0.8047  0.5300  0.6164
 8776SOL    HW237791   1.679   0.165   3.753  1.9692 -0.6067 -2.5617
 8777SOL     OW37792   0.615   1.706  11.974  0.3260 -0.7297  0.4357
 8777SOL    HW137793   0.532   1.676  12.011  0.1361  0.6264  1.1085
 8777SOL    HW237794   0.648   1.754  12.050 -0.7517  0.8200 -0.0757
 8778SOL     OW37795   1.180   3.715  16.209  0.3717  0.5023 -0.2925
 8778SOL    HW137796   1.150   3.624  16.201 -1.6195  1.0065  1.3590
 8778SOL    HW237797   1.246   3.696  16.143  1.6315  0.2428  1.0225
 8779SOL     OW37798   2.759   3.359   3.554 -0.2144  0.4065 -0.5351
 8779SOL    HW137799   2.751   3.333   3.646 -2.2306 -1.9526 -1.3613
 8779SOL    HW237800   2.818   3.434   3.560  0.2486 -0.0637  0.9854
 8780SOL     OW37801   0.610   0.615  13.445 -0.3615  0.2432 -0.1029
 8780SOL    HW137802   0.630   0.619  13.352  0.8260 -0.1241  0.1318
 8780SOL    HW237803   0.596   0.520  13.451  0.4057  0.1191 -0.3661
 8781SOL     OW37804   0.359   0.840  14.357 -0.0416 -0.0708  0.2906
 8781SOL    HW137805   0.426   0.788  14.313 -1.6115 -1.5054 -0.4228
 8781SOL    HW237806   0.322   0.777  14.419 -2.4216  1.4396  0.3945
 8782SOL     OW37807   2.410   0.358   6.330 -0.1902 -0.5375  0.3713
 8782SOL    HW137808   2.335   0.299   6.333 -1.0345  0.4329 -2.1177
 8782SOL    HW237809   2.414   0.395   6.242  0.2110 -1.0413  0.1779
 8783SOL     OW37810   2.649   3.432   6.000 -0.0822  0.1093  0.3923
 8783SOL    HW137811   2.635   3.339   5.980  0.2583 -0.0702  0.9843
 8783SOL    HW237812   2.566   3.468   5.970 -1.6638 -1.4636  2.9013
 8784SOL     OW37813   0.874   3.734   8.185  0.2126 -0.7458 -0.1553
 8784SOL    HW137814   0.855   3.819   8.145  0.7525 -0.7706 -0.4600
 8784SOL    HW237815   0.799   3.701   8.235 -0.3383 -0.1315 -0.5846
 8785SOL     OW37816   1.792   1.299   0.005  0.3055 -0.1247 -0.0646
 8785SOL    HW137817   1.850   1.357  17.649  1.0486  0.8178  1.9410
 8785SOL    HW237818   1.848   1.268   0.076  0.3595  1.2283  0.5006
 8786SOL     OW37819   3.158   3.297   5.759 -0.0472  0.7211 -0.4034
 8786SOL    HW137820   3.113   3.288   5.675  0.3800  1.9233 -0.7599
 8786SOL    HW237821   3.186   3.389   5.750 -1.7492  1.1273 -1.5407
 8787SOL     OW37822   0.200   1.081  14.240  0.3906  0.3888 -0.6059
 8787SOL    HW137823   0.244   1.054  14.159  0.5291  0.6438 -0.6139
 8787SOL    HW237824   0.247   1.030  14.306 -0.3160  0.2051 -0.2446
 8788SOL     OW37825   2.660   4.285   7.649 -0.0664 -0.1289  0.4044
 8788SOL    HW137826   2.689   4.340   7.576  0.0043 -1.5537 -0.6449
 8788SOL    HW237827   2.724   4.313   7.715 -1.5011 -1.6858  2.4618
 8789SOL     OW37828   4.718   3.261  15.941  0.1933  0.6700  0.1527
 8789SOL    HW137829   4.624   3.276  15.951  0.2669 -0.6778  3.0933
 8789SOL    HW237830   0.002   3.168  15.961  1.4872  0.7545  0.1176
 8790SOL     OW37831   0.154   1.742   1.212  0.0448 -0.1348  0.5207
 8790SOL    HW137832   0.227   1.713   1.267 -0.4863 -0.9528  0.7944
 8790SOL    HW237833   0.200   1.819   1.177 -0.6744  0.3149  0.5608
 8791SOL     OW37834   1.402   1.705  16.620 -0.0749 -0.3703 -0.0708
 8791SOL    HW137835   1.424   1.765  16.692 -1.7504 -0.1011  0.2160
 8791SOL    HW237836   1.346   1.761  16.566  0.8017 -0.3790 -0.9888
 8792SOL     OW37837   0.631   0.300   7.741  0.2877  0.5107  0.1239
 8792SOL    HW137838   0.653   0.314   7.833  1.4140 -1.2063  0.1138
 8792SOL    HW237839   0.650   0.383   7.696 -2.8382  1.6967  1.0109
 8793SOL     OW37840   0.088   3.661   3.134  0.4017 -0.3664 -0.4797
 8793SOL    HW137841   0.090   3.617   3.049  1.9595 -0.7790 -0.2243
 8793SOL    HW237842   0.180   3.658   3.162  0.5652 -0.4983 -1.0432
 8794SOL     OW37843   3.636   1.185   3.000 -0.6072 -0.0008 -0.5652
 8794SOL    HW137844   3.639   1.176   2.905  0.2325  0.1312 -0.5521
 8794SOL    HW237845   3.567   1.121   3.017  1.2633 -1.3244  2.0457
 8795SOL     OW37846   2.407   3.405   8.131 -0.0634 -0.0675 -0.2792
 8795SOL    HW137847   2.355   3.465   8.077  1.4927 -0.2965 -2.0546
 8795SOL    HW237848   2.488   3.408   8.079 -0.0896  1.6247 -0.2192
 8796SOL     OW37849   4.596   0.258   3.742  0.0287  0.0550 -0.2496
 8796SOL    HW137850   4.659   0.205   3.791  0.3379  0.6540 -0.0063
 8796SOL    HW237851   4.536   0.186   3.720  0.0345  0.4316 -1.4894
 8797SOL     OW37852   4.462   3.543   7.206  0.2588 -0.4508  0.4450
 8797SOL    HW137853   4.516   3.622   7.207  1.2712 -1.1541  1.6559
 8797SOL    HW237854   4.377   3.580   7.228  0.4343 -0.1952  0.7006
 8798SOL     OW37855   3.009   4.136  12.546 -0.1811  0.4954 -0.4761
 8798SOL    HW137856   2.995   4.138  12.451  2.2309  0.5356 -0.8178
 8798SOL    HW237857   2.932   4.085  12.573  0.0437 -0.0770 -0.9276
 8799SOL     OW37858   1.818   0.354   6.620 -0.8144  0.2154  0.1992
 8799SOL    HW137859   1.900   0.401   6.631 -0.6781  0.0294 -0.0205
 8799SOL    HW237860   1.763   0.383   6.693  0.5120  2.3466  0.3341
 8800SOL     OW37861   3.222   0.341   6.660 -0.4289  0.4787  0.5307
 8800SOL    HW137862   3.291   0.279   6.635 -1.0340 -0.7034  1.8661
 8800SOL    HW237863   3.161   0.277   6.696  1.9916 -1.9000  0.3959
 8801SOL     OW37864   3.436   4.588   9.351 -0.1662 -0.2088  0.4858
 8801SOL    HW137865   3.408   4.578   9.261  0.5155 -1.2996  0.3969
 8801SOL    HW237866   3.389   4.671   9.363  2.5688  1.3516  0.5513
 8802SOL     OW37867   1.262   3.262  12.324  0.0077  0.3432  0.3351
 8802SOL    HW137868   1.239   3.226  12.410 -1.9640 -1.8513 -1.1237
 8802SOL    HW237869   1.355   3.242  12.316 -0.5720 -2.5574  0.9427
 8803SOL     OW37870   2.786   1.859   8.195  0.0748  0.8739 -0.0293
 8803SOL    HW137871   2.824   1.796   8.133 -2.0011  3.0094 -3.4401
 8803SOL    HW237872   2.836   1.938   8.174  0.1978 -0.0121 -3.0947
 8804SOL     OW37873   4.448   3.672   7.903  0.2623 -1.0065  0.0220
 8804SOL    HW137874   4.401   3.709   7.978 -0.9334 -2.3706 -0.0549
 8804SOL    HW237875   4.384   3.614   7.863 -1.3033  0.4286  0.4306
 8805SOL     OW37876   2.671   1.184   9.290 -0.1123  0.3079 -0.2740
 8805SOL    HW137877   2.694   1.269   9.252 -0.0600  0.0858 -0.7304
 8805SOL    HW237878   2.715   1.192   9.375 -1.9772  0.3418  0.6773
 8806SOL     OW37879   1.090   4.472   2.863 -0.4164  0.0334 -0.5876
 8806SOL    HW137880   1.104   4.519   2.781  0.4325 -1.1718 -1.1354
 8806SOL    HW237881   1.042   4.396   2.830 -1.0722  1.6145 -3.3036
 8807SOL     OW37882   2.646   1.709   2.749 -0.2610  0.0739  0.0190
 8807SOL    HW137883   2.625   1.782   2.691 -2.5931  1.3540  2.4671
 8807SOL    HW237884   2.691   1.759   2.817 -1.8920  0.6740  0.6703
 8808SOL     OW37885   2.528   0.731  10.983 -0.6439 -0.8936 -0.0942
 8808SOL    HW137886   2.553   0.823  10.971 -0.3257 -1.2213 -2.0100
 8808SOL    HW237887   2.472   0.724  11.060  1.1105  0.3980  1.3042
 8809SOL     OW37888   2.321   0.545   2.488  0.0004 -0.0868 -0.3276
 8809SOL    HW137889   2.269   0.492   2.427 -1.5514 -0.1033  1.0208
 8809SOL    HW237890   2.405   0.499   2.491  0.2642  0.3499 -0.8967
 8810SOL     OW37891   1.573   1.620   6.933 -0.1764  0.4872 -0.0881
 8810SOL    HW137892   1.585   1.715   6.933  0.1340  0.4551  3.7053
 8810SOL    HW237893   1.532   1.602   7.018 -0.5496  0.1083 -0.3485
 8811SOL     OW37894   0.800   2.594   2.534  1.0142 -0.3751 -0.1148
 8811SOL    HW137895   0.733   2.649   2.575  1.8072  0.0383  0.6408
 8811SOL    HW237896   0.777   2.603   2.441 -2.0975 -0.5724  0.6438
 8812SOL     OW37897   4.066   1.810   8.867  0.1554 -0.1817  0.0923
 8812SOL    HW137898   3.998   1.828   8.932 -0.3398  1.1541 -0.7763
 8812SOL    HW237899   4.145   1.811   8.921 -0.0296 -0.2815  0.3635
 8813SOL     OW37900   1.041   2.417   9.554  0.4922  0.2616 -0.1000
 8813SOL    HW137901   1.053   2.365   9.634 -2.7509  0.9593  0.8259
 8813SOL    HW237902   0.952   2.449   9.567  0.9502  1.6260 -0.2512
 8814SOL     OW37903   4.250   0.441   7.549  0.3699  0.1003 -0.5683
 8814SOL    HW137904   4.279   0.383   7.619 -0.2652  0.8323  0.3065
 8814SOL    HW237905   4.303   0.418   7.473 -0.9466  1.7880 -2.0066
 8815SOL     OW37906   1.450   2.444   8.750  0.2323  0.1797 -0.7064
 8815SOL    HW137907   1.447   2.383   8.676  3.6999 -0.8030 -0.0215
 8815SOL    HW237908   1.541   2.471   8.739  0.8113 -0.8466  1.4721
 8816SOL     OW37909   3.008   1.196  12.438 -0.3380 -0.1858  0.0048
 8816SOL    HW137910   3.016   1.273  12.383  2.7817 -0.3222  0.2952
 8816SOL    HW237911   3.088   1.185  12.489 -0.3554  1.1656  0.3268
 8817SOL     OW37912   1.704   2.857   2.748 -0.2185  0.7940 -0.1181
 8817SOL    HW137913   1.672   2.889   2.664  1.2269 -1.1358 -1.3828
 8817SOL    HW237914   1.622   2.822   2.784 -0.6716  0.0990 -1.8522
 8818SOL     OW37915   0.536   2.045   4.568  0.3496  0.0209 -0.0230
 8818SOL    HW137916   0.561   2.001   4.486  1.1189 -1.0540  0.7936
 8818SOL    HW237917   0.503   1.980   4.629 -1.6249 -0.3162 -1.4598
 8819SOL     OW37918   1.761   3.693   5.272 -0.2341  0.5389  0.5245
 8819SOL    HW137919   1.786   3.611   5.317 -2.7252 -0.4200  0.1189
 8819SOL    HW237920   1.714   3.654   5.199  0.7236  2.4385 -1.0756
 8820SOL     OW37921   4.377   0.254   8.974  0.6669 -0.2034 -0.8564
 8820SOL    HW137922   4.299   0.296   9.009  1.7142  0.8631  0.1909
 8820SOL    HW237923   4.413   0.217   9.055 -2.8583  0.3547  0.9505
 8821SOL     OW37924   1.036   2.039   2.732  0.3542 -0.5129  0.7254
 8821SOL    HW137925   1.018   1.994   2.650  1.2418  0.8561 -0.2282
 8821SOL    HW237926   1.118   2.081   2.706  0.7070 -1.6825 -0.0660
 8822SOL     OW37927   0.893   2.347   6.071  0.2480 -0.1969  0.3689
 8822SOL    HW137928   0.869   2.385   6.155 -0.6555 -0.7145  0.3436
 8822SOL    HW237929   0.876   2.253   6.085 -0.7740  0.1956  1.7947
 8823SOL     OW37930   2.223   1.351   7.751  0.0449 -0.8631 -0.0887
 8823SOL    HW137931   2.247   1.265   7.786 -0.9509 -0.6909  0.9736
 8823SOL    HW237932   2.164   1.389   7.816  0.3752  0.6942 -0.7042
 8824SOL     OW37933   3.614   1.038   3.414 -0.2796 -0.4056  0.4172
 8824SOL    HW137934   3.666   1.024   3.493 -1.8783 -1.2605  1.3264
 8824SOL    HW237935   3.649   1.120   3.378 -1.2080 -0.2381 -0.1049
 8825SOL     OW37936   3.315   1.062   8.915 -0.8779 -0.1627  0.0577
 8825SOL    HW137937   3.383   0.998   8.934 -1.0358 -0.5313 -0.6215
 8825SOL    HW237938   3.317   1.044   8.821 -1.1483 -2.1801  0.4595
 8826SOL     OW37939   2.490   0.275   4.187  0.3271 -0.0875 -0.1497
 8826SOL    HW137940   2.515   0.340   4.122  2.0185 -0.2651  0.3313
 8826SOL    HW237941   2.508   0.326   4.266 -2.4099  1.2583 -0.4174
 8827SOL     OW37942   3.313   4.101   0.504  0.0497  0.0227  0.4817
 8827SOL    HW137943   3.347   4.060   0.584  1.0526  1.4576  0.8002
 8827SOL    HW237944   3.273   4.181   0.537  0.3767 -0.2410  1.5385
 8828SOL     OW37945   3.681   0.098   2.906 -0.1486 -0.5061  0.3744
 8828SOL    HW137946   3.706   0.147   2.827 -1.2945  0.5558  0.6918
 8828SOL    HW237947   3.762   0.059   2.941  0.8332  0.8309 -0.4089
 8829SOL     OW37948   3.895   1.324   2.268 -0.3523 -0.0572 -0.7918
 8829SOL    HW137949   3.802   1.322   2.245 -0.1939 -4.8102 -0.9707
 8829SOL    HW237950   3.917   1.400   2.214 -2.0204  0.3071 -0.9355
 8830SOL     OW37951   1.950   2.903   4.258 -0.2388  0.4348  0.4675
 8830SOL    HW137952   1.945   2.982   4.312 -0.7947  1.9043 -1.7115
 8830SOL    HW237953   1.895   2.926   4.183 -0.6679 -2.3254 -0.0675
 8831SOL     OW37954   4.384   4.465   3.101 -0.1107  0.3353 -0.3180
 8831SOL    HW137955   4.374   4.453   3.195  1.0794  0.8065 -0.1390
 8831SOL    HW237956   4.445   4.391   3.095 -0.1392  0.2168  0.9003
 8832SOL     OW37957   1.762   2.822   8.261 -0.4441 -0.5812 -0.2932
 8832SOL    HW137958   1.809   2.902   8.285  0.2857 -0.7305 -1.1776
 8832SOL    HW237959   1.743   2.838   8.168 -0.2051 -0.1595 -0.2665
 8833SOL     OW37960   2.723   3.451   9.479  0.0079 -0.0043 -0.6408
 8833SOL    HW137961   2.717   3.537   9.521  1.5397  0.7158 -1.8730
 8833SOL    HW237962   2.787   3.412   9.538  2.8131  2.9990 -1.6759
 8834SOL     OW37963   3.879   3.223  14.085  0.1495 -0.8020  0.3956
 8834SOL    HW137964   3.857   3.188  14.171 -1.3749 -0.4291  0.1560
 8834SOL    HW237965   3.829   3.162  14.031  0.4553 -0.6417 -0.0674
 8835SOL     OW37966   0.048   4.517   7.850 -0.5210  0.8925  0.0109
 8835SOL    HW137967   0.022   4.472   7.931  3.6786 -2.4749 -0.5396
 8835SOL    HW237968   0.067   4.445   7.791  1.8005  3.6620 -2.6176
 8836SOL     OW37969   1.350   4.683  15.927  0.0991 -0.6373 -0.1072
 8836SOL    HW137970   1.421   0.001  15.878 -0.1460 -0.2053 -0.1029
 8836SOL    HW237971   1.405   4.614  15.964 -0.8424 -1.0946  0.4581
 8837SOL     OW37972   4.081   0.837   7.508  0.4727  0.8497  0.5028
 8837SOL    HW137973   4.044   0.777   7.444  0.4260  1.6829 -0.2554
 8837SOL    HW237974   4.052   0.809   7.595 -0.8701 -2.6786 -1.0942
 8838SOL     OW37975   0.485   1.209   3.821 -0.0781  0.2864 -0.3490
 8838SOL    HW137976   0.505   1.286   3.874 -0.8196  0.3580 -0.1764
 8838SOL    HW237977   0.562   1.154   3.840 -0.4176 -0.3156 -0.7362
 8839SOL     OW37978   2.767   2.088   9.223  0.1832 -0.0686 -0.2526
 8839SOL    HW137979   2.807   2.086   9.310 -1.7192  0.0673  0.6226
 8839SOL    HW237980   2.676   2.096   9.250  0.5938 -0.1017  1.1402
 8840SOL     OW37981   1.839   0.151   7.114  0.2108 -0.1933 -0.0285
 8840SOL    HW137982   1.843   0.239   7.152 -0.1082 -0.3942  0.4679
 8840SOL    HW237983   1.851   0.100   7.195 -2.1906  0.7861  0.9536
 8841SOL     OW37984   3.218   1.684   9.656  1.0129 -0.6971  0.2504
 8841SOL    HW137985   3.141   1.629   9.668  0.4788  0.2484  1.1880
 8841SOL    HW237986   3.182   1.747   9.593 -0.5991  0.7923  2.6634
 8842SOL     OW37987   0.989   1.363   8.842 -0.0979  0.8752 -0.3049
 8842SOL    HW137988   1.049   1.291   8.821 -2.7341 -1.4046  0.0496
 8842SOL    HW237989   0.922   1.341   8.778  1.5061 -1.0905 -1.3429
 8843SOL     OW37990   0.317   2.704   3.146  0.5314  0.6632 -0.0852
 8843SOL    HW137991   0.401   2.742   3.171  0.6995  0.7021 -0.6933
 8843SOL    HW237992   0.339   2.612   3.135  3.8626  1.4911 -0.4359
 8844SOL     OW37993   3.285   1.114   1.485 -0.4855  0.3486  0.3255
 8844SOL    HW137994   3.199   1.142   1.516 -0.5521 -0.7447  1.1662
 8844SOL    HW237995   3.261   1.062   1.408  1.4542 -0.5546  0.3319
 8845SOL     OW37996   1.062   0.802  14.525 -0.1189  0.1620 -0.3094
 8845SOL    HW137997   1.003   0.729  14.507  1.0668 -0.6174 -1.0485
 8845SOL    HW237998   1.058   0.812  14.620 -0.6503  1.0872 -0.4356
 8846SOL     OW37999   3.137   4.040  14.148 -0.2604 -0.3108 -0.3566
 8846SOL    HW138000   3.159   4.121  14.195 -0.3469  0.1135 -1.0426
 8846SOL    HW238001   3.213   3.985  14.171  0.4201  0.4833 -0.7109
 8847SOL     OW38002   1.100   3.771   1.630  0.1419 -0.3739 -0.1776
 8847SOL    HW138003   1.081   3.825   1.553 -2.1193  0.1579  0.7621
 8847SOL    HW238004   1.195   3.774   1.619  0.2335 -2.7797  0.1480
 8848SOL     OW38005   0.904   2.799   6.736  0.2446  0.4919  0.0832
 8848SOL    HW138006   0.954   2.843   6.804 -1.1733  0.5764  1.0680
 8848SOL    HW238007   0.912   2.861   6.664  0.3385  0.7161  0.2868
 8849SOL     OW38008   1.185   3.370  15.287  0.4949 -0.3331  0.3904
 8849SOL    HW138009   1.243   3.417  15.348 -0.1568  0.2686  0.5418
 8849SOL    HW238010   1.138   3.311  15.347  1.7197 -1.5195  0.1906
 8850SOL     OW38011   0.429   2.943   5.591 -0.5177  0.0470  0.3521
 8850SOL    HW138012   0.501   2.990   5.634  1.5401 -2.7787 -0.0263
 8850SOL    HW238013   0.462   2.861   5.629 -0.3771  0.2196  0.6024
 8851SOL     OW38014   1.948   3.213  11.578  0.7331  0.0744 -0.3823
 8851SOL    HW138015   1.898   3.139  11.612  0.9291  0.3301  0.4484
 8851SOL    HW238016   1.973   3.245  11.664  0.1115  0.8423 -0.4777
 8852SOL     OW38017   0.250   2.154  15.722  0.2274 -0.1546  0.6113
 8852SOL    HW138018   0.166   2.109  15.713  0.2911 -0.6911  2.6466
 8852SOL    HW238019   0.271   2.171  15.630 -1.3156  3.1111  0.8322
 8853SOL     OW38020   4.186   3.029   2.735  0.2859 -0.0752  0.0838
 8853SOL    HW138021   4.230   3.074   2.663  0.2123  1.3194  0.9012
 8853SOL    HW238022   4.261   3.007   2.790  0.4107  1.8272  0.6866
 8854SOL     OW38023   1.045   1.492   7.063 -0.2646 -0.3831 -0.1045
 8854SOL    HW138024   0.977   1.544   7.106  1.3574 -0.5233  2.6554
 8854SOL    HW238025   1.104   1.560   7.031 -0.8958 -0.0635 -0.5864
 8855SOL     OW38026   1.773   2.141   4.882 -0.0086 -0.1226  0.1947
 8855SOL    HW138027   1.869   2.131   4.885  0.2401  1.6387 -1.5026
 8855SOL    HW238028   1.749   2.116   4.793 -0.9894 -2.9905  1.2874
 8856SOL     OW38029   0.267   4.061   6.877  0.2054  0.1549  0.8257
 8856SOL    HW138030   0.303   4.000   6.814 -0.0071 -0.4541  1.2964
 8856SOL    HW238031   0.327   4.135   6.868 -0.5730  0.3005 -2.9908
 8857SOL     OW38032   1.017   1.626  16.399 -0.2875 -0.3307 -0.1957
 8857SOL    HW138033   1.052   1.701  16.350  1.4015  0.0254  1.5499
 8857SOL    HW238034   0.991   1.567  16.329  1.4789 -0.8476 -0.4049
 8858SOL     OW38035   2.682   3.751   9.977 -0.5887 -0.3622 -0.1364
 8858SOL    HW138036   2.713   3.706   9.898  0.3036 -1.4542  0.8261
 8858SOL    HW238037   2.755   3.746  10.039 -0.2553  0.5319 -0.4530
 8859SOL     OW38038   0.639   2.737   8.683  0.3966  0.3161 -0.2147
 8859SOL    HW138039   0.581   2.813   8.692 -0.8821 -0.5364 -1.2639
 8859SOL    HW238040   0.609   2.694   8.603 -0.4425 -2.7922  1.7703
 8860SOL     OW38041   3.726   4.026  12.262 -0.3058 -0.0784 -0.1304
 8860SOL    HW138042   3.782   4.070  12.326  0.5604  0.0994 -1.0156
 8860SOL    HW238043   3.659   3.989  12.319  2.1421 -0.1628  2.6657
 8861SOL     OW38044   2.522   2.095   2.453  0.0031  0.1499 -0.2759
 8861SOL    HW138045   2.440   2.046   2.452 -0.2486  0.5601  1.6908
 8861SOL    HW238046   2.575   2.054   2.521 -0.3984 -2.5483 -1.5792
 8862SOL     OW38047   0.979   2.660   4.771 -0.5684 -0.1731  0.1310
 8862SOL    HW138048   0.932   2.735   4.734  1.0667  0.8170  0.0449
 8862SOL    HW238049   0.926   2.583   4.754 -0.1713 -0.5968  0.8218
 8863SOL     OW38050   4.208   3.805  12.335 -0.5841  0.2106 -0.3122
 8863SOL    HW138051   4.162   3.882  12.369 -2.8460 -1.1398 -0.2979
 8863SOL    HW238052   4.184   3.811  12.243  2.3166  1.3113 -0.9851
 8864SOL     OW38053   4.238   2.876  10.316  0.0155 -0.2180 -0.2637
 8864SOL    HW138054   4.260   2.945  10.378 -0.5418  1.0109 -1.4407
 8864SOL    HW238055   4.267   2.920  10.236  0.6106 -0.3540 -0.1199
 8865SOL     OW38056   2.931   3.333   5.083 -0.6302  0.7860 -0.2993
 8865SOL    HW138057   2.987   3.363   5.155 -0.4262 -1.4024  0.4640
 8865SOL    HW238058   2.942   3.240   5.103 -3.8766  0.1408 -1.5289
 8866SOL     OW38059   4.415   3.511  17.631 -0.3374  0.0749  0.3777
 8866SOL    HW138060   4.448   3.527   0.026  1.7574 -0.5785 -0.2805
 8866SOL    HW238061   4.387   3.601  17.614  0.0989  0.3939  1.3797
 8867SOL     OW38062   1.799   4.348  11.640  0.3626 -0.4105  0.3210
 8867SOL    HW138063   1.864   4.413  11.667  1.1451 -0.9554 -0.2722
 8867SOL    HW238064   1.847   4.284  11.589  1.6152  1.8728 -1.3398
 8868SOL     OW38065   2.238   0.290   3.206  0.1396 -0.2911  0.2223
 8868SOL    HW138066   2.333   0.285   3.206  0.1626  0.0489  1.7201
 8868SOL    HW238067   2.212   0.264   3.118 -0.3881  0.2460  0.2173
 8869SOL     OW38068   1.133   3.285  14.767 -0.5627  0.2528 -0.5082
 8869SOL    HW138069   1.140   3.258  14.858  1.2530  4.1975  0.4870
 8869SOL    HW238070   1.216   3.325  14.740  1.4164 -2.2408  1.9966
 8870SOL     OW38071   0.275   2.863   1.887  0.2853  0.0794  0.0352
 8870SOL    HW138072   0.227   2.897   1.812 -0.9668 -1.0854  0.3197
 8870SOL    HW238073   0.198   2.838   1.937 -0.6688  0.3311 -1.2838
 8871SOL     OW38074   3.400   2.984   0.362  0.4017  0.3657  0.0353
 8871SOL    HW138075   3.385   2.967   0.455  0.3966  1.9255  0.3217
 8871SOL    HW238076   3.431   2.896   0.341  0.0880  0.2812 -0.0594
 8872SOL     OW38077   1.332   3.181  12.609 -0.4376  0.0695  0.0441
 8872SOL    HW138078   1.331   3.221  12.696 -5.0095  0.9104 -0.3933
 8872SOL    HW238079   1.414   3.131  12.614 -0.4558  0.1281  0.8717
 8873SOL     OW38080   2.021   2.407   9.546  0.1971 -0.2253  0.0969
 8873SOL    HW138081   2.060   2.320   9.549 -0.3795 -0.3871  2.4133
 8873SOL    HW238082   1.932   2.380   9.521  0.2119 -0.3530  0.1839
 8874SOL     OW38083   1.592   3.356   0.607  0.5611 -0.0725 -0.4551
 8874SOL    HW138084   1.574   3.361   0.513 -2.4991  0.9314  0.1899
 8874SOL    HW238085   1.528   3.415   0.646 -1.4960 -0.7874 -2.7347
 8875SOL     OW38086   3.509   3.139  16.168  0.0148 -0.1006 -0.0769
 8875SOL    HW138087   3.521   3.129  16.074  0.6117  1.7556 -0.1878
 8875SOL    HW238088   3.449   3.067  16.187 -0.6771  1.0876  2.2390
 8876SOL     OW38089   2.270   1.267   8.050  0.6911 -0.1549  0.1915
 8876SOL    HW138090   2.302   1.189   8.005 -0.2230 -0.2247 -0.3243
 8876SOL    HW238091   2.237   1.230   8.132  0.5121 -1.4813 -0.4834
 8877SOL     OW38092   3.022   2.203   2.638  0.1308 -0.7347 -0.1959
 8877SOL    HW138093   3.114   2.228   2.643  0.3965 -1.6462 -0.4081
 8877SOL    HW238094   3.010   2.224   2.545 -0.3902  1.0363  0.2752
 8878SOL     OW38095   3.590   1.927   2.801  0.3598 -0.2204 -0.1559
 8878SOL    HW138096   3.558   2.016   2.789  2.2593  0.2575 -1.6959
 8878SOL    HW238097   3.539   1.891   2.872 -0.0316  2.4496  0.8924
 8879SOL     OW38098   3.545   1.494   4.962  0.3757 -0.4952 -0.3273
 8879SOL    HW138099   3.537   1.517   4.870 -0.2242  1.4919  0.2370
 8879SOL    HW238100   3.453   1.501   4.987  0.2719 -0.1438 -0.8202
 8880SOL     OW38101   2.992   2.780  10.857 -0.0137  0.7277 -0.4522
 8880SOL    HW138102   2.910   2.753  10.816 -0.5452  1.2749  0.2559
 8880SOL    HW238103   3.016   2.702  10.907 -1.8378 -1.1111 -2.4207
 8881SOL     OW38104   2.796   0.936  14.265 -0.0988 -0.0815  0.0678
 8881SOL    HW138105   2.762   1.009  14.317  2.1535  1.1656 -0.2452
 8881SOL    HW238106   2.718   0.890  14.233 -0.1166 -1.3991  1.9959
 8882SOL     OW38107   3.012   1.998   3.682 -0.1032  0.1993  0.1899
 8882SOL    HW138108   2.923   1.992   3.648 -0.2905  1.3019  0.5147
 8882SOL    HW238109   3.007   2.022   3.775 -3.1527  0.2996 -0.0144
 8883SOL     OW38110   1.252   4.696   5.508  0.2196  0.4412  0.1046
 8883SOL    HW138111   1.160   4.700   5.483  0.2990  1.6957  0.0163
 8883SOL    HW238112   1.245   4.655   5.595  0.8856  1.6034  0.7079
 8884SOL     OW38113   4.355   3.107  14.026  1.0771 -0.1925 -0.1121
 8884SOL    HW138114   4.341   3.198  14.002 -0.1136  0.1660  1.9084
 8884SOL    HW238115   4.275   3.089  14.076 -0.0438  3.1849 -0.7041
 8885SOL     OW38116   4.354   2.100   0.471  0.0773  0.2111  0.5658
 8885SOL    HW138117   4.380   2.191   0.461 -0.3826  0.5273  2.3574
 8885SOL    HW238118   4.347   2.090   0.566  1.9357  2.0797  0.8975
 8886SOL     OW38119   3.724   4.089   3.937 -0.3423 -0.1508 -0.0678
 8886SOL    HW138120   3.723   4.185   3.933 -0.6217 -0.2214 -1.8472
 8886SOL    HW238121   3.640   4.056   3.906 -0.7606  1.1673 -0.3462
 8887SOL     OW38122   3.255   3.856  11.573  0.5896 -0.4066 -0.3843
 8887SOL    HW138123   3.185   3.885  11.632 -0.1792  0.7472 -1.8904
 8887SOL    HW238124   3.212   3.790  11.518  0.0749  0.1873 -0.6936
 8888SOL     OW38125   4.100   4.625  17.223 -0.0315  0.4041  0.3324
 8888SOL    HW138126   4.020   4.618  17.171 -0.3979  0.5666  0.8746
 8888SOL    HW238127   4.167   4.598  17.161  0.4545  1.0375  0.5862
 8889SOL     OW38128   3.494   3.652   7.267 -0.0428  0.4196  0.1378
 8889SOL    HW138129   3.436   3.611   7.331  0.4651  0.7844  0.8305
 8889SOL    HW238130   3.488   3.747   7.280 -2.0779 -0.0040  2.2392
 8890SOL     OW38131   0.716   4.405   4.823  0.2723  0.2126  0.2034
 8890SOL    HW138132   0.730   4.356   4.904  0.5144 -0.4243 -0.2169
 8890SOL    HW238133   0.666   4.477   4.860  0.4153  0.1200  0.5735
 8891SOL     OW38134   1.361   3.227   6.098 -0.1865  0.2802 -0.5913
 8891SOL    HW138135   1.366   3.321   6.119 -2.9679 -0.0268  1.4392
 8891SOL    HW238136   1.279   3.222   6.048 -0.1818 -1.1257 -0.4510
 8892SOL     OW38137   1.135   4.290   7.129  0.4623 -0.1196  0.1530
 8892SOL    HW138138   1.161   4.299   7.220  0.3565  0.0411  0.1686
 8892SOL    HW238139   1.207   4.339   7.090  0.6555 -0.8832 -0.4464
 8893SOL     OW38140   3.532   3.388  11.029 -0.4611 -0.1568 -0.1165
 8893SOL    HW138141   3.620   3.353  11.015  0.3439  1.1283  1.7096
 8893SOL    HW238142   3.555   3.480  11.037 -0.3051 -0.2734  0.7845
 8894SOL     OW38143   0.573   1.044   4.073  0.1515 -0.1720  0.2737
 8894SOL    HW138144   0.482   1.073   4.059  0.7166  0.7313 -1.4578
 8894SOL    HW238145   0.576   1.040   4.169  1.4132 -2.6718  0.1259
 8895SOL     OW38146   0.714   2.327   0.412 -0.3015 -0.2355  0.6419
 8895SOL    HW138147   0.620   2.338   0.428 -0.2135  0.9520  0.2782
 8895SOL    HW238148   0.737   2.415   0.383  2.2476 -1.7745 -1.9566
 8896SOL     OW38149   2.618   0.383   2.678 -0.1256  0.0083 -0.2156
 8896SOL    HW138150   2.708   0.349   2.687  0.2080  0.6892 -1.0460
 8896SOL    HW238151   2.612   0.374   2.583 -0.1357  0.8160 -0.2924
 8897SOL     OW38152   2.813   3.363   4.412 -0.4089 -0.9158 -0.0420
 8897SOL    HW138153   2.815   3.268   4.413  0.5757 -0.9132 -2.4051
 8897SOL    HW238154   2.779   3.373   4.502 -2.5290 -2.6249 -0.6561
 8898SOL     OW38155   0.430   1.149   6.528  0.6472  0.0231 -0.3026
 8898SOL    HW138156   0.354   1.207   6.524  1.6649  1.1985 -2.3569
 8898SOL    HW238157   0.496   1.185   6.470 -0.5862  0.5081 -1.3977
 8899SOL     OW38158   2.189   3.707   9.745 -0.2369 -0.7082  0.3348
 8899SOL    HW138159   2.147   3.769   9.805 -1.5189 -1.9964  0.7483
 8899SOL    HW238160   2.138   3.721   9.665  0.7462 -0.0519 -0.1792
 8900SOL     OW38161   0.272   0.710   5.191  0.2862  0.7327  0.4035
 8900SOL    HW138162   0.349   0.767   5.192 -0.5188  1.7839  1.9410
 8900SOL    HW238163   0.260   0.719   5.096  1.1161  0.0552  0.2285
 8901SOL     OW38164   4.377   0.751   2.147 -0.5295 -0.5642 -0.5766
 8901SOL    HW138165   4.312   0.815   2.119  1.5936  1.7106 -0.3161
 8901SOL    HW238166   4.372   0.758   2.243  0.9968  0.6812 -0.5919
 8902SOL     OW38167   0.484   4.220  13.598  0.9195 -0.2677 -0.5823
 8902SOL    HW138168   0.523   4.202  13.684 -0.2145  1.3993  0.2982
 8902SOL    HW238169   0.495   4.135  13.557 -1.6842 -1.2098  0.6124
 8903SOL     OW38170   4.102   4.024  12.509  0.6208  0.5477 -0.6157
 8903SOL    HW138171   4.172   4.063  12.561  0.0395  0.1364  0.4567
 8903SOL    HW238172   4.045   3.974  12.566 -0.2806  2.0960 -0.1514
 8904SOL     OW38173   0.050   4.558   8.394  0.3945 -0.3098 -0.2236
 8904SOL    HW138174   0.067   4.473   8.353 -2.0837 -0.4778 -0.8647
 8904SOL    HW238175   0.142   4.586   8.400 -0.6250  2.7459  1.1901
 8905SOL     OW38176   4.636   0.444   7.032 -0.1318 -0.7414  0.2968
 8905SOL    HW138177   4.676   0.374   6.981 -2.8210 -0.0843 -2.7574
 8905SOL    HW238178   4.586   0.384   7.087  1.6594 -2.1847  0.3273
 8906SOL     OW38179   4.207   3.175   3.739  0.4004  0.0183 -0.0901
 8906SOL    HW138180   4.134   3.236   3.726  0.6836  0.6319  1.1969
 8906SOL    HW238181   4.260   3.225   3.801  0.8381 -0.2225 -0.2745
 8907SOL     OW38182   1.550   1.729  15.325  0.1857  0.2592 -0.0381
 8907SOL    HW138183   1.581   1.712  15.414 -2.4936 -0.1248  0.8156
 8907SOL    HW238184   1.636   1.747  15.286 -1.0291  3.4489 -1.2341
 8908SOL     OW38185   1.677   3.128   6.386 -0.3212 -0.6972 -0.5328
 8908SOL    HW138186   1.629   3.209   6.398  0.2384 -0.4752  0.2373
 8908SOL    HW238187   1.649   3.082   6.466  0.7560 -0.3405  0.0516
 8909SOL     OW38188   1.515   4.468   8.003  0.3182  0.2667 -0.9406
 8909SOL    HW138189   1.470   4.437   8.082  1.2979 -0.0366 -0.4988
 8909SOL    HW238190   1.512   4.561   8.023 -0.3144 -0.4176  2.1281
 8910SOL     OW38191   0.829   0.713  14.363 -0.4549  0.7065 -0.3934
 8910SOL    HW138192   0.749   0.740  14.407 -1.0445 -2.6903  0.5535
 8910SOL    HW238193   0.869   0.799  14.346  1.2306 -0.0297 -0.0912
 8911SOL     OW38194   2.039   4.326   2.268 -0.8456  0.6445  0.2162
 8911SOL    HW138195   2.115   4.384   2.274  2.1067 -3.3229  0.9039
 8911SOL    HW238196   2.003   4.320   2.356  1.6231 -0.2568  1.1506
 8912SOL     OW38197   3.664   0.896  17.456  0.5426 -0.9949  0.2150
 8912SOL    HW138198   3.754   0.919  17.434  0.9463 -1.9968  0.8247
 8912SOL    HW238199   3.668   0.801  17.441  0.0326 -0.7185 -1.6252
 8913SOL     OW38200   0.750   1.110   8.896 -0.1927  0.6852 -0.2981
 8913SOL    HW138201   0.738   1.189   8.949  2.5960 -0.9553  2.7474
 8913SOL    HW238202   0.670   1.061   8.915  0.4766 -0.7550 -1.2480
 8914SOL     OW38203   0.810   4.447   5.108 -0.0365 -0.1710  0.3929
 8914SOL    HW138204   0.768   4.501   5.175 -0.1606 -0.4063  0.5032
 8914SOL    HW238205   0.736   4.387   5.105 -0.5851  0.6069 -1.6949
 8915SOL     OW38206   2.518   0.174   7.181  0.3138  0.7235 -0.5298
 8915SOL    HW138207   2.450   0.128   7.131 -0.8147  0.1531  1.4996
 8915SOL    HW238208   2.465   0.187   7.260  1.7696  1.5434  0.2994
 8916SOL     OW38209   3.587   4.473   7.331 -0.1410 -0.1559  0.8134
 8916SOL    HW138210   3.501   4.495   7.367  0.5614  1.8523  1.2713
 8916SOL    HW238211   3.570   4.484   7.237 -0.6524 -1.9413  0.6962
 8917SOL     OW38212   1.829   0.684   1.837  0.3607 -0.4683  0.4682
 8917SOL    HW138213   1.863   0.773   1.828  0.9220 -0.5193  2.0031
 8917SOL    HW238214   1.736   0.690   1.815  0.1712 -1.7146  0.9362
 8918SOL     OW38215   0.531   1.131   2.042  0.3102 -0.2016 -0.1097
 8918SOL    HW138216   0.480   1.206   2.070 -1.7067 -2.0007  0.9794
 8918SOL    HW238217   0.619   1.155   2.071 -0.4654  0.9578  1.2617
 8919SOL     OW38218   2.377   3.179   7.945  0.2687 -0.6343  0.0255
 8919SOL    HW138219   2.451   3.224   7.985 -0.5652 -0.8482  1.8252
 8919SOL    HW238220   2.369   3.103   8.003 -0.9130 -1.8859 -1.7504
 8920SOL     OW38221   2.168   2.313   5.674 -0.2218 -0.1128 -0.4162
 8920SOL    HW138222   2.233   2.294   5.742  1.0526  0.9324 -1.3344
 8920SOL    HW238223   2.085   2.282   5.709 -0.3849  0.5445 -0.2253
 8921SOL     OW38224   0.334   0.079  10.920  0.2411 -0.2503 -0.2116
 8921SOL    HW138225   0.240   0.088  10.938  0.2219 -3.5976  1.2878
 8921SOL    HW238226   0.337   4.706  10.917  0.1380 -0.2720  0.4524
 8922SOL     OW38227   3.687   0.104   0.260 -0.7559 -0.0627  0.0974
 8922SOL    HW138228   3.627   0.140   0.325  0.2257 -0.6641  1.3289
 8922SOL    HW238229   3.622   0.073   0.196  0.3394 -1.1352 -0.5026
 8923SOL     OW38230   4.350   4.492   9.340 -0.1313  0.6033 -0.1813
 8923SOL    HW138231   4.312   4.556   9.280 -1.6424 -1.3917 -1.3339
 8923SOL    HW238232   4.355   4.414   9.285 -2.6816  2.5165 -3.1219
 8924SOL     OW38233   0.977   2.855   0.927  0.2418 -1.3054  0.1969
 8924SOL    HW138234   1.034   2.915   0.880 -1.9371 -0.3593 -1.2604
 8924SOL    HW238235   1.046   2.799   0.963  0.3477 -2.7719 -2.2971
 8925SOL     OW38236   0.531   3.962   2.352  0.1894 -0.1128  0.2280
 8925SOL    HW138237   0.570   3.950   2.438 -0.1771  0.4727  0.4768
 8925SOL    HW238238   0.584   3.907   2.294 -1.1205  0.3465 -1.3927
 8926SOL     OW38239   2.026   0.371  16.162  0.3784  0.4779 -0.0928
 8926SOL    HW138240   1.982   0.300  16.115 -1.0805 -0.4161  2.6051
 8926SOL    HW238241   1.974   0.447  16.137  2.2647  1.2886 -1.5524
 8927SOL     OW38242   2.076   4.215   8.715  0.2222 -0.1373  0.8458
 8927SOL    HW138243   2.043   4.129   8.689  1.5575 -0.6434  0.8054
 8927SOL    HW238244   2.017   4.283   8.683  1.2355 -0.2453 -1.2697
 8928SOL     OW38245   3.792   4.079  12.763  0.3116 -0.0583 -0.4164
 8928SOL    HW138246   3.715   4.134  12.777 -0.7537 -1.4825 -0.7400
 8928SOL    HW238247   3.844   4.103  12.840 -1.2943  0.2246  0.5980
 8929SOL     OW38248   3.088   1.395  13.803 -0.0599  0.1880  0.0805
 8929SOL    HW138249   3.124   1.431  13.723  2.2724 -3.0306 -0.3395
 8929SOL    HW238250   3.010   1.449  13.812 -0.7478 -0.2981 -3.0705
 8930SOL     OW38251   1.924   3.416   2.243  0.4035  0.5643 -0.4240
 8930SOL    HW138252   1.853   3.472   2.276  0.5397  0.0729  0.6889
 8930SOL    HW238253   2.003   3.457   2.278  0.3597  0.0637  0.2589
 8931SOL     OW38254   0.336   1.968   6.105 -0.7477 -0.0258  0.4646
 8931SOL    HW138255   0.362   1.895   6.160  0.7752  0.4626  0.3932
 8931SOL    HW238256   0.289   2.032   6.159 -1.7610 -2.5389  2.5534
 8932SOL     OW38257   4.454   2.941   2.451  0.1054 -0.1315  0.2016
 8932SOL    HW138258   4.455   3.031   2.418 -1.9194  0.5522  1.9619
 8932SOL    HW238259   4.360   2.933   2.466 -0.2219  2.0555 -0.6079
 8933SOL     OW38260   3.460   4.009  10.510  0.2765 -0.1250  0.0459
 8933SOL    HW138261   3.522   3.955  10.560  1.0111  1.5810  0.9802
 8933SOL    HW238262   3.416   3.938  10.464 -1.9903 -0.4659  2.7384
 8934SOL     OW38263   1.738   2.170  11.921  0.6468 -0.4442  0.9318
 8934SOL    HW138264   1.711   2.092  11.969  0.8051  0.5446  2.6302
 8934SOL    HW238265   1.833   2.170  11.934  0.7221 -1.3832  0.3625
 8935SOL     OW38266   0.960   4.712   4.497  0.0040 -0.2568 -0.3670
 8935SOL    HW138267   0.953   4.623   4.530  0.9215 -0.5716 -1.0282
 8935SOL    HW238268   1.039   4.701   4.445 -1.5620  1.3400 -3.1478
 8936SOL     OW38269   0.980   3.412  12.695  0.0423  0.0820  0.0150
 8936SOL    HW138270   0.892   3.430  12.661  0.8024 -0.1061 -2.0048
 8936SOL    HW238271   0.955   3.408  12.788 -2.3888 -0.4063 -0.6663
 8937SOL     OW38272   4.363   4.428  17.551  0.0895  0.1416 -0.0296
 8937SOL    HW138273   4.336   4.437  17.643  0.6387 -0.4426  0.1957
 8937SOL    HW238274   4.452   4.392  17.548 -0.3530 -0.9039 -0.5906
 8938SOL     OW38275   3.252   0.352   8.630  0.3370  0.2491  0.3548
 8938SOL    HW138276   3.342   0.326   8.611  0.2786 -0.1119  0.5670
 8938SOL    HW238277   3.231   0.390   8.545  2.3291 -0.5749 -0.5102
 8939SOL     OW38278   2.707   1.368   5.074 -0.5755 -0.2593  0.0889
 8939SOL    HW138279   2.691   1.453   5.115  0.2364  0.3327 -0.8191
 8939SOL    HW238280   2.685   1.316   5.151 -0.5512  0.9276  0.9003
 8940SOL     OW38281   0.750   0.540   7.622  0.1563  0.0526 -0.1411
 8940SOL    HW138282   0.766   0.614   7.680 -2.9082  0.2661  0.4325
 8940SOL    HW238283   0.712   0.584   7.546  0.9183  0.1954 -0.4425
 8941SOL     OW38284   3.600   0.162   9.857 -0.0372  0.0162 -0.4801
 8941SOL    HW138285   3.539   0.087   9.861 -2.4514  1.8694 -2.7190
 8941SOL    HW238286   3.537   0.233   9.867  0.3301  0.4728 -1.3730
 8942SOL     OW38287   4.282   0.812   8.999 -0.4337 -0.3318  0.6251
 8942SOL    HW138288   4.206   0.754   8.989  0.6111 -1.1808 -2.3541
 8942SOL    HW238289   4.347   0.748   9.027  1.4211  0.9400 -0.7284
 8943SOL     OW38290   0.381   1.589   8.048 -0.1103  0.3564 -0.5083
 8943SOL    HW138291   0.346   1.652   8.111  1.0217 -1.6292  2.1452
 8943SOL    HW238292   0.448   1.539   8.095 -1.5703 -1.3047 -0.2196
 8944SOL     OW38293   3.888   4.355   0.445 -0.3848 -0.1899 -0.2293
 8944SOL    HW138294   3.897   4.430   0.504 -1.1174 -0.0149 -0.3327
 8944SOL    HW238295   3.836   4.393   0.373  0.0094  0.7017 -0.0389
 8945SOL     OW38296   3.229   3.813   4.426 -0.4072 -0.1023  0.6413
 8945SOL    HW138297   3.140   3.780   4.413  0.4659 -0.8962 -3.5734
 8945SOL    HW238298   3.202   3.898   4.458 -0.9332  0.5245 -1.4569
 8946SOL     OW38299   1.120   2.899   9.355 -0.1792  0.4869 -0.2243
 8946SOL    HW138300   1.164   2.825   9.397  0.2090 -0.1272 -1.7327
 8946SOL    HW238301   1.166   2.895   9.271  1.5667  0.2870  0.7410
 8947SOL     OW38302   2.256   0.585  10.298  0.2624  0.3167  0.5798
 8947SOL    HW138303   2.198   0.618  10.368  2.0911  1.6435  1.4710
 8947SOL    HW238304   2.337   0.629  10.324  1.9913 -1.6735 -1.5594
 8948SOL     OW38305   4.058   3.625  12.687 -0.1097 -0.6443  0.0549
 8948SOL    HW138306   4.021   3.713  12.693  2.4381  0.3805  0.8335
 8948SOL    HW238307   4.087   3.600  12.775  1.0971  1.4558  0.2465
 8949SOL     OW38308   0.094   4.458   7.266 -0.2279 -0.1721 -0.0557
 8949SOL    HW138309   0.113   4.414   7.183  0.9388 -0.6870  0.4852
 8949SOL    HW238310   0.037   4.388   7.299 -0.9060  0.6069  0.3969
 8950SOL     OW38311   2.328   0.113   5.136 -0.0922 -0.6633  0.0559
 8950SOL    HW138312   2.415   0.139   5.106  0.3172 -2.7765 -0.5340
 8950SOL    HW238313   2.351   0.101   5.228  0.4728  1.2673  0.1825
 8951SOL     OW38314   1.994   4.645   6.406  0.2292  0.4091  0.1205
 8951SOL    HW138315   1.965   0.008   6.436 -0.2072 -0.6027  2.5688
 8951SOL    HW238316   2.046   4.619   6.481  0.7875  1.4283  0.0833
 8952SOL     OW38317   4.528   1.512   7.650  0.2300  0.4053  0.0763
 8952SOL    HW138318   4.600   1.571   7.670 -0.4712  1.4447 -0.4144
 8952SOL    HW238319   4.461   1.534   7.715  0.5550  1.2655  0.1179
 8953SOL     OW38320   2.237   3.230   8.246 -0.6242  0.2588 -0.4125
 8953SOL    HW138321   2.299   3.286   8.200  0.4456 -1.9147 -1.6292
 8953SOL    HW238322   2.276   3.144   8.227 -0.3661  0.3120 -0.1337
 8954SOL     OW38323   0.776   1.471   6.904  0.3083 -0.3966  0.4216
 8954SOL    HW138324   0.825   1.414   6.845  0.3823 -0.3637  0.4508
 8954SOL    HW238325   0.835   1.478   6.980 -0.1513 -0.2853  0.7699
 8955SOL     OW38326   0.483   1.701  13.540 -0.0694  0.0030  0.0266
 8955SOL    HW138327   0.471   1.683  13.633 -2.5453 -1.5290 -0.6026
 8955SOL    HW238328   0.415   1.768  13.528  0.4602  0.4179 -0.7102
 8956SOL     OW38329   3.234   1.281   9.470 -0.1138  0.0940  0.2169
 8956SOL    HW138330   3.195   1.327   9.396 -0.4423  0.1956  0.4517
 8956SOL    HW238331   3.323   1.315   9.466  0.8047 -2.2110  0.9475
 8957SOL     OW38332   4.081   3.665   4.565  0.5254 -0.1799  0.0673
 8957SOL    HW138333   4.116   3.627   4.645 -0.4600 -0.1274  0.5237
 8957SOL    HW238334   4.116   3.612   4.493 -0.6939  1.8615 -2.0438
 8958SOL     OW38335   4.136   3.245   8.213  0.3609 -0.3701 -0.0413
 8958SOL    HW138336   4.081   3.237   8.291 -1.1034  0.8665 -0.9526
 8958SOL    HW238337   4.150   3.340   8.208 -0.4379 -0.2637 -0.1583
 8959SOL     OW38338   4.350   3.159   3.469 -0.4275 -0.1383  0.2996
 8959SOL    HW138339   4.319   3.133   3.556  0.9841  1.3110  1.2519
 8959SOL    HW238340   4.279   3.218   3.444  0.0811  0.2686 -0.1876
 8960SOL     OW38341   4.426   3.325   2.789 -0.1175 -0.3080 -0.3046
 8960SOL    HW138342   4.505   3.377   2.775  0.2689 -0.6731  0.5245
 8960SOL    HW238343   4.386   3.356   2.871  3.8672 -0.6471  1.7425
 8961SOL     OW38344   3.787   1.817   5.333 -0.1060 -0.4284 -0.1215
 8961SOL    HW138345   3.716   1.754   5.322 -0.8261  0.3256  0.1806
 8961SOL    HW238346   3.863   1.779   5.288  0.7114  0.1219  0.7989
 8962SOL     OW38347   0.378   1.885   0.626 -0.4542 -0.1291 -0.3109
 8962SOL    HW138348   0.311   1.892   0.557 -0.7572  1.2511  0.1365
 8962SOL    HW238349   0.324   1.878   0.704 -0.5063 -1.0961 -0.4351
 8963SOL     OW38350   3.706   3.873   8.429  0.0744 -0.5086  0.6452
 8963SOL    HW138351   3.632   3.836   8.380  0.9243 -0.6759 -0.5031
 8963SOL    HW238352   3.692   3.834   8.515 -1.8727  2.3102  1.6078
 8964SOL     OW38353   1.891   4.618   9.156 -0.0678 -0.1132 -0.1563
 8964SOL    HW138354   1.813   4.612   9.101 -1.1985 -2.1974  1.6888
 8964SOL    HW238355   1.921   4.528   9.145  0.1470  0.0358 -0.7743
 8965SOL     OW38356   2.188   0.536   3.364  0.5338 -0.1237  0.2532
 8965SOL    HW138357   2.206   0.471   3.296  0.2466 -0.7869  0.8154
 8965SOL    HW238358   2.114   0.502   3.414  2.2698  0.3183  3.1037
 8966SOL     OW38359   2.357   1.039   6.233  0.9101 -0.3155  0.3358
 8966SOL    HW138360   2.349   1.082   6.148 -0.6340 -0.3338  0.4771
 8966SOL    HW238361   2.447   1.072   6.239  1.0855 -0.6193 -0.6495
 8967SOL     OW38362   0.358   2.342   7.367 -0.7715  0.7393  0.3874
 8967SOL    HW138363   0.360   2.251   7.336 -0.8790  1.0913 -0.6397
 8967SOL    HW238364   0.313   2.325   7.450 -2.3060  0.0456 -0.5824
 8968SOL     OW38365   0.962   0.715  10.545 -0.6431  0.4958  0.2714
 8968SOL    HW138366   1.011   0.690  10.467  0.3853 -1.0728  1.4025
 8968SOL    HW238367   0.922   0.797  10.518 -0.7066  0.6062  0.6971
 8969SOL     OW38368   4.418   1.219   3.523 -0.1447 -0.1576 -0.7607
 8969SOL    HW138369   4.327   1.244   3.539  1.3863  3.0487  2.9811
 8969SOL    HW238370   4.459   1.245   3.606  0.8198  0.4380 -1.4308
 8970SOL     OW38371   3.553   4.117   8.408  0.0384 -0.0137  0.0198
 8970SOL    HW138372   3.593   4.035   8.438 -1.6689 -1.5999 -2.0356
 8970SOL    HW238373   3.498   4.095   8.333  2.3296 -0.3247 -1.5814
 8971SOL     OW38374   0.895   0.861   5.264  0.3553  0.4242 -0.0310
 8971SOL    HW138375   0.988   0.850   5.286  0.5776  0.9557 -0.7118
 8971SOL    HW238376   0.904   0.883   5.171  2.5577  0.6906  0.2364
 8972SOL     OW38377   3.775   2.050  11.627  0.1207  0.1644  0.2401
 8972SOL    HW138378   3.724   2.054  11.547  0.0479  0.1688  0.2868
 8972SOL    HW238379   3.708   2.087  11.685 -1.3160  0.1420 -1.4061
 8973SOL     OW38380   1.048   0.969   7.735 -0.1747  0.2185 -0.3297
 8973SOL    HW138381   0.993   1.047   7.736 -1.5567 -0.7528  0.1024
 8973SOL    HW238382   1.097   0.986   7.815  1.1729  0.4568 -1.2009
 8974SOL     OW38383   2.753   1.690   4.211 -0.2001 -0.0091 -0.3534
 8974SOL    HW138384   2.830   1.679   4.156 -2.1486  0.5452 -3.2017
 8974SOL    HW238385   2.721   1.601   4.229  2.5810 -0.8121  0.5575
 8975SOL     OW38386   0.931   1.230   7.812  0.5235 -0.7376  0.0421
 8975SOL    HW138387   0.920   1.307   7.868 -2.7627 -0.9959 -0.2291
 8975SOL    HW238388   0.844   1.227   7.772  0.3131  0.2712  0.4384
 8976SOL     OW38389   3.412   2.872   9.135  0.0216 -0.1362 -0.2838
 8976SOL    HW138390   3.507   2.882   9.135  0.1000 -0.8461 -0.6925
 8976SOL    HW238391   3.383   2.888   9.045 -1.1261 -1.0668 -0.0824
 8977SOL     OW38392   4.092   4.664  13.713  0.2388 -0.1760 -0.1213
 8977SOL    HW138393   4.027   4.706  13.656 -0.1200 -0.1467  0.3137
 8977SOL    HW238394   4.032   4.638  13.783  2.2676  2.4765  2.5932
 8978SOL     OW38395   4.548   1.021  16.103  0.6050  0.0123 -0.2913
 8978SOL    HW138396   4.513   1.022  16.192  0.7450  1.6862 -0.2577
 8978SOL    HW238397   4.614   0.951  16.109  0.0174 -0.5305 -0.1963
 8979SOL     OW38398   1.260   0.131  13.816  0.7302  0.0392 -0.3655
 8979SOL    HW138399   1.231   0.088  13.896  2.6512 -0.7182 -0.0872
 8979SOL    HW238400   1.178   0.172  13.787  1.9019  2.5979 -0.0657
 8980SOL     OW38401   0.807   2.384  15.396 -0.2182  0.1571 -0.2960
 8980SOL    HW138402   0.741   2.428  15.449  2.2776  1.5701  1.6535
 8980SOL    HW238403   0.798   2.294  15.430 -0.7742  1.5087  3.1681
 8981SOL     OW38404   2.423   3.352   2.672  0.1448 -0.3100  0.9503
 8981SOL    HW138405   2.364   3.314   2.737  0.0508 -1.9330 -0.0708
 8981SOL    HW238406   2.485   3.279   2.667  1.9224  1.2914  0.0561
 8982SOL     OW38407   0.349   2.418   6.802  0.2081 -0.6744  0.0224
 8982SOL    HW138408   0.407   2.420   6.725  0.0805 -0.6953 -0.0753
 8982SOL    HW238409   0.275   2.471   6.773  1.8773  1.1089 -1.0197
 8983SOL     OW38410   2.406   1.380   5.113  0.3870  0.1929 -0.0209
 8983SOL    HW138411   2.371   1.431   5.186  1.7974  2.5580 -1.0016
 8983SOL    HW238412   2.403   1.441   5.039 -0.3700  0.0599 -0.1046
 8984SOL     OW38413   0.847   4.172   2.425  0.3292  0.0335  0.0865
 8984SOL    HW138414   0.852   4.237   2.355 -0.0233 -0.4138 -0.3512
 8984SOL    HW238415   0.838   4.090   2.378 -3.3348  0.2738  0.3953
 8985SOL     OW38416   1.970   0.978   2.171  0.2482 -0.4819  0.0014
 8985SOL    HW138417   1.939   0.957   2.259  0.5260  0.1086  0.2404
 8985SOL    HW238418   1.894   0.959   2.115 -0.4102 -2.8966  1.7225
 8986SOL     OW38419   2.805   0.270   2.452  0.3147 -0.4969  0.3617
 8986SOL    HW138420   2.739   0.300   2.389  0.8960 -1.7250 -0.8445
 8986SOL    HW238421   2.882   0.269   2.394 -0.5349 -0.9164 -0.7661
 8987SOL     OW38422   0.374   3.974   1.338 -0.9434  0.4568  0.2267
 8987SOL    HW138423   0.332   3.888   1.345 -1.3985  0.6791  0.2503
 8987SOL    HW238424   0.441   3.961   1.405 -0.6825 -0.1470 -0.1508
 8988SOL     OW38425   0.094   2.641  15.926  0.4233  0.0897  0.2506
 8988SOL    HW138426   0.143   2.689  15.993  0.4322  1.1465 -0.5105
 8988SOL    HW238427   0.064   2.723  15.885 -2.7027 -1.4621 -0.5492
 8989SOL     OW38428   4.423   2.371   0.413  0.0241  0.0620 -0.6080
 8989SOL    HW138429   4.435   2.333   0.327 -0.9924  1.8939 -1.5551
 8989SOL    HW238430   4.386   2.456   0.389 -0.6981 -0.5102 -1.4977
 8990SOL     OW38431   4.495   3.228   5.241  0.2082  0.4585  0.2935
 8990SOL    HW138432   4.405   3.198   5.253  0.4116  0.8770  2.7907
 8990SOL    HW238433   4.532   3.224   5.329  0.1601  0.8687  0.3299
 8991SOL     OW38434   3.495   2.477   8.036  0.1198 -0.1234 -0.4675
 8991SOL    HW138435   3.469   2.408   8.098  0.7850  0.7483  0.7880
 8991SOL    HW238436   3.537   2.425   7.968 -2.7436  1.8168 -3.7273
 8992SOL     OW38437   3.984   1.365   6.167 -0.4872 -0.0119  0.3375
 8992SOL    HW138438   4.034   1.361   6.086 -0.4492  0.5963  0.3298
 8992SOL    HW238439   3.955   1.274   6.169  1.3757 -0.6387 -1.5631
 8993SOL     OW38440   0.080   2.178   4.613  0.6045  0.2763  0.1976
 8993SOL    HW138441   0.098   2.171   4.707  0.2301 -0.1223  0.2381
 8993SOL    HW238442   4.717   2.221   4.610  1.1675  1.4077  0.3909
 8994SOL     OW38443   4.525   2.971   8.349 -0.0526  0.0237 -0.2505
 8994SOL    HW138444   4.462   2.963   8.420 -1.6641  3.1830 -1.3409
 8994SOL    HW238445   4.528   3.064   8.326  0.3710  0.0666 -0.0304
 8995SOL     OW38446   3.100   0.894  10.328 -0.2575  0.6086 -0.5816
 8995SOL    HW138447   3.106   0.917  10.421  1.3694 -1.0803 -0.2713
 8995SOL    HW238448   3.126   0.981  10.298 -0.3947  0.3343 -1.4943
 8996SOL     OW38449   3.466   2.125   5.393 -0.2373 -0.1562  0.2135
 8996SOL    HW138450   3.548   2.170   5.410  0.3310 -1.0846 -0.0722
 8996SOL    HW238451   3.394   2.185   5.413 -0.2623  0.8210 -2.9158
 8997SOL     OW38452   1.906   4.055  16.583 -0.1796 -0.2578  0.5961
 8997SOL    HW138453   1.995   4.019  16.580 -0.2310 -0.2976 -0.5778
 8997SOL    HW238454   1.924   4.148  16.596 -1.5903  0.2034 -0.8010
 8998SOL     OW38455   0.135   3.459   1.792  0.2247 -0.4584  0.9159
 8998SOL    HW138456   0.198   3.513   1.745  0.5748 -0.4386  1.4028
 8998SOL    HW238457   0.058   3.514   1.782  0.9363  0.1071 -1.4872
 8999SOL     OW38458   4.289   2.043   4.581 -0.0232  0.5235  0.2624
 8999SOL    HW138459   4.373   2.028   4.625  1.2761  0.3328 -2.2360
 8999SOL    HW238460   4.279   2.138   4.577  0.1688  0.5177 -0.4334
 9000SOL     OW38461   3.177   2.796  13.649 -0.6926 -0.3736  0.1390
 9000SOL    HW138462   3.144   2.885  13.660 -1.4633 -0.8794  1.9269
 9000SOL    HW238463   3.267   2.823  13.665 -0.4275 -1.9590  1.3723
 9001SOL     OW38464   2.424   2.856   7.547 -0.4314 -0.7903  0.4586
 9001SOL    HW138465   2.514   2.876   7.573 -1.6249  3.0507  1.6597
 9001SOL    HW238466   2.375   2.935   7.571  2.0025  1.6128 -2.5197
 9002SOL     OW38467   4.378   3.493   9.549  0.2332 -0.0404  0.4254
 9002SOL    HW138468   4.402   3.585   9.561  0.6556  0.0020 -0.7039
 9002SOL    HW238469   4.344   3.471   9.635 -0.4931  1.7089  0.5902
 9003SOL     OW38470   0.323   0.632   2.607 -0.3590 -0.3956 -0.1286
 9003SOL    HW138471   0.304   0.702   2.544  0.7593  0.8913  0.9570
 9003SOL    HW238472   0.403   0.602   2.565 -0.4446 -1.4801  0.4903
 9004SOL     OW38473   4.176   3.201  12.181  0.2691 -0.5273  0.2315
 9004SOL    HW138474   4.269   3.224  12.182  0.0939  0.1978 -0.7691
 9004SOL    HW238475   4.181   3.108  12.158  0.3998 -0.1303 -1.2856
 9005SOL     OW38476   2.941   1.565   4.440  0.0411 -0.2477 -0.1062
 9005SOL    HW138477   3.033   1.544   4.427  0.2023  0.2973  0.1251
 9005SOL    HW238478   2.923   1.624   4.367 -2.8978  0.2361  1.0197
 9006SOL     OW38479   2.930   1.956  12.048 -0.2860  0.0771 -0.4140
 9006SOL    HW138480   2.936   1.869  12.009  2.1650  0.2319 -0.3619
 9006SOL    HW238481   2.852   1.991  12.005 -0.4160 -0.8577 -0.9649
 9007SOL     OW38482   1.640   3.495   2.982  0.7261  0.7494 -0.0686
 9007SOL    HW138483   1.594   3.575   2.954  1.0731  0.6220 -1.0001
 9007SOL    HW238484   1.705   3.486   2.912 -1.6864 -1.8433 -1.9125
 9008SOL     OW38485   3.652   3.407   8.649  0.0765  0.4005  0.1989
 9008SOL    HW138486   3.721   3.357   8.605 -0.9968 -0.8146 -0.0819
 9008SOL    HW238487   3.699   3.419   8.732  3.2856 -3.4189 -1.0808
 9009SOL     OW38488   3.647   2.498   1.792  0.0420  0.2265 -0.1450
 9009SOL    HW138489   3.712   2.527   1.855 -1.8641  0.7975  1.5393
 9009SOL    HW238490   3.609   2.421   1.835  0.4154  0.0445 -0.1397
 9010SOL     OW38491   4.449   1.490  11.126 -0.1304 -0.0124 -0.4574
 9010SOL    HW138492   4.462   1.585  11.126 -1.5275  0.1761 -0.9695
 9010SOL    HW238493   4.361   1.483  11.162  0.2062 -0.9176  0.1982
 9011SOL     OW38494   4.233   2.068   7.861 -0.6187 -0.6065 -1.0223
 9011SOL    HW138495   4.269   2.156   7.859  0.1892 -0.9364 -0.9957
 9011SOL    HW238496   4.183   2.053   7.781 -3.4981  0.9672  0.4629
 9012SOL     OW38497   1.397   2.427   4.821 -0.4260  0.3286 -0.1133
 9012SOL    HW138498   1.370   2.516   4.800  0.9362  0.3693 -1.6446
 9012SOL    HW238499   1.357   2.372   4.754  0.8892 -0.3477 -0.3604
 9013SOL     OW38500   3.437   2.662   1.814  0.1111  0.0855  0.1471
 9013SOL    HW138501   3.507   2.602   1.791  0.1716  0.4035 -0.4996
 9013SOL    HW238502   3.368   2.596   1.827 -0.7227  1.1625  1.2090
 9014SOL     OW38503   3.608   4.431   6.526 -0.1024  0.1720 -0.5320
 9014SOL    HW138504   3.544   4.454   6.459 -0.5311 -1.9808 -0.8471
 9014SOL    HW238505   3.656   4.514   6.538 -2.1091  1.3453 -0.7129
 9015SOL     OW38506   2.268   2.324   9.108  0.0932  0.1264 -0.1293
 9015SOL    HW138507   2.241   2.235   9.128  3.8221 -0.2704  2.9296
 9015SOL    HW238508   2.184   2.370   9.117  0.4826  0.8570 -0.2432
 9016SOL     OW38509   0.168   0.024   5.041 -0.3890  0.2349 -0.9366
 9016SOL    HW138510   0.218   0.106   5.037 -0.9523  0.5900 -0.6357
 9016SOL    HW238511   0.224   4.699   4.980 -1.3376  2.8176 -3.8750
 9017SOL     OW38512   3.043   1.388  13.045  0.1558  0.5022  0.5877
 9017SOL    HW138513   3.030   1.434  12.963  2.8421 -1.3780 -0.8965
 9017SOL    HW238514   3.011   1.299  13.031  0.7006  0.5080 -0.6508
 9018SOL     OW38515   3.751   2.525   5.690 -0.3790 -0.1591 -0.5503
 9018SOL    HW138516   3.685   2.482   5.744 -1.5647  2.0841 -0.1765
 9018SOL    HW238517   3.798   2.450   5.655  0.1149 -0.5313  0.9185
 9019SOL     OW38518   0.342   0.126   8.100  0.3889  0.3583  0.6400
 9019SOL    HW138519   0.275   0.187   8.068  0.4537  0.0554 -0.0884
 9019SOL    HW238520   0.404   0.118   8.027 -1.2283 -0.2067 -0.6884
 9020SOL     OW38521   3.267   2.670   3.840  0.2626  0.7455  0.7182
 9020SOL    HW138522   3.231   2.736   3.899  0.6256  2.7065 -1.2644
 9020SOL    HW238523   3.334   2.630   3.896 -0.4955 -1.5214  0.0396
 9021SOL     OW38524   4.251   2.146   6.662  0.3403 -0.2399  0.3433
 9021SOL    HW138525   4.156   2.130   6.657  0.3025  0.6033 -1.4274
 9021SOL    HW238526   4.282   2.057   6.650 -1.8406 -1.0360  0.5781
 9022SOL     OW38527   2.302   0.844   2.504  0.4199  0.4010  0.2484
 9022SOL    HW138528   2.345   0.863   2.421 -1.7482 -0.2686 -1.0202
 9022SOL    HW238529   2.287   0.750   2.493  0.1782  0.6308 -1.3268
 9023SOL     OW38530   1.810   2.563  15.772 -0.3958  0.8780 -0.3907
 9023SOL    HW138531   1.752   2.582  15.846  0.0443  2.4974 -0.4580
 9023SOL    HW238532   1.875   2.515  15.824 -1.3398  1.0307  0.9395
 9024SOL     OW38533   3.670   2.540  14.843 -0.3236  0.6414  0.4814
 9024SOL    HW138534   3.595   2.481  14.838  0.8485 -0.7968  0.0087
 9024SOL    HW238535   3.664   2.608  14.776 -0.9493  1.3835  1.2798
 9025SOL     OW38536   2.144   0.451   7.178  0.0051 -0.2348 -0.1903
 9025SOL    HW138537   2.162   0.360   7.204  0.0415  0.2545  1.5188
 9025SOL    HW238538   2.232   0.487   7.167  0.0654  0.4224  2.4471
 9026SOL     OW38539   3.408   1.367   8.838  0.3073 -0.2813  0.3529
 9026SOL    HW138540   3.397   1.274   8.856  1.0284 -0.3369  0.4867
 9026SOL    HW238541   3.370   1.397   8.920 -1.5744 -0.2894 -0.5202
 9027SOL     OW38542   0.535   3.694   2.921 -0.0656 -0.0801 -0.4120
 9027SOL    HW138543   0.617   3.743   2.921 -0.6543  0.8910 -2.1913
 9027SOL    HW238544   0.475   3.760   2.885 -0.5704 -1.4178 -2.0254
 9028SOL     OW38545   3.431   0.603   5.709 -0.1995  0.3646  0.2598
 9028SOL    HW138546   3.461   0.594   5.618  0.6938 -0.9474  0.6827
 9028SOL    HW238547   3.363   0.535   5.708 -0.4165  0.5863 -0.1216
 9029SOL     OW38548   4.139   2.618  17.609  0.2542 -0.2753 -0.0797
 9029SOL    HW138549   4.134   2.634  17.514  2.4153 -1.0680 -0.3140
 9029SOL    HW238550   4.048   2.629  17.636  0.3668  0.8232 -0.1376
 9030SOL     OW38551   3.142   2.135  13.538 -0.3912 -0.6690  0.4265
 9030SOL    HW138552   3.199   2.061  13.517  0.9022 -0.0143  1.6093
 9030SOL    HW238553   3.060   2.104  13.500  0.3715 -2.3284  0.1390
 9031SOL     OW38554   4.671   4.327  13.000 -0.8645  0.3831 -0.2007
 9031SOL    HW138555   4.577   4.328  13.019 -1.2682 -2.5376 -1.9753
 9031SOL    HW238556   4.674   4.387  12.925 -1.1452  0.6667  0.0131
 9032SOL     OW38557   1.981   0.526  17.207  0.0704  0.2815  0.1281
 9032SOL    HW138558   1.897   0.561  17.178 -0.3226 -1.9262 -1.4275
 9032SOL    HW238559   2.028   0.505  17.126 -0.9119  2.6146 -1.0536
 9033SOL     OW38560   2.329   0.752   9.844  0.0056 -0.6719 -0.1192
 9033SOL    HW138561   2.334   0.844   9.869 -1.0379 -0.0985 -1.9813
 9033SOL    HW238562   2.329   0.708   9.929 -0.9815 -0.5901 -0.0797
 9034SOL     OW38563   3.968   4.716   0.938  0.1465 -0.2500 -0.4583
 9034SOL    HW138564   3.946   4.707   0.845 -1.5783  1.1530 -0.2009
 9034SOL    HW238565   3.898   0.056   0.959  0.5965  0.2289 -0.4115
 9035SOL     OW38566   1.192   3.305   3.904 -0.0707 -0.3730  0.6239
 9035SOL    HW138567   1.217   3.223   3.861  2.6448  0.6587  0.2518
 9035SOL    HW238568   1.224   3.290   3.993 -0.3283 -0.3171  0.7243
 9036SOL     OW38569   3.258   1.787   4.631  0.5902  0.2881  0.1714
 9036SOL    HW138570   3.248   1.804   4.538 -0.4388  4.1628  1.0140
 9036SOL    HW238571   3.260   1.876   4.666  2.7471  0.5826 -0.7209
 9037SOL     OW38572   0.183   3.479   5.994 -0.6414  0.0055  0.2961
 9037SOL    HW138573   0.195   3.397   5.947  1.8307  0.9485 -0.6890
 9037SOL    HW238574   0.092   3.506   5.977 -0.6075  0.7887  1.3345
 9038SOL     OW38575   4.391   0.120   7.603  0.0802 -0.1117  0.1310
 9038SOL    HW138576   4.422   0.048   7.659  2.0157 -0.4185 -1.3285
 9038SOL    HW238577   4.364   0.188   7.664  1.1951  1.0302 -0.6529
 9039SOL     OW38578   2.902   1.150   5.433  0.0362 -0.4051 -0.3405
 9039SOL    HW138579   2.866   1.069   5.468  1.3954 -1.6254 -1.7788
 9039SOL    HW238580   2.890   1.208   5.508  1.5340  1.0306 -1.2214
 9040SOL     OW38581   2.605   0.488  10.334  0.0061  0.4911 -0.4131
 9040SOL    HW138582   2.652   0.461  10.414 -1.5378 -0.5016  0.1638
 9040SOL    HW238583   2.560   0.568  10.362  1.5155  0.6257  1.6802
 9041SOL     OW38584   3.047   4.461   9.409  0.2599 -0.6863  0.0189
 9041SOL    HW138585   3.078   4.412   9.333  0.1311  0.7675 -0.9595
 9041SOL    HW238586   2.957   4.484   9.387  0.5843  1.5534  1.0027
 9042SOL     OW38587   2.110   3.748   3.562 -0.0524 -0.0308 -0.0821
 9042SOL    HW138588   2.042   3.686   3.588 -0.0371 -0.2891 -0.6610
 9042SOL    HW238589   2.069   3.830   3.587  0.4011 -0.2831  1.4919
 9043SOL     OW38590   0.113   4.151   6.519  0.0477  0.4035  0.2242
 9043SOL    HW138591   0.135   4.220   6.581 -0.0153 -0.7775  1.5593
 9043SOL    HW238592   0.084   4.079   6.576 -0.5316 -2.0705 -3.1821
 9044SOL     OW38593   2.272   2.425   5.002 -0.0513  0.3044 -0.4126
 9044SOL    HW138594   2.248   2.462   4.917  0.9533  1.2274 -0.3000
 9044SOL    HW238595   2.217   2.480   5.058  1.7172  0.5173  1.1078
 9045SOL     OW38596   4.461   3.648  14.883  0.8813 -0.1736 -0.2206
 9045SOL    HW138597   4.437   3.726  14.934 -0.6001 -0.0693 -1.1125
 9045SOL    HW238598   4.403   3.662  14.809  1.1941 -1.7381 -0.7521
 9046SOL     OW38599   2.437   1.271   9.781  0.6432  0.1747 -0.2297
 9046SOL    HW138600   2.523   1.249   9.818  0.1801 -2.6431 -0.8090
 9046SOL    HW238601   2.402   1.339   9.839  0.7560  0.1730 -0.1593
 9047SOL     OW38602   4.219   2.931   7.559 -0.2423  0.3731  0.4734
 9047SOL    HW138603   4.250   2.920   7.649  0.2820 -0.5671  0.1818
 9047SOL    HW238604   4.303   2.944   7.515 -0.4654 -0.2455 -0.1474
 9048SOL     OW38605   0.984   0.922   7.452 -0.1253  0.5619  0.1557
 9048SOL    HW138606   0.929   0.845   7.438  1.2121 -0.1733 -1.0294
 9048SOL    HW238607   1.014   0.920   7.543  0.3943  1.3911 -0.0011
 9049SOL     OW38608   2.293   3.811   9.378 -0.8183  0.2079 -0.4716
 9049SOL    HW138609   2.303   3.900   9.411 -0.3916 -0.0775  0.1588
 9049SOL    HW238610   2.374   3.766   9.401 -0.5282  0.8726 -0.1868
 9050SOL     OW38611   1.641   0.005   2.715  0.2801 -0.2153  0.1274
 9050SOL    HW138612   1.658   0.069   2.646 -1.7683 -0.1265 -0.2872
 9050SOL    HW238613   1.548   4.713   2.695  0.1489  2.9557 -1.5250
 9051SOL     OW38614   1.639   4.157   3.936 -0.1679  0.3271  0.2802
 9051SOL    HW138615   1.602   4.137   4.022 -2.0675 -0.5257 -0.7367
 9051SOL    HW238616   1.650   4.249   3.958  1.7306  0.7078 -2.1753
 9052SOL     OW38617   1.222   4.233   2.212  0.4735 -0.0570  0.1069
 9052SOL    HW138618   1.316   4.217   2.210  0.5567  0.4213  0.1181
 9052SOL    HW238619   1.194   4.213   2.301  0.6957  2.3724  0.7317
 9053SOL     OW38620   4.017   2.041   0.028 -0.5739 -0.3282 -0.0528
 9053SOL    HW138621   4.018   2.097  17.644  0.2058  0.3642  0.4512
 9053SOL    HW238622   4.002   1.959  17.674  2.0831 -0.5948 -0.4231
 9054SOL     OW38623   2.894   0.516   4.121  0.0981 -0.4070 -0.1639
 9054SOL    HW138624   2.868   0.577   4.051 -0.5556 -0.3349  0.1375
 9054SOL    HW238625   2.875   0.438   4.068 -0.1025 -0.7620  0.4380
 9055SOL     OW38626   3.240   3.604   7.402 -0.4577  0.0878  0.2455
 9055SOL    HW138627   3.184   3.556   7.463  1.2571 -2.0700  0.1297
 9055SOL    HW238628   3.255   3.689   7.444 -0.1527 -0.0293  0.3814
 9056SOL     OW38629   0.808   3.209   4.353  0.0620  0.4453  0.1663
 9056SOL    HW138630   0.901   3.191   4.361  0.7907  2.3293 -3.9009
 9056SOL    HW238631   0.788   3.195   4.260 -2.7408  2.1837  0.4831
 9057SOL     OW38632   2.704   1.207   7.160 -0.1322 -0.0341  0.1568
 9057SOL    HW138633   2.762   1.131   7.168 -0.7881 -0.7298 -1.7664
 9057SOL    HW238634   2.681   1.188   7.069  1.7685 -1.4156 -0.0312
 9058SOL     OW38635   3.674   4.299  10.352 -0.2676  0.1131 -0.0047
 9058SOL    HW138636   3.660   4.354  10.275 -0.4034  0.8295  0.5323
 9058SOL    HW238637   3.734   4.348  10.408 -0.1459  1.9863 -1.7760
 9059SOL     OW38638   1.040   1.818   8.323  0.7205  0.3123 -0.2565
 9059SOL    HW138639   1.042   1.858   8.410 -4.2514 -1.3723  0.6028
 9059SOL    HW238640   1.135   1.822   8.313  0.6567  2.8830  0.1038
 9060SOL     OW38641   1.686   2.732  12.365 -0.4532  0.3328  0.2949
 9060SOL    HW138642   1.628   2.784  12.420 -2.1267 -2.1493  0.8578
 9060SOL    HW238643   1.661   2.771  12.281  0.2488  1.1827  0.4818
 9061SOL     OW38644   0.716   1.326   9.044 -0.2242 -0.4122 -0.4984
 9061SOL    HW138645   0.702   1.395   8.979  0.4147 -1.6270 -1.9336
 9061SOL    HW238646   0.681   1.363   9.125 -1.4067 -0.0236 -1.1966
 9062SOL     OW38647   4.377   3.990  16.004 -1.0107 -0.2996 -0.2716
 9062SOL    HW138648   4.312   4.039  16.055 -0.8188  0.9890 -1.2600
 9062SOL    HW238649   4.416   4.066  15.960  1.3398 -1.4419 -0.1522
 9063SOL     OW38650   3.914   0.422   1.895 -0.0773 -0.4590  0.1391
 9063SOL    HW138651   3.905   0.491   1.830  1.0944  1.3937  1.9541
 9063SOL    HW238652   3.905   0.340   1.845  1.5087 -1.9202  2.2043
 9064SOL     OW38653   1.810   3.975   7.831 -0.1714 -0.2702 -0.1377
 9064SOL    HW138654   1.745   3.937   7.889 -1.4722  0.5408 -1.0737
 9064SOL    HW238655   1.853   4.040   7.887  0.9880 -2.2533  1.2906
 9065SOL     OW38656   1.973   3.995   7.587 -0.4938 -0.7868 -0.1603
 9065SOL    HW138657   1.979   4.086   7.558 -1.7255 -0.2978  1.1179
 9065SOL    HW238658   1.922   4.008   7.667  2.4463  3.1811  1.0515
 9066SOL     OW38659   2.120   2.105   5.352 -0.0511  0.2269 -0.1328
 9066SOL    HW138660   2.207   2.142   5.367  0.0892  0.0919 -0.6037
 9066SOL    HW238661   2.090   2.165   5.284  0.9948  1.8622  0.8542
 9067SOL     OW38662   2.575   1.446   6.284  0.5251 -0.2569  0.4766
 9067SOL    HW138663   2.592   1.393   6.362 -1.2938 -2.9620 -0.9623
 9067SOL    HW238664   2.485   1.475   6.295  1.1107  1.0576  1.8057
 9068SOL     OW38665   0.461   4.187   4.372 -0.4755 -0.2878 -0.4574
 9068SOL    HW138666   0.460   4.229   4.458  0.5436 -2.2043  0.4810
 9068SOL    HW238667   0.377   4.212   4.334 -0.5896  0.3636  0.2299
 9069SOL     OW38668   0.488   3.531  16.643  0.1908  0.2621  0.2360
 9069SOL    HW138669   0.545   3.580  16.702  1.0661  1.4817 -1.6025
 9069SOL    HW238670   0.407   3.581  16.633 -0.2634 -0.0835  2.4031
 9070SOL     OW38671   1.287   1.602   8.475  0.1133 -0.0933  0.5377
 9070SOL    HW138672   1.296   1.643   8.388  1.4073  0.7936  1.0848
 9070SOL    HW238673   1.261   1.512   8.457 -2.9650  0.9022  0.0699
 9071SOL     OW38674   1.138   4.328   3.095  0.4473  0.0703  0.8022
 9071SOL    HW138675   1.201   4.257   3.083 -0.6046 -0.8175  0.5935
 9071SOL    HW238676   1.123   4.367   3.009 -0.2170 -1.3824  0.2656
 9072SOL     OW38677   1.571   2.767   4.075  0.2384  0.0315 -0.0091
 9072SOL    HW138678   1.613   2.681   4.082 -0.1073 -0.0077  1.6526
 9072SOL    HW238679   1.613   2.807   4.151  1.0719  0.2929 -0.6090
 9073SOL     OW38680   3.763   2.024   0.824  0.2650 -0.4677 -0.4837
 9073SOL    HW138681   3.768   2.044   0.917  1.3791 -0.5841 -0.5228
 9073SOL    HW238682   3.778   2.112   0.790  2.0148 -0.4880  0.2297
 9074SOL     OW38683   1.023   2.554   0.846 -0.0466 -0.1595 -0.2702
 9074SOL    HW138684   1.044   2.461   0.840 -0.4973 -0.3363  0.8781
 9074SOL    HW238685   1.104   2.601   0.866  0.1855  0.1375 -1.8908
 9075SOL     OW38686   1.002   0.236  13.758  0.3970  0.4208 -0.2377
 9075SOL    HW138687   0.968   0.246  13.847 -0.1831 -1.4763 -0.2577
 9075SOL    HW238688   0.929   0.202  13.707  0.8650 -2.8922  1.3441
 9076SOL     OW38689   0.150   4.004   5.315  0.2467  0.1854 -0.0941
 9076SOL    HW138690   0.217   3.936   5.301  2.0000  2.1637 -1.3907
 9076SOL    HW238691   0.090   3.984   5.243  1.5743  1.4805 -1.5575
 9077SOL     OW38692   0.102   1.613   8.821  0.0031  0.0888  0.4332
 9077SOL    HW138693   0.111   1.520   8.838  0.5768 -0.0265 -0.5221
 9077SOL    HW238694   0.096   1.630   8.727 -1.5371  2.3481  0.9196
 9078SOL     OW38695   4.627   4.609   4.567  0.5095 -0.5597 -0.0406
 9078SOL    HW138696   4.653   4.692   4.527 -3.4536  1.7597  2.2085
 9078SOL    HW238697   4.713   4.587   4.603 -0.4484 -0.0805  2.5747
 9079SOL     OW38698   1.431   4.107  13.326 -0.0709 -0.0234 -0.2222
 9079SOL    HW138699   1.413   4.029  13.274  1.1953 -2.6746  3.3105
 9079SOL    HW238700   1.515   4.145  13.299  0.2235 -1.9863 -1.9924
 9080SOL     OW38701   4.248   0.237  15.333  0.2495  0.0337  0.2427
 9080SOL    HW138702   4.184   0.172  15.305 -1.3690  2.5123 -1.7562
 9080SOL    HW238703   4.199   0.319  15.339 -0.7815 -0.3028 -3.8600
 9081SOL     OW38704   1.410   0.032   4.645 -0.0538 -0.3337 -0.1389
 9081SOL    HW138705   1.391   0.083   4.566  1.9646  2.8713  1.4448
 9081SOL    HW238706   1.467   0.097   4.686 -1.2551 -0.7510  2.1894
 9082SOL     OW38707   0.833   0.603   6.513 -0.3909  0.2875 -0.5241
 9082SOL    HW138708   0.798   0.691   6.524 -2.0526 -0.3311 -0.8321
 9082SOL    HW238709   0.844   0.595   6.418  2.3548  1.2962 -0.3020
 9083SOL     OW38710   0.741   4.594  12.682  0.0381 -0.2517  0.4661
 9083SOL    HW138711   0.699   4.516  12.646 -1.2282  0.3566  0.6309
 9083SOL    HW238712   0.679   4.624  12.748 -0.6013  1.5888 -0.9690
 9084SOL     OW38713   3.692   4.466  12.042 -0.8260 -0.2510 -0.1440
 9084SOL    HW138714   3.650   4.507  11.966 -1.0977  2.3143  1.3951
 9084SOL    HW238715   3.745   4.397  12.002 -0.4417  0.3044 -0.5853
 9085SOL     OW38716   1.816   2.999  11.678 -0.1284 -0.2712  0.1375
 9085SOL    HW138717   1.831   3.028  11.768  0.0334 -1.0627  0.3674
 9085SOL    HW238718   1.848   2.909  11.672 -0.4894 -0.1624 -3.0390
 9086SOL     OW38719   0.964   3.903   8.479 -0.1241 -0.2691 -0.0691
 9086SOL    HW138720   0.894   3.968   8.466 -0.3280 -0.4461  0.1366
 9086SOL    HW238721   1.018   3.939   8.550  2.5245 -4.5216  0.0221
 9087SOL     OW38722   4.474   2.781  12.341 -0.0289  0.7312  0.6233
 9087SOL    HW138723   4.388   2.793  12.300  0.4668  0.6690 -0.4499
 9087SOL    HW238724   4.526   2.729  12.279 -1.0676  2.0951 -1.3959
 9088SOL     OW38725   3.151   2.785   6.825 -0.2020  0.3907  0.2420
 9088SOL    HW138726   3.073   2.834   6.798 -1.1467 -1.5714 -0.5872
 9088SOL    HW238727   3.171   2.722   6.756  0.3785 -0.0512  0.8141
 9089SOL     OW38728   0.708   2.549  14.971  0.2946 -0.8765 -0.3729
 9089SOL    HW138729   0.779   2.614  14.974 -0.5320 -0.0199  0.8290
 9089SOL    HW238730   0.679   2.543  15.062 -0.0647  2.8360 -0.2184
 9090SOL     OW38731   3.652   3.105   5.350  0.8859  0.1019  0.2293
 9090SOL    HW138732   3.589   3.128   5.282  1.6267  1.5265  0.0214
 9090SOL    HW238733   3.659   3.017   5.312  0.4587  0.2607 -0.2119
 9091SOL     OW38734   1.531   0.492  11.868 -0.9617  0.2753  0.0256
 9091SOL    HW138735   1.438   0.486  11.887 -0.8651 -0.3648  0.2605
 9091SOL    HW238736   1.548   0.456  11.781 -3.0084  1.2803 -0.7906
 9092SOL     OW38737   1.947   3.593   8.876  0.1969  0.0011  0.4239
 9092SOL    HW138738   1.896   3.661   8.920  1.0582  1.6924 -1.1934
 9092SOL    HW238739   1.883   3.522   8.878 -0.0339  0.2023  0.0001
 9093SOL     OW38740   4.313   2.095   9.040 -0.3802 -0.0402  0.3757
 9093SOL    HW138741   4.365   2.103   9.120 -1.4801  1.8538  0.9207
 9093SOL    HW238742   4.298   2.002   9.028  3.1308 -0.2248 -2.5053
 9094SOL     OW38743   0.393   2.178   2.616  0.3916 -0.1173  0.3878
 9094SOL    HW138744   0.369   2.227   2.695  0.2727 -0.4597  0.5649
 9094SOL    HW238745   0.375   2.090   2.648  1.3163 -0.6177 -0.4872
 9095SOL     OW38746   1.060   1.514   7.721 -0.0161  0.0188  0.2319
 9095SOL    HW138747   1.071   1.600   7.680  0.2945  0.5592  1.4303
 9095SOL    HW238748   0.968   1.515   7.749 -0.4090  2.6692 -1.1572
 9096SOL     OW38749   0.190   0.157   3.796 -0.6820  0.1502  0.2917
 9096SOL    HW138750   0.283   0.149   3.816 -0.9958 -0.1339  1.6544
 9096SOL    HW238751   0.195   0.156   3.701  2.5046 -0.6177  0.4591
 9097SOL     OW38752   1.692   4.333   9.379  0.0534 -0.2505  0.1447
 9097SOL    HW138753   1.769   4.292   9.340 -0.3373  0.2825 -1.2019
 9097SOL    HW238754   1.660   4.251   9.417 -1.1529  0.3204  0.3534
 9098SOL     OW38755   2.511   1.498   9.018 -0.0664 -0.2954  0.2707
 9098SOL    HW138756   2.431   1.446   9.029  0.5870 -1.4851 -0.6201
 9098SOL    HW238757   2.513   1.541   9.103  0.0173  0.7714 -0.2710
 9099SOL     OW38758   2.860   4.183  12.289  0.1753 -0.1576  0.4903
 9099SOL    HW138759   2.854   4.278  12.277  2.3723 -0.0164  0.3608
 9099SOL    HW238760   2.792   4.136  12.242 -0.0724  0.7378 -0.0442
 9100SOL     OW38761   4.600   3.276  13.809  0.4176 -0.5678 -0.1730
 9100SOL    HW138762   4.514   3.317  13.818  0.3284 -0.6672 -0.5786
 9100SOL    HW238763   4.621   3.261  13.901 -0.6170 -2.2352 -0.2146
 9101SOL     OW38764   4.474   3.289  16.382  0.4437  0.5354  0.5686
 9101SOL    HW138765   4.550   3.339  16.412 -0.1208  0.5007  2.1058
 9101SOL    HW238766   4.405   3.301  16.447  0.9911  1.3063  0.9982
 9102SOL     OW38767   0.594   1.489   8.189  0.2911 -0.4173 -0.3962
 9102SOL    HW138768   0.584   1.436   8.268 -0.1594  1.6923  0.9706
 9102SOL    HW238769   0.678   1.475   8.147  0.8277  1.9630 -0.1329
 9103SOL     OW38770   3.184   2.262   3.543  0.1852 -0.4076  0.0479
 9103SOL    HW138771   3.232   2.243   3.624  0.6540 -0.9723 -0.3574
 9103SOL    HW238772   3.251   2.268   3.474 -0.4900  0.2778 -0.5421
 9104SOL     OW38773   3.534   2.732   4.982  0.0520 -0.0496  0.5172
 9104SOL    HW138774   3.589   2.739   4.904  0.8211  2.3192  1.2639
 9104SOL    HW238775   3.444   2.745   4.951 -0.2515  0.7724  1.7167
 9105SOL     OW38776   2.102   0.017   2.589  0.0746  0.4273  0.3148
 9105SOL    HW138777   2.068   0.101   2.621  0.8835  1.6641 -2.0499
 9105SOL    HW238778   2.032   4.706   2.533  0.6057  0.6175 -0.4715
 9106SOL     OW38779   2.097   2.566  12.589 -0.2026 -0.4179  0.4267
 9106SOL    HW138780   2.144   2.503  12.534 -0.6554 -1.3480  1.1094
 9106SOL    HW238781   2.171   2.610  12.632 -0.7967  1.8515 -0.8733
 9107SOL     OW38782   0.911   1.540   6.181 -0.2588  0.6444 -0.0028
 9107SOL    HW138783   0.940   1.457   6.218 -2.3094 -1.3719 -2.8454
 9107SOL    HW238784   0.822   1.522   6.149  0.0266 -1.8348  0.6076
 9108SOL     OW38785   3.558   4.587   8.742  0.5614 -0.1531  0.1339
 9108SOL    HW138786   3.605   4.546   8.670 -0.8199  1.5260 -1.7453
 9108SOL    HW238787   3.615   4.563   8.815 -1.9425  0.2793  2.2074
 9109SOL     OW38788   4.554   1.552   8.183 -0.0797  0.3619 -0.6416
 9109SOL    HW138789   4.618   1.514   8.123  0.4003  3.3003 -2.0309
 9109SOL    HW238790   4.605   1.567   8.262 -0.4271  0.9736 -0.5317
 9110SOL     OW38791   2.764   4.063  13.698 -0.5083  0.1234 -0.0623
 9110SOL    HW138792   2.759   3.993  13.633  0.6596  1.0301 -1.1237
 9110SOL    HW238793   2.783   4.014  13.778  1.4848 -0.5869 -0.9702
 9111SOL     OW38794   3.939   2.958  17.613  0.3612 -1.2046  0.1720
 9111SOL    HW138795   3.895   2.999  17.688  0.1830  0.5411 -0.8967
 9111SOL    HW238796   3.912   2.866  17.615 -0.1146 -1.0688 -0.0336
 9112SOL     OW38797   3.200   1.838   5.933  0.2563 -0.2618  0.2274
 9112SOL    HW138798   3.238   1.751   5.916  0.3165  0.1588 -1.7995
 9112SOL    HW238799   3.173   1.830   6.024  0.9040 -2.5262  0.2173
 9113SOL     OW38800   2.131   1.687   3.999 -0.4168 -0.0990  0.1962
 9113SOL    HW138801   2.038   1.664   3.991 -0.3719 -0.0285 -0.4610
 9113SOL    HW238802   2.132   1.773   4.041  2.4814 -0.6854  1.2933
 9114SOL     OW38803   3.641   4.122   2.904 -0.4517 -0.4211 -0.5987
 9114SOL    HW138804   3.604   4.207   2.928 -1.0230 -0.6822 -0.5685
 9114SOL    HW238805   3.649   4.120   2.808  1.0076  0.7131 -0.5051
 9115SOL     OW38806   0.389   3.839   5.263  0.4512  0.1705 -0.0653
 9115SOL    HW138807   0.427   3.829   5.351  0.4208 -1.1071 -0.2116
 9115SOL    HW238808   0.408   3.748   5.241  0.2972  0.5369 -1.7144
 9116SOL     OW38809   2.435   3.921   7.072  0.0213 -0.1730  0.3586
 9116SOL    HW138810   2.466   3.890   7.157 -0.0742  0.1396  0.5100
 9116SOL    HW238811   2.391   4.003   7.097 -1.4800 -0.1583 -2.3022
 9117SOL     OW38812   4.319   0.897   5.355  0.0324 -0.3778  0.4160
 9117SOL    HW138813   4.298   0.903   5.262  0.5440  1.8270  0.4297
 9117SOL    HW238814   4.248   0.841   5.385  0.2655 -0.7379  0.3024
 9118SOL     OW38815   4.300   4.431   3.632 -0.9948 -0.7153  0.2058
 9118SOL    HW138816   4.216   4.476   3.622 -0.9644 -0.0654  2.6953
 9118SOL    HW238817   4.281   4.355   3.687 -0.2494 -0.3046  1.0470
 9119SOL     OW38818   1.270   3.279   5.701 -0.0935 -0.2335 -0.5346
 9119SOL    HW138819   1.256   3.255   5.793  1.6767  2.0245  0.3164
 9119SOL    HW238820   1.234   3.204   5.654  1.6204 -0.6435 -1.1831
 9120SOL     OW38821   0.888   4.512  11.946  0.3487 -0.2357 -0.4183
 9120SOL    HW138822   0.963   4.570  11.940 -1.6146  2.1565 -1.7711
 9120SOL    HW238823   0.928   4.430  11.915  2.4256  0.0584  1.4876
 9121SOL     OW38824   4.054   0.372   0.276 -0.1149  0.0047 -0.1424
 9121SOL    HW138825   4.067   0.456   0.232  1.2518 -0.5745 -0.8465
 9121SOL    HW238826   4.088   0.302   0.220  1.9974  0.7202  0.2454
 9122SOL     OW38827   3.597   4.183  11.849  0.2356  0.3614 -0.1836
 9122SOL    HW138828   3.677   4.152  11.890 -0.0142  0.7612  0.6050
 9122SOL    HW238829   3.627   4.256  11.796  1.3480  0.9905  1.3162
 9123SOL     OW38830   1.695   3.815   0.318  0.2270 -0.0086 -0.1617
 9123SOL    HW138831   1.600   3.811   0.326  0.1292 -0.4746 -1.5288
 9123SOL    HW238832   1.686   3.860   0.234 -0.5541  2.5542  1.2909
 9124SOL     OW38833   0.051   3.306  10.955  0.1433  0.1558  0.1289
 9124SOL    HW138834   4.687   3.270  10.973  0.1686  0.2869  0.5030
 9124SOL    HW238835   0.049   3.389  11.003 -1.0978  1.3930 -2.0733
 9125SOL     OW38836   3.546   0.648   0.095 -0.4365 -0.0165  0.2117
 9125SOL    HW138837   3.631   0.603   0.095  0.4534  1.6457 -0.5295
 9125SOL    HW238838   3.579   0.733   0.124 -1.4520  0.9765 -1.4825
 9126SOL     OW38839   4.598   0.551  12.417  0.2451  0.2252 -0.4875
 9126SOL    HW138840   4.646   0.553  12.500  1.6500 -2.4482 -1.2577
 9126SOL    HW238841   4.669   0.542  12.354  1.4265 -1.6035  1.1206
 9127SOL     OW38842   0.400   0.892   0.395 -0.0436  0.1430  0.2916
 9127SOL    HW138843   0.323   0.848   0.429  0.5513 -0.0420  1.4017
 9127SOL    HW238844   0.403   0.846   0.311  0.8320  0.2380  0.2698
 9128SOL     OW38845   0.496   0.185   3.161 -0.1359  0.4114 -0.3170
 9128SOL    HW138846   0.582   0.152   3.136  0.7942  0.4423  2.9284
 9128SOL    HW238847   0.507   0.197   3.255  0.8357 -1.4509 -0.2048
 9129SOL     OW38848   2.433   1.671  13.277  0.7487 -0.4424 -0.1439
 9129SOL    HW138849   2.466   1.707  13.195 -1.8670  2.4223  0.0716
 9129SOL    HW238850   2.348   1.712  13.288  1.0646  0.3275 -0.5805
 9130SOL     OW38851   0.703   2.922   2.792  0.4850  0.1160  0.7768
 9130SOL    HW138852   0.716   3.016   2.783  0.7387  0.2016  2.0923
 9130SOL    HW238853   0.781   2.903   2.843 -0.4728 -0.5327  1.9943
 9131SOL     OW38854   3.845   2.174   9.675 -0.3379  0.1968  0.1581
 9131SOL    HW138855   3.835   2.082   9.652  0.2004  0.3095 -0.5381
 9131SOL    HW238856   3.779   2.207   9.613 -1.4275 -1.1976  0.5876
 9132SOL     OW38857   0.408   0.366   3.406 -0.0250 -0.3586 -0.0477
 9132SOL    HW138858   0.360   0.448   3.399  0.4031  0.2828  4.5931
 9132SOL    HW238859   0.340   0.301   3.422 -0.9009  0.5807  0.0434
 9133SOL     OW38860   1.874   4.542   6.724  0.2176 -0.1491  0.0512
 9133SOL    HW138861   1.794   4.530   6.673  0.7751  0.1015 -0.8992
 9133SOL    HW238862   1.842   4.605   6.789  1.6181  0.8981 -0.2416
 9134SOL     OW38863   2.874   0.979   6.516  0.6707 -0.0699  0.3005
 9134SOL    HW138864   2.805   0.948   6.575 -0.2380  2.7076  0.6666
 9134SOL    HW238865   2.821   1.018   6.447 -0.1058 -0.5233  0.6339
 9135SOL     OW38866   3.885   1.724   7.519  0.0517  0.2781 -0.1865
 9135SOL    HW138867   3.857   1.784   7.589  0.3724  0.1576  0.0448
 9135SOL    HW238868   3.861   1.638   7.555  1.2863  0.0436  0.0624
 9136SOL     OW38869   0.729   1.623   4.247  0.3097 -0.2047  0.0403
 9136SOL    HW138870   0.680   1.541   4.242  0.1594 -0.0555 -0.9081
 9136SOL    HW238871   0.809   1.583   4.281  0.3614 -1.8069 -1.9706
 9137SOL     OW38872   1.452   3.524   7.879  0.1924 -0.4893 -0.1763
 9137SOL    HW138873   1.389   3.457   7.853 -1.2211  0.3916  1.0478
 9137SOL    HW238874   1.394   3.588   7.920  1.0729 -0.4113  0.9508
 9138SOL     OW38875   1.460   3.464   0.394 -0.5671  0.4486 -0.7548
 9138SOL    HW138876   1.433   3.545   0.438  0.1622  1.6672 -2.5865
 9138SOL    HW238877   1.389   3.406   0.421 -0.3987  0.9072  0.6795
 9139SOL     OW38878   3.043   0.102   2.480  0.1203 -0.2612  0.5993
 9139SOL    HW138879   2.975   0.137   2.538 -2.0152 -3.4583  0.0788
 9139SOL    HW238880   3.121   0.106   2.535  0.7910  2.5258 -0.5641
 9140SOL     OW38881   3.556   3.546   7.716  0.3062  0.1040 -0.5086
 9140SOL    HW138882   3.604   3.516   7.793 -0.4078  1.4485  0.4486
 9140SOL    HW238883   3.527   3.464   7.675 -1.1460 -0.4844  1.6784
 9141SOL     OW38884   4.557   3.060   1.353  0.1222 -0.0768  0.0560
 9141SOL    HW138885   4.463   3.075   1.369  0.0214  0.2277 -0.7991
 9141SOL    HW238886   4.582   3.125   1.287  0.6091 -0.6343 -0.2955
 9142SOL     OW38887   1.620   3.689  12.820  0.0136 -0.2217 -0.0994
 9142SOL    HW138888   1.582   3.718  12.737 -1.0398  0.2102  0.5448
 9142SOL    HW238889   1.713   3.672  12.801 -0.1323 -2.3244  0.9983
 9143SOL     OW38890   0.984   4.149   5.971 -0.2390  0.5682 -0.0236
 9143SOL    HW138891   0.889   4.155   5.985 -0.4868 -3.0684  0.0289
 9143SOL    HW238892   1.016   4.232   6.007 -1.9432  1.4114 -0.4772
 9144SOL     OW38893   2.482   3.072   4.900 -0.0708 -0.5972 -0.0292
 9144SOL    HW138894   2.405   3.111   4.941  0.2776 -1.2543  1.2502
 9144SOL    HW238895   2.477   2.987   4.945  3.9189 -0.6535  0.3010
 9145SOL     OW38896   2.947   2.865   7.928  0.2443 -0.3193  0.0058
 9145SOL    HW138897   3.025   2.846   7.876 -1.2674 -1.6612 -1.7613
 9145SOL    HW238898   2.940   2.784   7.978 -1.7486  0.6038  1.2020
 9146SOL     OW38899   1.370   3.769   7.636 -0.1025  0.0509  0.1046
 9146SOL    HW138900   1.406   3.682   7.658 -1.2628 -0.6951 -0.9701
 9146SOL    HW238901   1.453   3.804   7.605  0.5754 -1.3191  0.3521
 9147SOL     OW38902   4.447   1.016   8.897 -0.1533 -0.3658  0.1591
 9147SOL    HW138903   4.390   1.087   8.926 -2.5230 -2.2708  0.1906
 9147SOL    HW238904   4.389   0.943   8.918 -0.1593 -0.5961 -0.6767
 9148SOL     OW38905   3.608   0.607   3.280 -0.2958  0.0574 -0.1247
 9148SOL    HW138906   3.584   0.588   3.189  0.8757 -0.4921 -0.3200
 9148SOL    HW238907   3.601   0.702   3.286 -3.8776 -0.1526 -0.9693
 9149SOL     OW38908   0.458   1.329   2.935  0.0389  0.4399  0.4452
 9149SOL    HW138909   0.438   1.247   2.981  1.6168  0.3008  0.8709
 9149SOL    HW238910   0.500   1.301   2.854  1.3176 -1.4276  1.7434
 9150SOL     OW38911   0.623   3.955  16.703  0.2332  0.8271  0.1753
 9150SOL    HW138912   0.699   4.013  16.717  0.6110  0.2358  0.5872
 9150SOL    HW238913   0.548   4.013  16.719 -0.1864 -0.0449  1.3887
 9151SOL     OW38914   4.057   1.405   8.486  0.4509  0.2528  0.2138
 9151SOL    HW138915   4.135   1.442   8.445  1.2576  0.4372  1.8824
 9151SOL    HW238916   4.050   1.453   8.569  2.3806 -0.2634  0.6617
 9152SOL     OW38917   3.850   2.020   8.014 -0.0658 -0.0303  0.2636
 9152SOL    HW138918   3.928   2.074   8.019  0.5121 -0.6023 -2.2883
 9152SOL    HW238919   3.847   1.988   8.104 -0.0943 -2.3971 -0.5754
 9153SOL     OW38920   3.871   4.231  12.965 -0.4348 -0.1670 -0.2665
 9153SOL    HW138921   3.961   4.261  12.979 -0.5559  0.5944 -1.0944
 9153SOL    HW238922   3.820   4.308  12.992  0.4325 -0.2461  1.5626
 9154SOL     OW38923   3.425   4.364   6.759  0.0741 -0.2180 -0.4290
 9154SOL    HW138924   3.482   4.361   6.835 -0.4359 -1.0206 -0.0737
 9154SOL    HW238925   3.493   4.360   6.692 -0.7536  0.1142 -1.2913
 9155SOL     OW38926   0.802   0.479   8.203 -0.1418  0.7037 -0.4799
 9155SOL    HW138927   0.709   0.455   8.196  0.5584 -2.0127 -0.2777
 9155SOL    HW238928   0.782   0.571   8.220 -1.8483  0.7436 -2.6053
 9156SOL     OW38929   2.921   3.289   1.097  0.7890 -0.2325 -0.2280
 9156SOL    HW138930   3.008   3.262   1.124  0.8003  2.4337  2.4029
 9156SOL    HW238931   2.884   3.310   1.182  1.3651  2.3768 -0.6146
 9157SOL     OW38932   3.376   3.826  17.587  0.2345  0.4213  0.2464
 9157SOL    HW138933   3.438   3.898  17.581 -2.9107  3.1106  0.1831
 9157SOL    HW238934   3.363   3.832  17.682  1.9985  4.0339  0.2565
 9158SOL     OW38935   4.594   1.579   5.601 -0.4859 -0.3420 -0.6247
 9158SOL    HW138936   4.649   1.604   5.526  0.1305  0.2205  0.0260
 9158SOL    HW238937   4.589   1.660   5.652  0.9555 -0.3853 -0.4190
 9159SOL     OW38938   3.381   0.255  10.516  0.3158 -0.1804 -0.2229
 9159SOL    HW138939   3.438   0.252  10.593  1.2010  1.1922 -0.8311
 9159SOL    HW238940   3.412   0.334  10.473 -3.5024  0.9283 -0.9778
 9160SOL     OW38941   0.383   0.201  17.229 -0.2190 -0.1175 -0.5197
 9160SOL    HW138942   0.425   0.116  17.240  1.7254  1.0092  0.7411
 9160SOL    HW238943   0.456   0.260  17.248 -0.8115  0.7775 -1.0196
 9161SOL     OW38944   1.541   2.608   0.935  0.2306 -0.1434 -0.5666
 9161SOL    HW138945   1.592   2.638   0.860 -1.4303  1.4537 -1.0579
 9161SOL    HW238946   1.563   2.515   0.926 -2.2177 -0.5334 -2.6948
 9162SOL     OW38947   1.639   3.100   1.982 -0.2985  0.1558  0.1251
 9162SOL    HW138948   1.621   3.166   1.915 -1.2229  0.9824  1.1826
 9162SOL    HW238949   1.587   3.143   2.049  0.4395 -0.9440  1.3961
 9163SOL     OW38950   2.939   1.812   7.061  0.3609  0.1456  0.3532
 9163SOL    HW138951   2.853   1.845   7.038  1.2316  0.3580 -2.5839
 9163SOL    HW238952   2.964   1.880   7.123  2.2820 -0.4581  0.2394
 9164SOL     OW38953   0.699   0.174  12.559 -0.3707  0.4290  0.3616
 9164SOL    HW138954   0.718   0.134  12.474  0.9728  2.3449 -0.2531
 9164SOL    HW238955   0.757   0.119  12.610  0.1756  1.1505  0.5224
 9165SOL     OW38956   0.330   3.889  17.293  0.3188  0.7180 -0.1946
 9165SOL    HW138957   0.366   3.809  17.330 -0.5225  0.4655  0.0701
 9165SOL    HW238958   0.264   3.912  17.358 -1.0410 -1.5298 -0.7953
 9166SOL     OW38959   0.323   1.786   8.242 -0.0139  0.0195 -0.1298
 9166SOL    HW138960   0.282   1.870   8.265  1.4926  0.7316 -0.0402
 9166SOL    HW238961   0.313   1.749   8.329  0.3087 -0.2809 -0.2213
 9167SOL     OW38962   4.627   2.529   6.565 -0.5241 -0.1409 -0.1907
 9167SOL    HW138963   4.539   2.496   6.583  0.0384 -1.5281 -0.0039
 9167SOL    HW238964   4.601   2.617   6.536 -1.4665 -1.5131 -3.5396
 9168SOL     OW38965   4.213   4.449   8.282 -0.4818  0.1275  0.4307
 9168SOL    HW138966   4.164   4.495   8.350 -1.4045 -1.7054  0.9791
 9168SOL    HW238967   4.301   4.451   8.320  0.6889 -3.0511 -2.1162
 9169SOL     OW38968   0.426   4.271   2.633 -0.2123 -0.0907  0.1082
 9169SOL    HW138969   0.400   4.199   2.689 -0.9058  0.3046  0.2890
 9169SOL    HW238970   0.447   4.346   2.689  1.9266  0.6142 -1.6350
 9170SOL     OW38971   1.755   3.667  12.479  0.2986  0.1691  0.0068
 9170SOL    HW138972   1.839   3.628  12.457  0.4070 -0.4975  1.5814
 9170SOL    HW238973   1.700   3.590  12.497  2.1228 -1.1772 -0.1554
 9171SOL     OW38974   4.607   2.434   5.650 -0.0692 -0.1319  0.0904
 9171SOL    HW138975   4.550   2.470   5.717 -1.5364  0.5816 -1.5239
 9171SOL    HW238976   4.683   2.482   5.682  0.5583 -0.6853 -0.5672
 9172SOL     OW38977   4.281   3.662   6.686 -0.1614  0.8162 -0.1336
 9172SOL    HW138978   4.336   3.586   6.705 -1.0673  0.0800 -0.4317
 9172SOL    HW238979   4.273   3.648   6.592  0.4243 -1.1873  0.1019
 9173SOL     OW38980   1.867   0.392   7.210 -0.0251 -0.5251  0.1036
 9173SOL    HW138981   1.937   0.454   7.190  0.0705 -0.8066 -0.4432
 9173SOL    HW238982   1.883   0.396   7.304  1.2299 -1.4426 -0.0734
 9174SOL     OW38983   0.444   0.337   6.197 -0.4738  0.0813 -0.1534
 9174SOL    HW138984   0.490   0.350   6.280 -2.2409  1.2336  0.6154
 9174SOL    HW238985   0.508   0.276   6.160  0.3918 -0.9056  2.9664
 9175SOL     OW38986   4.439   2.263   1.258  0.1174  0.1741  0.4232
 9175SOL    HW138987   4.396   2.323   1.197  1.6449 -0.0201 -0.8482
 9175SOL    HW238988   4.410   2.287   1.346 -0.5092  2.0467 -0.3017
 9176SOL     OW38989   3.656   1.514   4.586  0.3215  0.5046 -0.2258
 9176SOL    HW138990   3.598   1.581   4.621 -0.3315  0.9683 -2.2191
 9176SOL    HW238991   3.741   1.540   4.623 -0.5663  2.3019  0.5196
 9177SOL     OW38992   3.032   4.350   2.756  0.3814 -0.0239 -0.0886
 9177SOL    HW138993   3.036   4.444   2.773 -0.9654  0.1160 -0.4862
 9177SOL    HW238994   3.099   4.317   2.816  1.8415  1.8800 -0.6663
 9178SOL     OW38995   1.235   3.165  16.284 -0.0791  0.1330  0.0944
 9178SOL    HW138996   1.172   3.133  16.349 -1.2136  1.9176 -0.1457
 9178SOL    HW238997   1.247   3.092  16.222 -0.8689  1.1165 -1.2046
 9179SOL     OW38998   3.969   1.519   2.076  0.5481 -0.5973 -0.2871
 9179SOL    HW138999   4.060   1.545   2.090  0.1979  0.9438 -0.9178
 9179SOL    HW239000   3.965   1.488   1.985 -1.4348 -1.3059  0.0305
 9180SOL     OW39001   3.831   4.193  15.666  0.4334 -0.1907  0.9818
 9180SOL    HW139002   3.858   4.113  15.620  0.3744  0.1742  0.3034
 9180SOL    HW239003   3.736   4.182  15.661  0.4961 -0.0172 -0.6292
 9181SOL     OW39004   3.795   3.449  16.834  0.1543 -0.3159 -0.0160
 9181SOL    HW139005   3.701   3.435  16.852 -0.2721  0.7295 -1.4961
 9181SOL    HW239006   3.802   3.434  16.740 -1.7848  1.8755 -0.5144
 9182SOL     OW39007   1.703   0.059   2.970  0.6653 -0.2759 -0.9387
 9182SOL    HW139008   1.674   0.031   2.883 -1.2928 -1.2172  0.0075
 9182SOL    HW239009   1.670   0.148   2.958 -1.5053 -1.0438 -0.6630
 9183SOL     OW39010   2.510   2.040  15.545  0.2307 -0.2833  0.2547
 9183SOL    HW139011   2.460   2.120  15.560  0.8669 -0.2231  2.1048
 9183SOL    HW239012   2.569   2.043  15.621 -0.7883  0.5768  1.0215
 9184SOL     OW39013   2.642   0.358   8.975  0.1511  0.1040  0.6913
 9184SOL    HW139014   2.714   0.369   9.038  1.3481 -0.4282 -0.5866
 9184SOL    HW239015   2.563   0.391   9.018 -0.2544 -3.2855  2.5366
 9185SOL     OW39016   1.717   4.142   2.293 -0.1060  0.0443 -0.0897
 9185SOL    HW139017   1.650   4.181   2.350  0.0816 -2.5469  1.9138
 9185SOL    HW239018   1.737   4.066   2.347 -0.0281  0.9033  1.0880
 9186SOL     OW39019   0.471   3.297   4.784 -0.3851  0.1667  0.7381
 9186SOL    HW139020   0.526   3.279   4.860  0.2794  1.3415  0.5445
 9186SOL    HW239021   0.537   3.281   4.717 -1.2684 -3.5496  0.7718
 9187SOL     OW39022   3.171   1.568   4.765 -0.3631  0.0065 -0.2548
 9187SOL    HW139023   3.206   1.637   4.709  1.7693  0.0556  1.1350
 9187SOL    HW239024   3.207   1.486   4.733  0.5712  0.3781 -0.1390
 9188SOL     OW39025   2.673   2.875   7.838  0.3190 -0.3832  0.0219
 9188SOL    HW139026   2.679   2.928   7.758  0.9294  0.4968  0.6471
 9188SOL    HW239027   2.766   2.878   7.863 -0.1289 -2.5662  1.9509
 9189SOL     OW39028   2.206   1.775   0.699 -0.2234 -0.1478  0.3703
 9189SOL    HW139029   2.272   1.793   0.632 -0.3763 -1.3395 -0.1011
 9189SOL    HW239030   2.139   1.843   0.691  1.5488  1.6792  1.0606
 9190SOL     OW39031   2.999   1.550  11.738  0.2453  0.4462 -0.4719
 9190SOL    HW139032   3.017   1.623  11.798 -1.2997  1.4337 -1.2124
 9190SOL    HW239033   2.998   1.479  11.802  3.0003  0.8066 -0.0150
 9191SOL     OW39034   2.174   1.439   4.115  0.1691 -0.1998  0.3214
 9191SOL    HW139035   2.141   1.478   4.196 -1.2224  0.0238 -0.3533
 9191SOL    HW239036   2.182   1.522   4.068 -3.0408  0.1732  0.4328
 9192SOL     OW39037   3.586   0.789  16.314 -0.1278 -0.4433 -0.5748
 9192SOL    HW139038   3.575   0.884  16.310  0.7280 -0.2317  1.7804
 9192SOL    HW239039   3.670   0.780  16.360  0.5252 -0.1086 -1.7111
 9193SOL     OW39040   0.841   3.629   7.570 -0.0803  0.5856 -0.0958
 9193SOL    HW139041   0.762   3.682   7.583  0.1632  0.5015  1.6724
 9193SOL    HW239042   0.867   3.604   7.659  0.7781 -0.1116 -0.5371
 9194SOL     OW39043   2.452   3.225   6.484  0.3167 -0.0512 -0.1204
 9194SOL    HW139044   2.460   3.220   6.579  2.2469  0.6140 -0.2473
 9194SOL    HW239045   2.529   3.277   6.460  2.3597 -1.5859  3.0712
 9195SOL     OW39046   3.140   4.274   6.497 -0.1597 -0.1006 -0.8513
 9195SOL    HW139047   3.229   4.247   6.472 -0.3310 -0.1659 -1.3958
 9195SOL    HW239048   3.157   4.278   6.591  0.0458  0.6496 -0.9181
 9196SOL     OW39049   1.406   0.199   2.195 -0.1956 -0.2243 -0.1246
 9196SOL    HW139050   1.430   0.283   2.155  2.0514 -0.7353  0.1554
 9196SOL    HW239051   1.343   0.228   2.261  1.2096  0.9735  0.6998
 9197SOL     OW39052   0.666   0.779   5.382 -0.2383 -0.1138  0.2917
 9197SOL    HW139053   0.753   0.799   5.347 -1.2801  1.1749 -1.6130
 9197SOL    HW239054   0.688   0.703   5.436 -1.7244  1.1209  2.5809
 9198SOL     OW39055   0.426   2.268  16.740 -0.2308 -0.2631  0.1400
 9198SOL    HW139056   0.496   2.303  16.795 -1.2885  1.0947  0.6177
 9198SOL    HW239057   0.434   2.335  16.672  0.8058  0.3844  0.8898
 9199SOL     OW39058   2.770   2.034   3.517  0.4210 -0.0389  0.0360
 9199SOL    HW139059   2.699   1.991   3.565 -1.0580  1.6350 -0.6558
 9199SOL    HW239060   2.714   2.077   3.453  0.2503 -0.3740 -0.0411
 9200SOL     OW39061   1.437   0.000   8.157  0.1222  0.6016 -1.2010
 9200SOL    HW139062   1.373   4.693   8.093 -0.9960 -1.3917  0.8722
 9200SOL    HW239063   1.391   0.073   8.198  1.3380 -0.3785  1.8845
 9201SOL     OW39064   1.666   3.866   9.315 -0.2270  0.0659  0.0155
 9201SOL    HW139065   1.723   3.789   9.312 -2.1231 -1.3927  0.9586
 9201SOL    HW239066   1.581   3.822   9.314 -0.5450  0.5789  3.6159
 9202SOL     OW39067   2.560   3.328   5.373  0.5148 -0.4171  0.5234
 9202SOL    HW139068   2.539   3.420   5.388 -0.8184 -0.3763 -1.5871
 9202SOL    HW239069   2.503   3.289   5.439 -1.8155  0.4880 -0.9818
 9203SOL     OW39070   2.417   1.586   4.641 -0.7570 -0.2747  0.1044
 9203SOL    HW139071   2.500   1.557   4.679 -0.2482  0.2810 -0.5949
 9203SOL    HW239072   2.361   1.524   4.688 -1.3212  1.1934  1.3717
 9204SOL     OW39073   1.253   2.266   2.914 -0.0906 -0.1203  0.3652
 9204SOL    HW139074   1.158   2.254   2.912  0.0136 -0.9728  0.9477
 9204SOL    HW239075   1.272   2.256   2.820  1.4090 -1.1889  0.7861
 9205SOL     OW39076   4.542   3.773  14.202 -0.2814 -0.0048  0.3359
 9205SOL    HW139077   4.627   3.737  14.228  1.1274  3.1223  0.1648
 9205SOL    HW239078   4.569   3.845  14.144 -2.6502  1.6261  1.2389
 9206SOL     OW39079   1.172   0.940  10.194 -0.5853 -0.2882 -0.1961
 9206SOL    HW139080   1.146   0.848  10.205 -1.5889 -0.1896 -1.7313
 9206SOL    HW239081   1.264   0.947  10.217 -0.6778 -1.9794  0.7299
 9207SOL     OW39082   3.622   3.380   5.980 -0.0767 -0.6637  0.2847
 9207SOL    HW139083   3.609   3.349   5.891 -0.7993  0.5449 -0.0337
 9207SOL    HW239084   3.660   3.306   6.028 -1.9443 -0.2761  2.3818
 9208SOL     OW39085   1.648   1.443   5.088  0.0926 -0.2659 -0.1267
 9208SOL    HW139086   1.684   1.431   5.000  2.4283  0.5795  0.6932
 9208SOL    HW239087   1.605   1.360   5.109  0.8412 -0.6672 -0.1522
 9209SOL     OW39088   2.944   4.548   5.042  0.1890  0.0087  0.3693
 9209SOL    HW139089   3.036   4.528   5.063  0.2700 -0.4084 -0.4090
 9209SOL    HW239090   2.898   4.525   5.123 -0.6068 -1.3965 -0.5078
 9210SOL     OW39091   4.379   1.015   7.286 -0.0761  0.3046 -0.5091
 9210SOL    HW139092   4.296   0.983   7.250  0.7837 -2.0671 -0.4449
 9210SOL    HW239093   4.368   0.995   7.379 -1.1633 -0.1179 -0.7232
 9211SOL     OW39094   2.453   4.051   5.153  0.2385  0.0475  0.2782
 9211SOL    HW139095   2.401   4.049   5.072  1.5631 -0.7834 -0.5500
 9211SOL    HW239096   2.433   4.141   5.179 -0.6009  0.6803 -2.5698
 9212SOL     OW39097   0.998   2.517   2.898  0.2403 -0.3575 -0.6245
 9212SOL    HW139098   1.062   2.571   2.851 -0.0771  1.6924  1.3222
 9212SOL    HW239099   0.985   2.455   2.825  0.1773  0.0774 -0.9802
 9213SOL     OW39100   2.554   0.075   2.456  0.3037 -0.1471 -0.0749
 9213SOL    HW139101   2.502   0.105   2.530  0.7299 -2.2076  1.0582
 9213SOL    HW239102   2.646   0.098   2.474  0.0703  0.3510  0.4851
 9214SOL     OW39103   3.782   3.646   4.178 -0.2004  0.1109 -0.2240
 9214SOL    HW139104   3.797   3.607   4.092  2.0669 -0.8480  0.6028
 9214SOL    HW239105   3.863   3.694   4.191 -0.3987  0.2196  0.6392
 9215SOL     OW39106   4.587   2.605  17.532  0.3453  0.5641 -0.5030
 9215SOL    HW139107   4.557   2.680  17.480 -1.7552 -0.8804 -1.3919
 9215SOL    HW239108   4.636   2.651  17.600  0.5341  2.3704 -1.8417
 9216SOL     OW39109   2.607   0.752   7.319  0.4502  0.1805 -0.4966
 9216SOL    HW139110   2.636   0.669   7.283  1.7107 -0.3748  1.8209
 9216SOL    HW239111   2.681   0.810   7.302  0.5754  0.7448  1.9860
 9217SOL     OW39112   4.651   3.006  12.216  0.0289 -0.6504 -0.0549
 9217SOL    HW139113   4.577   2.995  12.156 -0.0387  0.9195 -0.2387
 9217SOL    HW239114   4.627   3.077  12.275  2.4138 -0.9901  1.3233
 9218SOL     OW39115   0.894   3.599   6.453  0.1525  0.4310 -0.0605
 9218SOL    HW139116   0.970   3.604   6.395  1.1708  0.1480  1.2340
 9218SOL    HW239117   0.851   3.684   6.441  1.2933  0.7297 -1.9490
 9219SOL     OW39118   0.390   2.889   6.041 -0.0869 -0.3209 -0.7608
 9219SOL    HW139119   0.458   2.852   5.984 -1.5344 -0.9361 -2.1006
 9219SOL    HW239120   0.422   2.978   6.024 -0.5378  0.4178  2.3498
 9220SOL     OW39121   1.500   0.012  10.346 -0.1445  0.2784  0.1259
 9220SOL    HW139122   1.532   4.684  10.421  0.7753  0.8000  0.0814
 9220SOL    HW239123   1.560   4.696  10.283 -1.8847 -1.7773 -0.2859
 9221SOL     OW39124   1.260   1.476  16.706  0.1257  0.2805 -0.0035
 9221SOL    HW139125   1.321   1.543  16.677  0.0861  0.4105  0.2068
 9221SOL    HW239126   1.297   1.451  16.791 -1.7706 -0.0574  0.7474
 9222SOL     OW39127   3.926   2.436   5.092  0.0248 -0.7615 -0.3734
 9222SOL    HW139128   3.932   2.530   5.076  2.8728 -0.5973  1.7081
 9222SOL    HW239129   4.012   2.419   5.129 -1.0205 -2.3242  1.3463
 9223SOL     OW39130   4.653   0.113   6.353  0.4701 -0.0575 -0.3800
 9223SOL    HW139131   4.611   0.165   6.284  0.0578 -0.4143 -0.3984
 9223SOL    HW239132   4.659   0.177   6.423  1.3018 -0.2436 -0.2840
 9224SOL     OW39133   2.712   4.117   3.825 -0.0682 -0.0074  0.3064
 9224SOL    HW139134   2.638   4.065   3.795  1.0998 -1.1383 -0.6614
 9224SOL    HW239135   2.673   4.202   3.805 -2.0218 -0.8954  0.4127
 9225SOL     OW39136   1.152   2.750  15.924 -0.0481 -0.6635 -0.1542
 9225SOL    HW139137   1.215   2.722  15.858  1.2156  0.0439  0.7618
 9225SOL    HW239138   1.125   2.661  15.947 -0.0380 -0.3325  1.0858
 9226SOL     OW39139   2.998   2.035   6.333  0.0554  0.0285  0.5135
 9226SOL    HW139140   2.933   2.099   6.304 -0.1473 -1.0201 -1.3793
 9226SOL    HW239141   3.053   2.088   6.392 -2.2685  1.7958  1.0932
 9227SOL     OW39142   0.813   3.725   7.896 -0.3411 -0.2136 -0.3119
 9227SOL    HW139143   0.741   3.742   7.956 -0.9347  0.2432 -1.1666
 9227SOL    HW239144   0.854   3.811   7.894 -0.9855  0.1006 -0.0132
 9228SOL     OW39145   4.386   3.721   6.080 -0.3270  0.1851 -0.7725
 9228SOL    HW139146   4.297   3.709   6.114  0.5648 -2.2965  0.7190
 9228SOL    HW239147   4.406   3.634   6.046 -2.2145 -0.8356  0.7046
 9229SOL     OW39148   3.652   1.324   6.974 -0.0444 -0.0045 -0.0894
 9229SOL    HW139149   3.560   1.349   6.983 -0.1965 -0.3151 -0.7313
 9229SOL    HW239150   3.672   1.269   7.050  0.6839 -0.1121 -0.3612
 9230SOL     OW39151   4.417   2.220   5.887  0.1025 -0.8333 -0.2243
 9230SOL    HW139152   4.458   2.157   5.946  1.8138  1.4286  1.0221
 9230SOL    HW239153   4.364   2.260   5.956  0.5749  0.5623 -0.6849
 9231SOL     OW39154   1.972   1.858   6.743  0.2070 -0.3576 -0.6285
 9231SOL    HW139155   1.915   1.803   6.796 -0.1402  0.9261  0.3270
 9231SOL    HW239156   1.899   1.912   6.714  0.1954  0.9179  1.7991
 9232SOL     OW39157   4.018   3.926   4.651 -0.1700  0.3237  0.3418
 9232SOL    HW139158   4.072   3.851   4.626  0.1864 -0.7778  4.3865
 9232SOL    HW239159   3.936   3.893   4.614 -1.1091  1.1207  1.7062
 9233SOL     OW39160   3.309   2.717   2.565  0.4954  0.1728  0.1066
 9233SOL    HW139161   3.383   2.707   2.506 -0.4471  0.7184 -1.1772
 9233SOL    HW239162   3.283   2.807   2.546  1.0531 -0.1076 -1.9746
 9234SOL     OW39163   4.042   1.343  12.733 -0.2209  0.2788  0.2778
 9234SOL    HW139164   3.981   1.341  12.659  1.5809  1.3244 -1.2350
 9234SOL    HW239165   4.034   1.437  12.752  1.1908  0.3409  0.5318
 9235SOL     OW39166   1.571   2.467  12.074  0.0817  0.4081  0.1414
 9235SOL    HW139167   1.491   2.453  12.023 -0.2818 -0.3681  0.9278
 9235SOL    HW239168   1.644   2.436  12.020 -0.6089 -1.1997  0.1408
 9236SOL     OW39169   3.284   4.403  10.684  0.2137  0.3121  0.4524
 9236SOL    HW139170   3.372   4.413  10.649 -0.1220  0.7980 -0.2415
 9236SOL    HW239171   3.263   4.490  10.719 -0.2658  1.0335 -1.6513
 9237SOL     OW39172   0.935   0.332   7.684 -0.2416 -0.0254  0.1968
 9237SOL    HW139173   0.872   0.403   7.674  1.7332  1.9271  1.7477
 9237SOL    HW239174   0.928   0.291   7.598 -0.3970 -2.0825  1.1701
 9238SOL     OW39175   3.531   3.254   0.413  0.0831 -0.3721  0.2598
 9238SOL    HW139176   3.490   3.175   0.377 -0.2219 -0.9502  1.8726
 9238SOL    HW239177   3.577   3.214   0.487  0.6731  3.0842  1.7679
 9239SOL     OW39178   4.511   2.267   5.452 -0.1011  0.1627  0.3912
 9239SOL    HW139179   4.533   2.174   5.442 -0.6180  0.0632  0.1582
 9239SOL    HW239180   4.572   2.294   5.520 -0.5541 -1.9129  1.6377
 9240SOL     OW39181   1.734   2.974  13.785 -0.2324  0.3335  0.0989
 9240SOL    HW139182   1.639   2.987  13.782 -0.8380 -3.8270  1.0796
 9240SOL    HW239183   1.757   3.046  13.844  2.0937 -0.9515  0.7363
 9241SOL     OW39184   0.836   1.691  13.177  0.4376  0.1289 -0.0543
 9241SOL    HW139185   0.775   1.711  13.106 -2.6982  1.2144  2.9531
 9241SOL    HW239186   0.887   1.771  13.190  0.2679  0.2582 -0.1810
 9242SOL     OW39187   0.456   3.404   3.446 -0.2548  1.0174 -0.3702
 9242SOL    HW139188   0.406   3.444   3.375  0.3201  1.2708 -0.6307
 9242SOL    HW239189   0.389   3.387   3.512  1.4551  1.4744  1.5069
 9243SOL     OW39190   3.851   0.546   3.350  0.4982  0.0283  0.1689
 9243SOL    HW139191   3.757   0.562   3.357  0.6769  1.5008 -0.7231
 9243SOL    HW239192   3.860   0.499   3.267  0.1385 -0.8092  0.6057
 9244SOL     OW39193   1.046   3.616   6.221  0.2754 -0.3731 -0.4429
 9244SOL    HW139194   1.010   3.560   6.152 -0.3966 -1.1591  0.5338
 9244SOL    HW239195   1.054   3.693   6.165  0.0078  0.7168  1.0205
 9245SOL     OW39196   0.837   0.944  10.493  0.4281  0.0927 -0.1117
 9245SOL    HW139197   0.769   0.977  10.435  0.4909  0.0063 -0.2334
 9245SOL    HW239198   0.833   1.007  10.565  2.8252  0.9434 -0.7086
 9246SOL     OW39199   1.644   4.590   4.563 -0.5455 -0.5513  0.2401
 9246SOL    HW139200   1.623   4.672   4.517  1.2552  0.2927  0.9085
 9246SOL    HW239201   1.573   4.599   4.627 -2.1193  0.3455 -1.6257
 9247SOL     OW39202   0.980   3.468   3.951 -1.1135  0.1099 -0.0621
 9247SOL    HW139203   0.961   3.485   3.859 -1.1115  0.0265 -0.0779
 9247SOL    HW239204   1.053   3.406   3.952  0.0387  1.4916  1.2475
 9248SOL     OW39205   3.627   3.012   4.672  0.2093 -0.1194 -0.4845
 9248SOL    HW139206   3.661   2.932   4.632  0.9639  0.1445 -0.3782
 9248SOL    HW239207   3.548   2.972   4.708 -1.1458  0.6047 -2.6361
 9249SOL     OW39208   1.211   4.050  15.430 -0.3959 -0.5331 -0.8065
 9249SOL    HW139209   1.174   4.089  15.351 -1.2095 -1.7339 -1.0215
 9249SOL    HW239210   1.300   4.032  15.400  0.3380  1.9282 -0.0318
 9250SOL     OW39211   1.809   1.577  11.652 -0.6356 -0.7616 -0.2797
 9250SOL    HW139212   1.734   1.521  11.637 -0.0195 -1.1783 -1.7689
 9250SOL    HW239213   1.847   1.584  11.564 -2.0556  1.3810 -0.7294
 9251SOL     OW39214   4.609   2.829   3.754 -0.0454 -0.4556  0.0195
 9251SOL    HW139215   4.683   2.773   3.732  1.1692  0.4745  1.7235
 9251SOL    HW239216   4.546   2.781   3.700  0.7571  0.0773 -1.3766
 9252SOL     OW39217   4.321   3.941   0.159  0.0701  0.2983  0.0066
 9252SOL    HW139218   4.337   3.920   0.251  1.0112 -0.6280 -0.3668
 9252SOL    HW239219   4.374   3.876   0.112  1.1338  0.1727  1.3804
 9253SOL     OW39220   0.777   3.128  15.359  0.7107 -0.4689  0.3410
 9253SOL    HW139221   0.761   3.215  15.324  1.2142 -0.7450 -0.5887
 9253SOL    HW239222   0.814   3.084  15.282 -0.8936 -1.9625  0.4184
 9254SOL     OW39223   3.810   3.874   7.052  0.0517  0.6245  0.3212
 9254SOL    HW139224   3.801   3.784   7.082  3.5171  0.3245  0.4459
 9254SOL    HW239225   3.825   3.924   7.132 -0.5172 -2.6329  2.4412
 9255SOL     OW39226   0.605   1.152  13.998 -0.2227  0.2539  0.0116
 9255SOL    HW139227   0.512   1.170  14.010 -0.5723 -2.5883  1.7189
 9255SOL    HW239228   0.617   1.060  14.022  0.7644  0.7570  1.4692
 9256SOL     OW39229   0.034   1.595  15.029 -0.5053  0.4392 -0.0897
 9256SOL    HW139230   0.060   1.686  15.015 -1.4669  0.5922 -0.8929
 9256SOL    HW239231   0.111   1.548  14.998 -0.5186 -0.4399  1.1868
 9257SOL     OW39232   2.577   3.641   0.973 -0.0371 -0.1236 -0.1836
 9257SOL    HW139233   2.638   3.706   0.939  0.0048  0.0330  0.1881
 9257SOL    HW239234   2.495   3.687   0.954  0.3169 -0.3841 -2.3372
 9258SOL     OW39235   2.142   1.619  16.015  0.1658 -1.0690  0.3503
 9258SOL    HW139236   2.112   1.545  16.068  2.0773 -1.9302  0.2413
 9258SOL    HW239237   2.161   1.572  15.934 -0.2353  0.2770 -0.5191
 9259SOL     OW39238   1.980   1.623   2.310 -0.7862 -0.3708  0.1378
 9259SOL    HW139239   1.887   1.630   2.332 -0.8503 -0.7895 -0.0162
 9259SOL    HW239240   2.006   1.712   2.335 -0.7622 -0.1564 -0.6718
 9260SOL     OW39241   1.088   4.543   4.799  0.0902  0.1588  0.0527
 9260SOL    HW139242   1.015   4.597   4.827 -0.8589 -0.6184 -0.9380
 9260SOL    HW239243   1.046   4.503   4.723  1.3791 -1.6226  0.2830
 9261SOL     OW39244   0.917   0.523  16.954 -0.5378 -0.4122 -0.5673
 9261SOL    HW139245   0.910   0.555  16.864 -1.1728 -1.8772 -1.0426
 9261SOL    HW239246   0.839   0.562  16.993 -0.3999 -3.0580  2.3458
 9262SOL     OW39247   0.403   2.927   4.971 -0.2943 -0.3183 -0.4147
 9262SOL    HW139248   0.476   2.876   5.005 -0.7083  0.1334  1.1512
 9262SOL    HW239249   0.455   2.961   4.898  0.6090 -1.3730 -0.2548
 9263SOL     OW39250   3.971   2.053   3.333  1.0883  0.6614  0.3082
 9263SOL    HW139251   3.986   2.134   3.381 -2.2581  1.7572 -0.5048
 9263SOL    HW239252   3.876   2.050   3.330  1.0803  0.0321  1.2572
 9264SOL     OW39253   2.411   0.568   7.133 -0.3172  0.1024  0.3032
 9264SOL    HW139254   2.504   0.552   7.148  0.3210  4.1532  0.6675
 9264SOL    HW239255   2.409   0.608   7.046 -1.1890 -0.2053  0.1814
 9265SOL     OW39256   4.494   3.170   7.123  0.0661  0.7998 -0.1305
 9265SOL    HW139257   4.491   3.228   7.200  1.3823 -0.4477  0.8770
 9265SOL    HW239258   4.573   3.118   7.136 -2.1203 -2.4829  0.0182
 9266SOL     OW39259   4.095   4.710   9.407 -0.1340 -0.2771 -0.1931
 9266SOL    HW139260   4.154   4.713   9.331 -1.0194  0.6442 -0.8442
 9266SOL    HW239261   4.144   4.655   9.468 -0.0499  1.1299  0.9863
 9267SOL     OW39262   0.688   3.796   2.218 -0.0379 -0.1068  0.0784
 9267SOL    HW139263   0.696   3.865   2.152  3.3727 -1.3566 -0.8394
 9267SOL    HW239264   0.724   3.723   2.167  0.2901  0.6369 -0.7451
 9268SOL     OW39265   3.557   2.413   2.917  0.3469  0.3813 -0.0688
 9268SOL    HW139266   3.511   2.497   2.908  1.0630  0.8915  1.1403
 9268SOL    HW239267   3.646   2.438   2.896 -0.0732  2.4205  0.6391
 9269SOL     OW39268   4.380   2.307   4.822 -0.2596 -0.0392 -0.1636
 9269SOL    HW139269   4.382   2.263   4.907  2.6489  0.5783  0.0737
 9269SOL    HW239270   4.370   2.399   4.847 -0.7805  0.3130 -1.6738
 9270SOL     OW39271   3.862   2.255   5.675  0.8365 -0.4870 -0.1971
 9270SOL    HW139272   3.835   2.166   5.697  2.6837 -0.5028  2.0186
 9270SOL    HW239273   3.957   2.252   5.680  0.7735 -1.2011  0.4876
 9271SOL     OW39274   2.245   0.759   6.114  0.3589  0.2741 -0.3314
 9271SOL    HW139275   2.248   0.724   6.024  1.5823  1.0853 -0.6019
 9271SOL    HW239276   2.220   0.849   6.091  0.2688  0.1165 -0.8652
 9272SOL     OW39277   1.723   4.357   3.567 -0.1275  0.6768 -0.0584
 9272SOL    HW139278   1.634   4.334   3.597  0.6137 -1.8778  0.1723
 9272SOL    HW239279   1.715   4.453   3.561  0.7971  0.7498 -0.1401
 9273SOL     OW39280   1.252   0.275  12.313 -0.0995  0.3230  0.5005
 9273SOL    HW139281   1.305   0.201  12.283  1.8194  1.6014  0.7056
 9273SOL    HW239282   1.266   0.327  12.234  2.1014  0.8411  1.2068
 9274SOL     OW39283   3.401   1.407   9.880  0.6398  0.1574 -0.2851
 9274SOL    HW139284   3.358   1.322   9.874  0.9826 -0.0907  0.6184
 9274SOL    HW239285   3.478   1.390   9.935  0.0866 -0.0820  0.4167
 9275SOL     OW39286   4.037   4.494   5.416  0.1111  0.3933 -0.2154
 9275SOL    HW139287   3.952   4.456   5.395  1.4413 -3.0443  0.7533
 9275SOL    HW239288   4.094   4.431   5.373 -1.3047 -0.9812 -0.0496
 9276SOL     OW39289   4.070   4.612  10.464 -0.6618 -0.2289 -0.2021
 9276SOL    HW139290   4.033   4.557  10.533  0.7109 -1.2132 -0.2565
 9276SOL    HW239291   3.992   4.651  10.425 -0.6746 -0.5589 -0.4984
 9277SOL     OW39292   4.322   2.784   0.031  0.0706  0.6650 -0.2567
 9277SOL    HW139293   4.262   2.723  17.682 -0.9298  2.1294 -0.9713
 9277SOL    HW239294   4.346   2.844  17.654 -2.2729  0.5405 -1.1751
 9278SOL     OW39295   1.258   1.704  10.867 -0.4802 -0.2602  0.6469
 9278SOL    HW139296   1.187   1.648  10.899 -1.1531  1.3265  1.9516
 9278SOL    HW239297   1.248   1.678  10.775  0.3989 -1.3776  0.8726
 9279SOL     OW39298   3.125   1.706  11.454  0.5913 -0.1450  0.5229
 9279SOL    HW139299   3.089   1.793  11.473  0.6650  0.1613 -0.7283
 9279SOL    HW239300   3.107   1.697  11.360  0.0532  1.1252  0.5087
 9280SOL     OW39301   2.220   2.078   9.238 -0.3697  0.2574 -0.1176
 9280SOL    HW139302   2.155   2.010   9.221 -0.7429  0.8285 -0.9756
 9280SOL    HW239303   2.214   2.087   9.333 -3.5691 -2.7720 -0.0300
 9281SOL     OW39304   1.261   0.742   7.487 -0.0390 -0.2106 -0.6553
 9281SOL    HW139305   1.311   0.821   7.467  1.4492 -0.7333  1.0321
 9281SOL    HW239306   1.278   0.734   7.581  0.2939  1.5641 -0.5726
 9282SOL     OW39307   1.833   2.752   7.786  0.3139  0.4396 -0.3042
 9282SOL    HW139308   1.911   2.710   7.822 -1.5095 -1.8026  1.0111
 9282SOL    HW239309   1.841   2.837   7.830 -2.2879  0.0834  0.8672
 9283SOL     OW39310   3.520   4.129   4.331 -0.0244  0.2454  0.6611
 9283SOL    HW139311   3.570   4.056   4.368  0.1139  0.6934  1.3518
 9283SOL    HW239312   3.466   4.075   4.273 -0.4517  1.0018  0.3568
 9284SOL     OW39313   3.194   0.839   8.058 -0.2220  0.1060  0.1403
 9284SOL    HW139314   3.158   0.890   7.985 -0.2457 -0.2721 -0.1111
 9284SOL    HW239315   3.274   0.890   8.075 -0.6384  0.4888  0.9640
 9285SOL     OW39316   1.387   1.423   0.387 -0.5585 -1.0292 -0.2610
 9285SOL    HW139317   1.345   1.506   0.411 -0.2443 -0.3623 -2.0291
 9285SOL    HW239318   1.471   1.461   0.359 -0.4207  0.3436  1.9628
 9286SOL     OW39319   0.983   0.198   0.454  0.0467 -0.2798 -0.5997
 9286SOL    HW139320   1.025   0.205   0.540 -2.4994  2.2728  0.4459
 9286SOL    HW239321   0.968   0.288   0.425  1.7731  0.7003  1.5276
 9287SOL     OW39322   4.443   0.885   6.610  0.6804  0.2285 -0.5370
 9287SOL    HW139323   4.390   0.956   6.646  1.9016 -0.1241  1.9809
 9287SOL    HW239324   4.439   0.899   6.515  1.7584  1.3549 -0.4250
 9288SOL     OW39325   3.675   1.314   8.846  0.2347  0.1249  0.0302
 9288SOL    HW139326   3.590   1.352   8.825 -0.1901 -0.6037  0.4444
 9288SOL    HW239327   3.689   1.251   8.775 -0.8705 -0.7734  0.6321
 9289SOL     OW39328   0.830   0.869  10.121  0.4238 -0.3548 -0.2012
 9289SOL    HW139329   0.788   0.837  10.201 -0.6019  4.3026  1.1209
 9289SOL    HW239330   0.795   0.958  10.132  0.9156 -0.4213  1.8235
 9290SOL     OW39331   0.720   1.435   2.410 -0.2879 -0.1420  0.1350
 9290SOL    HW139332   0.706   1.499   2.480  1.8975 -0.7648  1.1483
 9290SOL    HW239333   0.789   1.474   2.356 -1.7958  3.1911  0.6161
 9291SOL     OW39334   3.732   3.060   8.732  0.6004 -0.3608  0.5436
 9291SOL    HW139335   3.765   2.972   8.753 -1.2157 -1.2569 -0.3432
 9291SOL    HW239336   3.733   3.109   8.814  1.9453  0.3103  0.1197
 9292SOL     OW39337   0.892   3.794  12.243 -0.3318 -0.5988 -0.1581
 9292SOL    HW139338   0.955   3.750  12.186  0.4495  0.0781  0.1785
 9292SOL    HW239339   0.879   3.728  12.311  0.5005 -0.4500  0.1542
 9293SOL     OW39340   1.442   1.347   4.595 -0.5488 -0.1142 -0.4408
 9293SOL    HW139341   1.381   1.397   4.648 -0.3442  1.2739 -1.5050
 9293SOL    HW239342   1.518   1.402   4.614  0.3185 -0.7924 -1.8842
 9294SOL     OW39343   1.818   1.341   1.849 -1.0139  0.4960  0.3371
 9294SOL    HW139344   1.861   1.352   1.933 -0.2602 -0.8917  0.1336
 9294SOL    HW239345   1.867   1.392   1.785  0.4134 -0.8564  0.3498
 9295SOL     OW39346   2.469   1.857  12.525  0.3921 -0.1569 -0.0380
 9295SOL    HW139347   2.494   1.810  12.604 -1.1565  0.9464  1.1021
 9295SOL    HW239348   2.387   1.892  12.560 -0.2281 -0.0146 -1.6328
 9296SOL     OW39349   2.692   1.400  15.064 -0.4638  0.3450  0.1779
 9296SOL    HW139350   2.722   1.410  14.973 -1.6101 -0.1467 -0.2556
 9296SOL    HW239351   2.660   1.488  15.082 -0.8283  0.0796  0.8146
 9297SOL     OW39352   2.122   4.464   8.509  0.2482 -0.0692 -0.0131
 9297SOL    HW139353   2.080   4.546   8.484 -1.7580 -0.3292  2.5561
 9297SOL    HW239354   2.134   4.428   8.421 -1.0931  1.1339 -0.6805
 9298SOL     OW39355   1.578   1.120   8.857 -0.5757  0.4849 -0.0482
 9298SOL    HW139356   1.488   1.085   8.854 -0.1098 -0.7273  0.1504
 9298SOL    HW239357   1.592   1.167   8.938 -3.3373 -3.6801  2.8830
 9299SOL     OW39358   2.634   1.343   3.399  0.3216  0.0417  0.5775
 9299SOL    HW139359   2.650   1.369   3.309  1.3246 -0.8629  0.4952
 9299SOL    HW239360   2.555   1.289   3.390 -0.2168  1.4824 -2.9275
 9300SOL     OW39361   0.022   1.645   7.707 -0.5332 -0.2194  0.4343
 9300SOL    HW139362   0.111   1.611   7.717 -0.5541  0.1291  1.7949
 9300SOL    HW239363   0.016   1.685   7.794  0.2629  2.5437 -0.8062
 9301SOL     OW39364   0.656   1.841   6.990 -0.0848  0.0029  0.0433
 9301SOL    HW139365   0.575   1.793   7.009 -0.0018  0.6352  1.9223
 9301SOL    HW239366   0.653   1.901   7.064 -3.9759  0.9085 -0.8703
 9302SOL     OW39367   1.992   1.341  13.745  0.3843 -0.2139 -0.2300
 9302SOL    HW139368   1.908   1.338  13.698 -2.2855  1.0532  4.4611
 9302SOL    HW239369   2.017   1.431  13.725 -0.9050  0.2177  0.0897
 9303SOL     OW39370   0.145   1.762  10.726  0.2429 -0.1762 -0.5665
 9303SOL    HW139371   0.162   1.854  10.708  2.8634 -0.4661  0.4153
 9303SOL    HW239372   0.096   1.774  10.807 -0.0676 -2.1495 -0.4599
 9304SOL     OW39373   0.011   2.711   0.036 -0.1235 -0.2479 -0.4174
 9304SOL    HW139374   0.041   2.636   0.087 -0.6409  0.7518  1.3605
 9304SOL    HW239375   0.018   2.780   0.102  0.3179  1.3662 -2.1461
 9305SOL     OW39376   3.049   1.261   8.725 -0.2325  0.5571  0.2868
 9305SOL    HW139377   3.108   1.298   8.659  0.0061 -0.5435 -0.1217
 9305SOL    HW239378   2.961   1.285   8.696 -0.2839  3.0848  2.5143
 9306SOL     OW39379   3.466   3.453  13.008 -0.9489 -0.1791  0.1199
 9306SOL    HW139380   3.422   3.368  13.016  0.3988 -0.9923 -1.1794
 9306SOL    HW239381   3.484   3.463  13.102 -0.7258 -3.4376  0.4257
 9307SOL     OW39382   1.220   2.301   3.583 -0.1894 -0.1793 -0.0259
 9307SOL    HW139383   1.195   2.220   3.539  0.8709  0.6527 -2.1477
 9307SOL    HW239384   1.275   2.346   3.519 -1.9689  0.6048 -1.0033
 9308SOL     OW39385   1.793   3.981   2.509 -0.2626 -0.2385  0.1451
 9308SOL    HW139386   1.749   3.972   2.593 -0.4854 -0.7686 -0.0273
 9308SOL    HW239387   1.851   4.051   2.540  0.8148 -1.4768  0.9242
 9309SOL     OW39388   3.620   1.331   3.452  0.2260  0.1762 -0.2153
 9309SOL    HW139389   3.560   1.323   3.378  0.8438 -0.2951 -0.6597
 9309SOL    HW239390   3.699   1.360   3.407 -0.1091  1.9689  0.3326
 9310SOL     OW39391   1.173   0.913   8.699 -0.7843 -0.4754  0.6648
 9310SOL    HW139392   1.227   0.840   8.670  0.3716 -0.1873  2.0612
 9310SOL    HW239393   1.174   0.957   8.614  1.5876 -0.4111  0.7390
 9311SOL     OW39394   0.106   0.625   4.875  0.1728  0.2055  0.2781
 9311SOL    HW139395   0.165   0.684   4.921 -1.0547  0.1718  1.9248
 9311SOL    HW239396   0.161   0.614   4.798 -0.5237  2.5751 -0.5541
 9312SOL     OW39397   1.657   4.093  12.631  0.2003  0.7355 -0.4614
 9312SOL    HW139398   1.713   4.155  12.585  1.1487  1.7040  2.0077
 9312SOL    HW239399   1.721   4.022  12.627 -2.0460 -1.3571  0.6223
 9313SOL     OW39400   0.796   2.522   4.397  0.7135  0.3216 -0.0468
 9313SOL    HW139401   0.852   2.463   4.346 -0.0685  1.4356 -2.2152
 9313SOL    HW239402   0.719   2.524   4.340 -0.3657 -2.6544  1.3263
 9314SOL     OW39403   4.311   0.991   4.328  0.0844 -0.0435  0.4386
 9314SOL    HW139404   4.226   1.025   4.354  1.0405  2.0374  0.8867
 9314SOL    HW239405   4.331   1.042   4.250 -0.6926  1.4493  1.2169
 9315SOL     OW39406   1.297   3.487  11.640  0.4674 -0.6229  0.7615
 9315SOL    HW139407   1.213   3.489  11.594  0.9003 -0.2110 -0.0135
 9315SOL    HW239408   1.323   3.395  11.633 -2.2177 -1.3517  0.2358
 9316SOL     OW39409   4.407   1.677  11.806  0.0641 -0.3570  0.3815
 9316SOL    HW139410   4.343   1.724  11.860 -0.6163 -0.7110 -0.1135
 9316SOL    HW239411   4.435   1.606  11.864  2.0241 -0.3233 -0.5425
 9317SOL     OW39412   1.341   4.051   3.676 -0.0556 -0.1055 -0.0712
 9317SOL    HW139413   1.249   4.060   3.697 -0.2978 -0.0090 -1.1664
 9317SOL    HW239414   1.364   3.966   3.714  2.2527  0.3684 -0.3709
 9318SOL     OW39415   2.373   2.719   3.329  0.4680  0.5859 -0.1753
 9318SOL    HW139416   2.399   2.727   3.237  3.5104  1.3728  0.7408
 9318SOL    HW239417   2.454   2.714   3.381 -0.3168 -2.3423  0.7950
 9319SOL     OW39418   1.357   4.564   4.814 -0.4254  0.2095 -0.3111
 9319SOL    HW139419   1.387   4.633   4.755  0.1195 -0.0193 -0.2944
 9319SOL    HW239420   1.262   4.576   4.820 -0.5443 -0.7614 -0.2542
 9320SOL     OW39421   0.928   1.424  15.670 -0.3898 -0.0077 -0.0694
 9320SOL    HW139422   0.840   1.387  15.670  0.5250 -2.2005 -1.4375
 9320SOL    HW239423   0.911   1.518  15.677  0.8581  0.4001 -2.3321
 9321SOL     OW39424   0.693   2.040   2.353 -0.0284  0.7161  0.3363
 9321SOL    HW139425   0.711   2.041   2.446 -2.1510  0.9474  0.7598
 9321SOL    HW239426   0.616   2.097   2.352 -0.7282 -0.2409 -1.4004
 9322SOL     OW39427   4.341   2.150  17.657  0.1902  0.1989  0.6980
 9322SOL    HW139428   4.364   2.236  17.620  0.8513 -0.5818 -0.7011
 9322SOL    HW239429   4.284   2.129  17.583  0.8355 -1.0586  0.5649
 9323SOL     OW39430   1.546   0.274  10.809  0.4093 -0.1140 -0.0482
 9323SOL    HW139431   1.504   0.253  10.725  2.3233  1.0031 -1.3050
 9323SOL    HW239432   1.544   0.190  10.853  3.5270  0.2845  0.8581
 9324SOL     OW39433   1.014   1.238  11.106 -0.0324 -0.3145  0.1240
 9324SOL    HW139434   0.951   1.306  11.082  2.0717  1.6006 -0.0267
 9324SOL    HW239435   1.001   1.231  11.201 -2.3543  2.2584 -0.0311
 9325SOL     OW39436   2.192   1.381  11.928 -0.0836 -0.6110  0.3998
 9325SOL    HW139437   2.124   1.413  11.988 -1.2041  2.1780 -2.3852
 9325SOL    HW239438   2.185   1.458  11.872  1.9483 -1.7738 -1.4557
 9326SOL     OW39439   3.067   2.182   5.923 -0.1034 -0.1410 -0.4295
 9326SOL    HW139440   2.975   2.155   5.926 -0.1700  0.0388 -0.7873
 9326SOL    HW239441   3.080   2.166   5.829  0.0084  2.1820 -0.8123
 9327SOL     OW39442   3.988   0.847   4.933  0.2355 -0.8211  0.3619
 9327SOL    HW139443   4.026   0.932   4.954  2.6565 -2.5241  2.9161
 9327SOL    HW239444   3.906   0.870   4.891 -0.5050 -2.8348  0.7141
 9328SOL     OW39445   4.309   4.520   4.784 -0.0172  0.0678 -0.2782
 9328SOL    HW139446   4.345   4.578   4.717 -0.6228  0.2683 -0.4361
 9328SOL    HW239447   4.245   4.583   4.817 -0.1665 -0.8038  1.0854
 9329SOL     OW39448   0.778   4.474   9.521  0.2093 -0.8273 -0.5102
 9329SOL    HW139449   0.691   4.453   9.486  1.0205 -1.5333 -2.1310
 9329SOL    HW239450   0.813   4.391   9.553  1.4020 -0.4465 -0.8118
 9330SOL     OW39451   3.439   1.024  16.891 -0.1274  0.1128  0.1576
 9330SOL    HW139452   3.476   1.093  16.946 -0.2532  1.1006 -0.9910
 9330SOL    HW239453   3.501   1.038  16.819 -1.0672 -1.7296 -1.0096
 9331SOL     OW39454   2.814   1.020  10.199 -0.6038 -0.1516  0.1168
 9331SOL    HW139455   2.901   0.981  10.188 -1.6475 -2.7849  1.2976
 9331SOL    HW239456   2.786   1.018  10.108  2.8491  2.8597 -1.0022
 9332SOL     OW39457   0.247   1.236   6.797 -0.5466  0.0803 -0.2866
 9332SOL    HW139458   0.329   1.188   6.784 -0.0441  1.0952 -0.8891
 9332SOL    HW239459   0.238   1.268   6.707 -1.8584  1.7535  0.4440
 9333SOL     OW39460   1.884   0.441   5.402  0.1248  0.4153 -0.5159
 9333SOL    HW139461   1.810   0.382   5.385 -0.0745  0.2240  0.9773
 9333SOL    HW239462   1.856   0.514   5.347 -0.2510 -1.2960 -2.5778
 9334SOL     OW39463   1.893   1.301   2.117  0.1482  0.0082  0.2372
 9334SOL    HW139464   1.925   1.212   2.129  1.3075  0.1806 -1.6105
 9334SOL    HW239465   1.805   1.290   2.154 -1.1270  2.1798 -2.0789
 9335SOL     OW39466   3.628   0.878   9.650 -0.1279 -0.0386 -0.1120
 9335SOL    HW139467   3.563   0.825   9.696 -0.2143  1.4152  1.4530
 9335SOL    HW239468   3.680   0.899   9.727  3.0112 -2.4011 -1.5899
 9336SOL     OW39469   2.911   1.272   2.918 -0.4194  0.8427 -0.2689
 9336SOL    HW139470   2.912   1.178   2.933 -0.8363  0.6971 -1.1456
 9336SOL    HW239471   2.995   1.284   2.874  0.1224  0.0696  0.5700
 9337SOL     OW39472   0.360   1.708   2.443  0.0809 -0.3562  0.2528
 9337SOL    HW139473   0.338   1.656   2.366  3.2144  0.3721 -1.1482
 9337SOL    HW239474   0.287   1.765   2.467 -1.2543 -1.8868 -0.2010
 9338SOL     OW39475   4.355   2.845   0.299  0.0303 -0.0348 -0.1672
 9338SOL    HW139476   4.344   2.836   0.204 -1.5674 -2.7297  0.2733
 9338SOL    HW239477   4.327   2.758   0.326  3.0447 -0.8129  0.4503
 9339SOL     OW39478   0.866   2.485   5.415  0.3177  0.2679  0.0084
 9339SOL    HW139479   0.917   2.428   5.357 -0.8965  1.2640 -2.0563
 9339SOL    HW239480   0.861   2.565   5.362  0.2796  0.1707 -0.1356
 9340SOL     OW39481   1.770   1.088   1.907  0.0414 -0.4019  0.8147
 9340SOL    HW139482   1.829   1.065   1.835 -0.2641  0.4907  0.2894
 9340SOL    HW239483   1.771   1.182   1.891  0.4252 -0.3782  0.9713
 9341SOL     OW39484   3.455   3.503   6.827 -0.3834  0.6818  0.6331
 9341SOL    HW139485   3.535   3.451   6.835 -0.6525  0.2094  0.2663
 9341SOL    HW239486   3.492   3.584   6.861 -2.2149  1.7612  0.0713
 9342SOL     OW39487   3.628   0.517   4.787  0.1205  0.6564  0.8589
 9342SOL    HW139488   3.701   0.473   4.830 -0.3556 -1.7271 -0.7747
 9342SOL    HW239489   3.667   0.573   4.720 -0.5026  0.9674  0.7580
 9343SOL     OW39490   0.867   0.258   4.219  0.0530 -0.2419  0.1161
 9343SOL    HW139491   0.960   0.240   4.200 -0.0992  0.3318 -1.2194
 9343SOL    HW239492   0.834   0.242   4.130  1.3814  0.4443 -0.5153
 9344SOL     OW39493   0.815   4.620   5.726  0.4637  0.4871 -0.3704
 9344SOL    HW139494   0.850   4.531   5.729  0.6183  0.5343 -0.6865
 9344SOL    HW239495   0.886   4.666   5.770 -1.2271  1.1733  1.6166
 9345SOL     OW39496   2.151   2.368   7.073  0.2725  0.1898 -0.1269
 9345SOL    HW139497   2.161   2.459   7.043 -2.2901  0.4979 -0.0743
 9345SOL    HW239498   2.238   2.352   7.109  0.8618 -0.2140 -1.7665
 9346SOL     OW39499   4.105   4.421   4.210  0.3024  0.0324 -0.6381
 9346SOL    HW139500   4.123   4.329   4.226 -0.4508  0.2014  1.2127
 9346SOL    HW239501   4.103   4.464   4.296 -0.8915 -0.5245 -0.3908
 9347SOL     OW39502   3.868   2.690  17.653 -0.0113 -0.3398 -0.0061
 9347SOL    HW139503   3.850   2.597  17.664  1.8698 -0.7943 -0.8898
 9347SOL    HW239504   3.803   2.700  17.583 -0.4974  1.5794  0.7045
 9348SOL     OW39505   0.472   1.441   7.659  0.2128  0.0960  0.8968
 9348SOL    HW139506   0.410   1.417   7.591 -0.9469  2.8882  0.9940
 9348SOL    HW239507   0.411   1.483   7.719  0.6004  3.0712 -0.7942
 9349SOL     OW39508   3.521   0.085   8.446 -0.1572 -0.2744 -0.1862
 9349SOL    HW139509   3.615   0.071   8.443 -0.3250 -1.0443 -1.5975
 9349SOL    HW239510   3.506   0.147   8.518  0.3951 -1.7146  1.1667
 9350SOL     OW39511   0.655   1.361  15.637 -0.6922  0.3535  0.3497
 9350SOL    HW139512   0.608   1.302  15.696 -0.2203  0.5074  0.8720
 9350SOL    HW239513   0.595   1.435  15.637  1.1845  1.8781 -1.0705
 9351SOL     OW39514   4.136   1.171   3.808  0.1991  0.1546 -0.2510
 9351SOL    HW139515   4.043   1.197   3.812 -0.2911 -1.8843  2.1282
 9351SOL    HW239516   4.184   1.236   3.859 -1.1302  0.1323  1.0522
 9352SOL     OW39517   0.468   1.164   5.683  0.4399  0.4676  0.5353
 9352SOL    HW139518   0.479   1.177   5.777  0.3270 -2.4213  0.9294
 9352SOL    HW239519   0.469   1.069   5.686 -1.9396  0.4128 -0.5462
 9353SOL     OW39520   0.297   4.558   4.872  0.1209  0.5387 -0.2358
 9353SOL    HW139521   0.379   4.600   4.897  0.8431 -1.4752  0.7244
 9353SOL    HW239522   0.317   4.466   4.886 -0.0928  0.3550 -1.1043
 9354SOL     OW39523   1.950   0.094  14.122  0.2006 -0.2922 -0.0229
 9354SOL    HW139524   1.944   4.722  14.122  3.2411 -0.4627  2.4721
 9354SOL    HW239525   2.012   0.117  14.052 -1.3442  0.1472 -1.2647
 9355SOL     OW39526   1.709   4.271   7.276  0.0475  0.3091 -0.0058
 9355SOL    HW139527   1.757   4.188   7.269  2.1489  1.3984  1.6504
 9355SOL    HW239528   1.657   4.267   7.195 -1.2899 -1.3118  0.9315
 9356SOL     OW39529   3.084   0.056   4.507  0.1331  0.2082 -0.2015
 9356SOL    HW139530   3.059   4.690   4.532  0.0183  0.0069 -1.0316
 9356SOL    HW239531   3.158   0.069   4.565 -1.7293  1.2526  1.9553
 9357SOL     OW39532   1.952   1.210   7.300 -0.1326 -0.2194  0.1907
 9357SOL    HW139533   1.953   1.183   7.208  1.4541  2.1769 -0.5042
 9357SOL    HW239534   2.046   1.227   7.307 -0.1696 -0.4565  1.2377
 9358SOL     OW39535   0.991   3.799   9.789 -0.1852 -0.9288  0.4861
 9358SOL    HW139536   1.080   3.775   9.763  0.8005  0.7568  2.2765
 9358SOL    HW239537   0.965   3.720   9.836 -0.4147 -1.2707 -0.2202
 9359SOL     OW39538   3.913   3.856  12.625  0.4495 -0.3501  0.0779
 9359SOL    HW139539   3.830   3.822  12.589 -0.1970 -1.0362  2.2193
 9359SOL    HW239540   3.877   3.932  12.670 -0.5350 -0.0291 -1.2347
 9360SOL     OW39541   4.400   3.982   3.935 -0.0818 -0.5731  0.3054
 9360SOL    HW139542   4.385   3.909   3.996  2.5061 -0.0770  1.4985
 9360SOL    HW239543   4.381   3.937   3.852  2.0849  0.5681 -0.7843
 9361SOL     OW39544   3.475   4.241  11.452  0.5166 -0.5451 -0.0341
 9361SOL    HW139545   3.397   4.212  11.498  1.0920 -0.8452  0.7621
 9361SOL    HW239546   3.442   4.316  11.403 -1.3936 -1.9156 -0.8170
 9362SOL     OW39547   2.328   3.102   5.366 -0.1629 -0.0343  0.0494
 9362SOL    HW139548   2.239   3.095   5.332 -0.8054 -0.5900  1.8260
 9362SOL    HW239549   2.378   3.147   5.298  0.5578 -2.3195 -0.9082
 9363SOL     OW39550   0.513   2.950   9.577 -0.2348 -0.1062 -0.2869
 9363SOL    HW139551   0.516   2.959   9.482 -4.7350  2.0394 -0.2444
 9363SOL    HW239552   0.438   3.002   9.607 -0.4546  0.3589 -1.6336
 9364SOL     OW39553   2.987   1.742  15.688  0.1014 -0.0811  0.5391
 9364SOL    HW139554   2.951   1.654  15.702  0.0625  0.0826  1.5197
 9364SOL    HW239555   3.079   1.716  15.683  0.4126  0.9193  1.1299
 9365SOL     OW39556   4.063   2.685   4.152  0.1648 -0.2254 -0.3872
 9365SOL    HW139557   4.040   2.668   4.060  0.7860 -1.5283 -0.3016
 9365SOL    HW239558   4.149   2.723   4.134  0.7015 -2.1497 -1.9510
 9366SOL     OW39559   2.044   4.690   7.615 -0.4086 -0.7377 -0.5561
 9366SOL    HW139560   2.036   4.681   7.520  2.2608  1.0103 -0.9179
 9366SOL    HW239561   2.130   4.652   7.633 -0.7886 -0.4206  1.9692
 9367SOL     OW39562   1.178   0.641   8.107  0.8483  0.3485  0.8854
 9367SOL    HW139563   1.156   0.560   8.153 -0.3953  0.3130  0.2189
 9367SOL    HW239564   1.255   0.674   8.153 -0.7339  2.4408  2.0492
 9368SOL     OW39565   0.440   0.119   4.777 -0.2836  0.3472 -0.2490
 9368SOL    HW139566   0.406   0.075   4.699 -0.3113  0.3266 -0.2252
 9368SOL    HW239567   0.375   0.183   4.807 -1.4099 -0.9647  0.1152
 9369SOL     OW39568   3.414   1.471   9.113 -0.9977 -0.2578  0.3516
 9369SOL    HW139569   3.423   1.489   9.207 -1.2016 -0.6369  0.4476
 9369SOL    HW239570   3.355   1.395   9.120 -0.3550 -0.5894  2.2365
 9370SOL     OW39571   3.228   0.565   4.230  0.3000 -0.5449  0.6295
 9370SOL    HW139572   3.231   0.473   4.203 -0.6190 -0.6448  0.8721
 9370SOL    HW239573   3.310   0.565   4.280 -1.1073 -0.9120  2.9178
 9371SOL     OW39574   4.675   1.597   3.536  0.3531 -0.0598 -0.0278
 9371SOL    HW139575   4.581   1.586   3.550  0.4539 -1.5458 -0.5124
 9371SOL    HW239576   4.673   1.675   3.481  2.8809  0.3883  0.4977
 9372SOL     OW39577   2.872   3.134   5.393 -0.8149 -0.2137  0.5152
 9372SOL    HW139578   2.829   3.136   5.308 -0.0576 -0.0636  0.1299
 9372SOL    HW239579   2.935   3.069   5.364  0.6699  2.2610 -1.8063
 9373SOL     OW39580   1.278   4.121   3.386 -0.6385  0.1437 -0.0265
 9373SOL    HW139581   1.351   4.066   3.357 -1.3413 -1.0026  0.3475
 9373SOL    HW239582   1.276   4.095   3.478 -0.9034  0.5743  0.0878
 9374SOL     OW39583   3.730   2.870   5.800  0.2413 -0.2513 -0.4120
 9374SOL    HW139584   3.647   2.902   5.765  0.1439  1.6113  1.5654
 9374SOL    HW239585   3.759   2.827   5.719 -0.0814  0.1503 -0.7392
 9375SOL     OW39586   3.189   3.535  17.489 -0.2383  0.3122 -0.1502
 9375SOL    HW139587   3.201   3.620  17.446  1.8152  0.8165  1.4882
 9375SOL    HW239588   3.212   3.474  17.419 -1.1237 -0.6482  0.3957
 9376SOL     OW39589   3.784   3.082   3.872  0.0225 -0.4695  0.5643
 9376SOL    HW139590   3.850   3.142   3.836  1.1116 -2.5330 -0.8652
 9376SOL    HW239591   3.751   3.141   3.940  1.2027  0.6608  0.1621
 9377SOL     OW39592   0.473   4.256   6.103 -0.3593 -0.0357  0.1553
 9377SOL    HW139593   0.392   4.250   6.053 -0.8085  0.9562  0.7670
 9377SOL    HW239594   0.434   4.244   6.190  1.9141 -0.9421  1.0358
 9378SOL     OW39595   2.583   3.364   6.254  0.4167  0.1781  0.8096
 9378SOL    HW139596   2.612   3.371   6.163 -0.2109  0.1561  0.6091
 9378SOL    HW239597   2.493   3.332   6.251  0.8812 -0.8165 -2.2515
 9379SOL     OW39598   2.912   1.692   0.800  0.2665  0.0915 -0.3304
 9379SOL    HW139599   2.832   1.701   0.851  0.8478  0.5913  0.5102
 9379SOL    HW239600   2.982   1.707   0.864  0.1330  1.9458 -0.6154
 9380SOL     OW39601   3.332   2.111   2.406 -0.0999  0.0745 -0.0655
 9380SOL    HW139602   3.342   2.129   2.313  2.5346 -0.5420  0.0838
 9380SOL    HW239603   3.267   2.041   2.396 -0.4641  0.5566 -1.0554
 9381SOL     OW39604   0.797   0.878   2.834 -0.7681  0.1568 -0.1070
 9381SOL    HW139605   0.753   0.831   2.905 -1.0380  2.3050  1.1510
 9381SOL    HW239606   0.883   0.893   2.875 -1.0240  0.0956  0.4516
 9382SOL     OW39607   3.708   3.753   5.219  0.6735 -0.0084  0.1712
 9382SOL    HW139608   3.792   3.764   5.264  1.2175 -0.5634 -0.7037
 9382SOL    HW239609   3.681   3.840   5.191 -0.4203 -0.2867  0.3757
 9383SOL     OW39610   1.309   1.536  14.805 -0.4112  0.7906 -0.0021
 9383SOL    HW139611   1.399   1.515  14.779 -0.3252  0.3307  0.6569
 9383SOL    HW239612   1.278   1.599  14.740 -1.2681 -0.3230 -0.6725
 9384SOL     OW39613   0.432   3.951   6.137  0.8452  0.2165  0.5617
 9384SOL    HW139614   0.523   3.978   6.155  0.7564  0.7695  0.2121
 9384SOL    HW239615   0.384   4.033   6.150  1.5205  0.2141  2.9486
 9385SOL     OW39616   1.859   1.086   3.222 -0.0874  0.5523  0.4221
 9385SOL    HW139617   1.953   1.102   3.223 -0.1926  1.3110 -0.8121
 9385SOL    HW239618   1.855   1.008   3.167  3.0559 -0.7065  1.9963
 9386SOL     OW39619   3.157   0.776   7.270 -0.5446 -0.3879  0.2616
 9386SOL    HW139620   3.177   0.833   7.344 -1.7078 -0.0419  0.3121
 9386SOL    HW239621   3.148   0.693   7.316  0.9007  0.1786  1.5641
 9387SOL     OW39622   1.754   3.099   6.923  0.2053  0.4986  0.0651
 9387SOL    HW139623   1.762   3.004   6.927  1.0169  0.5853  0.5644
 9387SOL    HW239624   1.739   3.118   7.016 -0.2991  0.4130  0.0033
 9388SOL     OW39625   4.450   3.400   1.204  0.5112 -0.4025 -0.1054
 9388SOL    HW139626   4.493   3.361   1.128  1.7610 -1.6129  1.2082
 9388SOL    HW239627   4.367   3.426   1.164  1.0938 -0.9635 -1.6724
 9389SOL     OW39628   1.387   3.361  16.865  0.0683  0.2043  0.0266
 9389SOL    HW139629   1.429   3.305  16.800 -0.6382 -0.4657  0.1458
 9389SOL    HW239630   1.404   3.312  16.946  1.7425  0.1903 -0.3373
 9390SOL     OW39631   2.698   2.489   7.880  0.1105  0.3381  0.1428
 9390SOL    HW139632   2.770   2.504   7.818  0.8205 -0.9049  0.6569
 9390SOL    HW239633   2.721   2.416   7.938  1.0389  0.1100 -0.5048
 9391SOL     OW39634   2.386   3.523   1.327  0.1780 -0.0484  0.5694
 9391SOL    HW139635   2.298   3.548   1.299 -0.1498 -1.7637  0.0729
 9391SOL    HW239636   2.401   3.445   1.273 -1.3148  1.4183 -1.9992
 9392SOL     OW39637   4.249   0.518  16.018 -0.0499  0.4753  0.3724
 9392SOL    HW139638   4.278   0.428  16.032 -0.3010 -0.1551 -3.2169
 9392SOL    HW239639   4.300   0.540  15.939  0.3530 -1.2249  0.1747
 9393SOL     OW39640   2.155   0.569   4.388 -0.2269  0.3269 -0.2393
 9393SOL    HW139641   2.097   0.565   4.311 -3.0424  0.8315  1.8569
 9393SOL    HW239642   2.140   0.657   4.421 -0.9232  1.0805 -2.5907
 9394SOL     OW39643   0.055   2.067   8.458 -0.4000  0.7484  0.0621
 9394SOL    HW139644   0.085   2.116   8.535  0.1003 -1.8353  1.5021
 9394SOL    HW239645   0.022   1.990   8.504 -2.9137  0.7514 -1.7190
 9395SOL     OW39646   3.342   4.043   3.280  0.4536 -0.8536  0.3793
 9395SOL    HW139647   3.433   4.042   3.249  0.6170  0.4123  0.8401
 9395SOL    HW239648   3.304   4.098   3.211 -0.7420  0.0731  1.8046
 9396SOL     OW39649   3.904   0.932   1.263  0.0273  0.2264 -0.3617
 9396SOL    HW139650   3.946   0.987   1.331  1.3313 -1.1041 -0.0864
 9396SOL    HW239651   3.830   0.989   1.241 -2.0898 -2.1867  0.5619
 9397SOL     OW39652   0.693   4.250  13.021  0.1090 -0.6524  0.0011
 9397SOL    HW139653   0.699   4.232  13.115  2.4697  0.5380  0.0709
 9397SOL    HW239654   0.670   4.343  13.014 -2.4385 -1.2375  0.7694
 9398SOL     OW39655   3.070   0.940   3.536  0.2069  0.6299 -0.1888
 9398SOL    HW139656   3.056   1.017   3.481  1.1321  0.3398 -0.8276
 9398SOL    HW239657   3.153   0.901   3.508 -0.3364 -1.0599  0.5127
 9399SOL     OW39658   2.373   2.363  15.734  0.7248 -0.0551 -0.4172
 9399SOL    HW139659   2.397   2.403  15.651 -1.2281  2.9198  0.4572
 9399SOL    HW239660   2.318   2.291  15.704 -2.6017  2.6287 -0.6512
 9400SOL     OW39661   1.689   2.734  11.544  0.0465 -0.3337  0.0157
 9400SOL    HW139662   1.720   2.804  11.487 -0.0919 -1.2686 -1.1946
 9400SOL    HW239663   1.618   2.699  11.490 -1.7091 -0.3551  2.2989
 9401SOL     OW39664   2.000   2.797   5.520 -0.5818  0.2929  0.1867
 9401SOL    HW139665   1.980   2.715   5.564  0.4926  0.4002  0.8628
 9401SOL    HW239666   2.021   2.859   5.590 -0.5820  0.5968 -0.0805
 9402SOL     OW39667   2.302   3.463   7.692 -0.2515 -0.0971 -0.3765
 9402SOL    HW139668   2.242   3.407   7.740  1.4870  0.6419  2.6709
 9402SOL    HW239669   2.334   3.408   7.621 -1.5454 -1.5008  0.1372
 9403SOL     OW39670   2.878   4.208  11.692 -0.0148  0.0556  0.1625
 9403SOL    HW139671   2.833   4.201  11.608 -0.9618  0.0082  0.6729
 9403SOL    HW239672   2.861   4.120  11.725  0.5532  0.3929  1.3687
 9404SOL     OW39673   2.406   0.907   3.432 -0.1796  0.0700  0.3411
 9404SOL    HW139674   2.371   0.859   3.357  0.8931 -0.3045  0.0749
 9404SOL    HW239675   2.494   0.926   3.399 -1.3368 -1.3855 -3.6035
 9405SOL     OW39676   1.203   1.716   6.995  0.2834 -0.0581  0.4386
 9405SOL    HW139677   1.182   1.707   6.902  0.4076 -0.3035  0.4334
 9405SOL    HW239678   1.226   1.808   7.009 -0.3678 -0.1620  2.2434
 9406SOL     OW39679   2.346   0.300  16.144 -0.0023 -0.1930  0.0973
 9406SOL    HW139680   2.278   0.282  16.079 -0.0589  1.7872 -0.3846
 9406SOL    HW239681   2.332   0.392  16.167 -0.7907 -0.2473 -0.1365
 9407SOL     OW39682   1.052   4.701  13.538 -1.0880  0.6686  0.1388
 9407SOL    HW139683   1.122   4.703  13.472 -0.2823  0.1022  0.9677
 9407SOL    HW239684   1.003   0.056  13.512 -2.6509  0.5008  2.6802
 9408SOL     OW39685   1.785   4.552   5.872 -0.5210 -0.1294  0.4762
 9408SOL    HW139686   1.809   4.482   5.933 -1.7109 -1.5639 -0.6996
 9408SOL    HW239687   1.741   4.615   5.929 -0.9907  0.1560 -0.2017
 9409SOL     OW39688   1.420   1.623   3.679  0.2181  0.3462 -0.2150
 9409SOL    HW139689   1.326   1.642   3.685 -0.2230 -1.6096 -0.9742
 9409SOL    HW239690   1.432   1.625   3.584 -0.2586  2.2770 -0.2277
 9410SOL     OW39691   4.303   4.084   2.291  0.6131 -0.0254  0.1104
 9410SOL    HW139692   4.233   4.147   2.310 -0.0102 -1.2295  1.7776
 9410SOL    HW239693   4.267   3.998   2.312  0.1658  0.3982  1.1373
 9411SOL     OW39694   1.380   0.821   7.131  0.6700 -0.4952  0.0074
 9411SOL    HW139695   1.441   0.893   7.146 -0.4500  0.7805 -1.7159
 9411SOL    HW239696   1.432   0.769   7.069 -1.1992 -2.6964  0.2713
 9412SOL     OW39697   1.706   4.602   7.438 -0.1712  0.0278 -0.1437
 9412SOL    HW139698   1.679   4.579   7.527  0.5074  0.3902  0.1632
 9412SOL    HW239699   1.631   4.583   7.382  1.3089 -2.1088 -1.3791
 9413SOL     OW39700   0.885   2.966   7.643  0.1010  0.2671  0.2187
 9413SOL    HW139701   0.961   2.956   7.586 -0.8967 -1.4998 -0.7792
 9413SOL    HW239702   0.938   2.996   7.717  1.1630  0.9402 -0.8293
 9414SOL     OW39703   2.128   1.870   4.207 -0.7575 -0.7025 -0.1469
 9414SOL    HW139704   2.106   1.790   4.254  1.7972 -1.6658 -0.5531
 9414SOL    HW239705   2.219   1.883   4.236 -0.6500 -0.8629 -0.4145
 9415SOL     OW39706   2.033   2.231   3.593 -0.0922 -0.0454 -0.4593
 9415SOL    HW139707   1.956   2.267   3.549  0.0556  0.3054 -0.4291
 9415SOL    HW239708   2.088   2.308   3.605 -1.1854  0.4765  1.3109
 9416SOL     OW39709   0.687   4.205  12.212 -0.5056  0.0223  0.9750
 9416SOL    HW139710   0.683   4.291  12.171 -1.8721 -0.1454  0.7407
 9416SOL    HW239711   0.603   4.161  12.199  0.8197 -1.8996 -1.1736
 9417SOL     OW39712   3.416   4.566   6.105 -0.5581 -0.1760 -0.2627
 9417SOL    HW139713   3.494   4.515   6.085  1.2006  2.1054  0.7728
 9417SOL    HW239714   3.437   4.659   6.117  0.1083 -0.3357 -0.2193
 9418SOL     OW39715   0.912   0.148  16.756 -0.2749 -0.3791 -0.6065
 9418SOL    HW139716   0.819   0.138  16.738 -0.7358  1.0365  1.0036
 9418SOL    HW239717   0.910   0.131  16.850 -0.3011  0.8447 -0.3860
 9419SOL     OW39718   1.310   1.137   4.446 -0.0867  0.3547  1.1756
 9419SOL    HW139719   1.335   1.219   4.488 -0.1303  0.4642  0.9870
 9419SOL    HW239720   1.246   1.095   4.504 -1.7690  2.4224  0.8120
 9420SOL     OW39721   1.770   2.329   3.493 -0.5403 -0.2653  0.3949
 9420SOL    HW139722   1.731   2.407   3.532 -1.0982  0.8274 -2.3244
 9420SOL    HW239723   1.727   2.345   3.409  1.5182 -0.7459 -0.7644
 9421SOL     OW39724   0.009   1.355   8.961 -0.1920 -0.5872  0.0289
 9421SOL    HW139725   4.648   1.338   9.002  1.1148 -2.5489  1.8452
 9421SOL    HW239726   0.075   1.348   9.030  0.0536  0.9306 -0.0380
 9422SOL     OW39727   1.085   3.779   1.082 -0.2593  0.0791  0.7438
 9422SOL    HW139728   1.126   3.693   1.074 -2.1135 -0.7303 -0.1251
 9422SOL    HW239729   1.024   3.766   1.155  0.6179 -0.2774  1.4185
 9423SOL     OW39730   4.106   4.678   6.072 -0.2463  0.5001  0.1563
 9423SOL    HW139731   4.134   0.042   6.103 -0.6829  0.6608  0.0956
 9423SOL    HW239732   4.060   4.713   5.995 -1.6355 -2.2341 -0.2277
 9424SOL     OW39733   2.624   2.913   2.931 -0.1801 -0.5108  0.0478
 9424SOL    HW139734   2.675   2.833   2.944 -0.4714 -0.6737  0.1855
 9424SOL    HW239735   2.626   2.910   2.835 -0.5222 -0.6164  0.0434
 9425SOL     OW39736   1.775   1.859   8.583  0.4137  0.2039  0.7112
 9425SOL    HW139737   1.742   1.819   8.503  0.5214  1.0658  0.2308
 9425SOL    HW239738   1.769   1.781   8.638  0.8015 -0.9057 -0.8617
 9426SOL     OW39739   0.349   0.972  10.034  0.1675  0.0469 -0.4675
 9426SOL    HW139740   0.346   0.888  10.080  0.0681  1.1445  1.5402
 9426SOL    HW239741   0.315   1.040  10.092  1.9839  0.4341  0.1491
 9427SOL     OW39742   0.447   0.384  14.673  0.3257  0.3662 -0.2885
 9427SOL    HW139743   0.503   0.407  14.599 -0.2749  2.0233 -0.2076
 9427SOL    HW239744   0.426   0.293  14.648  0.6293 -0.0004  0.8049
 9428SOL     OW39745   4.184   3.719   8.665 -0.1079 -0.2519 -0.4126
 9428SOL    HW139746   4.214   3.801   8.624 -1.1276 -0.6872 -1.9815
 9428SOL    HW239747   4.111   3.759   8.713  1.9078 -0.5719  2.9483
 9429SOL     OW39748   0.994   1.605   5.204  0.5923  0.3508  0.4280
 9429SOL    HW139749   0.932   1.545   5.164  0.6465  0.8910 -0.4806
 9429SOL    HW239750   1.016   1.649   5.121  1.4361  0.2933  0.6157
 9430SOL     OW39751   1.703   2.030   2.819  0.0499  0.3196  0.0309
 9430SOL    HW139752   1.799   2.027   2.827 -0.0824 -1.9987  0.7220
 9430SOL    HW239753   1.674   2.068   2.902 -4.5553 -0.7465 -1.0936
 9431SOL     OW39754   2.774   2.371   7.060 -0.5146  0.9937 -0.2271
 9431SOL    HW139755   2.704   2.321   7.019 -0.5605  0.5282  0.4395
 9431SOL    HW239756   2.735   2.458   7.071  0.3856  1.1045  1.9996
 9432SOL     OW39757   2.202   0.276   5.943  0.3455 -0.2102  0.4014
 9432SOL    HW139758   2.137   0.280   5.873  0.4885  2.7226  0.4413
 9432SOL    HW239759   2.174   0.343   6.006 -1.3902  0.7362 -1.3656
 9433SOL     OW39760   2.890   4.466  13.200 -0.3854  0.0745  0.3086
 9433SOL    HW139761   2.910   4.514  13.119  0.3438 -0.3740  0.2257
 9433SOL    HW239762   2.933   4.532  13.254 -1.0174  0.1839  0.6812
 9434SOL     OW39763   0.394   4.063  10.132 -0.0526 -0.2702  0.0365
 9434SOL    HW139764   0.409   4.156  10.115  0.0110  0.0864  2.0616
 9434SOL    HW239765   0.471   4.041  10.185 -0.8355  3.3584  2.6943
 9435SOL     OW39766   0.390   4.249   3.277  0.2120 -0.0966 -0.6305
 9435SOL    HW139767   0.396   4.161   3.240  0.9922  0.8778 -2.7791
 9435SOL    HW239768   0.333   4.223   3.350  0.4907 -0.4331 -0.5274
 9436SOL     OW39769   3.510   3.992   3.820  0.2805  0.4890  0.2584
 9436SOL    HW139770   3.506   4.073   3.769 -1.3660  0.4019  0.2270
 9436SOL    HW239771   3.572   3.950   3.762 -0.7063 -2.6380  1.4746
 9437SOL     OW39772   2.282   2.022   4.830  0.0691  0.5594 -0.4967
 9437SOL    HW139773   2.244   1.951   4.778 -1.1340  1.2912 -0.6074
 9437SOL    HW239774   2.364   1.984   4.864  0.2344  0.3615 -1.1103
 9438SOL     OW39775   3.608   2.887   8.248 -0.5525 -0.1518  0.6598
 9438SOL    HW139776   3.546   2.907   8.318 -2.2852  0.2315 -0.9840
 9438SOL    HW239777   3.554   2.909   8.173  1.4497 -0.6138 -0.9283
 9439SOL     OW39778   3.720   0.248   7.046  0.2002  0.0002 -0.5536
 9439SOL    HW139779   3.714   0.314   7.115 -3.7082 -0.7651 -0.1499
 9439SOL    HW239780   3.788   0.288   6.992  0.1789  1.4660  0.5029
 9440SOL     OW39781   1.291   3.444  17.309  0.1490  0.1133  0.6466
 9440SOL    HW139782   1.209   3.432  17.357 -0.2749 -1.9348 -0.6268
 9440SOL    HW239783   1.258   3.410  17.226  1.7716 -0.8365  0.3896
 9441SOL     OW39784   2.873   0.958   8.717  0.0518 -0.0220 -0.0746
 9441SOL    HW139785   2.912   1.022   8.777 -1.2260  1.8689 -1.2266
 9441SOL    HW239786   2.837   0.888   8.772 -0.5967 -1.3131 -2.1744
 9442SOL     OW39787   0.742   2.502   4.680 -0.0044  0.4617  0.0553
 9442SOL    HW139788   0.794   2.496   4.599  0.6241 -0.8453  0.5482
 9442SOL    HW239789   0.659   2.499   4.632  0.4082 -0.6096 -0.5967
 9443SOL     OW39790   3.954   3.428   8.409  0.1156 -0.0978  0.0791
 9443SOL    HW139791   4.026   3.458   8.465 -0.8435 -2.0301  2.3502
 9443SOL    HW239792   3.900   3.384   8.474 -0.5644 -1.0733 -1.1448
 9444SOL     OW39793   2.252   1.182  10.072 -0.4729  0.3284  0.0473
 9444SOL    HW139794   2.273   1.218  10.158 -0.3592  3.1581 -1.1669
 9444SOL    HW239795   2.175   1.137  10.107  0.2460 -1.8867 -1.2351
 9445SOL     OW39796   0.511   2.454  17.570 -0.5023 -0.3056 -0.1250
 9445SOL    HW139797   0.599   2.450  17.532  0.1187  1.4588  1.1357
 9445SOL    HW239798   0.491   2.361  17.579  0.2225 -0.5707 -1.2535
 9446SOL     OW39799   0.288   1.111   2.559 -0.1805  0.0616  0.1343
 9446SOL    HW139800   0.234   1.101   2.637 -0.2477 -0.9653 -0.0393
 9446SOL    HW239801   0.280   1.202   2.533  0.8194  0.2337  0.4167
 9447SOL     OW39802   4.652   3.721   2.135 -0.5952  0.7320 -0.2125
 9447SOL    HW139803   4.684   3.725   2.045 -0.6791  0.1518 -0.2696
 9447SOL    HW239804   4.569   3.673   2.133 -0.8668  1.2462 -1.5063
 9448SOL     OW39805   2.584   4.389   8.270  0.1999 -0.1381  0.5651
 9448SOL    HW139806   2.554   4.347   8.350 -1.0170  5.2149  2.9146
 9448SOL    HW239807   2.675   4.406   8.294  0.0078 -1.1774  1.9838
 9449SOL     OW39808   0.354   2.120   7.793  0.0788  0.7414  0.4194
 9449SOL    HW139809   0.378   2.044   7.845  0.9953  0.4217 -0.4687
 9449SOL    HW239810   0.432   2.168   7.822  0.4510  0.3127  0.1227
 9450SOL     OW39811   0.681   2.779  15.751  0.9077 -0.3171 -0.1080
 9450SOL    HW139812   0.669   2.822  15.666 -0.9066  0.7108  0.6687
 9450SOL    HW239813   0.635   2.838  15.810  0.7299  1.3540 -1.8992
 9451SOL     OW39814   1.958   1.826   2.670 -0.7525  0.0262 -0.1547
 9451SOL    HW139815   2.024   1.815   2.739 -0.5051  0.8876 -0.2593
 9451SOL    HW239816   1.902   1.752   2.692 -0.3525 -0.1463  0.3051
 9452SOL     OW39817   0.336   2.074  10.264  0.3282  0.2467 -0.5358
 9452SOL    HW139818   0.327   2.151  10.320 -0.1069  0.2957 -0.6746
 9452SOL    HW239819   0.265   2.095  10.203  0.0905 -0.6531 -0.5646
 9453SOL     OW39820   3.975   2.081  17.008  0.2639  0.9704  0.2295
 9453SOL    HW139821   3.989   2.060  16.916 -0.1331  1.1328  0.1330
 9453SOL    HW239822   4.029   2.009  17.042 -1.1455 -0.1778  0.0245
 9454SOL     OW39823   2.304   3.132   8.590  0.1935  0.2023  0.4300
 9454SOL    HW139824   2.375   3.165   8.535  0.5886 -1.8809 -0.3040
 9454SOL    HW239825   2.313   3.037   8.589  0.7562  0.2640 -0.0267
 9455SOL     OW39826   2.515   0.195   2.831 -0.3933 -0.0198 -0.3054
 9455SOL    HW139827   2.462   0.172   2.755 -1.9214 -1.7513  1.2822
 9455SOL    HW239828   2.511   0.290   2.838  0.3386  0.0861 -1.3764
 9456SOL     OW39829   0.748   1.230   1.237 -0.1058 -0.2498 -0.4161
 9456SOL    HW139830   0.676   1.244   1.298  0.8654 -0.3385  0.7535
 9456SOL    HW239831   0.785   1.319   1.245 -0.3050 -0.3346  1.3880
 9457SOL     OW39832   2.313   3.231   4.402  0.2745 -0.6186  0.0586
 9457SOL    HW139833   2.398   3.267   4.375  1.2904 -2.1094  1.2611
 9457SOL    HW239834   2.330   3.223   4.496  2.4529 -0.5822 -0.3213
 9458SOL     OW39835   1.711   2.560   3.605 -0.1298  0.0846  0.0195
 9458SOL    HW139836   1.804   2.579   3.615  0.2651 -1.6230 -0.5534
 9458SOL    HW239837   1.684   2.531   3.692  0.2695 -0.3099  0.0130
 9459SOL     OW39838   4.085   4.333   2.003  0.0691 -0.0430  0.1598
 9459SOL    HW139839   4.111   4.241   1.996 -0.1962 -0.0924 -0.1641
 9459SOL    HW239840   4.159   4.384   1.968 -1.4661  0.8118 -1.8306
 9460SOL     OW39841   0.591   4.278   5.081  0.8433 -0.4385 -0.1980
 9460SOL    HW139842   0.528   4.219   5.121 -1.4253  0.8940 -1.8154
 9460SOL    HW239843   0.538   4.329   5.020 -1.4929 -0.2141  2.0201
 9461SOL     OW39844   4.190   3.418   4.400  0.4951 -0.3080  0.3683
 9461SOL    HW139845   4.185   3.333   4.356  1.0707 -0.4056  0.4937
 9461SOL    HW239846   4.267   3.463   4.366 -1.9833  1.9727 -2.2081
 9462SOL     OW39847   3.785   4.631   7.465 -0.0130 -0.3072 -0.1443
 9462SOL    HW139848   3.730   4.561   7.432  0.5156  0.2907 -2.3477
 9462SOL    HW239849   3.816   4.679   7.388  0.3385  1.5383  1.1488
 9463SOL     OW39850   2.135   2.851   7.865  0.5530  0.5346 -0.1171
 9463SOL    HW139851   2.222   2.810   7.861  1.2807  2.0726 -0.2001
 9463SOL    HW239852   2.078   2.774   7.857  1.1784  0.0734 -0.1404
 9464SOL     OW39853   4.523   1.537  17.418  0.4205 -0.5156 -0.0428
 9464SOL    HW139854   4.463   1.576  17.354 -1.6870  0.6185  2.6412
 9464SOL    HW239855   4.491   1.576  17.499 -0.9652  1.1541 -1.3912
 9465SOL     OW39856   0.810   1.529   7.826  0.1363  0.6316  0.3338
 9465SOL    HW139857   0.766   1.475   7.892  0.8673  0.6441  0.8209
 9465SOL    HW239858   0.826   1.608   7.878 -0.5446  1.3520 -0.5622
 9466SOL     OW39859   2.467   0.013   3.788  0.1658 -0.0722 -0.2553
 9466SOL    HW139860   2.489   4.700   3.702 -1.3201  0.0187 -0.6829
 9466SOL    HW239861   2.486   0.107   3.779 -2.5160  0.2821 -2.2464
 9467SOL     OW39862   0.996   4.290   3.430  0.0149 -0.1554 -0.4796
 9467SOL    HW139863   0.911   4.257   3.460 -0.0768 -0.0092 -0.5732
 9467SOL    HW239864   1.046   4.212   3.406 -1.8602 -1.3901 -0.4187
 9468SOL     OW39865   1.149   1.620   5.825  0.0285  0.0436 -0.0534
 9468SOL    HW139866   1.159   1.701   5.776  4.8676  0.1580  1.0998
 9468SOL    HW239867   1.054   1.606   5.831  0.5811 -3.6702 -0.0848
 9469SOL     OW39868   2.936   2.055  13.360  0.0900  0.0169 -0.3592
 9469SOL    HW139869   2.969   1.976  13.319 -0.7621 -0.9624  0.8466
 9469SOL    HW239870   2.953   2.111  13.284 -0.7507 -0.3834 -0.8373
 9470SOL     OW39871   4.060   3.417  14.619 -0.2878 -0.2429  0.0875
 9470SOL    HW139872   3.973   3.444  14.588 -0.3418 -0.4467  0.0622
 9470SOL    HW239873   4.057   3.329  14.581 -1.0361 -1.2069  2.3589
 9471SOL     OW39874   3.720   2.655   2.174 -0.0293  0.1944  0.4210
 9471SOL    HW139875   3.665   2.616   2.242  1.6060  0.2430  1.7347
 9471SOL    HW239876   3.690   2.746   2.174 -1.1030 -0.1712  3.3725
 9472SOL     OW39877   2.594   2.089   7.361 -0.0709 -0.2000 -0.1690
 9472SOL    HW139878   2.683   2.104   7.329  0.0126  0.4557  0.3557
 9472SOL    HW239879   2.567   2.014   7.308 -1.5078  0.5643 -0.5254
 9473SOL     OW39880   0.442   2.601  12.438  0.1837  0.1833 -0.5884
 9473SOL    HW139881   0.506   2.530  12.436 -0.0869 -0.0597 -0.4647
 9473SOL    HW239882   0.493   2.669  12.483  2.1268 -1.6119 -0.1018
 9474SOL     OW39883   3.718   1.765   0.881  0.0077  0.4657 -0.0652
 9474SOL    HW139884   3.737   1.849   0.840  0.4248  0.2971 -0.2211
 9474SOL    HW239885   3.749   1.780   0.970  0.6995 -1.4705  0.0233
 9475SOL     OW39886   0.157   4.390   1.169 -0.0702  0.1088 -0.1519
 9475SOL    HW139887   0.070   4.370   1.202  0.7297 -1.9465  0.6919
 9475SOL    HW239888   0.193   4.443   1.240  0.0567 -0.5316  0.2614
 9476SOL     OW39889   1.018   4.715   3.001 -0.2386  0.0988 -0.6667
 9476SOL    HW139890   1.026   0.051   2.926  0.1874  0.2946 -0.4683
 9476SOL    HW239891   1.049   4.632   2.966  1.1741  0.2303  0.2465
 9477SOL     OW39892   0.610   2.017  10.397 -0.0815  0.1962  0.2409
 9477SOL    HW139893   0.660   1.943  10.432  4.6558  3.3011 -0.0051
 9477SOL    HW239894   0.619   1.994  10.304  0.8421  0.2921  0.3071
 9478SOL     OW39895   2.677   2.833   4.986 -0.4025 -0.6617  0.1226
 9478SOL    HW139896   2.629   2.758   5.021 -2.7423  0.2257 -1.2375
 9478SOL    HW239897   2.694   2.810   4.895  0.8986 -1.0135  0.4473
 9479SOL     OW39898   2.637   4.346   4.643  0.1926  0.3767 -0.3222
 9479SOL    HW139899   2.718   4.363   4.691 -0.0509  0.9269 -0.1083
 9479SOL    HW239900   2.637   4.434   4.605 -2.1425 -1.3587 -4.3266
 9480SOL     OW39901   4.221   3.924   1.421  0.7735 -0.0727  0.4256
 9480SOL    HW139902   4.155   3.966   1.366  1.9192  1.6087  0.3305
 9480SOL    HW239903   4.296   3.974   1.390 -0.6178  1.5322 -0.3576
 9481SOL     OW39904   3.516   3.588  17.541 -0.6554 -0.3612 -0.1326
 9481SOL    HW139905   3.449   3.656  17.533  0.9434  1.1899 -0.4391
 9481SOL    HW239906   3.471   3.513  17.579  1.0607 -1.5643 -0.4710
 9482SOL     OW39907   2.146   2.477   3.803 -0.6944 -0.8701  0.0423
 9482SOL    HW139908   2.091   2.553   3.825 -1.4566 -0.7251 -2.3751
 9482SOL    HW239909   2.221   2.517   3.759 -1.2913  1.2606  0.9571
 9483SOL     OW39910   1.042   1.665  15.028 -0.0203 -0.6411 -0.1095
 9483SOL    HW139911   1.051   1.733  14.961  0.1449 -2.8549 -2.3708
 9483SOL    HW239912   1.133   1.650  15.051 -0.3354  0.3944  1.7846
 9484SOL     OW39913   3.658   2.275   8.725  0.4248  0.2651  0.1982
 9484SOL    HW139914   3.721   2.218   8.680 -0.1417 -1.0292  1.0333
 9484SOL    HW239915   3.594   2.206   8.740 -0.8745  1.9759  2.3370
 9485SOL     OW39916   4.216   3.356   0.544  0.4174  0.2114 -0.4191
 9485SOL    HW139917   4.128   3.325   0.523  0.1503  2.1089 -2.0389
 9485SOL    HW239918   4.229   3.296   0.617 -1.0058  0.0443 -0.3048
 9486SOL     OW39919   4.417   4.137   7.580 -0.0478 -0.5207  0.0956
 9486SOL    HW139920   4.422   4.043   7.598 -0.2336 -0.4601  0.4586
 9486SOL    HW239921   4.398   4.173   7.666  3.2387  1.3578  0.0256
 9487SOL     OW39922   1.735   0.241   9.232  0.0389 -0.1757  0.0360
 9487SOL    HW139923   1.690   0.254   9.316 -1.3773  0.6502 -0.8491
 9487SOL    HW239924   1.733   0.325   9.186  0.5546  0.0137  0.3622
 9488SOL     OW39925   3.426   4.440   9.932  0.3348  0.1200 -0.7405
 9488SOL    HW139926   3.413   4.528   9.896 -1.8294 -0.3401 -1.0371
 9488SOL    HW239927   3.341   4.401   9.913  0.6872 -0.3800 -1.2940
 9489SOL     OW39928   4.100   3.376   7.206 -0.4651 -0.5572  0.6054
 9489SOL    HW139929   4.118   3.294   7.160  0.3201  0.5712 -1.1252
 9489SOL    HW239930   4.051   3.424   7.139 -1.1555  0.9600  2.2055
 9490SOL     OW39931   1.540   0.865   9.181 -0.5689  0.1058  0.1250
 9490SOL    HW139932   1.485   0.834   9.253 -0.0542  0.1658  0.5514
 9490SOL    HW239933   1.481   0.928   9.141  0.3487 -0.3370 -1.9562
 9491SOL     OW39934   0.330   1.096   3.633  0.2267  0.9654  0.1655
 9491SOL    HW139935   0.389   1.038   3.680 -0.3523 -0.0539 -0.3824
 9491SOL    HW239936   0.352   1.173   3.686  3.9292  0.4672 -0.6885
 9492SOL     OW39937   0.723   2.722   6.280 -0.4067 -0.1690 -0.0902
 9492SOL    HW139938   0.658   2.679   6.336 -1.4645 -0.4069 -1.4878
 9492SOL    HW239939   0.709   2.815   6.296 -1.7450 -0.8314  2.5396
 9493SOL     OW39940   3.770   4.576   6.331  0.7889 -0.2989 -0.5462
 9493SOL    HW139941   3.707   4.619   6.389 -0.0022 -1.2905 -0.6661
 9493SOL    HW239942   3.827   4.536   6.396 -0.2451 -1.3280 -0.2662
 9494SOL     OW39943   4.008   4.559  17.463 -0.1161 -0.1648  0.0464
 9494SOL    HW139944   4.004   4.468  17.435 -2.5682 -0.6821  2.1398
 9494SOL    HW239945   4.024   4.601  17.379 -1.1119  1.6619  0.7782
 9495SOL     OW39946   1.745   2.765   4.334 -0.5449  0.1679 -0.5343
 9495SOL    HW139947   1.778   2.701   4.271  0.6150  0.8709 -0.6358
 9495SOL    HW239948   1.834   2.789   4.361  0.0530 -0.9406 -1.5504
 9496SOL     OW39949   2.668   2.798   3.398  0.7440  0.1175 -0.0062
 9496SOL    HW139950   2.724   2.745   3.340 -0.3410 -1.2491  0.1898
 9496SOL    HW239951   2.709   2.785   3.483 -0.8322 -0.2053  0.6981
 9497SOL     OW39952   0.781   0.882   0.188 -0.0824 -0.2973  0.0825
 9497SOL    HW139953   0.687   0.861   0.191  0.1072 -1.0950  0.2643
 9497SOL    HW239954   0.795   0.895   0.095  0.8897  1.6079  0.4932
 9498SOL     OW39955   2.923   4.264   7.776  0.4113 -0.3636  0.0824
 9498SOL    HW139956   3.003   4.260   7.723  1.0336 -1.0032  1.0668
 9498SOL    HW239957   2.945   4.331   7.840  3.0083 -0.7446 -0.4105
 9499SOL     OW39958   0.311   2.907   0.789 -0.5840 -0.4020 -0.0882
 9499SOL    HW139959   0.329   2.955   0.708 -0.6041  0.8011  0.6207
 9499SOL    HW239960   0.395   2.864   0.807  0.0459  1.2426  0.8986
 9500SOL     OW39961   3.128   4.716  16.459  0.5014  0.9664  0.8554
 9500SOL    HW139962   3.169   0.079  16.455  1.6169  0.4856  1.7824
 9500SOL    HW239963   3.052   0.001  16.401 -1.5079 -0.6451  3.2148
 9501SOL     OW39964   2.889   0.205   6.994  0.4235 -0.0299 -0.4249
 9501SOL    HW139965   2.888   0.278   7.055  0.9170 -2.1039  2.1002
 9501SOL    HW239966   2.816   0.155   7.031  0.5237  1.3456  1.5934
 9502SOL     OW39967   1.944   2.878   8.753 -0.1901 -0.1728 -0.5699
 9502SOL    HW139968   1.946   2.812   8.684 -2.8990  0.0350 -0.8099
 9502SOL    HW239969   1.946   2.964   8.709 -1.5296 -0.5226 -1.2827
 9503SOL     OW39970   2.273   2.134  15.310 -0.4404 -0.2865  0.0048
 9503SOL    HW139971   2.342   2.075  15.279 -0.2703 -0.3245  0.4455
 9503SOL    HW239972   2.256   2.172  15.224 -2.5121 -0.1295  0.4814
 9504SOL     OW39973   1.349   1.441  13.008  0.6641  0.8583  0.2022
 9504SOL    HW139974   1.336   1.366  12.951 -2.3074  1.2844  0.3278
 9504SOL    HW239975   1.310   1.510  12.955  0.0864  1.3054  1.1983
 9505SOL     OW39976   3.106   1.077   6.167 -0.4207  0.0984  0.0382
 9505SOL    HW139977   3.030   1.020   6.151 -1.7424  1.7470  0.4615
 9505SOL    HW239978   3.068   1.130   6.237 -1.9156 -0.0684 -0.6542
 9506SOL     OW39979   2.684   0.847   6.290  0.2852 -0.0512 -0.5293
 9506SOL    HW139980   2.658   0.840   6.382  0.2288  1.3277 -0.4348
 9506SOL    HW239981   2.658   0.759   6.262 -0.6405  0.5014 -1.3942
 9507SOL     OW39982   2.139   1.978   6.259 -0.3111 -0.5245  0.2800
 9507SOL    HW139983   2.179   1.969   6.345  0.6601 -1.6069 -0.2724
 9507SOL    HW239984   2.048   1.965   6.284 -0.3705 -0.7351 -0.0405
 9508SOL     OW39985   3.490   3.107   1.601  0.0342 -0.1905  0.0087
 9508SOL    HW139986   3.567   3.108   1.545 -0.3658  0.5165 -0.5175
 9508SOL    HW239987   3.422   3.158   1.558  0.8590  1.4206  0.6389
 9509SOL     OW39988   2.793   0.676  10.079  0.3801  0.0400  0.1563
 9509SOL    HW139989   2.741   0.598  10.098  1.4263 -0.5311  0.6849
 9509SOL    HW239990   2.719   0.735  10.063 -0.0677 -0.2437  1.1527
 9510SOL     OW39991   2.518   2.949   9.361  0.0720 -0.2825  0.1980
 9510SOL    HW139992   2.443   3.009   9.359  1.1397  1.0622  0.3255
 9510SOL    HW239993   2.481   2.861   9.368 -4.9512  1.9698  2.1652
 9511SOL     OW39994   3.475   0.144   6.689  0.9956  0.2734  0.2535
 9511SOL    HW139995   3.545   0.096   6.734  1.1547  1.8766  1.7097
 9511SOL    HW239996   3.408   0.102   6.743  0.4366  0.3942 -0.3504
 9512SOL     OW39997   4.692   2.678  14.508  0.0675  0.1585 -0.0291
 9512SOL    HW139998   0.012   2.743  14.452 -0.8274  0.5584 -0.2412
 9512SOL    HW239999   0.034   2.667  14.578  1.3838 -1.7309 -1.5240
 9513SOL     OW40000   3.634   1.106   5.765 -0.3982  0.0229 -0.8365
 9513SOL    HW140001   3.571   1.092   5.694 -0.1159  1.3465 -1.3313
 9513SOL    HW240002   3.581   1.110   5.845  2.7671  0.8451  1.2193
 9514SOL     OW40003   0.117   1.807   9.000  0.2219 -0.0151  0.2573
 9514SOL    HW140004   0.103   1.732   8.942 -0.4040 -0.3158  0.8057
 9514SOL    HW240005   0.052   1.775   9.062  0.2208  2.5981  1.6090
 9515SOL     OW40006   1.361   1.282   3.115  0.0208 -0.5289 -0.4582
 9515SOL    HW140007   1.447   1.240   3.107  0.4246  0.9120 -3.6819
 9515SOL    HW240008   1.365   1.352   3.049 -2.3095 -0.8482 -0.9303
 9516SOL     OW40009   4.631   1.567   4.601 -0.2899 -0.2255  0.1667
 9516SOL    HW140010   4.607   1.590   4.691 -4.8367  2.5190 -1.7810
 9516SOL    HW240011   4.677   1.646   4.572 -0.3702  0.6330  2.4043
 9517SOL     OW40012   4.691   1.289  16.246 -0.6349 -0.0403 -0.3014
 9517SOL    HW140013   4.692   1.234  16.324 -0.0581  0.1065 -0.2048
 9517SOL    HW240014   4.692   1.379  16.278  1.0886 -0.1384 -0.0400
 9518SOL     OW40015   2.599   1.630  15.166  0.2530 -0.4969  0.3302
 9518SOL    HW140016   2.545   1.645  15.244 -1.7528  0.2385 -1.1837
 9518SOL    HW240017   2.617   1.723  15.150 -0.1794 -0.6018 -0.7565
 9519SOL     OW40018   0.555   3.942   7.093 -0.1528 -0.0301  0.3670
 9519SOL    HW140019   0.575   4.036   7.103  0.7468 -0.1250 -0.5223
 9519SOL    HW240020   0.617   3.919   7.024  0.2912  3.2990 -0.3642
 9520SOL     OW40021   2.463   2.247   8.332 -0.2863  1.0157 -0.4281
 9520SOL    HW140022   2.554   2.266   8.309 -0.1722  0.6232 -0.3066
 9520SOL    HW240023   2.470   2.188   8.408  0.0926  1.0287 -0.4511
 9521SOL     OW40024   3.922   4.397   7.537 -0.1549  0.0634  0.2925
 9521SOL    HW140025   4.007   4.407   7.581  1.2632 -1.7027 -2.0307
 9521SOL    HW240026   3.885   4.481   7.562  1.8639  1.2082 -0.5110
 9522SOL     OW40027   3.945   1.310  15.652  0.1434 -0.3048  0.1016
 9522SOL    HW140028   4.006   1.268  15.591 -1.5567  0.9748 -2.5055
 9522SOL    HW240029   3.936   1.400  15.620 -1.4900 -0.6315 -0.4136
 9523SOL     OW40030   1.771   0.215   2.590  0.6511  0.6693 -0.1244
 9523SOL    HW140031   1.863   0.215   2.615  0.3370  1.3088  1.0302
 9523SOL    HW240032   1.781   0.231   2.496  2.0317  0.9059  0.0657
 9524SOL     OW40033   3.547   4.461   8.087 -0.2099 -0.2994  0.4827
 9524SOL    HW140034   3.573   4.395   8.151  0.3185  1.4041  2.0136
 9524SOL    HW240035   3.628   4.511   8.081  0.5055 -1.5829 -0.7951
 9525SOL     OW40036   4.300   2.699   4.383 -0.0805 -0.1775  0.2850
 9525SOL    HW140037   4.310   2.617   4.333 -0.3173  0.8471 -1.4388
 9525SOL    HW240038   4.339   2.765   4.327 -2.9645  0.9233 -0.4351
 9526SOL     OW40039   3.017   1.846   5.544 -0.1791  0.3708  0.0289
 9526SOL    HW140040   3.030   1.920   5.484  1.1166  0.4391  0.3766
 9526SOL    HW240041   3.109   1.823   5.557 -0.8080 -2.5582 -0.6055
 9527SOL     OW40042   0.577   1.701   0.772  0.1035  0.3372 -0.6350
 9527SOL    HW140043   0.541   1.744   0.695  0.0505  2.1409  0.3907
 9527SOL    HW240044   0.519   1.741   0.838 -1.8289 -2.2512 -0.7798
 9528SOL     OW40045   1.740   4.372   5.543  0.4758  0.2629 -0.2098
 9528SOL    HW140046   1.684   4.301   5.575  1.1298 -1.4251 -2.7604
 9528SOL    HW240047   1.671   4.436   5.527 -1.5083 -1.5371  1.1493
 9529SOL     OW40048   0.998   3.806   4.484 -0.3216 -0.4642 -0.2684
 9529SOL    HW140049   0.958   3.836   4.402 -0.6560  1.3048  0.5312
 9529SOL    HW240050   1.064   3.874   4.502  0.1041 -0.8015 -0.5357
 9530SOL     OW40051   1.857   4.033  12.332  0.1838 -0.4064 -0.2333
 9530SOL    HW140052   1.786   4.090  12.301  0.6297 -0.4371 -1.3040
 9530SOL    HW240053   1.911   4.089  12.387 -1.0687 -0.2719  0.8558
 9531SOL     OW40054   4.512   1.436  11.612  0.1249  0.3753 -0.2880
 9531SOL    HW140055   4.527   1.342  11.622  2.8488  0.5765 -2.4014
 9531SOL    HW240056   4.581   1.455  11.549  0.9558 -0.1884  0.4532
 9532SOL     OW40057   4.495   4.441   8.411 -0.0480 -0.6823  0.2954
 9532SOL    HW140058   4.451   4.407   8.489 -1.0043 -1.9694 -0.8080
 9532SOL    HW240059   4.562   4.496   8.451  2.1228 -4.0675  1.3791
 9533SOL     OW40060   3.933   1.159  17.224  0.0488 -0.4870 -0.5408
 9533SOL    HW140061   4.009   1.108  17.194  0.7826 -0.9733  2.1236
 9533SOL    HW240062   3.964   1.225  17.287 -0.5622  0.7322 -1.5303
 9534SOL     OW40063   2.619   1.135   4.568 -0.0609  0.2062  0.1650
 9534SOL    HW140064   2.528   1.161   4.558 -0.1374 -1.2767 -3.1079
 9534SOL    HW240065   2.604   1.068   4.635  0.5321 -0.2895 -0.1871
 9535SOL     OW40066   0.377   0.599   3.564  0.3596  0.3057  0.0583
 9535SOL    HW140067   0.374   0.665   3.495  1.5415 -0.7803 -1.0236
 9535SOL    HW240068   0.288   0.599   3.602 -0.3633 -0.1994 -1.6428
 9536SOL     OW40069   3.305   2.098   6.219 -0.2172 -0.2541  0.3301
 9536SOL    HW140070   3.225   2.101   6.168  0.7565  2.2521 -1.0831
 9536SOL    HW240071   3.339   2.013   6.191 -0.7408  0.4180 -2.3140
 9537SOL     OW40072   0.576   2.745   2.632 -0.0095 -0.0405  0.3993
 9537SOL    HW140073   0.614   2.790   2.708 -0.0588  3.9903 -1.9227
 9537SOL    HW240074   0.576   2.814   2.566  0.9536  0.6587  1.1149
 9538SOL     OW40075   3.791   0.517   0.106 -0.1493  0.6649  0.3695
 9538SOL    HW140076   3.882   0.539   0.090  0.3817 -1.0470  1.0509
 9538SOL    HW240077   3.789   0.422   0.120 -1.5132  0.5571 -0.5441
 9539SOL     OW40078   1.716   0.166   7.378 -0.3003  0.0345 -0.0101
 9539SOL    HW140079   1.622   0.173   7.396 -0.0773 -0.7908  1.5143
 9539SOL    HW240080   1.721   0.071   7.369  0.6974 -0.0291  1.1810
 9540SOL     OW40081   4.513   1.902   2.920  0.1787 -0.1663 -0.0020
 9540SOL    HW140082   4.479   1.876   2.834  2.1464 -0.9979 -0.5297
 9540SOL    HW240083   4.516   1.995   2.899  1.9019 -0.5337 -1.3380
 9541SOL     OW40084   0.518   3.184  15.244  0.3009  0.3277  0.2802
 9541SOL    HW140085   0.465   3.202  15.322 -2.2433 -2.4916 -0.7741
 9541SOL    HW240086   0.589   3.245  15.260  0.5835  0.2461 -0.6725
 9542SOL     OW40087   3.904   0.221   7.947  0.4354 -0.1161  0.5965
 9542SOL    HW140088   3.832   0.202   8.007 -1.1029 -0.7179 -1.4485
 9542SOL    HW240089   3.973   0.240   8.010  0.5135 -0.1723  0.5268
 9543SOL     OW40090   4.069   4.420   7.255 -0.1793 -0.3930 -0.2188
 9543SOL    HW140091   4.038   4.464   7.335  0.9484 -0.7176  0.3999
 9543SOL    HW240092   4.148   4.378   7.291  1.6042  2.2323 -1.0364
 9544SOL     OW40093   0.773   1.460  15.198  1.0229  0.1306 -0.2368
 9544SOL    HW140094   0.734   1.389  15.249 -0.1786  0.2161 -1.0278
 9544SOL    HW240095   0.729   1.538  15.232  1.6179  0.1610  0.4737
 9545SOL     OW40096   1.553   3.080   8.334 -0.0284 -0.0159 -0.0844
 9545SOL    HW140097   1.603   3.002   8.309 -1.1842 -1.2694  1.4984
 9545SOL    HW240098   1.464   3.047   8.344 -0.4108  0.5573 -1.5923
 9546SOL     OW40099   2.476   1.688   9.250 -0.6492 -0.9959 -0.2613
 9546SOL    HW140100   2.381   1.687   9.257 -0.7158  2.2065 -0.6650
 9546SOL    HW240101   2.491   1.663   9.341  1.1272 -2.6451 -0.9874
 9547SOL     OW40102   0.792   0.361   6.940  0.0451  0.1982 -0.2870
 9547SOL    HW140103   0.851   0.303   6.988 -2.0026 -1.9336 -0.3438
 9547SOL    HW240104   0.715   0.304   6.944  0.7875 -0.8167 -0.6525
 9548SOL     OW40105   0.466   3.173   7.044  0.1581 -0.8601 -0.6105
 9548SOL    HW140106   0.549   3.175   6.997  0.1737 -1.5058 -0.6116
 9548SOL    HW240107   0.483   3.208   7.131 -1.1841  0.7377 -0.9938
 9549SOL     OW40108   4.258   0.213   9.298  0.5958  0.0951 -0.9369
 9549SOL    HW140109   4.284   0.305   9.296  0.3455  0.1289 -2.2690
 9549SOL    HW240110   4.201   0.219   9.374  2.8997  0.3141  0.7895
 9550SOL     OW40111   2.243   0.229   1.610 -0.7293  0.2854  0.4470
 9550SOL    HW140112   2.171   0.246   1.670 -0.9571  1.5936 -0.1876
 9550SOL    HW240113   2.229   0.136   1.589  0.7976  0.3973 -1.0431
 9551SOL     OW40114   1.087   2.271   1.303 -0.4920  0.7020 -0.1234
 9551SOL    HW140115   1.052   2.189   1.337 -2.9012  1.1132 -1.6276
 9551SOL    HW240116   1.124   2.243   1.219  0.1347 -2.5327  1.2172
 9552SOL     OW40117   0.371   0.316   8.845 -0.0252 -0.2747  0.0808
 9552SOL    HW140118   0.442   0.288   8.904 -0.7711  0.3528  1.2651
 9552SOL    HW240119   0.425   0.324   8.766  0.2399  0.3901  0.3368
 9553SOL     OW40120   3.844   1.517   7.213 -0.5503 -0.1825 -0.5232
 9553SOL    HW140121   3.919   1.492   7.159  0.6982  0.9379  0.7270
 9553SOL    HW240122   3.831   1.449   7.279 -1.3945  1.4043  0.9528
 9554SOL     OW40123   0.421   2.253   4.332  0.1027 -0.4446 -0.2743
 9554SOL    HW140124   0.441   2.169   4.291  2.9113 -1.1567  2.6147
 9554SOL    HW240125   0.440   2.241   4.425 -0.3852 -1.2770 -0.2862
 9555SOL     OW40126   1.086   1.202   8.559 -0.0072 -0.0978 -0.1600
 9555SOL    HW140127   0.997   1.167   8.565 -0.2759  0.2015 -2.5592
 9555SOL    HW240128   1.124   1.201   8.647  1.2896  0.8587 -0.7164
 9556SOL     OW40129   4.343   4.607   5.558  0.0503  0.3981  0.0772
 9556SOL    HW140130   4.352   4.514   5.537 -0.3542  0.8897 -2.2072
 9556SOL    HW240131   4.289   4.645   5.489 -0.8221 -1.4967 -0.2999
 9557SOL     OW40132   3.756   3.755   3.894  0.4311  0.4146  0.4245
 9557SOL    HW140133   3.712   3.824   3.944 -2.0495 -0.8075 -0.0547
 9557SOL    HW240134   3.850   3.770   3.896  0.0982  2.4331  1.5318
 9558SOL     OW40135   0.123   1.059  13.750 -0.1950  0.1613  0.8116
 9558SOL    HW140136   0.081   0.975  13.735 -0.5758  0.3149  1.0287
 9558SOL    HW240137   0.211   1.045  13.716 -1.0752  3.4936 -2.8292
 9559SOL     OW40138   1.089   3.472   6.594  0.1101  0.1525  0.2618
 9559SOL    HW140139   1.126   3.552   6.632 -1.3949  1.0587 -0.1434
 9559SOL    HW240140   1.000   3.507   6.586 -0.1439 -0.6098 -0.2103
 9560SOL     OW40141   3.187   1.673   7.304 -0.6079  0.0833 -0.3667
 9560SOL    HW140142   3.262   1.704   7.354 -1.7596  1.6769  0.3748
 9560SOL    HW240143   3.149   1.761   7.298  1.5467  0.9756 -1.1546
 9561SOL     OW40144   0.016   0.931   3.775 -0.2273  0.2700 -0.2229
 9561SOL    HW140145   4.697   0.851   3.807 -0.3439  0.7279  0.7608
 9561SOL    HW240146   0.102   0.926   3.816  0.3724  0.5705 -1.4748
 9562SOL     OW40147   1.630   0.064  17.388  0.1007 -0.4013 -0.2996
 9562SOL    HW140148   1.678   0.142  17.416 -0.8173 -0.4482  1.3878
 9562SOL    HW240149   1.634   0.081  17.293 -3.2915 -0.3438 -0.4195
 9563SOL     OW40150   2.871   4.149   8.159 -0.2578  0.1891 -0.4781
 9563SOL    HW140151   2.950   4.117   8.115  0.2075  0.6211  0.0362
 9563SOL    HW240152   2.805   4.146   8.090  1.3433  2.4218 -2.0980
 9564SOL     OW40153   1.091   2.339   5.288  0.6669  0.1845 -0.0850
 9564SOL    HW140154   1.140   2.392   5.225  2.5955 -1.9804 -0.3991
 9564SOL    HW240155   1.165   2.300   5.334 -2.7778 -3.1914  2.6334
 9565SOL     OW40156   1.024   1.330   6.708  0.3266  0.0053  0.6397
 9565SOL    HW140157   1.056   1.246   6.675  0.4200  0.0280  0.6761
 9565SOL    HW240158   1.106   1.348   6.753  1.8722  0.0360 -2.1471
 9566SOL     OW40159   4.128   2.779  16.678 -0.4186  0.2774 -0.6193
 9566SOL    HW140160   4.139   2.732  16.761 -0.7777  1.1332 -0.0912
 9566SOL    HW240161   4.093   2.862  16.711  1.0765  0.7923 -0.3481
 9567SOL     OW40162   2.972   0.856   5.036  0.5469 -0.3656  0.0815
 9567SOL    HW140163   2.962   0.762   5.044 -0.5295 -0.3554 -1.2440
 9567SOL    HW240164   3.059   0.867   5.075 -0.6629  2.3913  2.0267
 9568SOL     OW40165   4.288   4.629  11.957 -0.0555 -0.3069  0.3517
 9568SOL    HW140166   4.383   4.614  11.955  0.2449  1.3593  1.5669
 9568SOL    HW240167   4.282   4.696  12.025 -0.8965 -2.1807  2.0977
   4.72291   4.72291  17.69357
