Membrane in water
40167
    1TCq1    O1    1   2.275   0.397  11.256  0.1772 -0.3746 -0.4283
    1TCq1    C1    2   2.232   0.447  11.135  0.3795  0.0379 -0.2417
    1TCq1    O2    3   2.143   0.406  11.059  0.1386  0.4521  0.0930
    1TCq1    C2    4   2.330   0.552  11.089  0.0506 -0.9981 -0.6601
    1TCq1    C3    5   2.326   0.572  10.952  0.0226  0.0180 -0.3635
    1TCq1    C4    6   2.413   0.666  10.905 -0.1023  0.1187 -0.4727
    1TCq1    C5    7   2.498   0.742  10.987 -0.4848  0.2174 -0.2288
    1TCq1    C6    8   2.491   0.722  11.123  0.6539 -0.5577  0.1527
    1TCq1    C7    9   2.410   0.622  11.174  0.1516 -0.6074  0.2143
    1TCq1    C8   10   2.560   0.805  11.213 -0.1641  0.0745  0.0115
    1TCq1    O4   11   2.527   0.798  11.335 -0.1122  0.6428 -0.0158
    1TCq1    C9   12   2.415   0.696  10.768 -0.5718  0.0303 -0.8497
    1TCq1    O5   13   2.453   0.814  10.730  0.2117 -0.4077  0.2454
    1TCq1    O6   14   2.343   0.620  10.705 -0.3018  0.0414  0.3657
    1TCq1    H1   15   2.362   0.435  11.281 -0.1702  0.4708 -0.4995
    1TCq1    H2   16   2.260   0.518  10.886 -1.0372  0.8616  0.0016
    1TCq1    H3   17   2.561   0.811  10.932 -2.2728  1.8185 -0.2703
    1TCq1    H4   18   2.410   0.607  11.282 -1.0515  0.6296  0.3826
    2MPD2     C   19   2.897   1.191  11.323  0.0568  0.0692  0.1274
    2MPD2    C1   20   2.790   1.143  11.397 -0.4904  0.1547  0.1313
    2MPD2    C2   21   2.713   1.036  11.341  0.1784 -0.1406 -0.0436
    2MPD2    C3   22   2.731   0.991  11.212 -0.4582 -0.2943 -0.4079
    2MPD2    C4   23   2.835   1.050  11.139  0.7834  0.2994 -0.0305
    2MPD2    C5   24   2.917   1.148  11.193 -0.1576 -0.0257 -0.2550
    2MPD2     H   25   2.624   1.005  11.395  0.9195  0.2238  1.3798
    2MPD2    H1   26   2.857   1.019  11.038  1.0814 -0.5704  0.2960
    2MPD2    H2   27   2.948   1.282  11.352 -0.5073  1.4045 -3.0163
    2MPD2    H3   28   3.004   1.190  11.145 -0.9256 -0.3535 -1.9334
    2MPD2     N   29   2.651   0.891  11.150  0.0652 -0.0053  0.0828
    2MPD2    H5   30   2.667   0.884  11.050  2.5150  0.4097  0.4449
    2MPD2    N1   31   2.752   1.194  11.516  0.3989 -1.0262  0.1243
    2MPD2    H7   32   2.661   1.163  11.549  0.2550  0.8422  1.5142
    3TCq1    O1   33   2.689   3.341  11.139 -0.4788 -0.2795 -0.0969
    3TCq1    C1   34   2.577   3.396  11.084 -0.0897  0.1968  0.1057
    3TCq1    O2   35   2.540   3.510  11.107 -0.0937 -0.4477  1.1034
    3TCq1    C2   36   2.477   3.296  11.083  0.4113 -0.0035 -0.3327
    3TCq1    C3   37   2.505   3.175  11.031  0.0286 -0.8301 -0.1064
    3TCq1    C4   38   2.441   3.071  11.092  0.2162  0.1622 -0.1944
    3TCq1    C5   39   2.359   3.084  11.198 -0.0847 -0.0225  0.4443
    3TCq1    C6   40   2.333   3.210  11.246  0.5790  0.1685  0.4097
    3TCq1    C7   41   2.398   3.312  11.191 -0.2564  0.3683  0.2136
    3TCq1    C8   42   2.240   3.215  11.350  0.2040  0.0469  0.6175
    3TCq1    O4   43   2.208   3.114  11.410 -0.2166  0.7171  0.0061
    3TCq1    C9   44   2.472   2.939  11.042  0.2262  0.3341 -0.3706
    3TCq1    O5   45   2.472   2.922  10.915 -0.4404  0.3671  0.4726
    3TCq1    O6   46   2.459   2.838  11.123  0.4004  0.1542  0.3527
    3TCq1    H1   47   2.693   3.243  11.141 -0.7384 -0.3032 -0.9562
    3TCq1    H2   48   2.584   3.157  10.959 -0.3554 -3.6074  0.1743
    3TCq1    H3   49   2.308   2.994  11.233 -0.6723  1.1449  2.6081
    3TCq1    H4   50   2.380   3.413  11.226 -0.0396  0.4318  0.1346
    4MPD2     C   51   1.907   3.502  11.603  0.1776 -0.2352 -0.2233
    4MPD2    C1   52   1.965   3.586  11.513 -0.1585  0.0270 -0.1393
    4MPD2    C2   53   2.064   3.529  11.437 -0.4002  0.0836 -0.5570
    4MPD2    C3   54   2.094   3.392  11.441 -0.2844 -0.1762 -0.1037
    4MPD2    C4   55   2.045   3.320  11.548  0.4464  0.2400  0.2035
    4MPD2    C5   56   1.952   3.377  11.624  0.1030 -0.5826  0.5407
    4MPD2     H   57   2.112   3.588  11.360  1.5721  0.5176  1.0042
    4MPD2    H1   58   2.081   3.219  11.566 -1.0723 -0.1521  0.9917
    4MPD2    H2   59   1.838   3.546  11.674  2.0444 -0.4176  1.6814
    4MPD2    H3   60   1.916   3.323  11.712 -0.1240  0.5533  1.1515
    4MPD2     N   61   2.175   3.342  11.347 -0.0761 -0.1896  0.3051
    4MPD2    H5   62   2.214   3.411  11.284 -0.3967 -1.0904 -0.8966
    4MPD2    N1   63   1.923   3.719  11.482 -0.3710  0.3414 -0.0551
    4MPD2    H7   64   1.984   3.767  11.418 -0.6076  1.7437  0.7688
    5TCq1    O1   65   2.511   4.373  12.131  0.1136  0.4522 -0.1001
    5TCq1    C1   66   2.531   4.294  12.022  0.1701  0.2434  0.2583
    5TCq1    O2   67   2.601   4.195  12.020  0.2923 -0.1058  0.1714
    5TCq1    C2   68   2.546   4.383  11.904 -0.5777  0.3146 -0.3157
    5TCq1    C3   69   2.536   4.518  11.918  0.4011 -0.5492  0.2941
    5TCq1    C4   70   2.588   4.592  11.817 -0.1238  0.3112 -0.6962
    5TCq1    C5   71   2.639   4.540  11.705 -0.5372  0.1945  0.0140
    5TCq1    C6   72   2.662   4.401  11.703 -0.6735  0.3511  1.0175
    5TCq1    C7   73   2.615   4.318  11.802  0.2061  0.6126 -0.2129
    5TCq1    C8   74   2.728   4.332  11.586  0.3121  0.2698  0.3956
    5TCq1    O4   75   2.767   4.221  11.600 -0.2194  0.1436 -0.1745
    5TCq1    C9   76   2.555   0.015  11.817  0.6949 -0.2668  0.3560
    5TCq1    O5   77   2.565   0.062  11.935  0.4207  0.6103 -0.7754
    5TCq1    O6   78   2.533   0.077  11.708  0.1618 -0.1098  0.2199
    5TCq1    H1   79   2.428   4.426  12.129 -1.9583 -2.7909 -0.0819
    5TCq1    H2   80   2.469   4.561  11.992  1.7843  0.2341  1.0878
    5TCq1    H3   81   2.661   4.604  11.620  0.5101  0.2577  0.3315
    5TCq1    H4   82   2.629   4.211  11.803  3.2628  1.0084  0.6012
    6MPD2     C   83   2.809   4.497  11.259 -0.4682  0.3892 -0.3662
    6MPD2    C1   84   2.802   4.388  11.348  0.1476  0.1134 -0.3203
    6MPD2    C2   85   2.828   4.260  11.310 -0.1328 -0.3241  0.0122
    6MPD2    C3   86   2.861   4.239  11.178 -0.0272  0.8638  0.3130
    6MPD2    C4   87   2.865   4.343  11.092  0.0379  0.8221 -0.0623
    6MPD2    C5   88   2.827   4.472  11.130  1.2839  0.4531 -0.2839
    6MPD2     H   89   2.821   4.179  11.382 -1.4380 -0.5786 -0.4142
    6MPD2    H1   90   2.882   4.324  10.987  1.3329 -0.9459  0.4723
    6MPD2    H2   91   2.784   4.600  11.283 -0.0418  0.2546  0.6652
    6MPD2    H3   92   2.809   4.540  11.048 -0.5133 -0.4159 -0.6029
    6MPD2     N   93   2.898   4.106  11.141 -0.5542  0.7024 -0.5408
    6MPD2    H5   94   2.915   4.032  11.209  0.2061  0.6728 -0.7663
    6MPD2    N1   95   2.753   4.418  11.481  0.1033 -0.3215  0.6274
    6MPD2    H7   96   2.728   4.516  11.485 -0.9878 -0.5617 -0.3900
    7TCq1    O1   97   4.657   4.150  12.738 -0.1372 -0.2726  0.7610
    7TCq1    C1   98   4.656   4.016  12.760  0.2474 -0.0356 -0.0324
    7TCq1    O2   99   4.563   3.955  12.810  0.0719  0.3725 -0.0277
    7TCq1    C2  100   0.072   3.977  12.785 -0.9867 -0.0273  0.0312
    7TCq1    C3  101   0.155   3.991  12.678  0.4657 -0.3637 -0.3173
    7TCq1    C4  102   0.285   3.939  12.686  0.4283  0.1322 -1.1973
    7TCq1    C5  103   0.322   3.869  12.796  0.1777 -0.6878 -0.0177
    7TCq1    C6  104   0.229   3.851  12.902  0.2609  0.0194  0.5215
    7TCq1    C7  105   0.100   3.901  12.894  0.1360  0.0883 -0.1045
    7TCq1    C8  106   0.245   3.751  13.007  0.2224 -0.8018  0.4020
    7TCq1    O4  107   0.141   3.701  13.044 -0.1371 -0.7367  0.1644
    7TCq1    C9  108   0.390   3.977  12.594  0.7453  0.0363  0.3995
    7TCq1    O5  109   0.369   4.037  12.484 -0.4794 -0.3684  0.1831
    7TCq1    O6  110   0.500   3.931  12.634  0.0917 -0.0963 -0.6925
    7TCq1    H1  111   0.017   4.184  12.697  0.7601 -1.1771  1.8129
    7TCq1    H2  112   0.120   4.047  12.592 -3.7835  0.1153  1.7116
    7TCq1    H3  113   0.418   3.819  12.798  0.2815 -0.5138 -0.5785
    7TCq1    H4  114   0.023   3.897  12.970  0.3554 -4.9334 -0.1805
    8MPD2     C  115   0.510   3.462  13.326  0.5184  0.2172  0.3590
    8MPD2    C1  116   0.376   3.455  13.295 -0.2617  0.2475 -0.3600
    8MPD2    C2  117   0.330   3.555  13.209 -0.6533 -0.1373 -0.0891
    8MPD2    C3  118   0.418   3.646  13.141 -0.2195 -0.5814 -0.7812
    8MPD2    C4  119   0.550   3.641  13.177 -0.2292 -0.0824  0.1843
    8MPD2    C5  120   0.597   3.553  13.272  1.1893 -0.3513 -0.3916
    8MPD2     H  121   0.224   3.555  13.186 -0.3394 -3.1465 -1.5334
    8MPD2    H1  122   0.613   3.708  13.120 -1.4442 -0.8277 -2.0181
    8MPD2    H2  123   0.555   3.378  13.377  2.3019  1.3337  0.6135
    8MPD2    H3  124   0.701   3.561  13.301  0.8613 -0.3675  0.7853
    8MPD2     N  125   0.370   3.736  13.048  0.2278 -0.3690  0.3014
    8MPD2    H5  126   0.436   3.800  13.007  0.1421  0.3920  1.3713
    8MPD2    N1  127   0.295   3.349  13.338  0.6093 -0.3070  0.2074
    8MPD2    H7  128   0.343   3.282  13.398  1.0866 -0.0814  0.0829
    9TCq1    O1  129   2.490   2.257  11.020  0.3187  0.9837 -0.0802
    9TCq1    C1  130   2.491   2.136  10.950 -0.0487  0.3230 -0.5402
    9TCq1    O2  131   2.389   2.093  10.896  0.3738  0.4052 -0.5072
    9TCq1    C2  132   2.618   2.127  10.889  0.2582 -0.9048  0.6419
    9TCq1    C3  133   2.621   2.132  10.745 -0.1016  0.6964  0.4084
    9TCq1    C4  134   2.739   2.163  10.684 -0.0593 -0.7869  0.0194
    9TCq1    C5  135   2.851   2.180  10.752  0.3254  0.1683 -0.4160
    9TCq1    C6  136   2.851   2.169  10.888  0.0974 -0.2619 -0.0896
    9TCq1    C7  137   2.736   2.141  10.960  0.3848 -0.3426 -0.0474
    9TCq1    C8  138   2.974   2.226  10.960  0.1442 -0.0531 -0.2275
    9TCq1    O4  139   3.075   2.239  10.890 -0.8821  0.0264 -0.0734
    9TCq1    C9  140   2.727   2.188  10.544  0.7231 -0.1292 -0.2960
    9TCq1    O5  141   2.615   2.175  10.490  0.2299  0.4065 -0.0190
    9TCq1    O6  142   2.833   2.192  10.477 -0.6738  0.0718 -0.4612
    9TCq1    H1  143   2.552   2.315  10.971  1.4955 -0.3001 -0.1317
    9TCq1    H2  144   2.532   2.131  10.684  1.0730  1.4505 -1.3302
    9TCq1    H3  145   2.937   2.195  10.688 -0.3754  0.7691 -1.2237
    9TCq1    H4  146   2.725   2.150  11.067 -0.0524  2.7013 -0.3318
   10MPD2     C  147   3.157   2.398  11.135 -0.2474 -0.7000  0.4793
   10MPD2    C1  148   3.036   2.340  11.177 -0.1614 -0.7024  0.8634
   10MPD2    C2  149   2.997   2.345  11.311 -0.6056 -0.6076 -0.0404
   10MPD2    C3  150   3.083   2.406  11.401  0.0923  0.2479 -0.0720
   10MPD2    C4  151   3.204   2.464  11.358  0.1295  0.1664 -0.2224
   10MPD2    C5  152   3.236   2.468  11.227 -0.2109  0.7411 -0.0296
   10MPD2     H  153   2.898   2.310  11.338 -0.7267 -0.1723  0.0907
   10MPD2    H1  154   3.260   2.523  11.429  0.5888 -1.3612  0.6805
   10MPD2    H2  155   3.202   2.381  11.038  0.2430 -0.3379  0.6453
   10MPD2    H3  156   3.331   2.512  11.203  0.6205 -2.2112 -2.2134
   10MPD2     N  157   3.056   2.423  11.539 -0.0781 -0.0226  0.2076
   10MPD2    H5  158   3.105   2.501  11.582 -0.8398  1.1487 -1.0459
   10MPD2    N1  159   2.950   2.268  11.091  0.5723  0.0566  0.4759
   10MPD2    H7  160   2.860   2.244  11.131 -0.6880  1.9328 -1.2466
   11TCq1    O1  161   4.446   1.584  13.716 -0.6263 -0.0103 -0.1527
   11TCq1    C1  162   4.451   1.628  13.586 -0.1832 -0.0129 -0.4390
   11TCq1    O2  163   4.428   1.562  13.486  0.2548 -0.1825 -0.1159
   11TCq1    C2  164   4.411   1.766  13.594 -0.2134  0.2396  0.0637
   11TCq1    C3  165   4.522   1.842  13.578  0.2601  0.9613  0.2109
   11TCq1    C4  166   4.524   1.965  13.635  0.8682  0.8669 -0.5887
   11TCq1    C5  167   4.422   2.006  13.716 -0.1531  0.0292 -0.0408
   11TCq1    C6  168   4.315   1.921  13.737  0.1222  0.5452 -0.0718
   11TCq1    C7  169   4.316   1.798  13.686 -0.2126  0.0452 -0.8373
   11TCq1    C8  170   4.194   1.983  13.797  0.4997 -0.1679  0.2062
   11TCq1    O4  171   4.197   2.101  13.829  0.1029  0.0290 -0.1789
   11TCq1    C9  172   4.641   2.042  13.619 -0.2665  0.0852  0.5590
   11TCq1    O5  173   0.033   1.992  13.600  0.3460 -0.2566  0.9416
   11TCq1    O6  174   4.612   2.165  13.635  0.3554 -0.0041 -0.1070
   11TCq1    H1  175   4.481   1.647  13.782 -1.7462  0.1478  0.3004
   11TCq1    H2  176   4.607   1.813  13.517  0.0048  0.0316  0.2982
   11TCq1    H3  177   4.430   2.099  13.771  2.9695 -0.0964 -0.2835
   11TCq1    H4  178   4.239   1.724  13.702  0.3523 -0.5006 -0.6754
   12MPD2     C  179   3.923   2.041  13.892  0.2032 -0.0644  0.2256
   12MPD2    C1  180   3.970   1.913  13.870 -0.2830  0.1701 -0.2819
   12MPD2    C2  181   3.882   1.809  13.894 -0.3193  0.2606  0.7890
   12MPD2    C3  182   3.742   1.835  13.912 -0.7690  0.3514  0.7238
   12MPD2    C4  183   3.698   1.965  13.921  0.0942  0.2845 -0.1396
   12MPD2    C5  184   3.793   2.061  13.910 -0.0023  1.1467 -0.2344
   12MPD2     H  185   3.923   1.711  13.873 -0.5946  0.7208 -1.9699
   12MPD2    H1  186   3.595   1.988  13.945  0.3920  1.0917  0.3906
   12MPD2    H2  187   3.984   2.130  13.882  1.1276 -1.0897 -3.4925
   12MPD2    H3  188   3.766   2.166  13.916  0.1359  1.1280  0.6350
   12MPD2     N  189   3.652   1.726  13.911 -0.4942 -0.2556  0.2030
   12MPD2    H5  190   3.692   1.636  13.887  1.9265  1.3084 -1.7286
   12MPD2    N1  191   4.104   1.888  13.830 -0.2902 -0.5828  0.1105
   12MPD2    H7  192   4.127   1.789  13.833 -0.5909 -0.6459  0.4578
   13TCq1    O1  193   3.161   1.811  10.897  0.0893  0.2090  0.3033
   13TCq1    C1  194   3.117   1.888  10.793 -0.0314 -0.7372  0.6944
   13TCq1    O2  195   3.183   1.900  10.693  0.5034  0.1070  0.1790
   13TCq1    C2  196   2.982   1.834  10.779 -0.2092  0.0376 -0.5503
   13TCq1    C3  197   2.923   1.822  10.653  0.2326  0.2518 -0.3788
   13TCq1    C4  198   2.783   1.811  10.640  0.4745  0.4699  0.2820
   13TCq1    C5  199   2.714   1.774  10.755  0.4813  0.8559  1.1675
   13TCq1    C6  200   2.783   1.785  10.878  0.1480 -0.0464  1.1404
   13TCq1    C7  201   2.913   1.804  10.892 -0.2275 -0.2737  0.3901
   13TCq1    C8  202   2.698   1.785  10.995  1.6184  0.6050  0.8158
   13TCq1    O4  203   2.750   1.839  11.097 -0.7299  0.0559 -0.4783
   13TCq1    C9  204   2.727   1.799  10.501  0.2452  0.1440  0.1045
   13TCq1    O5  205   2.607   1.759  10.488 -0.1508  0.6676  0.1381
   13TCq1    O6  206   2.783   1.865  10.411 -0.2177 -0.9769 -0.5531
   13TCq1    H1  207   3.098   1.804  10.972 -0.0865  0.3255  0.1663
   13TCq1    H2  208   2.981   1.825  10.561  1.4003  0.7730  0.3688
   13TCq1    H3  209   2.609   1.747  10.746  0.5496  0.8586  0.2941
   13TCq1    H4  210   2.949   1.843  10.987  1.8144  0.4488 -0.6805
   14MPD2     C  211   2.385   1.608  11.068 -0.2163  0.7189  0.0010
   14MPD2    C1  212   2.471   1.714  11.080  0.0231  0.0491 -0.2869
   14MPD2    C2  213   2.466   1.807  11.184  0.0059  0.5837  0.2955
   14MPD2    C3  214   2.373   1.786  11.283  0.4522  0.8269  0.2802
   14MPD2    C4  215   2.289   1.677  11.280 -0.6489  0.7460  0.0098
   14MPD2    C5  216   2.294   1.587  11.176 -0.6154 -0.4138 -0.1551
   14MPD2     H  217   2.527   1.895  11.198  0.0501  0.3569  1.5106
   14MPD2    H1  218   2.206   1.660  11.347 -0.8197  0.1366 -0.3492
   14MPD2    H2  219   2.392   1.534  10.989 -0.5333 -0.1619  0.7830
   14MPD2    H3  220   2.229   1.501  11.169  0.0681 -0.9197 -0.3061
   14MPD2     N  221   2.366   1.891  11.381  0.0655  0.1323 -0.0855
   14MPD2    H5  222   2.420   1.972  11.350 -1.5702  1.3066  0.1531
   14MPD2    N1  223   2.578   1.716  10.978  0.1670  0.0340  0.0733
   14MPD2    H7  224   2.565   1.659  10.895  3.0264  0.2756 -0.5516
   15TCq1    O1  225   3.734   1.890   1.681  0.4067  0.3138  0.0093
   15TCq1    C1  226   3.771   1.966   1.785  0.1894  0.7917 -0.2508
   15TCq1    O2  227   3.695   2.016   1.868 -0.4378  0.6906  0.4882
   15TCq1    C2  228   3.908   1.952   1.815  0.0431  0.0698  0.2801
   15TCq1    C3  229   3.933   1.946   1.951 -0.2803 -1.1727 -1.1999
   15TCq1    C4  230   4.062   1.918   1.983  0.1593  0.4061  0.0490
   15TCq1    C5  231   4.154   1.908   1.878  0.4366  0.3280 -0.3510
   15TCq1    C6  232   4.122   1.914   1.741 -0.2315 -0.1167 -0.1081
   15TCq1    C7  233   3.995   1.941   1.706 -0.0704  0.0747  0.8291
   15TCq1    C8  234   4.232   1.911   1.650  0.3551 -0.6223 -0.4149
   15TCq1    O4  235   4.344   1.882   1.696 -0.0861  0.2300  0.5369
   15TCq1    C9  236   4.102   1.915   2.124 -0.2377 -0.2912  0.0567
   15TCq1    O5  237   4.221   1.882   2.138  0.5312  0.1503  0.0224
   15TCq1    O6  238   4.003   1.903   2.203 -0.3512 -0.1128 -0.3900
   15TCq1    H1  239   3.795   1.818   1.657 -0.9390 -0.4485 -1.1303
   15TCq1    H2  240   3.854   1.969   2.021  1.2924  0.4724  0.0248
   15TCq1    H3  241   4.255   1.905   1.916  0.5137 -2.0553 -0.7417
   15TCq1    H4  242   3.962   1.938   1.603 -0.4727  2.6480  0.9026
   16MPD2     C  243   4.231   1.966   1.286 -0.6658 -0.3222  0.1431
   16MPD2    C1  244   4.285   1.938   1.411 -0.1291  0.6564 -0.5461
   16MPD2    C2  245   4.417   1.900   1.411  0.2539  0.5117  0.2571
   16MPD2    C3  246   4.486   1.872   1.290 -0.6972  0.5140 -1.3920
   16MPD2    C4  247   4.425   1.900   1.169 -0.0869  0.4866 -0.0149
   16MPD2    C5  248   4.302   1.959   1.165  0.9122  0.8280 -0.3183
   16MPD2     H  249   4.469   1.895   1.506 -2.3334  0.5313  1.6780
   16MPD2    H1  250   4.470   1.890   1.071  0.9557  0.2835  0.4796
   16MPD2    H2  251   4.129   2.001   1.287 -0.2192  0.9961 -0.5218
   16MPD2    H3  252   4.254   1.986   1.072  1.8030  2.2085 -0.3699
   16MPD2     N  253   4.623   1.837   1.299 -0.3233  0.3837 -0.0625
   16MPD2    H5  254   4.671   1.847   1.387  0.0461 -1.9815  0.0070
   16MPD2    N1  255   4.201   1.948   1.525 -1.2148  0.2751 -0.0705
   16MPD2    H7  256   4.107   1.978   1.504 -0.8942  1.0531 -0.4019
   17TCq1    O1  257   2.023   0.686  11.106 -0.6784  0.3114  0.0381
   17TCq1    C1  258   2.088   0.770  11.195 -1.0007 -0.1505  0.0375
   17TCq1    O2  259   2.136   0.725  11.297  0.1773 -0.2112  0.7533
   17TCq1    C2  260   2.132   0.892  11.126 -0.6635  0.3455  0.1523
   17TCq1    C3  261   2.124   0.899  10.991 -0.2613 -0.3543 -0.6002
   17TCq1    C4  262   2.194   0.990  10.921 -0.3389 -0.2974  0.1265
   17TCq1    C5  263   2.263   1.092  10.984  0.0247  0.1358 -0.2806
   17TCq1    C6  264   2.268   1.086  11.124  0.0682  0.2041 -0.0743
   17TCq1    C7  265   2.213   0.983  11.193 -0.3330 -0.2435  0.5037
   17TCq1    C8  266   2.364   1.171  11.194 -0.0394  0.5198  0.2083
   17TCq1    O4  267   2.334   1.202  11.308 -0.0964 -0.0183  0.0089
   17TCq1    C9  268   2.195   0.992  10.776  0.0890  0.7143 -0.7055
   17TCq1    O5  269   2.277   1.065  10.715 -0.5196  0.0960  0.1373
   17TCq1    O6  270   2.110   0.913  10.725  0.6590 -0.2771 -0.0424
   17TCq1    H1  271   1.986   0.733  11.029 -0.3940  0.0959 -0.2338
   17TCq1    H2  272   2.080   0.824  10.927 -3.2235  1.5542 -0.7670
   17TCq1    H3  273   2.321   1.162  10.925  1.4292  0.0591  0.9787
   17TCq1    H4  274   2.230   0.973  11.299  2.7552  0.5235  0.0881
   18MPD2     C  275   2.561   1.381  11.268  0.0827 -0.0078 -0.4969
   18MPD2    C1  276   2.559   1.309  11.151  0.1872 -0.1245  0.8148
   18MPD2    C2  277   2.647   1.345  11.048  0.2013  0.4748 -0.5966
   18MPD2    C3  278   2.753   1.432  11.079  0.6454  0.1756 -0.0147
   18MPD2    C4  279   2.767   1.487  11.216  1.0301 -0.0504 -0.5098
   18MPD2    C5  280   2.657   1.466  11.300  1.1549 -0.7014 -0.5442
   18MPD2     H  281   2.635   1.287  10.957  1.3874 -0.3389 -0.2305
   18MPD2    H1  282   2.849   1.547  11.251 -0.3030  1.0858  0.6441
   18MPD2    H2  283   2.479   1.374  11.338 -0.5463  0.5515 -1.1842
   18MPD2    H3  284   2.655   1.511  11.399  1.1270  2.0348 -1.7766
   18MPD2     N  285   2.859   1.457  10.986  0.3885  0.2561  0.0066
   18MPD2    H5  286   2.944   1.496  11.027  0.6906 -0.6124  0.1950
   18MPD2    N1  287   2.458   1.219  11.114 -0.0129  0.3754  0.3231
   18MPD2    H7  288   2.471   1.190  11.018 -1.7259  2.0797 -0.4089
   19TMC2    C1  289   0.225   1.759  13.797 -0.1391 -0.1763 -0.3969
   19TMC2    C2  290   0.240   1.800  13.669  0.3493 -0.4114 -0.2218
   19TMC2    C3  291   0.203   1.712  13.571 -0.1708 -0.9181  0.0808
   19TMC2    C4  292   0.179   1.630  13.830 -0.1424  0.3040  0.2249
   19TMC2    C5  293   0.153   1.550  13.721  0.7007 -0.4465  0.2730
   19TMC2    C6  294   0.157   1.587  13.592  0.6022 -0.1585 -0.5753
   19TMC2     C  295   0.276   1.843  13.903 -0.4320  0.7439  0.7229
   19TMC2     O  296   0.324   1.952  13.867  0.6445  0.5016 -0.1043
   19TMC2     H  297   0.272   1.903  13.659  0.3305 -0.4283 -0.4482
   19TMC2    H1  298   0.179   1.583  13.928 -0.8355  0.6211  0.3752
   19TMC2    H2  299   0.106   1.538  13.510 -1.2907  0.1988  0.3795
   19TMC2    C7  300   0.097   1.419  13.746  0.1608 -0.0787 -0.0848
   19TMC2    C8  301   0.197   1.754  13.434  0.7464 -0.2265 -0.1483
   19TMC2    O1  302   0.032   1.419  13.848  0.5487 -0.1098 -0.1547
   19TMC2    O2  303   0.223   1.678  13.342 -0.6637  0.0650 -0.0155
   19TMC2    O5  304   0.194   1.889  13.434  0.3193  0.0115  0.4307
   19TMC2    H5  305   0.137   1.932  13.501  1.5536  0.8364  0.9574
   20MPD2     C  306   0.396   1.975  14.152  0.6435 -0.3490  0.6112
   20MPD2    C1  307   0.306   1.868  14.145  0.6026  0.5971  0.1585
   20MPD2    C2  308   0.268   1.814  14.264 -0.3937 -0.0588  0.4746
   20MPD2    C3  309   0.337   1.848  14.381 -0.6511 -0.5774  0.4161
   20MPD2    C4  310   0.420   1.957  14.379  0.0855 -0.9392  0.2846
   20MPD2    C5  311   0.435   2.034  14.265  0.5273 -0.3227  0.0303
   20MPD2     H  312   0.183   1.747  14.272 -0.9456  0.6043  0.2281
   20MPD2    H1  313   0.476   1.990  14.466  1.3497 -1.7002 -0.2431
   20MPD2    H2  314   0.426   2.019  14.057  0.0828 -1.3570 -0.0350
   20MPD2    H3  315   0.509   2.113  14.270  0.5864 -0.3704 -0.0974
   20MPD2     N  316   0.314   1.781  14.509 -0.0474  0.4475 -0.1411
   20MPD2    H5  317   0.370   1.821  14.584 -0.3015  0.2227  0.1660
   20MPD2    N1  318   0.250   1.808  14.034 -0.2341 -0.2957  0.2892
   20MPD2    H7  319   0.187   1.730  14.047  0.3460 -0.5235  1.6811
   21MPD2     C  320   2.607   2.444  14.313 -0.2670  0.1923  0.5697
   21MPD2    C1  321   2.608   2.307  14.338 -0.1702 -0.1628  0.3288
   21MPD2    C2  322   2.495   2.250  14.393  0.4672  0.0283  0.8827
   21MPD2    C3  323   2.379   2.320  14.413 -0.2113 -0.7342  0.4571
   21MPD2    C4  324   2.381   2.458  14.381 -0.0097 -0.2129  0.3962
   21MPD2    C5  325   2.497   2.516  14.344  0.5558  0.0379 -0.6280
   21MPD2     H  326   2.496   2.145  14.420  0.8374 -0.5573 -1.3676
   21MPD2    H1  327   2.292   2.519  14.368 -1.0169 -1.7352  0.0975
   21MPD2    H2  328   2.697   2.493  14.276  0.1123 -1.4183 -0.6348
   21MPD2    H3  329   2.493   2.623  14.326  0.8610  0.5928  2.5581
   21MPD2     N  330   2.258   2.270  14.477 -0.4269 -0.5604 -0.4960
   21MPD2    H5  331   2.185   2.335  14.505 -0.3196 -0.7752  0.2908
   21MPD2    N1  332   2.722   2.231  14.327 -0.3910  0.2355 -0.2663
   21MPD2    H7  333   2.707   2.131  14.335  2.5233 -0.0059  2.2589
   22TCq2    C1  334   2.228   2.138  14.506  0.7744 -0.4386 -0.5614
   22TCq2    O2  335   2.298   2.044  14.482 -0.3907 -0.0212 -0.1682
   22TCq2    C2  336   2.109   2.122  14.582 -0.0891 -0.5008  0.2647
   22TCq2    C3  337   2.080   1.991  14.622 -0.5057 -0.6214 -0.2599
   22TCq2    C4  338   1.978   1.979  14.724  0.5051  0.4898 -1.0075
   22TCq2    C5  339   1.903   2.085  14.759 -0.4083  0.5574 -0.6397
   22TCq2    C6  340   1.926   2.205  14.706 -0.2836  0.3048 -0.4557
   22TCq2    C7  341   2.029   2.227  14.619  0.1034 -0.0813 -0.1763
   22TCq2    C8  342   1.846   2.314  14.744  0.9792 -0.0123 -0.9045
   22TCq2    O4  343   1.802   2.298  14.858 -0.4688  0.1645  0.1130
   22TCq2    C9  344   1.939   1.846  14.775 -0.6372  0.1455  0.4221
   22TCq2    O5  345   1.896   1.837  14.891  0.1577  0.2659  0.4379
   22TCq2    O6  346   1.949   1.753  14.691 -0.1839  0.2232  0.1075
   22TCq2    H2  347   2.125   1.904  14.576  0.6596 -0.3376  0.3281
   22TCq2    H3  348   1.822   2.055  14.824  0.0060  1.6724  0.4025
   22TCq2    H4  349   2.033   2.332  14.590  1.0463  0.4350  1.8218
   23MPD2     C  350   3.895   2.703  14.014 -0.3371  0.3225  0.4508
   23MPD2    C1  351   3.863   2.780  14.124  0.8409 -0.3682  0.2563
   23MPD2    C2  352   3.836   2.912  14.097  0.0841  0.4771 -0.2655
   23MPD2    C3  353   3.830   2.962  13.969  0.3738 -0.2345 -0.0349
   23MPD2    C4  354   3.851   2.888  13.867  0.2052  0.3070 -0.4571
   23MPD2    C5  355   3.886   2.758  13.885  0.1216  0.1082 -0.5346
   23MPD2     H  356   3.820   2.974  14.184  0.6157  0.1673  0.0560
   23MPD2    H1  357   3.847   2.924  13.765 -2.5767 -2.6984 -1.4028
   23MPD2    H2  358   3.917   2.597  14.019 -0.3579  0.2177 -1.8048
   23MPD2    H3  359   3.897   2.697  13.796  1.9746 -0.9258  0.4018
   23MPD2     N  360   3.812   3.097  13.940 -0.2430 -0.3284 -0.1086
   23MPD2    H5  361   3.811   3.122  13.841 -0.5714 -1.4521 -0.3811
   23MPD2    N1  362   3.849   2.735  14.252 -0.5385 -0.5695 -0.0785
   23MPD2    H7  363   3.814   2.795  14.327  1.1080 -0.5379  0.6610
   24TCq2    C1  364   3.842   3.199  14.022 -0.4111 -0.4247 -0.6242
   24TCq2    O2  365   3.926   3.185  14.115  0.1098  0.1005 -0.4161
   24TCq2    C2  366   3.815   3.328  13.955  0.0275 -0.1624 -0.6390
   24TCq2    C3  367   3.736   3.340  13.839 -0.1512  0.1368  0.8743
   24TCq2    C4  368   3.696   3.465  13.808 -0.3519  1.1516  0.0681
   24TCq2    C5  369   3.743   3.579  13.870 -0.0979  0.0291  0.2825
   24TCq2    C6  370   3.829   3.558  13.972  0.7474 -0.8467  0.1750
   24TCq2    C7  371   3.866   3.436  14.018  0.2139  0.5559 -0.1491
   24TCq2    C8  372   3.863   3.669  14.058 -0.6249 -0.7269 -0.2052
   24TCq2    O4  373   3.963   3.661  14.128  0.3424  0.3013  0.1379
   24TCq2    C9  374   3.596   3.476  13.705  0.4419 -0.1881 -0.4170
   24TCq2    O5  375   3.523   3.578  13.709  0.1112  1.1879 -0.3573
   24TCq2    O6  376   3.565   3.374  13.634  0.6287 -0.7292  0.9573
   24TCq2    H2  377   3.687   3.258  13.787  2.4028 -1.3970  0.8789
   24TCq2    H3  378   3.715   3.676  13.830 -0.3585  0.0799  0.5963
   24TCq2    H4  379   3.913   3.435  14.116 -0.4310  0.4179  0.1571
   25TMC2    C1  380   2.946   0.781  11.425  0.0788  0.3437  0.2908
   25TMC2    C2  381   3.046   0.855  11.475 -1.0495 -0.0628  0.2570
   25TMC2    C3  382   3.038   0.915  11.593  0.5048  0.5773  0.9667
   25TMC2    C4  383   2.822   0.785  11.492 -0.0390  0.4494  0.3167
   25TMC2    C5  384   2.820   0.844  11.612 -0.3383 -0.1821  1.4644
   25TMC2    C6  385   2.920   0.918  11.653  0.4423  0.5697  0.2971
   25TMC2     C  386   2.964   0.731  11.289  0.4983 -0.8301 -0.0597
   25TMC2     O  387   3.043   0.800  11.232 -0.3079  0.0295 -0.0141
   25TMC2     H  388   3.139   0.854  11.419 -0.6553 -1.4879  0.9314
   25TMC2    H1  389   2.739   0.731  11.447  2.0525 -1.6479 -1.0379
   25TMC2    H2  390   2.918   0.962  11.751 -1.4204  1.1254  0.0063
   25TMC2    C7  391   2.690   0.865  11.688 -0.0016 -0.3132 -0.3074
   25TMC2    C8  392   3.122   1.030  11.602  0.0748 -0.2205 -0.5976
   25TMC2    O1  393   2.706   0.899  11.805 -0.3629  0.0881  0.3538
   25TMC2    O2  394   3.167   1.098  11.511  0.5833 -0.4124  0.5634
   25TMC2    O5  395   3.164   1.034  11.732  0.1490 -0.0599  0.2954
   25TMC2    H5  396   3.119   0.971  11.792 -1.3126  1.6330  0.9857
   26MPD2     C  397   2.769   0.538  10.864  0.2661 -0.2153 -0.1295
   26MPD2    C1  398   2.731   0.456  10.965 -0.5497 -0.1310  0.3215
   26MPD2    C2  399   2.765   0.495  11.091 -0.3074  0.0641  0.1897
   26MPD2    C3  400   2.856   0.603  11.110 -0.3347 -0.5735 -0.1671
   26MPD2    C4  401   2.899   0.676  11.003 -0.2153  0.5237  0.4864
   26MPD2    C5  402   2.848   0.642  10.877 -0.2200  0.0291  0.3591
   26MPD2     H  403   2.725   0.442  11.177  1.2908  1.5045  1.8457
   26MPD2    H1  404   2.967   0.760  11.018  0.9496 -0.1790 -0.8484
   26MPD2    H2  405   2.744   0.517  10.761  0.0307 -1.6021  0.2193
   26MPD2    H3  406   2.879   0.699  10.790 -1.5446  0.5347  0.2173
   26MPD2     N  407   2.876   0.636  11.245  0.2350  0.3409 -0.0686
   26MPD2    H5  408   2.817   0.584  11.309  1.6069  0.1389  1.0143
   26MPD2    N1  409   2.626   0.358  10.927 -0.2263 -0.0984 -0.1112
   26MPD2    H7  410   2.598   0.369  10.830 -2.4534 -2.3974  0.2548
   27TMC2    C1  411   0.891   3.780  12.246  0.2724  0.5698 -0.0070
   27TMC2    C2  412   0.957   3.795  12.129 -0.3142 -0.0956  0.5844
   27TMC2    C3  413   1.034   3.909  12.117 -0.0375  0.2680  0.0348
   27TMC2    C4  414   0.895   3.881  12.339 -0.2469  0.1996  0.6003
   27TMC2    C5  415   0.958   3.994  12.321  0.3736  0.0976 -0.4912
   27TMC2    C6  416   1.030   4.011  12.205  0.0441  0.1538  0.6652
   27TMC2     C  417   0.848   3.648  12.289 -0.0821  0.9134 -0.5812
   27TMC2     O  418   0.785   3.658  12.393 -0.0645 -0.1807  0.2219
   27TMC2     H  419   0.966   3.722  12.049 -0.0899  0.4142  0.1412
   27TMC2    H1  420   0.842   3.873  12.433 -1.5883 -2.3779 -0.3527
   27TMC2    H2  421   1.085   4.104  12.206  0.0771  0.1411 -1.2017
   27TMC2    C7  422   1.013   4.055  12.439  0.7814 -0.5576 -0.4614
   27TMC2    C8  423   1.082   3.940  11.984 -1.0268 -0.2545 -0.2223
   27TMC2    O1  424   1.046   4.171  12.427  0.1297  0.4687 -0.2116
   27TMC2    O2  425   1.127   3.859  11.902 -0.2646  0.1621 -0.7402
   27TMC2    O5  426   1.046   4.067  11.962  0.3338  0.0224 -0.0449
   27TMC2    H5  427   0.985   4.100  12.031  2.1669  2.0888  0.5586
   28MPD2     C  428   0.929   3.142  12.330  0.1344  0.0145  0.0161
   28MPD2    C1  429   0.865   3.226  12.421 -0.5302 -0.0992 -0.2751
   28MPD2    C2  430   0.850   3.363  12.388  0.1097  0.8793  0.0065
   28MPD2    C3  431   0.882   3.405  12.261 -0.2668 -0.0312  0.3996
   28MPD2    C4  432   0.944   3.312  12.172 -1.1421 -0.0428  0.2128
   28MPD2    C5  433   0.975   3.179  12.210  0.3767 -0.1907 -0.4387
   28MPD2     H  434   0.805   3.427  12.463  0.7525 -0.2741  1.3912
   28MPD2    H1  435   0.957   3.343  12.069 -1.4348  2.2634  0.8797
   28MPD2    H2  436   0.953   3.037  12.345 -0.2267 -0.0410  0.1991
   28MPD2    H3  437   1.026   3.102  12.153  2.5900  2.1368 -1.6051
   28MPD2     N  438   0.881   3.540  12.211 -0.1951 -0.7484 -0.1287
   28MPD2    H5  439   0.909   3.559  12.116 -3.0737 -1.4626 -1.0988
   28MPD2    N1  440   0.818   3.170  12.541  0.4114  0.2264  0.4059
   28MPD2    H7  441   0.834   3.072  12.562 -0.6230  0.2189  1.1518
   29MPD2     C  442   1.162   0.126  14.199  0.0897  0.1351  0.0771
   29MPD2    C1  443   1.081   0.097  14.305  0.0564 -0.3343 -0.0821
   29MPD2    C2  444   1.042   0.202  14.388  0.2304 -0.0783 -0.2819
   29MPD2    C3  445   1.069   0.337  14.357  0.0623  0.2179 -0.4573
   29MPD2    C4  446   1.128   0.361  14.235  0.1965  0.3400  0.8659
   29MPD2    C5  447   1.179   0.258  14.162 -0.0215 -0.2565 -0.1072
   29MPD2     H  448   1.012   0.178  14.489  0.3541 -0.2860 -0.2935
   29MPD2    H1  449   1.143   0.465  14.209 -1.5816 -0.2897 -2.7546
   29MPD2    H2  450   1.194   0.041  14.140  2.1420  1.0466 -0.1206
   29MPD2    H3  451   1.242   0.288  14.078  0.6682 -0.5911  0.2927
   29MPD2     N  452   1.015   0.453  14.424 -0.1173 -0.7144 -0.4551
   29MPD2    H5  453   1.011   0.540  14.371  1.2917 -1.2371 -1.4208
   29MPD2    N1  454   1.063   4.684  14.338  0.3620 -0.6413 -0.4000
   29MPD2    H7  455   1.091   4.618  14.266 -0.6052 -2.3528  0.7947
   30TCq2    C1  456   0.946   0.449  14.546  0.5461 -0.9108  0.2973
   30TCq2    O2  457   0.904   0.356  14.616  0.0569  0.3107 -0.0735
   30TCq2    C2  458   0.888   0.576  14.569  1.1091  0.1023  0.0360
   30TCq2    C3  459   0.819   0.594  14.684  0.0252  0.5618 -0.4953
   30TCq2    C4  460   0.794   0.721  14.728  0.0007  0.4820  0.2416
   30TCq2    C5  461   0.807   0.833  14.647  0.2169  0.1771 -0.4275
   30TCq2    C6  462   0.862   0.808  14.527  0.2368 -0.2064  0.8666
   30TCq2    C7  463   0.916   0.684  14.490  0.3512 -0.0102 -0.6444
   30TCq2    C8  464   0.896   0.924  14.445  0.6428 -0.0741 -0.1699
   30TCq2    O4  465   0.873   0.901  14.327 -0.1065  0.4971 -0.2522
   30TCq2    C9  466   0.702   0.731  14.844  0.0926  0.8148  0.2049
   30TCq2    O5  467   0.645   0.842  14.866  0.0343 -0.7870 -0.4095
   30TCq2    O6  468   0.701   0.637  14.925  0.1431  0.2881  0.5113
   30TCq2    H2  469   0.807   0.506  14.746 -0.4380  1.0987  0.1664
   30TCq2    H3  470   0.779   0.935  14.670 -1.7141 -0.3711 -0.3421
   30TCq2    H4  471   0.941   0.671  14.385  0.4319 -0.9081 -0.5174
   31MPD2     C  472   3.983   4.177  14.767 -0.5447 -0.3738  0.5340
   31MPD2    C1  473   3.857   4.198  14.716 -0.0848 -0.0908 -0.1493
   31MPD2    C2  474   3.755   4.110  14.759  0.6658 -0.7160 -0.9450
   31MPD2    C3  475   3.785   4.024  14.860  0.1815  0.3412  0.3004
   31MPD2    C4  476   3.909   4.007  14.916  0.0500 -0.3554  0.1190
   31MPD2    C5  477   4.010   4.081  14.865 -1.0203  0.2700 -0.5600
   31MPD2     H  478   3.654   4.131  14.728  1.5664 -1.1137 -4.1988
   31MPD2    H1  479   3.918   3.951  15.008  1.0636 -1.6184 -0.7594
   31MPD2    H2  480   4.061   4.242  14.728 -1.8117 -0.0497 -1.4460
   31MPD2    H3  481   4.110   4.075  14.907 -0.8665  1.5879 -0.7369
   31MPD2     N  482   3.682   3.953  14.928 -0.0133  0.1415 -0.0045
   31MPD2    H5  483   3.715   3.891  15.002 -0.7599 -1.9511 -1.4363
   31MPD2    N1  484   3.847   4.297  14.617  0.6147 -0.2191 -0.5446
   31MPD2    H7  485   3.930   4.341  14.578  0.2129  0.0525 -1.0964
   32TCq2    C1  486   3.548   3.964  14.912 -0.3421 -0.0994 -0.2412
   32TCq2    O2  487   3.486   4.044  14.840 -0.3274 -0.5384 -0.0673
   32TCq2    C2  488   3.469   3.871  14.996  0.4189 -0.2851 -0.0858
   32TCq2    C3  489   3.336   3.871  14.976  0.4448  0.6887 -0.0040
   32TCq2    C4  490   3.247   3.818  15.060 -0.1316 -0.8897  0.3557
   32TCq2    C5  491   3.296   3.766  15.179 -1.0216 -1.1608  0.8451
   32TCq2    C6  492   3.429   3.770  15.200  0.2200  0.1015 -0.0618
   32TCq2    C7  493   3.519   3.817  15.112 -0.3826  0.2540 -0.5448
   32TCq2    C8  494   3.486   3.712  15.319  0.3487  0.0468 -0.6775
   32TCq2    O4  495   3.603   3.665  15.320  0.3013 -0.3829  0.5702
   32TCq2    C9  496   3.104   3.803  15.036  0.6106 -0.1414 -0.7066
   32TCq2    O5  497   3.067   3.820  14.918  0.0490  0.0918  0.3057
   32TCq2    O6  498   3.024   3.789  15.133 -0.1276 -0.4480  0.4619
   32TCq2    H2  499   3.294   3.906  14.883 -3.2223 -0.3537  1.2751
   32TCq2    H3  500   3.227   3.720  15.249 -0.5517 -0.0137  2.0620
   32TCq2    H4  501   3.623   3.812  15.141 -0.4936 -3.2715 -0.7779
   33MPD2     C  502   2.810   1.469  10.184 -0.2417  0.1903 -0.6220
   33MPD2    C1  503   2.932   1.492  10.241 -0.4115  0.4025  0.2664
   33MPD2    C2  504   3.044   1.500  10.153 -0.2861  0.1831  0.5461
   33MPD2    C3  505   3.020   1.488  10.014  0.2606  0.5266 -0.4373
   33MPD2    C4  506   2.896   1.480   9.962  0.0088  0.3375  0.5372
   33MPD2    C5  507   2.788   1.468  10.048  0.1314  0.3774 -0.2927
   33MPD2     H  508   3.145   1.523  10.185 -0.2210 -0.7728  1.0110
   33MPD2    H1  509   2.883   1.456   9.857  1.1743 -1.7139  0.8633
   33MPD2    H2  510   2.724   1.457  10.248  0.6126 -0.0978  0.4585
   33MPD2    H3  511   2.696   1.435  10.000  1.0418 -2.6654  0.0958
   33MPD2     N  512   3.119   1.494   9.909  1.1775  0.0820 -0.3938
   33MPD2    H5  513   3.085   1.479   9.815 -1.1372  1.1745  0.2534
   33MPD2    N1  514   2.947   1.507  10.380  0.5224 -0.7156  0.8383
   33MPD2    H7  515   2.879   1.474  10.447 -1.4431 -2.2049 -1.8887
   34TCq2    C1  516   3.251   1.505   9.932 -0.3871  0.7993 -0.6146
   34TCq2    O2  517   3.320   1.514  10.033 -0.0449  0.2760  0.3391
   34TCq2    C2  518   3.337   1.497   9.819 -0.4705  0.0950  0.7072
   34TCq2    C3  519   3.282   1.499   9.691  0.0809 -0.2379  0.3052
   34TCq2    C4  520   3.370   1.505   9.586 -0.6875 -0.3709 -0.0409
   34TCq2    C5  521   3.506   1.512   9.601 -0.3677  1.0369  0.1115
   34TCq2    C6  522   3.555   1.495   9.726 -0.5400 -0.1493  0.9271
   34TCq2    C7  523   3.474   1.497   9.838  0.1009 -0.2414 -0.7561
   34TCq2    C8  524   3.694   1.527   9.746  0.9028  0.3163  0.0833
   34TCq2    O4  525   3.727   1.549   9.861 -0.0800  0.2874  0.6202
   34TCq2    C9  526   3.319   1.499   9.451  0.2561 -0.1329  0.4580
   34TCq2    O5  527   3.408   1.489   9.361 -0.0755 -0.0850  0.0402
   34TCq2    O6  528   3.192   1.487   9.431 -0.0314 -0.2901  0.4624
   34TCq2    H2  529   3.176   1.512   9.669  0.6762  1.0066 -1.7610
   34TCq2    H3  530   3.565   1.524   9.511  1.0628  2.2892  1.2359
   34TCq2    H4  531   3.508   1.472   9.938 -1.2369 -1.7928 -0.6901
   35MPD2     C  532   0.347   3.843  11.934  0.5020  0.4328  0.2853
   35MPD2    C1  533   0.359   3.709  11.945  1.1828  0.1567  0.1453
   35MPD2    C2  534   0.304   3.628  11.855  0.7404  0.4712  0.5564
   35MPD2    C3  535   0.230   3.676  11.747  0.1430 -0.0482 -0.4978
   35MPD2    C4  536   0.212   3.812  11.744 -0.3758 -0.3119  0.5444
   35MPD2    C5  537   0.266   3.899  11.836  0.0971 -0.1710 -0.1287
   35MPD2     H  538   0.312   3.520  11.866  1.6138  0.5643  0.8249
   35MPD2    H1  539   0.145   3.863  11.675 -1.2421 -1.5594  0.4628
   35MPD2    H2  540   0.398   3.899  12.011  1.2278  0.8978 -0.5373
   35MPD2    H3  541   0.242   4.005  11.839 -0.6876 -0.4509  3.6904
   35MPD2     N  542   0.178   3.588  11.649 -0.4017 -0.4295 -0.7041
   35MPD2    H5  543   0.194   3.488  11.649 -0.6433 -0.4679  0.0330
   35MPD2    N1  544   0.434   3.659  12.055 -0.6806  0.5227  0.5989
   35MPD2    H7  545   0.475   3.723  12.122 -0.7879  0.9606  0.2445
   36TCq2    C1  546   0.104   3.635  11.532  0.2558 -0.5698 -0.3117
   36TCq2    O2  547   0.074   3.749  11.501 -0.0073  0.5372 -0.4982
   36TCq2    C2  548   0.041   3.535  11.451  0.1045  0.7930  0.7610
   36TCq2    C3  549   0.023   3.570  11.322 -0.7133 -0.1693  0.8066
   36TCq2    C4  550   4.664   3.479  11.251  0.0033 -0.3630  0.6126
   36TCq2    C5  551   4.618   3.360  11.309  0.4418  0.0337 -0.1984
   36TCq2    C6  552   4.658   3.327  11.433 -0.3241 -0.1748  0.4531
   36TCq2    C7  553   4.721   3.417  11.512 -0.6925  0.2200 -0.4487
   36TCq2    C8  554   4.647   3.189  11.476  0.1788 -0.8137  1.3386
   36TCq2    O4  555   4.562   3.120  11.421 -0.1442 -0.3095  0.3587
   36TCq2    C9  556   4.632   3.509  11.111 -0.0531  0.4020 -0.3371
   36TCq2    O5  557   4.714   3.585  11.057  0.0198  0.0256  0.3372
   36TCq2    O6  558   4.555   3.434  11.047 -0.4469 -0.0315  0.0215
   36TCq2    H2  559   0.051   3.662  11.271  0.1234 -0.8375  0.0680
   36TCq2    H3  560   4.575   3.280  11.249 -0.7673 -0.4528  1.3173
   36TCq2    H4  561   0.008   3.407  11.619 -1.3787  0.3087 -0.3742
   37TMC2    C1  562   2.210   2.843  11.559 -0.3885 -0.1802  0.3550
   37TMC2    C2  563   2.192   2.733  11.477 -0.1132 -0.4661  0.2530
   37TMC2    C3  564   2.301   2.707  11.396 -0.0400 -0.1211 -0.4195
   37TMC2    C4  565   2.328   2.916  11.562 -0.4239 -0.2103  0.1628
   37TMC2    C5  566   2.430   2.886  11.474 -0.2590  0.8315 -0.5012
   37TMC2    C6  567   2.419   2.782  11.391 -0.0470  0.2948  0.5960
   37TMC2     C  568   2.092   2.902  11.622 -0.6209 -0.4073  0.3536
   37TMC2     O  569   1.982   2.884  11.568 -0.0044  0.4576  0.1042
   37TMC2     H  570   2.104   2.670  11.482  0.2951 -0.9216  1.5021
   37TMC2    H1  571   2.339   3.014  11.605 -1.7961  0.6741 -1.5170
   37TMC2    H2  572   2.501   2.752  11.327 -1.3851 -1.4296 -0.3373
   37TMC2    C7  573   2.556   2.964  11.481  0.1800  0.7854  1.1665
   37TMC2    C8  574   2.294   2.600  11.304 -0.2184  0.2587 -0.3470
   37TMC2    O1  575   2.565   3.039  11.576  0.2892 -0.8331  0.8120
   37TMC2    O2  576   2.208   2.517  11.316 -0.0460 -0.1172  0.4589
   37TMC2    O5  577   2.357   2.629  11.194  0.2225 -0.3920  0.2471
   37TMC2    H5  578   2.391   2.721  11.186 -0.5649  0.0073  1.5211
   38MPD2     C  579   1.868   3.181  12.009 -0.6393 -0.9836 -0.0984
   38MPD2    C1  580   2.004   3.164  12.034 -0.0872  0.2344  0.4241
   38MPD2    C2  581   2.078   3.089  11.947 -0.4820  0.2217 -0.0869
   38MPD2    C3  582   2.029   3.035  11.831 -0.5280  0.1866  0.7490
   38MPD2    C4  583   1.887   3.048  11.811 -0.2771 -0.0535 -0.0441
   38MPD2    C5  584   1.815   3.129  11.895 -0.5062 -0.1676  0.7953
   38MPD2     H  585   2.183   3.074  11.967 -0.1412  1.5341 -0.8801
   38MPD2    H1  586   1.833   3.003  11.729  2.2615  0.3261 -1.9102
   38MPD2    H2  587   1.811   3.256  12.063  0.0998 -0.0176 -0.6481
   38MPD2    H3  588   1.710   3.150  11.875 -0.1697  1.3258  0.5780
   38MPD2     N  589   2.122   2.958  11.742  0.2575  0.2596  0.2116
   38MPD2    H5  590   2.214   2.930  11.775  0.5984  2.1632  0.9253
   38MPD2    N1  591   2.067   3.218  12.154  0.6716  0.2751 -0.5912
   38MPD2    H7  592   2.158   3.180  12.178  0.0760 -1.4950 -1.1284
   39MPD2     C  593   0.750   1.514   1.677  0.1610  0.2116  0.0994
   39MPD2    C1  594   0.619   1.499   1.722 -0.3969  0.0301 -0.0171
   39MPD2    C2  595   0.531   1.447   1.629 -0.4580 -0.5001 -0.2038
   39MPD2    C3  596   0.561   1.412   1.494  0.5931  0.0566 -0.0579
   39MPD2    C4  597   0.696   1.427   1.463  0.6942  0.1025 -0.1731
   39MPD2    C5  598   0.786   1.482   1.548  1.2661 -0.2793 -0.0746
   39MPD2     H  599   0.427   1.425   1.650 -0.8365  0.8936 -0.6167
   39MPD2    H1  600   0.730   1.423   1.360 -0.2514 -0.6922 -0.4527
   39MPD2    H2  601   0.819   1.578   1.732  0.9247  1.7675 -2.6972
   39MPD2    H3  602   0.884   1.510   1.512  0.4881  0.9584 -1.2473
   39MPD2     N  603   0.470   1.381   1.388 -0.4899 -0.6596 -0.0980
   39MPD2    H5  604   0.493   1.357   1.292  0.0524 -1.2870  0.1944
   39MPD2    N1  605   0.591   1.544   1.851 -0.1022  0.0907  0.1357
   39MPD2    H7  606   0.673   1.581   1.898  1.1971 -1.2445 -1.1197
   40TCq2    C1  607   0.474   1.542   1.916 -0.1341  0.0302  0.6476
   40TCq2    O2  608   0.375   1.484   1.871  0.1723  0.3573 -0.8057
   40TCq2    C2  609   0.466   1.611   2.043 -0.7473 -1.1014  0.2761
   40TCq2    C3  610   0.394   1.545   2.146  0.0738 -0.4567 -0.1181
   40TCq2    C4  611   0.400   1.591   2.277  1.0830  0.5032 -0.0493
   40TCq2    C5  612   0.480   1.700   2.309  0.0780 -0.1466  0.3179
   40TCq2    C6  613   0.562   1.752   2.212 -0.7957 -0.2548  1.2971
   40TCq2    C7  614   0.551   1.716   2.077  0.4322  0.3070  0.6698
   40TCq2    C8  615   0.639   1.879   2.241 -0.4951  0.1564 -0.0501
   40TCq2    O4  616   0.604   1.933   2.347 -0.1241 -0.2592  0.1123
   40TCq2    C9  617   0.324   1.523   2.380 -0.8057  0.2859  0.0809
   40TCq2    O5  618   0.322   1.592   2.487 -0.5857  0.3911 -0.8732
   40TCq2    O6  619   0.257   1.423   2.352 -0.2848 -0.1487 -0.1591
   40TCq2    H2  620   0.325   1.465   2.123 -1.9927  0.6611  2.2178
   40TCq2    H3  621   0.487   1.730   2.413 -0.9233  0.7189  0.1301
   40TCq2    H4  622   0.614   1.756   1.998 -0.4067  0.4247  0.0533
   41TMC2    C1  623   3.959   3.316  13.531  0.2695  0.1537  0.3539
   41TMC2    C2  624   3.831   3.309  13.488 -0.3378  0.4419  0.3688
   41TMC2    C3  625   3.802   3.378  13.373  0.2044 -0.8803  0.0960
   41TMC2    C4  626   4.054   3.391  13.474  0.0171 -0.5222  0.2892
   41TMC2    C5  627   4.020   3.474  13.371  0.1103  0.7907 -0.3378
   41TMC2    C6  628   3.893   3.462  13.317 -0.4748 -0.4212  0.1690
   41TMC2     C  629   3.989   3.223  13.640  0.1335  0.6447  0.9034
   41TMC2     O  630   3.903   3.150  13.676 -0.7805  0.2799 -0.1291
   41TMC2     H  631   3.752   3.254  13.538 -0.4805 -0.3018 -0.6604
   41TMC2    H1  632   4.157   3.394  13.507  0.3310  2.7521 -0.9457
   41TMC2    H2  633   3.860   3.514  13.227 -0.1230 -0.0018  0.2793
   41TMC2    C7  634   4.121   3.541  13.295 -0.1637  0.5310  0.0309
   41TMC2    C8  635   3.679   3.369  13.303 -0.0555  0.6046  0.1223
   41TMC2    O1  636   4.118   3.532  13.175 -0.4329 -0.4229  0.3353
   41TMC2    O2  637   3.665   3.401  13.184 -0.1905  0.0710 -0.3440
   41TMC2    O5  638   3.575   3.361  13.386 -0.5514 -0.3400  0.2750
   41TMC2    H5  639   3.597   3.348  13.481  0.5266 -1.7899 -0.1783
   42MPD2     C  640   4.139   3.083  13.855 -0.1084 -0.0373 -0.2142
   42MPD2    C1  641   4.162   3.214  13.813 -0.8209 -0.1006 -0.2546
   42MPD2    C2  642   4.269   3.282  13.873 -0.2426 -1.0020  0.0495
   42MPD2    C3  643   4.340   3.230  13.983 -0.2235  0.5412  0.0074
   42MPD2    C4  644   4.318   3.099  14.017  0.1453 -0.1368  0.1140
   42MPD2    C5  645   4.225   3.024  13.951 -0.3840 -0.2131  0.0074
   42MPD2     H  646   4.285   3.388  13.854 -0.9500 -0.8903  0.0598
   42MPD2    H1  647   4.378   3.057  14.097  0.4994 -0.1239 -0.1472
   42MPD2    H2  648   4.068   3.019  13.805  2.2318 -2.2754 -0.6595
   42MPD2    H3  649   4.215   2.920  13.980  1.0692 -0.9811 -2.2884
   42MPD2     N  650   4.449   3.292  14.052 -0.2270  0.1586 -0.6360
   42MPD2    H5  651   4.485   3.252  14.138 -1.0893  1.4190  0.3154
   42MPD2    N1  652   4.103   3.266  13.700 -0.3525  0.1091  0.1581
   42MPD2    H7  653   4.133   3.356  13.664  0.3146  0.0341  0.5345
   43MPD2     C  654   0.855   2.090   0.334 -0.2811  1.3442 -1.0059
   43MPD2    C1  655   0.911   2.040   0.443  0.4946  1.1125  1.2765
   43MPD2    C2  656   0.914   2.116   0.558 -0.0383 -0.2290  0.0317
   43MPD2    C3  657   0.880   2.250   0.555  0.1514 -0.7113 -0.2145
   43MPD2    C4  658   0.812   2.295   0.444 -0.2735 -0.2908 -0.6395
   43MPD2    C5  659   0.798   2.212   0.335 -0.0980  0.0364 -0.4804
   43MPD2     H  660   0.971   2.079   0.643 -0.9565 -2.5043 -0.3517
   43MPD2    H1  661   0.763   2.392   0.438 -0.6124 -0.3228  1.4301
   43MPD2    H2  662   0.851   2.033   0.242  0.1676 -0.7276  0.2524
   43MPD2    H3  663   0.733   2.248   0.256 -1.5668 -1.7989 -0.1136
   43MPD2     N  664   0.901   2.342   0.661 -0.3027 -0.1747  0.0293
   43MPD2    H5  665   0.843   2.425   0.653  2.2035  1.8369  2.5431
   43MPD2    N1  666   0.984   1.922   0.435 -0.5555 -0.1009 -0.5541
   43MPD2    H7  667   1.045   1.903   0.515  0.2289  3.4509 -0.3337
   44TCq2    C1  668   1.164   2.487   1.173  0.3597  0.0042  0.3572
   44TCq2    O2  669   1.281   2.459   1.148  0.1540 -0.2616  0.3951
   44TCq2    C2  670   1.081   2.516   1.059  0.4864  0.0012 -0.1482
   44TCq2    C3  671   0.969   2.596   1.068  0.0908 -0.1806 -0.1793
   44TCq2    C4  672   0.878   2.595   0.968  0.5699 -0.0692 -0.3342
   44TCq2    C5  673   0.895   2.525   0.858 -0.5000  0.6478  0.3349
   44TCq2    C6  674   1.007   2.441   0.850 -0.5325  0.4387  0.3660
   44TCq2    C7  675   1.103   2.444   0.946 -0.2795 -0.4470  0.2720
   44TCq2    C8  676   1.009   2.335   0.750  0.1596 -0.7022  0.0351
   44TCq2    O4  677   1.099   2.251   0.758 -0.1220 -0.3044 -0.2308
   44TCq2    C9  678   0.774   2.689   0.980 -0.3885 -0.1905 -0.0048
   44TCq2    O5  679   0.781   2.780   1.068  0.2117  0.0274  0.2329
   44TCq2    O6  680   0.674   2.679   0.907  0.5343 -0.2400 -0.1293
   44TCq2    H2  681   0.946   2.645   1.162 -1.1237  1.2308 -1.1883
   44TCq2    H3  682   0.819   2.536   0.781 -2.5089  0.7643  2.3547
   44TCq2    H4  683   1.193   2.385   0.934 -0.6102 -1.1771  1.3089
   45TMC2    C1  684   2.218   3.465   9.247 -0.1230  0.0408 -0.2309
   45TMC2    C2  685   2.308   3.368   9.260  0.5659 -0.1274  0.3334
   45TMC2    C3  686   2.338   3.321   9.383  0.4757  0.9264 -0.5395
   45TMC2    C4  687   2.168   3.526   9.359 -0.0228 -0.4815 -0.3980
   45TMC2    C5  688   2.204   3.484   9.481  0.1303 -0.0326  0.2016
   45TMC2    C6  689   2.284   3.374   9.498  0.0279 -0.4573 -0.1393
   45TMC2     C  690   2.156   3.486   9.117  0.0770 -0.4509 -0.2379
   45TMC2     O  691   2.228   3.485   9.018  0.0975  0.1472 -0.3058
   45TMC2     H  692   2.341   3.320   9.168  0.5812  0.4723  0.0309
   45TMC2    H1  693   2.085   3.596   9.350 -0.8686 -1.0481  2.6968
   45TMC2    H2  694   2.318   3.351   9.598  1.9740  0.1361 -0.6469
   45TMC2    C7  695   2.142   3.558   9.599 -0.2884 -0.1533 -0.2006
   45TMC2    C8  696   2.438   3.220   9.401  0.2824  0.5409  0.2536
   45TMC2    O1  697   2.107   3.673   9.573  1.0499  0.8899  0.0066
   45TMC2    O2  698   2.458   3.179   9.513  0.0565 -0.3568  0.1094
   45TMC2    O5  699   2.536   3.239   9.312  0.5218  0.9266 -0.3124
   45TMC2    H5  700   2.503   3.294   9.238  0.6353  1.7085  0.2209
   46MPD2     C  701   1.973   3.500   8.885 -0.1630 -0.0437  0.1059
   46MPD2    C1  702   1.931   3.497   9.017  0.2611 -0.1255  0.1284
   46MPD2    C2  703   1.800   3.497   9.053 -0.4533 -0.1351 -0.4995
   46MPD2    C3  704   1.705   3.483   8.949 -0.0733 -0.2358  0.5494
   46MPD2    C4  705   1.749   3.483   8.812  0.1101  0.1998 -0.1628
   46MPD2    C5  706   1.883   3.496   8.779  0.1290  0.2291  0.2000
   46MPD2     H  707   1.765   3.493   9.156 -1.8248  2.6135 -0.8537
   46MPD2    H1  708   1.678   3.482   8.730  0.0478  0.2345 -0.1085
   46MPD2    H2  709   2.076   3.505   8.852  0.0994  1.4548  1.1685
   46MPD2    H3  710   1.916   3.511   8.677  1.6541  2.5064  1.0276
   46MPD2     N  711   1.570   3.468   8.986  0.5773 -0.5238 -0.0649
   46MPD2    H5  712   1.545   3.456   9.084  0.6723 -1.2861 -0.1347
   46MPD2    N1  713   2.017   3.490   9.125  0.2460 -0.1974  0.7573
   46MPD2    H7  714   1.972   3.477   9.215  1.2388 -1.1976  1.1067
   47TMC2    C1  715   3.793   3.436   9.990 -0.0189 -0.5701 -0.0004
   47TMC2    C2  716   3.802   3.311   9.932 -0.4785  0.5033  0.0894
   47TMC2    C3  717   3.698   3.232   9.933  0.6495  0.2388  0.1099
   47TMC2    C4  718   3.682   3.464  10.062  0.0698 -1.0780 -0.7974
   47TMC2    C5  719   3.578   3.379  10.059 -0.2464 -0.0028  0.2478
   47TMC2    C6  720   3.580   3.264   9.985 -0.2101 -0.1682  1.2806
   47TMC2     C  721   3.910   3.516   9.996  0.1112 -0.3369 -0.1210
   47TMC2     O  722   3.911   3.618  10.070 -0.2071  0.0577 -0.4946
   47TMC2     H  723   3.888   3.277   9.875  0.1236  1.6153  0.3259
   47TMC2    H1  724   3.661   3.560  10.107  1.8379 -0.1378 -1.9581
   47TMC2    H2  725   3.493   3.199   9.973 -2.3493  2.6349  1.5167
   47TMC2    C7  726   3.449   3.439  10.073  0.0564  0.4609 -0.3654
   47TMC2    C8  727   3.693   3.124   9.837 -0.0610  0.7693  0.6786
   47TMC2    O1  728   3.427   3.554  10.040 -0.3892  0.2296  0.7452
   47TMC2    O2  729   3.633   3.022   9.850  0.0769  0.1757  0.1770
   47TMC2    O5  730   3.766   3.149   9.726 -0.0604 -0.3480  0.1866
   47TMC2    H5  731   3.771   3.246   9.708 -0.3471 -0.2862  0.4392
   48MPD2     C  732   4.176   3.655   9.969 -0.6019  0.4951  0.5918
   48MPD2    C1  733   4.145   3.529   9.923  0.5058 -0.6106 -0.2506
   48MPD2    C2  734   4.253   3.442   9.895  0.2799  0.2119  0.3357
   48MPD2    C3  735   4.381   3.482   9.906  0.0659  0.3634  0.8937
   48MPD2    C4  736   4.407   3.616   9.943  0.8167 -0.4351  0.6558
   48MPD2    C5  737   4.306   3.700   9.987 -0.3587  0.8848 -0.6720
   48MPD2     H  738   4.224   3.340   9.872 -0.5109 -0.5177  4.6768
   48MPD2    H1  739   4.510   3.648   9.947  0.7411 -0.4052  2.0898
   48MPD2    H2  740   4.096   3.723   9.996  1.3097  2.6899  0.7264
   48MPD2    H3  741   4.317   3.803  10.017  1.3469 -0.1492  2.2089
   48MPD2     N  742   4.480   3.383   9.895  1.2010 -0.0236 -0.4415
   48MPD2    H5  743   4.455   3.292   9.858  1.7122  0.3720 -1.7884
   48MPD2    N1  744   4.012   3.473   9.912  0.0613 -0.5212 -0.2210
   48MPD2    H7  745   4.008   3.388   9.857  3.3704 -1.4424  0.9403
   49MPD2     C  746   2.490   1.771   9.667  0.4136 -0.0842 -0.1010
   49MPD2    C1  747   2.541   1.806   9.790  0.2498 -0.4304  0.1125
   49MPD2    C2  748   2.522   1.724   9.901 -0.1060 -0.3693  0.3570
   49MPD2    C3  749   2.435   1.612   9.895  0.3266  0.2800  0.3298
   49MPD2    C4  750   2.380   1.583   9.772  0.2475  0.2335  0.1106
   49MPD2    C5  751   2.403   1.667   9.661  0.3662  0.3707 -0.4244
   49MPD2     H  752   2.572   1.757   9.992  0.3054 -2.2614  0.8111
   49MPD2    H1  753   2.313   1.501   9.748 -0.5733  0.8760  0.1974
   49MPD2    H2  754   2.492   1.832   9.577 -0.5672  1.4389  0.9164
   49MPD2    H3  755   2.350   1.647   9.569 -0.2413  1.0870 -0.2315
   49MPD2     N  756   2.411   1.523  10.004  0.0826 -0.0180  0.3994
   49MPD2    H5  757   2.354   1.442   9.982 -0.6447  0.9873 -1.3814
   49MPD2    N1  758   2.621   1.916   9.813 -0.2612 -0.4513 -0.1735
   49MPD2    H7  759   2.662   1.931   9.905  0.3388  0.4310 -0.5815
   50TCq2    C1  760   2.642   2.025   9.723  1.0998 -0.3217 -0.2230
   50TCq2    O2  761   2.599   2.048   9.610  0.0800  0.1457 -0.5743
   50TCq2    C2  762   2.708   2.128   9.791 -0.0212  0.1666  0.0563
   50TCq2    C3  763   2.784   2.092   9.899  0.4077 -0.6339  0.3873
   50TCq2    C4  764   2.805   2.186   9.996  0.6953  0.4883 -0.7216
   50TCq2    C5  765   2.751   2.314   9.998  0.6012  0.0119  0.3175
   50TCq2    C6  766   2.667   2.342   9.887  0.3744  0.0232 -0.2464
   50TCq2    C7  767   2.647   2.247   9.788 -0.0856  0.2615 -0.2436
   50TCq2    C8  768   2.586   2.459   9.889 -0.3172 -0.4299 -0.0817
   50TCq2    O4  769   2.479   2.451   9.844 -0.3305  0.6667  0.3533
   50TCq2    C9  770   2.884   2.150  10.107  0.1289  0.6649 -0.2282
   50TCq2    O5  771   2.869   2.214  10.215 -0.5575 -0.2550 -0.0305
   50TCq2    O6  772   2.918   2.032  10.113 -0.5816 -0.1845 -0.2964
   50TCq2    H2  773   2.837   1.998   9.909  0.7702 -0.5473 -0.7838
   50TCq2    H3  774   2.773   2.380  10.081  0.1817  2.1772 -1.2792
   50TCq2    H4  775   2.590   2.269   9.698 -0.0377 -0.0174 -0.3414
   51MPD2     C  776   2.616   0.497   0.832 -0.2218 -0.0706  0.8980
   51MPD2    C1  777   2.614   0.534   0.964 -0.4183  0.1774 -0.0267
   51MPD2    C2  778   2.570   0.656   1.000 -0.1505 -0.2664  0.3922
   51MPD2    C3  779   2.524   0.746   0.910  0.2109 -0.1439 -0.6446
   51MPD2    C4  780   2.516   0.707   0.777  0.5493 -0.2832  0.2403
   51MPD2    C5  781   2.568   0.585   0.739 -0.3509  0.1858  0.2034
   51MPD2     H  782   2.568   0.676   1.107 -0.7738 -0.0955  0.3460
   51MPD2    H1  783   2.481   0.760   0.690  0.5998 -0.7406 -0.0612
   51MPD2    H2  784   2.638   0.397   0.795  0.6042 -0.0007  1.1928
   51MPD2    H3  785   2.570   0.553   0.635 -2.8194 -0.5364  0.3748
   51MPD2     N  786   2.462   0.870   0.942  0.9478 -0.7017 -0.0428
   51MPD2    H5  787   2.431   0.930   0.866  2.3301  2.2106  1.6875
   51MPD2    N1  788   2.642   0.424   1.043 -0.0137  0.6097  0.0754
   51MPD2    H7  789   2.678   0.342   0.997  1.6780  0.0608  2.4077
   52TCq2    C1  790   2.439   0.919   1.067  0.3837 -0.2877  0.9287
   52TCq2    O2  791   2.493   0.882   1.173  0.1499 -0.1179  0.4184
   52TCq2    C2  792   2.374   1.049   1.056  0.4176  0.3032  1.0587
   52TCq2    C3  793   2.273   1.067   0.965 -0.0943  0.1385 -0.0063
   52TCq2    C4  794   2.196   1.178   0.981  0.8835 -0.4463 -0.1996
   52TCq2    C5  795   2.211   1.260   1.092  0.1167 -0.0726  0.5279
   52TCq2    C6  796   2.299   1.231   1.189  0.5445 -0.0040 -0.1590
   52TCq2    C7  797   2.378   1.120   1.175 -0.5613 -0.5019  0.1228
   52TCq2    C8  798   2.336   1.318   1.299  0.4037 -0.6060  0.5319
   52TCq2    O4  799   2.428   1.292   1.375  0.2480 -1.0359  0.2993
   52TCq2    C9  800   2.078   1.194   0.890 -0.0988 -0.6163  0.0127
   52TCq2    O5  801   2.091   1.165   0.768  0.3491 -0.7207 -0.3262
   52TCq2    O6  802   1.980   1.259   0.935  0.4599 -0.2350 -0.1980
   52TCq2    H2  803   2.268   1.006   0.875  2.2372 -0.3650  0.1967
   52TCq2    H3  804   2.139   1.341   1.096 -1.7410 -1.7969  1.3120
   52TCq2    H4  805   2.454   1.103   1.251 -1.1679 -0.7317  0.6781
   53TMC2    C1  806   3.063   3.450  11.563 -0.3834 -0.7097 -0.0645
   53TMC2    C2  807   3.187   3.491  11.603 -0.0961  0.3695 -0.7369
   53TMC2    C3  808   3.193   3.557  11.720  0.4810  0.2936 -0.4467
   53TMC2    C4  809   2.951   3.480  11.636  0.0703  0.1984  0.2035
   53TMC2    C5  810   2.967   3.527  11.761  0.6830 -0.1050 -0.6535
   53TMC2    C6  811   3.087   3.577  11.807  0.6650  0.5862  0.7701
   53TMC2     C  812   3.050   3.376  11.437  0.1724  0.5293 -0.1060
   53TMC2     O  813   3.145   3.366  11.360  0.2452 -0.3607 -0.1929
   53TMC2     H  814   3.275   3.466  11.546  1.1286 -0.3241  1.4677
   53TMC2    H1  815   2.849   3.469  11.602  0.2879 -2.3567  0.3206
   53TMC2    H2  816   3.105   3.628  11.900  1.3141  1.8306 -0.0491
   53TMC2    C7  817   2.847   3.570  11.832  0.1361  0.1341 -0.3915
   53TMC2    C8  818   3.312   3.582  11.788  0.1238  0.6192 -0.1249
   53TMC2    O1  819   2.740   3.547  11.785 -0.6007  0.4613  0.1937
   53TMC2    O2  820   3.324   3.678  11.865 -0.1189  0.4854  0.1365
   53TMC2    O5  821   3.389   3.478  11.781 -0.6911  0.3012  0.4771
   53TMC2    H5  822   3.358   3.401  11.728 -0.1026 -0.0249  0.6147
   54MPD2     C  823   2.963   3.161  11.238  0.9677 -0.4534 -0.1596
   54MPD2    C1  824   2.898   3.189  11.361 -0.5137  0.4801 -0.5264
   54MPD2    C2  825   2.794   3.120  11.409 -0.7107 -0.3640 -0.2684
   54MPD2    C3  826   2.729   3.032  11.323 -0.3892  0.1413  0.5975
   54MPD2    C4  827   2.788   3.008  11.200  0.3102 -1.1012 -0.4726
   54MPD2    C5  828   2.907   3.065  11.167  0.0081 -0.1005 -0.1062
   54MPD2     H  829   2.750   3.156  11.501  1.7990  2.2127 -0.0742
   54MPD2    H1  830   2.739   2.935  11.136 -0.3839  1.3905 -2.7893
   54MPD2    H2  831   3.052   3.209  11.197  0.6232 -0.7369 -1.2481
   54MPD2    H3  832   2.957   3.048  11.072  0.3871 -0.4112  0.1510
   54MPD2     N  833   2.618   2.953  11.358  0.1663  0.0213  0.7107
   54MPD2    H5  834   2.579   2.893  11.285 -0.5462  1.8494 -0.4057
   54MPD2    N1  835   2.944   3.291  11.451  0.1978  0.2686 -0.0043
   54MPD2    H7  836   2.884   3.302  11.531  0.2778  1.4239 -0.0999
   55MPD2     C  837   4.301   0.529   0.066  0.2144 -0.5608  0.0152
   55MPD2    C1  838   4.239   0.653   0.091 -0.3213 -0.5804  0.2742
   55MPD2    C2  839   4.110   0.665   0.059 -0.4595  0.0836 -0.4641
   55MPD2    C3  840   4.029   0.567  17.692 -0.2357 -1.0419  0.5747
   55MPD2    C4  841   4.094   0.447  17.665 -0.1977  0.4734  0.4399
   55MPD2    C5  842   4.223   0.429   0.010 -0.1082 -0.6991  0.1809
   55MPD2     H  843   4.067   0.763   0.075  0.1382  0.8665 -3.7420
   55MPD2    H1  844   4.041   0.361  17.625  0.1343 -0.4143  1.8993
   55MPD2    H2  845   4.405   0.517   0.091  0.5545 -0.5721 -1.3625
   55MPD2    H3  846   4.262   0.328   0.002  3.1585  0.5745  0.0559
   55MPD2     N  847   3.893   0.595  17.673 -0.6899 -0.4635 -0.2802
   55MPD2    H5  848   3.853   0.685   0.003  1.3466  0.9359 -2.1551
   55MPD2    N1  849   4.318   0.759   0.149 -0.4562  0.0451  0.0310
   55MPD2    H7  850   4.414   0.733   0.174  0.5816  1.3561 -2.6104
   56TCq2    C1  851   4.282   0.883   0.183 -0.4153  0.4484 -0.1715
   56TCq2    O2  852   4.174   0.934   0.188  0.0553 -0.5265  0.4930
   56TCq2    C2  853   4.396   0.952   0.232  0.1142  0.5903 -0.2322
   56TCq2    C3  854   4.522   0.911   0.187  0.6663 -0.1437 -0.0078
   56TCq2    C4  855   4.626   0.981   0.239  0.8866  0.8689  0.0363
   56TCq2    C5  856   4.610   1.083   0.324 -0.3188  0.7528 -0.3599
   56TCq2    C6  857   4.486   1.120   0.365 -0.6981 -0.4034  0.6182
   56TCq2    C7  858   4.372   1.059   0.315  0.1894  0.4093 -0.0778
   56TCq2    C8  859   4.473   1.235   0.448  0.3311 -0.3509  0.3890
   56TCq2    O4  860   4.571   1.280   0.501  0.4036  0.4675  0.0708
   56TCq2    C9  861   0.034   0.967   0.175 -0.5897 -0.3282  0.2217
   56TCq2    O5  862   0.114   1.067   0.191  0.0690  0.1003  0.7901
   56TCq2    O6  863   0.034   0.892   0.073 -0.1056 -0.1232 -0.1430
   56TCq2    H2  864   4.536   0.846   0.102 -0.2034 -0.6228  0.2174
   56TCq2    H3  865   4.683   1.161   0.338  1.9788 -1.5356  0.4650
   56TCq2    H4  866   4.271   1.068   0.355 -0.9226 -0.9538 -2.5389
   57TMC2    C1  867   2.606   2.088  13.946  0.8485  0.2452  0.3788
   57TMC2    C2  868   2.604   1.966  14.019 -0.0794  0.6859 -0.3862
   57TMC2    C3  869   2.663   1.857  13.955  0.7042  0.1688  0.2383
   57TMC2    C4  870   2.667   2.094  13.823 -0.5293  0.1636 -0.8185
   57TMC2    C5  871   2.716   1.984  13.761 -0.5720  0.2152  0.8598
   57TMC2    C6  872   2.723   1.865  13.829  0.6942 -0.3668 -0.3658
   57TMC2     C  873   2.504   2.190  13.984  0.4488 -0.5748  0.0466
   57TMC2     O  874   2.517   2.305  13.932 -0.3960 -0.7337 -0.3280
   57TMC2     H  875   2.544   1.957  14.109 -1.1031 -1.0799 -1.2444
   57TMC2    H1  876   2.666   2.189  13.772 -0.9206  0.3403 -0.4858
   57TMC2    H2  877   2.789   1.789  13.789  1.2175 -0.9147  1.5448
   57TMC2    C7  878   2.726   1.998  13.615 -0.0414 -0.2198  0.6871
   57TMC2    C8  879   2.672   1.733  14.029 -0.0240 -0.2559  0.5720
   57TMC2    O1  880   2.656   2.086  13.565  0.0486 -0.2317  0.9295
   57TMC2    O2  881   2.654   1.726  14.149 -0.0860 -0.4799  0.0359
   57TMC2    O5  882   2.641   1.633  13.939 -0.6058  0.0524  0.0072
   57TMC2    H5  883   2.645   1.669  13.848 -2.4669 -1.7060 -0.7766
   58MPD2     C  884   2.051   2.325  14.193  0.2349  0.4305 -0.2833
   58MPD2    C1  885   2.153   2.404  14.139  0.2250 -0.3367 -0.1960
   58MPD2    C2  886   2.268   2.344  14.082 -0.0005 -0.7608 -0.7127
   58MPD2    C3  887   2.288   2.208  14.100  0.7179  0.3614 -1.0051
   58MPD2    C4  888   2.193   2.132  14.161  0.4532 -0.7790 -0.6577
   58MPD2    C5  889   2.074   2.189  14.203 -1.3209  0.0624  0.2083
   58MPD2     H  890   2.342   2.412  14.041 -2.5152  2.1594 -0.4347
   58MPD2    H1  891   2.219   2.027  14.157  0.1957 -0.8546 -0.3434
   58MPD2    H2  892   1.961   2.368  14.236  0.1297  0.8310 -0.8913
   58MPD2    H3  893   1.996   2.131  14.250 -2.2332 -1.7971 -3.6247
   58MPD2     N  894   2.400   2.139  14.056  0.0282 -0.4788  0.5130
   58MPD2    H5  895   2.395   2.039  14.070 -0.6313 -0.7322 -1.5524
   58MPD2    N1  896   2.140   2.544  14.134 -0.8259  0.2656 -1.1007
   58MPD2    H7  897   2.209   2.590  14.076 -0.9659  2.2823  0.3198
   59MPD2     C  898   0.443   2.538  13.194  0.2374 -0.1510 -0.2504
   59MPD2    C1  899   0.531   2.579  13.096 -0.1382  0.5242 -0.9014
   59MPD2    C2  900   0.651   2.638  13.144 -0.5164  0.3096 -0.2703
   59MPD2    C3  901   0.675   2.651  13.275  0.5594 -0.3442 -1.5243
   59MPD2    C4  902   0.589   2.598  13.367  0.8481  0.1168  0.2154
   59MPD2    C5  903   0.471   2.547  13.326 -0.1189 -0.1829 -0.5500
   59MPD2     H  904   0.723   2.679  13.074  2.1884 -0.2846  2.1731
   59MPD2    H1  905   0.611   2.609  13.473  1.5502 -2.7971  0.3729
   59MPD2    H2  906   0.345   2.497  13.170  0.0053 -1.1084  2.3120
   59MPD2    H3  907   0.398   2.522  13.402  0.3786  0.3198  0.0949
   59MPD2     N  908   0.785   2.715  13.324 -0.3626  0.0577 -0.2193
   59MPD2    H5  909   0.794   2.729  13.424  1.2724 -1.4422 -0.1607
   59MPD2    N1  910   0.504   2.550  12.957 -0.1841 -0.5026  0.2800
   59MPD2    H7  911   0.578   2.574  12.892 -0.0967  1.3310  1.0314
   60TCq2    C1  912   0.397   2.488  12.909 -0.3216 -0.0792  0.1671
   60TCq2    O2  913   0.301   2.449  12.973 -0.6941 -0.0096  0.3753
   60TCq2    C2  914   0.410   2.447  12.769 -0.1017  0.7049  0.3205
   60TCq2    C3  915   0.333   2.339  12.729  0.3146 -0.0130  0.0409
   60TCq2    C4  916   0.370   2.274  12.614 -0.5257 -0.5653  0.5461
   60TCq2    C5  917   0.473   2.322  12.535 -0.1275  0.5327 -0.3683
   60TCq2    C6  918   0.537   2.433  12.576  0.3587  0.1243 -0.7538
   60TCq2    C7  919   0.510   2.493  12.697  0.4821 -0.4183  0.2387
   60TCq2    C8  920   0.621   2.487  12.470  0.5867  0.1426  0.2865
   60TCq2    O4  921   0.674   2.414  12.388  0.0370 -0.9916 -0.0067
   60TCq2    C9  922   0.277   2.178  12.559 -0.4324 -0.6395 -0.5704
   60TCq2    O5  923   0.319   2.132  12.454 -0.0908  0.3561 -0.4084
   60TCq2    O6  924   0.168   2.155  12.621 -0.2102 -0.2308  0.0601
   60TCq2    H2  925   0.256   2.297  12.793 -0.5583  0.5800 -0.6274
   60TCq2    H3  926   0.489   2.272  12.440  1.3531  2.8810 -1.3299
   60TCq2    H4  927   0.564   2.583  12.723  0.1887  0.4338 -2.0453
   61MPD2     C  928   4.350   3.323  15.362 -0.2203  0.2327  0.1290
   61MPD2    C1  929   4.439   3.333  15.461  0.6757  0.0872 -0.7406
   61MPD2    C2  930   4.573   3.311  15.424  0.3516  0.6787  0.0688
   61MPD2    C3  931   4.612   3.292  15.294  0.0768  0.2795  0.3178
   61MPD2    C4  932   4.512   3.288  15.194  0.7672  0.1668  1.0071
   61MPD2    C5  933   4.382   3.298  15.233 -0.1905 -0.1130  0.2492
   61MPD2     H  934   4.648   3.338  15.497  0.1910 -0.3266  0.5982
   61MPD2    H1  935   4.538   3.278  15.090 -0.5382  1.1379  0.5934
   61MPD2    H2  936   4.245   3.347  15.373 -0.0107  1.5689 -0.7876
   61MPD2    H3  937   4.300   3.308  15.163 -0.8474 -0.9190  0.9104
   61MPD2     N  938   0.022   3.285  15.246  0.4178 -0.0220 -0.7058
   61MPD2    H5  939   0.032   3.298  15.146  0.4057 -0.7475 -0.8006
   61MPD2    N1  940   4.412   3.380  15.595  0.1431 -0.5854 -0.0724
   61MPD2    H7  941   4.489   3.379  15.662  0.0763 -0.7109  0.0039
   62TCq2    C1  942   4.297   3.454  15.620 -0.0478  0.5051 -1.0069
   62TCq2    O2  943   4.193   3.476  15.548  0.4724 -0.4625 -0.6128
   62TCq2    C2  944   4.316   3.521  15.744 -0.2967  0.5473  0.6590
   62TCq2    C3  945   4.398   3.473  15.842  0.3365  0.0664 -0.1214
   62TCq2    C4  946   4.467   3.558  15.923  0.4033 -0.1275  0.1817
   62TCq2    C5  947   4.449   3.694  15.910  0.4875 -0.4880  0.0910
   62TCq2    C6  948   4.368   3.748  15.813  0.4838  0.0436  0.2754
   62TCq2    C7  949   4.302   3.659  15.727  1.1080 -0.3165 -0.4430
   62TCq2    C8  950   4.414   3.875  15.761  0.3361  0.7640 -0.4477
   62TCq2    O4  951   4.430   3.888  15.640  0.0108  0.0280  0.0593
   62TCq2    C9  952   4.570   3.508  16.008  1.1038  0.4858 -0.2367
   62TCq2    O5  953   4.586   3.383  16.018 -0.2786  0.3248 -0.8970
   62TCq2    O6  954   4.660   3.592  16.035 -0.2585  0.5526 -1.0083
   62TCq2    H2  955   4.423   3.369  15.854 -0.1821  0.0878  1.1781
   62TCq2    H3  956   4.507   3.751  15.982 -0.1678  0.2838  0.0228
   62TCq2    H4  957   4.236   3.691  15.647  2.0022 -1.0468 -1.4706
   63TMC2    C1  958   4.251   3.765  10.911 -0.7476  0.1144  0.2851
   63TMC2    C2  959   4.348   3.794  10.998  0.2487  0.5351  0.2887
   63TMC2    C3  960   4.469   3.843  10.949  0.3115 -0.6033 -0.1333
   63TMC2    C4  961   4.268   3.788  10.774 -1.0323  0.6601 -0.8292
   63TMC2    C5  962   4.393   3.816  10.732 -0.0101  0.4293  0.3195
   63TMC2    C6  963   4.493   3.842  10.821 -0.2917  0.2712 -0.4056
   63TMC2     C  964   4.127   3.727  10.963 -0.0285 -0.1615 -0.3806
   63TMC2     O  965   4.075   3.789  11.052 -0.0009 -0.0630  0.2134
   63TMC2     H  966   4.323   3.801  11.103  1.0487  1.8100  0.4020
   63TMC2    H1  967   4.182   3.774  10.710 -1.6285 -1.1259  0.3354
   63TMC2    H2  968   4.594   3.863  10.787  0.4893 -1.4831  0.8572
   63TMC2    C7  969   4.403   3.860  10.591  1.3978  0.1777 -1.4716
   63TMC2    C8  970   4.567   3.905  11.038 -0.1707 -0.1460 -0.0874
   63TMC2    O1  971   4.314   3.831  10.515  0.5994  1.0716 -0.2303
   63TMC2    O2  972   4.662   3.976  11.002  0.0215 -0.2076  0.4587
   63TMC2    O5  973   4.517   3.896  11.160 -0.0830  0.1684  0.5634
   63TMC2    H5  974   4.476   3.810  11.183  0.8216  0.1582  2.1742
   64MPD2     C  975   3.740   3.407  11.021 -0.7768  0.1964 -0.3140
   64MPD2    C1  976   3.831   3.354  10.930 -0.1291  0.2162 -0.2319
   64MPD2    C2  977   3.923   3.437  10.880  0.1238  1.0090  0.4612
   64MPD2    C3  978   3.943   3.566  10.925  0.4883 -0.6405 -0.9364
   64MPD2    C4  979   3.854   3.625  11.016  0.9838 -0.6430 -0.6533
   64MPD2    C5  980   3.756   3.541  11.059  0.0125  1.6062 -0.3252
   64MPD2     H  981   4.000   3.407  10.810 -2.5154 -1.4745 -1.4400
   64MPD2    H1  982   3.868   3.717  11.072  0.3157 -1.4989  0.9237
   64MPD2    H2  983   3.674   3.343  11.078 -2.5773  1.1671 -1.3033
   64MPD2    H3  984   3.686   3.574  11.134 -1.0585 -1.0658 -0.1267
   64MPD2     N  985   4.065   3.624  10.888  0.0019 -0.3793  0.5712
   64MPD2    H5  986   4.127   3.575  10.825  0.9936 -0.8391  1.9143
   64MPD2    N1  987   3.837   3.214  10.903 -0.1278 -0.3047 -0.0124
   64MPD2    H7  988   3.925   3.168  10.884  1.0768  1.3964  1.5078
   65MPD2     C  989   0.765   3.424  15.702 -0.5814  0.5400 -0.7315
   65MPD2    C1  990   0.749   3.428  15.563 -0.0632  0.2428 -0.7550
   65MPD2    C2  991   0.682   3.319  15.504  0.1612  0.3833 -0.1981
   65MPD2    C3  992   0.655   3.204  15.576 -0.1369  0.2041 -0.1591
   65MPD2    C4  993   0.679   3.201  15.712  0.7772  0.2040 -0.0319
   65MPD2    C5  994   0.732   3.305  15.776 -0.1439  0.6077 -0.3962
   65MPD2     H  995   0.660   3.307  15.399  0.4876  0.3847 -0.2679
   65MPD2    H1  996   0.636   3.120  15.771  3.1650 -1.2744 -0.3213
   65MPD2    H2  997   0.796   3.507  15.765  1.4733  0.0260 -1.0784
   65MPD2    H3  998   0.743   3.308  15.884 -0.3974 -0.5513 -0.3420
   65MPD2     N  999   0.600   3.090  15.515  0.1177 -0.3035  0.2283
   65MPD2    H5 1000   0.558   3.026  15.581 -0.7277  0.0954  0.0824
   65MPD2    N1 1001   0.772   3.554  15.497 -0.0221 -0.3878  0.9387
   65MPD2    H7 1002   0.792   3.636  15.552 -1.6830  0.2144  0.6333
   66TCq2    C1 1003   0.769   3.577  15.365 -0.3361 -0.1798  0.1114
   66TCq2    O2 1004   0.774   3.497  15.273  0.2383  0.0137  0.6999
   66TCq2    C2 1005   0.787   3.719  15.329  1.0429  0.8353 -0.0507
   66TCq2    C3 1006   0.796   3.743  15.193 -0.0179  0.7315  0.3275
   66TCq2    C4 1007   0.802   3.869  15.148  0.3000 -0.2707 -0.1468
   66TCq2    C5 1008   0.805   3.972  15.236  0.0500 -0.3737  0.6611
   66TCq2    C6 1009   0.814   3.951  15.368 -0.0780 -0.4517  0.6464
   66TCq2    C7 1010   0.805   3.820  15.423 -0.2591  0.3688  0.0758
   66TCq2    C8 1011   0.819   4.068  15.450  0.3834 -0.2094  0.3844
   66TCq2    O4 1012   0.818   4.174  15.394 -0.2103  0.0992  0.0943
   66TCq2    C9 1013   0.800   3.901  15.006  0.3500 -0.1934 -0.0406
   66TCq2    O5 1014   0.796   3.805  14.921  0.2196  0.4196  0.8984
   66TCq2    O6 1015   0.785   4.022  14.972 -0.0215  0.3278 -0.2348
   66TCq2    H2 1016   0.778   3.662  15.122 -0.7263 -0.8517  2.3199
   66TCq2    H3 1017   0.828   4.072  15.200  0.4062 -0.4743  0.6085
   66TCq2    H4 1018   0.815   3.800  15.529 -2.8599 -0.9484  0.0536
   67MPD2     C 1019   0.335   2.334  14.113 -0.4710  0.0769  0.0722
   67MPD2    C1 1020   0.333   2.470  14.134  0.5570  0.1687  0.6766
   67MPD2    C2 1021   0.223   2.533  14.086 -0.0319  0.3976  0.3166
   67MPD2    C3 1022   0.122   2.471  14.018 -0.1146 -0.3331 -0.3027
   67MPD2    C4 1023   0.128   2.335  14.000  0.7193  0.0860  0.3104
   67MPD2    C5 1024   0.236   2.262  14.050 -0.1051 -0.3924 -0.6984
   67MPD2     H 1025   0.209   2.639  14.098 -0.7018  0.2802  0.5910
   67MPD2    H1 1026   0.062   2.272  13.942 -1.1300  1.7153  0.6296
   67MPD2    H2 1027   0.419   2.276  14.149  0.0499  0.8348  0.0956
   67MPD2    H3 1028   0.245   2.160  14.014  1.3818  0.6100 -3.1878
   67MPD2     N 1029   4.721   2.530  13.983 -0.4342  0.2746 -0.1761
   67MPD2    H5 1030   4.645   2.468  13.958 -0.7555  0.3033  0.7243
   67MPD2    N1 1031   0.424   2.546  14.216 -0.5222 -0.3696  0.2392
   67MPD2    H7 1032   0.405   2.645  14.229  0.0965 -0.1542 -0.5101
   68TCq2    C1 1033   0.538   2.500  14.276  0.5538 -0.1814 -0.1017
   68TCq2    O2 1034   0.570   2.387  14.287 -0.0113 -0.0220 -0.7060
   68TCq2    C2 1035   0.629   2.608  14.327  0.3873 -0.0848  0.4145
   68TCq2    C3 1036   0.576   2.721  14.387  0.4605  0.1178  0.5229
   68TCq2    C4 1037   0.651   2.779  14.488  0.9286  0.1335 -0.5872
   68TCq2    C5 1038   0.774   2.745  14.523  0.2969 -0.4240  0.3411
   68TCq2    C6 1039   0.835   2.643  14.449 -0.0694  0.2305  0.2448
   68TCq2    C7 1040   0.760   2.571  14.358  0.4305  0.5922 -0.4736
   68TCq2    C8 1041   0.964   2.591  14.498  0.1703  0.7244 -0.3410
   68TCq2    O4 1042   1.030   2.526  14.415  0.4381  0.7480  0.1802
   68TCq2    C9 1043   0.598   2.893  14.549  0.2464 -0.1856  0.3621
   68TCq2    O5 1044   0.644   2.927  14.661  0.6339  0.8149 -0.6332
   68TCq2    O6 1045   0.488   2.941  14.510 -0.4273 -0.2663 -0.3192
   68TCq2    H2 1046   0.479   2.761  14.360  1.5039  2.8919  0.8081
   68TCq2    H3 1047   0.832   2.818  14.578  1.3550 -0.6302 -0.5000
   68TCq2    H4 1048   0.795   2.484  14.304  0.8780  0.9486 -0.7560
   69TMC2    C1 1049   2.670   4.025  12.647  0.0649 -0.0238  0.7580
   69TMC2    C2 1050   2.539   4.040  12.608 -0.2721  0.1720  0.8788
   69TMC2    C3 1051   2.513   4.096  12.490 -0.2807  0.9661  0.0250
   69TMC2    C4 1052   2.773   4.075  12.572 -0.2401 -0.0324  0.0471
   69TMC2    C5 1053   2.741   4.141  12.454 -0.4365  0.5958 -0.2297
   69TMC2    C6 1054   2.611   4.148  12.407  0.0690  0.3103 -0.2888
   69TMC2     C 1055   2.690   3.906  12.728  1.0235 -0.5446 -0.0479
   69TMC2     O 1056   2.592   3.843  12.753 -0.3101  0.0914  0.0955
   69TMC2     H 1057   2.452   4.022  12.672  0.4161 -1.4371  1.3579
   69TMC2    H1 1058   2.877   4.074  12.603 -0.1387 -0.4262 -0.3053
   69TMC2    H2 1059   2.585   4.191  12.311  0.0494  0.2749 -0.2995
   69TMC2    C7 1060   2.845   4.195  12.374  0.3658 -0.0002  0.8055
   69TMC2    C8 1061   2.377   4.081  12.438  0.4365 -1.0870  0.7882
   69TMC2    O1 1062   2.959   4.147  12.389 -0.4267 -0.0918 -0.7675
   69TMC2    O2 1063   2.280   4.060  12.509  0.2010  0.6655  0.3256
   69TMC2    O5 1064   2.374   4.132  12.316 -0.3053 -0.3209 -0.1637
   69TMC2    H5 1065   2.279   4.151  12.301 -0.3998 -0.5174  0.1930
   70MPD2     C 1066   3.010   3.724  12.759  0.2241  0.3803  0.6487
   70MPD2    C1 1067   2.874   3.742  12.759  0.4244  0.4982 -0.0011
   70MPD2    C2 1068   2.794   3.646  12.818 -0.6349  0.5282  0.1424
   70MPD2    C3 1069   2.851   3.530  12.863 -0.2501  0.1440 -0.0601
   70MPD2    C4 1070   2.996   3.513  12.862 -0.7117 -0.7878  0.3437
   70MPD2    C5 1071   3.068   3.614  12.812  0.1884  0.4983  0.1582
   70MPD2     H 1072   2.687   3.657  12.831 -0.5289  2.3689 -0.4757
   70MPD2    H1 1073   3.047   3.435  12.918 -2.7789 -1.2389  1.6060
   70MPD2    H2 1074   3.078   3.799  12.719  0.0980  0.7292  1.0881
   70MPD2    H3 1075   3.176   3.603  12.803  0.0945 -0.8023  0.6348
   70MPD2     N 1076   2.772   3.427  12.925 -1.3414  0.2885 -0.4386
   70MPD2    H5 1077   2.827   3.357  12.973 -0.9369  1.5676  0.9637
   70MPD2    N1 1078   2.819   3.864  12.718  0.1336 -0.1718 -0.1471
   70MPD2    H7 1079   2.885   3.926  12.674 -0.1766 -0.1890 -0.6336
   71TMC2    C1 1080   0.908   1.187   1.735  0.6870 -1.1554  0.0200
   71TMC2    C2 1081   1.021   1.191   1.814 -0.4938 -0.4737  0.1612
   71TMC2    C3 1082   0.993   1.194   1.949 -0.1878  0.1776 -1.0738
   71TMC2    C4 1083   0.779   1.177   1.786  0.1256  0.1636 -0.1396
   71TMC2    C5 1084   0.771   1.179   1.925 -0.2874  0.7695  0.4090
   71TMC2    C6 1085   0.874   1.203   2.008 -0.7681 -0.4822  0.2693
   71TMC2     C 1086   0.921   1.208   1.592  0.0232  0.0683  0.0556
   71TMC2     O 1087   0.847   1.148   1.517 -0.4290  0.6576  0.5510
   71TMC2     H 1088   1.122   1.164   1.787 -1.2556 -1.8157 -1.3732
   71TMC2    H1 1089   0.690   1.169   1.723 -0.0838  0.8665  0.0611
   71TMC2    H2 1090   0.858   1.211   2.115  0.6157  0.3238  0.4157
   71TMC2    C7 1091   0.643   1.199   1.984  0.3159  0.4643  0.0008
   71TMC2    C8 1092   1.114   1.197   2.031 -0.0720  0.1432  0.1909
   71TMC2    O1 1093   0.639   1.268   2.085  0.4323 -0.3485  0.0975
   71TMC2    O2 1094   1.211   1.268   2.014  0.1984 -0.0511  0.0999
   71TMC2    O5 1095   1.068   1.152   2.146 -0.0616 -0.5559 -0.2022
   71TMC2    H5 1096   1.005   1.078   2.131 -1.2929  0.4715 -0.0512
   72MPD2     C 1097   1.233   1.371   1.216  0.0293 -0.8702  0.7444
   72MPD2    C1 1098   1.135   1.278   1.214 -0.5262  0.6594  0.1364
   72MPD2    C2 1099   1.063   1.242   1.327 -0.6083 -0.3108  0.1516
   72MPD2    C3 1100   1.099   1.299   1.447  0.0453  0.4585 -0.3422
   72MPD2    C4 1101   1.205   1.386   1.449 -0.5194 -0.0381 -0.7997
   72MPD2    C5 1102   1.270   1.416   1.334 -0.0517 -0.2482 -0.4186
   72MPD2     H 1103   0.984   1.168   1.330 -1.5861  0.6277 -2.2445
   72MPD2    H1 1104   1.241   1.432   1.540  0.0650  1.2353 -1.6674
   72MPD2    H2 1105   1.285   1.393   1.124 -0.6436 -2.0817  0.0740
   72MPD2    H3 1106   1.345   1.494   1.340 -1.6637  1.3909 -1.5692
   72MPD2     N 1107   1.034   1.281   1.570 -0.3400 -0.4532 -0.1334
   72MPD2    H5 1108   1.078   1.318   1.653  0.7431 -1.6302 -0.1837
   72MPD2    N1 1109   1.096   1.224   1.087 -0.3766  0.1234 -0.6302
   72MPD2    H7 1110   1.129   1.263   0.999  0.7236 -2.6675 -1.4259
   73TMC2    C1 1111   0.685   1.504  14.139  0.8074 -0.0045 -0.1527
   73TMC2    C2 1112   0.567   1.465  14.197 -0.1509 -0.8877  0.1519
   73TMC2    C3 1113   0.552   1.482  14.338  0.1336 -0.1043 -0.1968
   73TMC2    C4 1114   0.779   1.559  14.224  0.1800 -0.3777  0.2153
   73TMC2    C5 1115   0.759   1.579  14.360 -0.3978  0.0620  0.2993
   73TMC2    C6 1116   0.641   1.541  14.419  0.4685 -0.5299 -0.9504
   73TMC2     C 1117   0.662   1.576  14.013  0.1063 -0.7844  0.1017
   73TMC2     O 1118   0.715   1.687  14.023 -0.4458  0.0525 -0.1300
   73TMC2     H 1119   0.487   1.431  14.133  0.3666 -1.0945 -0.3867
   73TMC2    H1 1120   0.877   1.586  14.184 -1.1356 -0.1204 -2.8643
   73TMC2    H2 1121   0.619   1.578  14.518 -2.3080 -0.3084 -1.6541
   73TMC2    C7 1122   0.788   1.723  14.388  0.6724  0.2439 -0.6944
   73TMC2    C8 1123   0.435   1.427  14.396  0.8094 -0.4426 -0.1298
   73TMC2    O1 1124   0.780   1.758  14.503  0.0035  0.5812  0.1585
   73TMC2    O2 1125   0.329   1.405  14.343 -0.4026 -0.1472 -0.4084
   73TMC2    O5 1126   0.469   1.392  14.520  0.3007 -0.7255 -0.3448
   73TMC2    H5 1127   0.562   1.378  14.546  0.5798  0.6647 -0.5518
   74MPD2     C 1128   0.552   1.697  13.547 -0.5457  0.1531  0.3681
   74MPD2    C1 1129   0.579   1.772  13.656  0.0436 -0.1570 -0.0202
   74MPD2    C2 1130   0.583   1.718  13.778 -0.0361  0.3674 -0.8225
   74MPD2    C3 1131   0.571   1.577  13.789 -0.5112 -0.1116 -0.0845
   74MPD2    C4 1132   0.531   1.502  13.684 -0.4005  0.1120 -0.1970
   74MPD2    C5 1133   0.530   1.564  13.561  0.2973 -0.0173 -0.2229
   74MPD2     H 1134   0.574   1.784  13.864 -0.0356 -0.8436  0.1078
   74MPD2    H1 1135   0.517   1.396  13.697 -2.6357  0.3685 -0.5089
   74MPD2    H2 1136   0.551   1.746  13.450 -1.7223  1.8052  1.2177
   74MPD2    H3 1137   0.536   1.499  13.475  0.0961  2.4180 -2.0825
   74MPD2     N 1138   0.603   1.510  13.914 -0.5758  0.0311  0.6269
   74MPD2    H5 1139   0.578   1.412  13.924  0.0811 -0.2720 -0.7378
   74MPD2    N1 1140   0.570   1.912  13.634 -0.3795  0.8146 -0.0140
   74MPD2    H7 1141   0.527   1.944  13.548 -0.0412 -2.6040 -1.4497
   75TCq2    C1 1142   4.696   2.666  13.974  0.7201 -0.1842 -0.3560
   75TCq2    O2 1143   0.036   2.770  13.994 -0.5719 -0.3129  0.1357
   75TCq2    C2 1144   4.567   2.688  13.926  0.4639 -0.4234  0.0413
   75TCq2    C3 1145   4.469   2.617  13.990 -0.0055  0.1800  0.4708
   75TCq2    C4 1146   4.344   2.618  13.929 -0.1807  0.1745 -0.0835
   75TCq2    C5 1147   4.331   2.670  13.807  0.4541  0.2607 -0.0629
   75TCq2    C6 1148   4.429   2.744  13.749 -0.2034 -0.1675  1.0844
   75TCq2    C7 1149   4.550   2.757  13.807  0.0169  0.3535 -0.3661
   75TCq2    C8 1150   4.388   2.827  13.636 -0.2561  0.2024 -0.4739
   75TCq2    O4 1151   4.287   2.788  13.575 -0.3596  0.5331  0.1246
   75TCq2    C9 1152   4.229   2.562  14.003  0.3957 -0.2227  0.2500
   75TCq2    O5 1153   4.237   2.584  14.127  0.0563  0.4846 -0.1758
   75TCq2    O6 1154   4.155   2.480  13.945  0.3481 -0.4826 -0.1194
   75TCq2    H2 1155   4.474   2.588  14.094 -2.2382 -1.1449  0.2193
   75TCq2    H3 1156   4.232   2.668  13.764  0.0904  0.6833  0.7472
   75TCq2    H4 1157   4.631   2.822  13.776  2.1581 -2.5728 -0.9066
   76MPD2     C 1158   3.996   3.937  12.090 -0.0615  0.5097  0.0892
   76MPD2    C1 1159   3.902   3.841  12.049  0.0465  1.7413  0.2366
   76MPD2    C2 1160   3.948   3.714  12.015  0.2240  0.1426  0.2621
   76MPD2    C3 1161   4.084   3.681  12.022 -0.5018  0.3100  0.5374
   76MPD2    C4 1162   4.174   3.775  12.066 -1.0643  0.8449 -0.2055
   76MPD2    C5 1163   4.128   3.902  12.092  0.2584 -0.1672  0.3472
   76MPD2     H 1164   3.879   3.640  11.978  1.0264 -0.6081  0.2701
   76MPD2    H1 1165   4.281   3.756  12.069 -1.2435 -0.1171 -0.1053
   76MPD2    H2 1166   3.970   4.042  12.103 -0.5441  0.5697 -1.3031
   76MPD2    H3 1167   4.199   3.979  12.121 -1.0609  0.2358  2.5177
   76MPD2     N 1168   4.148   3.559  11.981 -0.2797 -0.3359 -0.0407
   76MPD2    H5 1169   4.249   3.560  11.985 -0.3179  2.2379  0.2428
   76MPD2    N1 1170   3.767   3.867  12.018 -0.0099 -0.6868 -0.7680
   76MPD2    H7 1171   3.723   3.794  11.963 -1.2408 -1.8114  1.7354
   77TCq2    C1 1172   4.096   3.445  11.922 -0.5080 -0.0026 -0.3017
   77TCq2    O2 1173   3.979   3.422  11.909 -0.4652 -0.3664  0.1405
   77TCq2    C2 1174   4.197   3.346  11.886  0.2503  0.0599 -0.3716
   77TCq2    C3 1175   4.157   3.247  11.799  0.3051  0.1866  0.2684
   77TCq2    C4 1176   4.250   3.161  11.741  0.5974 -0.2771  0.0093
   77TCq2    C5 1177   4.384   3.171  11.773  0.1491 -0.2457 -0.0571
   77TCq2    C6 1178   4.423   3.262  11.864 -0.2019 -0.3728  0.4767
   77TCq2    C7 1179   4.335   3.349  11.925  0.0531  0.3902 -0.5387
   77TCq2    C8 1180   4.563   3.252  11.910 -0.0885  0.4123  0.4916
   77TCq2    O4 1181   4.657   3.229  11.834  0.9356 -0.5312  0.6357
   77TCq2    C9 1182   4.209   3.062  11.647 -0.7706 -0.2293  0.1582
   77TCq2    O5 1183   4.299   2.977  11.618 -0.1418 -0.0520  0.1255
   77TCq2    O6 1184   4.092   3.075  11.604 -0.2642 -0.3703  0.5199
   77TCq2    H2 1185   4.052   3.236  11.775  0.3731 -0.5336  0.2898
   77TCq2    H3 1186   4.458   3.108  11.726  0.2943 -0.9338  1.0873
   77TCq2    H4 1187   4.369   3.420  11.999  2.5789 -0.2543 -1.0749
   78MPD1     C 1188   1.464   4.348   1.300 -0.1214 -0.4528  0.2605
   78MPD1    C1 1189   1.422   4.237   1.367 -0.2771 -0.2105  0.0264
   78MPD1    C2 1190   1.454   4.225   1.497  0.3295 -0.0843 -0.6110
   78MPD1    C3 1191   1.540   4.312   1.559 -0.0933  0.9255 -0.2853
   78MPD1    C4 1192   1.576   4.426   1.495 -0.2009  0.6574  0.2411
   78MPD1    C5 1193   1.536   4.441   1.365 -0.7995 -0.1654  0.6455
   78MPD1     H 1194   1.404   4.147   1.554 -0.5385  0.7352 -0.2572
   78MPD1    H1 1195   1.637   4.501   1.544 -2.2250  2.3258  0.2273
   78MPD1    H2 1196   1.436   4.364   1.197  0.3698 -0.7573  0.0760
   78MPD1    H3 1197   1.565   4.536   1.322  1.7885 -0.8802  0.7974
   78MPD1     N 1198   1.560   4.298   1.698 -0.0863 -0.0290  0.1178
   78MPD1    H5 1199   1.627   4.361   1.742 -0.3412  0.4066 -0.1107
   78MPD1    N1 1200   1.335   4.146   1.311 -0.1008  0.3123  0.2246
   78MPD1    H6 1201   1.340   4.056   1.358 -0.8202  0.6012  0.8534
   78MPD1    H7 1202   1.370   4.141   1.216  1.4162 -2.0723  0.8949
   79TCq2    C1 1203   1.494   4.220   1.788  0.7450 -0.7431 -0.4481
   79TCq2    O2 1204   1.376   4.188   1.784  0.2638 -0.0561  0.2592
   79TCq2    C2 1205   1.544   4.256   1.918 -0.3136 -0.9394  0.4788
   79TCq2    C3 1206   1.460   4.297   2.015  0.0881 -0.7027  0.7428
   79TCq2    C4 1207   1.520   4.343   2.131  0.2107 -0.4482 -1.1329
   79TCq2    C5 1208   1.649   4.364   2.145 -0.1849 -0.1611  1.3368
   79TCq2    C6 1209   1.723   4.328   2.040  0.1724  0.1280 -0.8269
   79TCq2    C7 1210   1.676   4.280   1.923 -0.1921 -0.8691  0.9352
   79TCq2    C8 1211   1.866   4.371   2.036 -0.0538 -0.0371  0.4166
   79TCq2    O4 1212   1.905   4.406   1.928 -0.2945  0.2654  0.4181
   79TCq2    C9 1213   1.431   4.370   2.237 -0.1075 -1.3104  0.8339
   79TCq2    O5 1214   1.315   4.333   2.223  0.1912 -0.2370  0.9039
   79TCq2    O6 1215   1.482   4.388   2.349 -0.8295 -0.2815 -0.9988
   79TCq2    H2 1216   1.352   4.295   2.007  0.4860  0.3094 -4.9852
   79TCq2    H3 1217   1.685   4.407   2.238  0.2718  1.8520  0.2150
   79TCq2    H4 1218   1.750   4.257   1.846 -1.1547 -3.3179  0.7429
   80MPD2     C 1219   2.978   3.427  12.336  0.1298  0.3891 -0.5858
   80MPD2    C1 1220   2.898   3.343  12.264 -0.2849  0.0918 -0.1274
   80MPD2    C2 1221   2.764   3.341  12.294  1.0032  1.0971  0.0282
   80MPD2    C3 1222   2.711   3.421  12.394 -1.5444  0.0386  0.2827
   80MPD2    C4 1223   2.791   3.509  12.459  0.1623 -0.3409 -0.3291
   80MPD2    C5 1224   2.924   3.511  12.426  0.5599  0.5591  0.8862
   80MPD2     H 1225   2.700   3.285  12.226  1.0345  0.3757  0.5962
   80MPD2    H1 1226   2.760   3.574  12.540 -2.3010 -0.2007 -1.3780
   80MPD2    H2 1227   3.083   3.442  12.313  0.5485 -0.6009  0.6259
   80MPD2    H3 1228   2.982   3.587  12.477  0.2570  1.0939  0.4250
   80MPD2     N 1229   2.571   3.408  12.436  0.3222 -0.3130  0.1652
   80MPD2    H5 1230   2.540   3.464  12.514  0.5981 -1.2430  0.9381
   80MPD2    N1 1231   2.940   3.257  12.160 -0.1723  0.7074 -0.8050
   80MPD2    H7 1232   2.878   3.185  12.126 -2.0452  1.7370  0.4210
   81TCq2    C1 1233   3.047   3.289  12.079 -0.3175  1.0940 -0.5214
   81TCq2    O2 1234   3.115   3.391  12.072 -0.1050 -0.1485  0.6397
   81TCq2    C2 1235   3.061   3.190  11.971  0.6145  0.6867 -0.0527
   81TCq2    C3 1236   3.167   3.201  11.883  0.4841  0.6779 -0.9834
   81TCq2    C4 1237   3.171   3.122  11.769  0.3909 -0.1155 -0.4590
   81TCq2    C5 1238   3.082   3.022  11.753 -0.1542 -0.6897 -0.4874
   81TCq2    C6 1239   2.982   3.011  11.847 -0.8628 -0.2918 -0.5880
   81TCq2    C7 1240   2.964   3.098  11.948  0.2225 -0.2475 -0.2071
   81TCq2    C8 1241   2.879   2.909  11.827 -0.0914 -0.4002  0.6127
   81TCq2    O4 1242   2.860   2.877  11.708  0.4877 -0.2117 -0.2917
   81TCq2    C9 1243   3.268   3.155  11.665 -0.3375  0.2199 -0.5277
   81TCq2    O5 1244   3.283   3.072  11.572  0.1058  0.3706  0.8756
   81TCq2    O6 1245   3.334   3.261  11.675  0.9750  0.2350 -0.3413
   81TCq2    H2 1246   3.231   3.288  11.886 -0.9356  1.7237 -0.6084
   81TCq2    H3 1247   3.092   2.955  11.669  1.1801 -3.5608  1.9782
   81TCq2    H4 1248   2.872   3.091  12.004 -0.4302  2.2052 -0.9659
   82MPD2     C 1249   1.410   3.119  10.536  0.0836  0.0049  0.1014
   82MPD2    C1 1250   1.332   3.012  10.499  0.3837  0.0652 -0.0945
   82MPD2    C2 1251   1.362   2.894  10.557 -0.3029 -0.3720 -0.5002
   82MPD2    C3 1252   1.454   2.886  10.661  0.2184 -0.2510  0.0495
   82MPD2    C4 1253   1.530   2.994  10.704  0.5250  0.7255  0.7707
   82MPD2    C5 1254   1.507   3.115  10.632  0.9419  0.5808  0.3361
   82MPD2     H 1255   1.312   2.807  10.515  0.3298 -0.5649 -0.8430
   82MPD2    H1 1256   1.605   2.985  10.782  0.4053 -1.0725  0.6773
   82MPD2    H2 1257   1.408   3.206  10.472  0.1829 -0.4984 -0.5871
   82MPD2    H3 1258   1.557   3.210  10.648  0.8026  0.4435  1.5805
   82MPD2     N 1259   1.495   2.764  10.723  0.0487  0.2343  0.0431
   82MPD2    H5 1260   1.581   2.764  10.777  0.0753 -2.1186  0.0125
   82MPD2    N1 1261   1.223   3.034  10.401  0.2088  0.2103 -0.2224
   82MPD2    H7 1262   1.211   3.133  10.382  1.5666  0.3877 -0.0966
   83TCq2    C1 1263   1.424   2.647  10.721 -0.1124  0.4394  0.0059
   83TCq2    O2 1264   1.308   2.631  10.685  0.0486 -0.0109  0.0115
   83TCq2    C2 1265   1.482   2.552  10.817 -0.8486 -0.4919 -0.8833
   83TCq2    C3 1266   1.592   2.578  10.897  0.0471  0.0518 -0.1491
   83TCq2    C4 1267   1.641   2.477  10.978  0.1044 -0.1910  0.3805
   83TCq2    C5 1268   1.587   2.350  10.980 -0.5785 -0.2103 -0.1767
   83TCq2    C6 1269   1.474   2.332  10.904  0.0603 -0.0989 -0.2252
   83TCq2    C7 1270   1.424   2.430  10.823 -0.3855  0.2834  0.3396
   83TCq2    C8 1271   1.386   2.240  10.956 -0.5265  0.2119  0.2203
   83TCq2    O4 1272   1.271   2.271  10.957  0.2802 -0.4611 -0.0763
   83TCq2    C9 1273   1.743   2.507  11.070 -0.3346  0.0627 -1.0016
   83TCq2    O5 1274   1.765   2.628  11.105 -0.2520 -0.0456 -0.4589
   83TCq2    O6 1275   1.809   2.413  11.120  0.1805  0.5012  0.2595
   83TCq2    H2 1276   1.640   2.674  10.890  0.4183 -0.1800 -0.7376
   83TCq2    H3 1277   1.613   2.292  11.068 -1.5708  0.3475  0.4810
   83TCq2    H4 1278   1.345   2.403  10.754 -0.8862  1.8088  0.3137
   84TCq2    C1 1279   2.448   1.556  10.131  0.3074  0.6938  0.4640
   84TCq2    O2 1280   2.499   1.658  10.177  0.6818  1.2528 -0.4384
   84TCq2    C2 1281   2.368   1.467  10.221  0.8346  0.4247 -0.1995
   84TCq2    C3 1282   2.357   1.336  10.191 -0.3525  0.1995 -0.2124
   84TCq2    C4 1283   2.311   1.260  10.295  0.0225 -0.4548  0.2163
   84TCq2    C5 1284   2.261   1.308  10.415  0.5220 -0.2642  0.1909
   84TCq2    C6 1285   2.250   1.446  10.428  0.5606 -0.2779  0.4791
   84TCq2    C7 1286   2.321   1.526  10.341  0.6309 -0.2429  0.0905
   84TCq2    C8 1287   2.206   1.508  10.551  0.0341 -0.2087  0.5623
   84TCq2    O4 1288   2.220   1.630  10.560 -0.9982  0.2200  0.0300
   84TCq2    C9 1289   2.333   1.119  10.288 -0.1352  0.1736 -0.2629
   84TCq2    O5 1290   2.304   1.041  10.389 -0.1228  0.2357 -0.0655
   84TCq2    O6 1291   2.423   1.088  10.210 -0.8829 -0.2348  0.0454
   84TCq2    H2 1292   2.412   1.289  10.110  0.8155 -0.1006  0.7517
   84TCq2    H3 1293   2.233   1.235  10.489 -0.6243 -0.3791 -0.3604
   84TCq2    H4 1294   2.316   1.634  10.353  0.0340 -0.4041  1.2710
   85MPD2     C 1295   3.332   4.061  16.423 -0.1154 -0.0650  0.9466
   85MPD2    C1 1296   3.254   4.071  16.311  0.0383  0.3863  0.0360
   85MPD2    C2 1297   3.295   4.163  16.212  0.5649  0.3427  0.2701
   85MPD2    C3 1298   3.413   4.239  16.232 -0.1376 -0.6004 -0.2252
   85MPD2    C4 1299   3.489   4.236  16.347  0.8598  0.8258 -0.0093
   85MPD2    C5 1300   3.450   4.137  16.432  0.6784 -0.6387 -0.8059
   85MPD2     H 1301   3.233   4.186  16.126  0.0339  1.1444  0.8681
   85MPD2    H1 1302   3.570   4.303  16.373  1.6017 -0.9633  2.2586
   85MPD2    H2 1303   3.302   4.015  16.516  0.7353  0.0002  1.2540
   85MPD2    H3 1304   3.505   4.140  16.525 -2.4875 -0.5342  1.0634
   85MPD2     N 1305   3.442   4.334  16.131  1.0221 -0.1633  0.0362
   85MPD2    H5 1306   3.363   4.347  16.069  1.3608 -2.1792 -0.8281
   85MPD2    N1 1307   3.130   4.001  16.286 -0.0100 -0.7663  0.1038
   85MPD2    H7 1308   3.085   4.000  16.195  1.0650 -0.1300 -0.4423
   86TCq2    C1 1309   3.544   4.421  16.138  0.6713 -0.0822  0.1182
   86TCq2    O2 1310   3.647   4.421  16.200 -0.1271  0.5600 -0.2832
   86TCq2    C2 1311   3.529   4.515  16.031 -0.2206 -0.3446 -0.4446
   86TCq2    C3 1312   3.640   4.589  15.986  0.0552  0.7667 -0.2496
   86TCq2    C4 1313   3.628   4.663  15.874 -0.2551  0.5528  0.2917
   86TCq2    C5 1314   3.513   4.660  15.803  0.3491  0.0582 -0.3418
   86TCq2    C6 1315   3.410   4.582  15.847  0.0281 -0.0461 -0.0019
   86TCq2    C7 1316   3.410   4.513  15.959  0.4493  1.3426 -0.3657
   86TCq2    C8 1317   3.324   4.509  15.755  0.2576 -0.1997  0.6026
   86TCq2    O4 1318   3.287   4.397  15.792  0.1972  0.1567  0.5421
   86TCq2    C9 1319   3.744   0.016  15.822  0.0867 -0.5936  0.4992
   86TCq2    O5 1320   3.849   4.674  15.836  0.4376  0.7808  0.1892
   86TCq2    O6 1321   3.718   0.086  15.726 -0.0323  0.2376  0.3711
   86TCq2    H2 1322   3.728   4.586  16.049 -0.5082 -0.0292  0.4932
   86TCq2    H3 1323   3.504   4.723  15.714 -0.2351 -1.7550 -1.5682
   86TCq2    H4 1324   3.317   4.491  16.009  1.4655 -1.0776  0.4682
   87MPD2     C 1325   0.748   3.053   0.535 -0.5740  0.1871 -0.2249
   87MPD2    C1 1326   0.744   3.071   0.674 -0.0275 -0.8751  0.2067
   87MPD2    C2 1327   0.645   3.150   0.726  0.0611  0.3882  0.4709
   87MPD2    C3 1328   0.556   3.219   0.642 -0.6682 -0.3068 -0.0647
   87MPD2    C4 1329   0.564   3.204   0.506  0.1112  0.2983  0.3963
   87MPD2    C5 1330   0.657   3.118   0.452 -0.1121 -0.4120  0.3527
   87MPD2     H 1331   0.646   3.182   0.830 -0.5568  2.3381 -0.1227
   87MPD2    H1 1332   0.495   3.259   0.442 -0.3927 -0.5086  0.2466
   87MPD2    H2 1333   0.823   2.989   0.490 -0.1449  0.3282  0.2818
   87MPD2    H3 1334   0.662   3.111   0.344 -0.5728  0.9833  0.2347
   87MPD2     N 1335   0.469   3.325   0.681  0.5048  0.2172  0.2802
   87MPD2    H5 1336   0.441   3.379   0.599 -2.3308 -2.1135 -0.2745
   87MPD2    N1 1337   0.839   3.008   0.759  0.0372  0.0515 -0.4836
   87MPD2    H7 1338   0.837   3.041   0.855  0.3248 -1.1462 -0.0591
   88TCq2    C1 1339   0.917   2.904   0.727 -0.4068 -0.6892 -0.4311
   88TCq2    O2 1340   0.926   2.832   0.626  0.3750 -0.4856  0.2825
   88TCq2    C2 1341   1.032   2.878   0.818  0.4954 -0.3273  0.3779
   88TCq2    C3 1342   1.074   2.982   0.895  0.2976  0.8709  0.0545
   88TCq2    C4 1343   1.206   2.980   0.931 -0.1078 -0.0406  0.4541
   88TCq2    C5 1344   1.296   2.881   0.887 -0.0214 -0.6794 -0.2017
   88TCq2    C6 1345   1.252   2.781   0.817  0.5384  0.4237 -1.0978
   88TCq2    C7 1346   1.120   2.777   0.777  0.0919 -0.7201 -0.0938
   88TCq2    C8 1347   1.347   2.704   0.733  0.4903 -0.4518 -0.5788
   88TCq2    O4 1348   1.310   2.680   0.620 -0.0936  0.0772 -0.2051
   88TCq2    C9 1349   1.253   3.102   0.993 -0.0718 -0.3246 -0.3193
   88TCq2    O5 1350   1.166   3.187   1.033 -0.8598  0.6814 -0.6729
   88TCq2    O6 1351   1.373   3.132   0.961  0.3517 -0.2028  0.3036
   88TCq2    H2 1352   1.008   3.051   0.947 -1.1805 -0.3094 -0.2244
   88TCq2    H3 1353   1.396   2.894   0.926 -0.5762  0.3215  0.8679
   88TCq2    H4 1354   1.087   2.701   0.706 -1.4496 -2.0691  2.0767
   89MPD2     C 1355   0.856   2.075   2.284  0.6050  0.7267  0.2951
   89MPD2    C1 1356   0.850   1.995   2.172  0.2345 -0.8964  0.0212
   89MPD2    C2 1357   0.952   1.997   2.075  0.0163 -0.4436 -0.4221
   89MPD2    C3 1358   1.059   2.080   2.095  0.0821 -0.8815 -0.4148
   89MPD2    C4 1359   1.062   2.163   2.204  0.4586 -0.0505 -0.5261
   89MPD2    C5 1360   0.964   2.159   2.300 -0.1988 -0.0797 -0.2274
   89MPD2     H 1361   0.961   1.929   1.992 -1.6842 -3.0196  1.5054
   89MPD2    H1 1362   1.139   2.239   2.212 -0.3805  0.6525  0.8421
   89MPD2    H2 1363   0.778   2.084   2.359  0.3899 -1.1274  0.2963
   89MPD2    H3 1364   0.965   2.236   2.377  0.0065  0.5777 -0.8891
   89MPD2     N 1365   1.150   2.092   1.988  0.0273  0.3133 -0.2194
   89MPD2    H5 1366   1.150   2.034   1.905 -1.1030 -0.5771  0.3969
   89MPD2    N1 1367   0.742   1.906   2.156  0.0443 -0.0012  0.0142
   89MPD2    H7 1368   0.754   1.850   2.072  0.7050  0.5180 -0.2396
   90TCq2    C1 1369   1.272   2.165   2.006 -0.1186 -0.8463 -0.3652
   90TCq2    O2 1370   1.330   2.178   2.111  0.9388  0.2932  0.2372
   90TCq2    C2 1371   1.345   2.180   1.877  0.5097  0.0670  0.3550
   90TCq2    C3 1372   1.478   2.208   1.885  0.2448  0.1796  0.2678
   90TCq2    C4 1373   1.542   2.223   1.763 -0.5515 -0.7446 -0.1721
   90TCq2    C5 1374   1.477   2.224   1.644 -0.0354  0.1136  0.0326
   90TCq2    C6 1375   1.341   2.201   1.649 -0.1899 -1.0628  0.7243
   90TCq2    C7 1376   1.273   2.164   1.763  0.3017  0.8473  0.5068
   90TCq2    C8 1377   1.272   2.188   1.525  0.2031  1.3367  0.1597
   90TCq2    O4 1378   1.152   2.157   1.531 -0.0135  0.1329  0.0042
   90TCq2    C9 1379   1.686   2.221   1.758  0.2474 -0.3186  0.2492
   90TCq2    O5 1380   1.748   2.184   1.862 -0.1672  0.0400  0.4494
   90TCq2    O6 1381   1.732   2.245   1.645  0.4675 -0.4706 -0.0681
   90TCq2    H2 1382   1.528   2.221   1.980  0.3019  1.4770  0.0581
   90TCq2    H3 1383   1.532   2.261   1.559  2.2349  0.9344  1.8353
   90TCq2    H4 1384   1.169   2.189   1.777 -0.4534 -2.6049  1.0064
   91TMC2    C1 1385   3.013   0.554  16.297 -0.5277 -0.1871  0.7297
   91TMC2    C2 1386   3.028   0.658  16.209 -0.3571  0.8609  1.6197
   91TMC2    C3 1387   2.921   0.715  16.154 -0.6827 -0.2289 -0.4543
   91TMC2    C4 1388   2.889   0.508  16.307 -0.2910 -0.8083 -0.3513
   91TMC2    C5 1389   2.778   0.573  16.263 -0.5082 -0.2900 -0.6859
   91TMC2    C6 1390   2.794   0.684  16.192 -0.4193  0.1000 -0.2092
   91TMC2     C 1391   3.113   0.461  16.347  0.7093 -0.3945 -0.2688
   91TMC2     O 1392   3.074   0.355  16.388  0.5116 -0.1614  0.2605
   91TMC2     H 1393   3.128   0.676  16.173 -0.7345  1.1416  0.7024
   91TMC2    H1 1394   2.872   0.418  16.365 -0.2226 -1.6682 -1.6577
   91TMC2    H2 1395   2.714   0.750  16.161 -1.2351 -0.4197  0.7999
   91TMC2    C7 1396   2.648   0.542  16.323 -1.5426  0.2056 -0.2609
   91TMC2    C8 1397   2.939   0.839  16.082 -0.5863  0.2500 -0.2956
   91TMC2    O1 1398   2.647   0.484  16.429 -0.2826 -0.5367 -0.5607
   91TMC2    O2 1399   2.889   0.870  15.974 -0.0765 -0.6414 -0.6839
   91TMC2    O5 1400   3.050   0.899  16.134 -0.4002 -0.4967 -0.3219
   91TMC2    H5 1401   3.073   0.868  16.224  1.5243  0.3671 -0.5203
   92MPD2     C 1402   3.359   0.351  16.473  0.0686  0.4741 -1.1637
   92MPD2    C1 1403   3.356   0.460  16.385 -0.3744  0.7764 -1.0351
   92MPD2    C2 1404   3.476   0.524  16.362  0.4267  0.2767 -0.1140
   92MPD2    C3 1405   3.593   0.471  16.419 -0.4942 -0.9077  0.2706
   92MPD2    C4 1406   3.591   0.374  16.520 -0.6662  0.0848 -0.4934
   92MPD2    C5 1407   3.473   0.319  16.533  0.0643  0.1450 -0.7955
   92MPD2     H 1408   3.478   0.608  16.293  2.2552 -0.3127 -0.7680
   92MPD2    H1 1409   3.673   0.345  16.585 -0.4011  1.0376 -0.4044
   92MPD2    H2 1410   3.268   0.296  16.497  0.7943 -0.7046 -1.1372
   92MPD2    H3 1411   3.468   0.237  16.603  2.1864 -0.2393 -1.0886
   92MPD2     N 1412   3.707   0.529  16.360  0.7648  0.5964  0.5267
   92MPD2    H5 1413   3.689   0.591  16.282  1.9500 -1.3902 -1.3128
   92MPD2    N1 1414   3.240   0.509  16.329 -0.4973 -0.3427 -0.0574
   92MPD2    H7 1415   3.244   0.592  16.270  3.6721 -0.0206  0.6587
   93MPD2     C 1416   4.526   0.312  13.624 -0.1091 -0.0666 -0.2207
   93MPD2    C1 1417   4.506   0.439  13.676  0.3177 -0.3112  0.5304
   93MPD2    C2 1418   4.392   0.469  13.732 -0.5236 -0.3670 -0.1310
   93MPD2    C3 1419   4.295   0.372  13.751  0.1725  0.6211 -0.5658
   93MPD2    C4 1420   4.317   0.243  13.708  0.5948  0.2695  0.0716
   93MPD2    C5 1421   4.434   0.217  13.649  0.9316  0.1746 -0.7230
   93MPD2     H 1422   4.375   0.573  13.759  1.0408 -0.2757  0.5399
   93MPD2    H1 1423   4.248   0.160  13.715  1.0625 -0.2321 -1.3579
   93MPD2    H2 1424   4.619   0.286  13.575  1.2910 -0.0533  2.4385
   93MPD2    H3 1425   4.459   0.117  13.615  0.5460 -0.0951 -0.2146
   93MPD2     N 1426   4.182   0.396  13.831  0.0595 -0.3723 -0.1108
   93MPD2    H5 1427   4.107   0.328  13.825 -1.1818  0.8583  1.5047
   93MPD2    N1 1428   4.609   0.535  13.662 -0.1046  0.0151  0.1578
   93MPD2    H7 1429   4.587   0.625  13.703  0.5464  1.1405 -2.0076
   94TCq2    C1 1430   4.713   0.531  13.574 -0.2060  0.0720 -0.1120
   94TCq2    O2 1431   0.005   0.462  13.475  0.1533  0.1928  0.0063
   94TCq2    C2 1432   0.085   0.638  13.604  0.4789 -0.2340 -0.0577
   94TCq2    C3 1433   0.061   0.717  13.711  0.3178  0.4446 -0.4207
   94TCq2    C4 1434   0.155   0.818  13.732 -0.5425  0.0366  0.3182
   94TCq2    C5 1435   0.263   0.833  13.648 -0.3101  0.5545  1.0600
   94TCq2    C6 1436   0.275   0.759  13.533 -0.1653  0.3552 -0.1447
   94TCq2    C7 1437   0.180   0.660  13.509 -0.2445 -0.4452  0.1975
   94TCq2    C8 1438   0.382   0.779  13.450 -0.0316 -0.6431  0.0840
   94TCq2    O4 1439   0.478   0.841  13.496  0.2869 -0.2879  0.1952
   94TCq2    C9 1440   0.146   0.890  13.859  1.1427 -0.1642  0.2147
   94TCq2    O5 1441   0.044   0.877  13.934  0.0370  0.4491 -0.2737
   94TCq2    O6 1442   0.255   0.944  13.897  0.1763 -0.4913  0.2755
   94TCq2    H2 1443   4.705   0.711  13.785  2.0915 -0.1511  1.4216
   94TCq2    H3 1444   0.336   0.907  13.677 -1.1139  0.9043  2.1799
   94TCq2    H4 1445   0.185   0.587  13.428  1.1024  0.7970 -0.8345
   95TMC2    C1 1446   0.089   2.252  15.943 -0.3692  0.2946 -0.7075
   95TMC2    C2 1447   0.081   2.344  16.044 -0.9633 -0.4592  0.1678
   95TMC2    C3 1448   4.686   2.350  16.110 -0.2457 -0.0999 -0.6367
   95TMC2    C4 1449   4.706   2.169  15.910 -0.4998  0.3766 -0.6012
   95TMC2    C5 1450   4.585   2.199  15.962  0.5627 -0.3361 -0.3309
   95TMC2    C6 1451   4.577   2.284  16.064 -0.0879 -0.2119 -0.0120
   95TMC2     C 1452   0.196   2.285  15.847  0.2401  0.3622 -0.0583
   95TMC2     O 1453   0.239   2.396  15.856 -0.0468  0.4787  0.1894
   95TMC2     H 1454   0.163   2.410  16.069 -0.0026 -1.5626 -0.1152
   95TMC2    H1 1455   4.720   2.101  15.827  3.1412 -0.5369  0.7479
   95TMC2    H2 1456   4.475   2.302  16.096  0.3427  0.2781  1.0953
   95TMC2    C7 1457   4.468   2.148  15.889 -0.1959  1.1084  0.6942
   95TMC2    C8 1458   4.683   2.402  16.242 -0.5147 -0.5796  0.0192
   95TMC2    O1 1459   4.490   2.044  15.824  0.4001  0.1571 -0.1090
   95TMC2    O2 1460   0.041   2.486  16.281 -0.6320  0.0453 -0.4968
   95TMC2    O5 1461   4.611   2.321  16.311 -0.4902 -0.3441  0.2379
   95TMC2    H5 1462   4.570   2.254  16.253 -0.1950  0.4634 -0.9127
   96MPD2     C 1463   0.391   2.264  15.364 -0.5570  0.1483 -0.0257
   96MPD2    C1 1464   0.378   2.368  15.461  0.0302 -0.0341  0.2636
   96MPD2    C2 1465   0.321   2.356  15.584  0.1881 -0.4267 -0.3633
   96MPD2    C3 1466   0.270   2.229  15.615  0.1304  0.0704 -0.5047
   96MPD2    C4 1467   0.268   2.130  15.516 -0.6328  1.1511 -0.0000
   96MPD2    C5 1468   0.344   2.140  15.398  0.0484  0.6792 -0.3776
   96MPD2     H 1469   0.319   2.433  15.660 -1.8779 -0.7498 -0.0884
   96MPD2    H1 1470   0.217   2.037  15.539 -0.6150  0.8142 -1.3402
   96MPD2    H2 1471   0.432   2.287  15.266 -0.7340  0.7035  0.0315
   96MPD2    H3 1472   0.326   2.071  15.316  1.7660  0.2840 -0.4208
   96MPD2     N 1473   0.200   2.203  15.733  0.0128  0.2930 -0.3083
   96MPD2    H5 1474   0.152   2.114  15.741  0.4257  0.2080  1.3664
   96MPD2    N1 1475   0.424   2.496  15.419  0.1380 -0.0563 -0.4442
   96MPD2    H7 1476   0.464   2.501  15.326 -0.0550  2.1717 -0.4002
   97MPD2     C 1477   2.243   0.679   1.256 -0.8287  0.2448  0.6381
   97MPD2    C1 1478   2.170   0.793   1.230 -0.3637  0.3102  0.0525
   97MPD2    C2 1479   2.104   0.799   1.113 -0.2762 -0.7782  0.5666
   97MPD2    C3 1480   2.115   0.702   1.015 -0.1475  0.5117  0.2488
   97MPD2    C4 1481   2.199   0.593   1.043 -0.1516 -0.4303 -0.2325
   97MPD2    C5 1482   2.266   0.584   1.160 -0.2440 -0.2574  0.3577
   97MPD2     H 1483   2.053   0.891   1.088  1.3303  0.5161  2.0881
   97MPD2    H1 1484   2.211   0.509   0.974 -0.0247 -0.2964 -0.3732
   97MPD2    H2 1485   2.293   0.676   1.352 -0.4876 -0.7101  0.4276
   97MPD2    H3 1486   2.336   0.502   1.174  0.1350 -0.0041 -0.0601
   97MPD2     N 1487   2.057   0.699   0.886  0.9984 -0.1745 -0.6442
   97MPD2    H5 1488   2.068   0.616   0.829 -0.5833 -0.5712 -0.3694
   97MPD2    N1 1489   2.154   0.890   1.330  0.4084 -0.4578 -0.2428
   97MPD2    H7 1490   2.201   0.859   1.415 -1.5085 -0.8401  0.7054
   98TCq2    C1 1491   1.972   0.792   0.842 -0.2534  0.5643  0.2564
   98TCq2    O2 1492   1.934   0.896   0.898  0.2182 -0.0309 -0.1328
   98TCq2    C2 1493   1.932   0.779   0.703  0.4647 -0.6601  0.0912
   98TCq2    C3 1494   1.812   0.840   0.666 -0.4872  0.0922  0.3198
   98TCq2    C4 1495   1.767   0.829   0.534 -0.3158  0.2851  0.6860
   98TCq2    C5 1496   1.834   0.759   0.441 -0.1136  0.4474 -1.2320
   98TCq2    C6 1497   1.949   0.701   0.477 -0.2626 -0.3968 -0.4707
   98TCq2    C7 1498   2.002   0.708   0.605 -0.0773  0.7041 -0.5121
   98TCq2    C8 1499   2.026   0.630   0.366  0.8276  0.1859  0.0341
   98TCq2    O4 1500   2.145   0.605   0.387  1.0423 -0.5337  0.3306
   98TCq2    C9 1501   1.644   0.884   0.497  0.0310  0.6533 -0.4298
   98TCq2    O5 1502   1.565   0.913   0.589 -0.1139  0.4587 -0.2102
   98TCq2    O6 1503   1.624   0.890   0.373 -0.4203  0.3463 -0.0569
   98TCq2    H2 1504   1.763   0.890   0.748  0.3360  1.0799  0.2131
   98TCq2    H3 1505   1.795   0.760   0.340  0.3255  1.1561 -1.3912
   98TCq2    H4 1506   2.093   0.654   0.629 -0.8506 -1.2642 -2.0200
   99MPD2     C 1507   1.264   2.527   1.674  0.0659 -0.2013 -0.4948
   99MPD2    C1 1508   1.132   2.493   1.669 -0.3130 -0.0987  0.0924
   99MPD2    C2 1509   1.080   2.470   1.538 -0.1285  0.2359  0.3176
   99MPD2    C3 1510   1.156   2.488   1.418 -0.3262  0.3582 -0.3324
   99MPD2    C4 1511   1.289   2.526   1.428 -0.4648  0.2451 -0.1600
   99MPD2    C5 1512   1.346   2.549   1.561  0.1236 -0.1146 -0.2628
   99MPD2     H 1513   0.979   2.432   1.527  0.0320 -1.0400  3.1778
   99MPD2    H1 1514   1.352   2.543   1.342  0.2833  0.4756  0.4363
   99MPD2    H2 1515   1.316   2.545   1.767 -0.7216  1.2022 -0.3215
   99MPD2    H3 1516   1.445   2.591   1.562 -0.0639  0.3318 -0.3720
   99MPD2     N 1517   1.092   2.483   1.290 -0.7354  0.1936  0.1664
   99MPD2    H5 1518   0.994   2.458   1.283 -0.6755  0.2878 -0.9931
   99MPD2    N1 1519   1.046   2.481   1.779  0.1332 -0.3805  0.0513
   99MPD2    H7 1520   0.950   2.463   1.754 -0.4344  2.5806  0.0471
  100TCq2    C1 1521   1.075   2.513   1.906 -0.4828 -0.3094 -0.4529
  100TCq2    O2 1522   1.172   2.575   1.955 -0.7780 -0.2223  0.5833
  100TCq2    C2 1523   0.967   2.476   2.002  0.4093  0.0911 -0.1549
  100TCq2    C3 1524   0.992   2.529   2.129  0.0701 -0.2070 -0.1842
  100TCq2    C4 1525   0.898   2.526   2.228  0.0922  0.2249 -0.9644
  100TCq2    C5 1526   0.779   2.470   2.195 -0.0471  0.9831  0.0476
  100TCq2    C6 1527   0.763   2.414   2.074 -0.2603  0.0800 -0.4506
  100TCq2    C7 1528   0.851   2.418   1.970  0.1217 -0.4628  0.2720
  100TCq2    C8 1529   0.652   2.322   2.077 -0.1468 -0.3228 -0.2949
  100TCq2    O4 1530   0.598   2.294   2.184  0.0188  0.0772  0.1943
  100TCq2    C9 1531   0.923   2.587   2.351  0.1187  0.3728  0.0868
  100TCq2    O5 1532   0.841   2.561   2.441 -0.4037 -0.1387  0.0714
  100TCq2    O6 1533   1.032   2.649   2.362 -0.1383 -0.3734  0.2695
  100TCq2    H2 1534   1.076   2.592   2.153 -0.9844  0.4606  1.7488
  100TCq2    H3 1535   0.708   2.466   2.278 -1.8678 -1.7231 -1.6449
  100TCq2    H4 1536   0.837   2.384   1.867 -1.6011 -0.8270  0.6287
  101MPD2     C 1537   1.799   3.062  13.193  0.6157  0.1597  0.4580
  101MPD2    C1 1538   1.738   3.160  13.273  0.0308  1.0314 -0.5132
  101MPD2    C2 1539   1.613   3.129  13.339  0.2757 -0.7926 -0.4921
  101MPD2    C3 1540   1.548   3.008  13.316 -0.3888 -0.1747 -0.1240
  101MPD2    C4 1541   1.622   2.906  13.253 -0.1583  0.3827 -0.1329
  101MPD2    C5 1542   1.741   2.935  13.196 -0.0919  0.7759 -0.3442
  101MPD2     H 1543   1.545   3.204  13.378  1.7092  0.7771 -1.0294
  101MPD2    H1 1544   1.589   2.804  13.263 -0.8210  0.5944 -0.1897
  101MPD2    H2 1545   1.890   3.075  13.136  0.8378  0.0071  0.7720
  101MPD2    H3 1546   1.783   2.852  13.139  0.0119 -0.0600  0.9546
  101MPD2     N 1547   1.416   2.994  13.346  0.4414 -0.0143 -0.2917
  101MPD2    H5 1548   1.369   3.066  13.399 -1.4865 -1.1507 -0.4700
  101MPD2    N1 1549   1.775   3.293  13.259 -0.5315  0.3362 -0.1119
  101MPD2    H7 1550   1.843   3.311  13.186 -0.1229  1.5550  0.5691
  102TCq2    C1 1551   1.749   3.650  12.912 -0.3464 -0.2711 -0.0046
  102TCq2    O2 1552   1.827   3.575  12.850 -0.2761  0.7954 -0.1470
  102TCq2    C2 1553   1.754   3.650  13.060 -0.0938  0.3939 -1.0089
  102TCq2    C3 1554   1.720   3.761  13.128  0.6645 -0.3677  0.0573
  102TCq2    C4 1555   1.690   3.752  13.260 -1.1625  0.3450 -0.3112
  102TCq2    C5 1556   1.698   3.632  13.323  0.8582  0.3490 -0.3790
  102TCq2    C6 1557   1.736   3.523  13.257 -0.7887 -0.0521 -0.6075
  102TCq2    C7 1558   1.769   3.527  13.123  0.7872 -0.1484 -0.3014
  102TCq2    C8 1559   1.721   3.394  13.330  0.1554 -0.4215  0.4003
  102TCq2    O4 1560   1.679   3.381  13.445  0.4997  0.4419 -0.4326
  102TCq2    C9 1561   1.664   3.878  13.335  0.3396 -0.1591 -0.4593
  102TCq2    O5 1562   1.612   3.854  13.450  0.3746 -0.0284  0.2542
  102TCq2    O6 1563   1.657   3.989  13.276 -0.3868 -0.2078  0.4705
  102TCq2    H2 1564   1.722   3.857  13.079 -0.2881 -0.2821  0.1897
  102TCq2    H3 1565   1.689   3.624  13.431  0.7844  0.3223 -0.3870
  102TCq2    H4 1566   1.782   3.446  13.053  2.5746  2.8983 -3.4674
  103TMC2    C1 1567   4.650   3.294  12.701  0.0825  0.4928  0.3102
  103TMC2    C2 1568   0.044   3.242  12.749  0.7783 -0.1885 -0.3287
  103TMC2    C3 1569   0.094   3.298  12.861 -0.7662 -0.8658 -0.1246
  103TMC2    C4 1570   4.574   3.396  12.752 -0.3148 -0.3678 -0.3643
  103TMC2    C5 1571   4.636   3.452  12.866  0.1549 -0.1832  0.3349
  103TMC2    C6 1572   0.032   3.406  12.922  0.3477 -0.7757 -0.2614
  103TMC2     C 1573   4.620   3.263  12.558 -0.2556 -0.4714 -0.4667
  103TMC2     O 1574   4.502   3.294  12.529  0.1073 -0.7727  0.3301
  103TMC2     H 1575   0.112   3.167  12.710 -1.4620 -1.4887 -1.7216
  103TMC2    H1 1576   4.488   3.446  12.710 -0.6063 -0.4464  0.1334
  103TMC2    H2 1577   0.069   3.441  13.018  2.1076  0.9075 -1.5553
  103TMC2    C7 1578   4.546   3.515  12.959 -0.0994 -0.3134  0.1095
  103TMC2    C8 1579   0.214   3.241  12.921 -0.0582 -0.3437  0.7244
  103TMC2    O1 1580   4.429   3.486  12.938  0.2895 -0.5648 -0.0417
  103TMC2    O2 1581   0.232   3.123  12.937 -0.1277  0.2604 -0.7192
  103TMC2    O5 1582   0.291   3.346  12.966  0.2748  0.4341 -0.5584
  103TMC2    H5 1583   0.271   3.427  12.913  1.3425 -0.7861 -2.8284
  104MPD2     C 1584   0.140   3.156  12.302 -0.0992  0.5628  0.1447
  104MPD2    C1 1585   0.020   3.195  12.349 -0.0396 -0.2440 -0.1810
  104MPD2    C2 1586   4.642   3.237  12.263 -0.3080 -0.0254  0.2189
  104MPD2    C3 1587   4.665   3.232  12.124 -0.3299  0.5328 -0.2846
  104MPD2    C4 1588   0.066   3.185  12.081  0.4676  0.3490  0.1704
  104MPD2    C5 1589   0.166   3.143  12.167  0.1456  0.3658 -0.0512
  104MPD2     H 1590   4.554   3.283  12.305  2.1475  1.1671  4.0474
  104MPD2    H1 1591   0.090   3.177  11.975  0.4542  1.6464  0.0764
  104MPD2    H2 1592   0.219   3.114  12.364  0.6264  1.1825 -0.3489
  104MPD2    H3 1593   0.249   3.082  12.133  0.8170 -0.1139  2.4789
  104MPD2     N 1594   4.558   3.266  12.047  0.1993  0.2685 -0.4286
  104MPD2    H5 1595   4.464   3.277  12.083  0.8380  1.7568  0.8062
  104MPD2    N1 1596   0.001   3.212  12.490 -0.5075  0.0158 -0.0784
  104MPD2    H7 1597   0.091   3.204  12.535 -0.3356  2.5032 -0.0051
  105MPD2     C 1598   1.825   2.381  17.163 -0.0082  0.6933 -0.0611
  105MPD2    C1 1599   1.788   2.513  17.174  0.7445  0.1497 -1.4456
  105MPD2    C2 1600   1.816   2.575  17.296 -0.4193 -0.6413  0.1025
  105MPD2    C3 1601   1.883   2.507  17.392 -0.8823  0.1896 -0.2905
  105MPD2    C4 1602   1.917   2.376  17.377  0.3759  0.4004  0.1583
  105MPD2    C5 1603   1.888   2.319  17.263 -0.0243  0.7637  0.0936
  105MPD2     H 1604   1.782   2.676  17.313 -0.7277 -0.6303 -0.6058
  105MPD2    H1 1605   1.969   2.321  17.454  2.4129  1.9825 -0.0935
  105MPD2    H2 1606   1.805   2.325  17.073  0.3851 -0.1189  0.3535
  105MPD2    H3 1607   1.910   2.213  17.259 -0.3489  0.6932  0.1702
  105MPD2     N 1608   1.910   2.585  17.512 -0.3190 -0.0000 -0.2364
  105MPD2    H5 1609   1.873   2.679  17.514 -1.3139 -0.4259  1.3905
  105MPD2    N1 1610   1.712   2.573  17.073  0.0547 -0.0497  0.6158
  105MPD2    H7 1611   1.680   2.663  17.105 -0.5279 -0.0595  0.0696
  106TCq2    C1 1612   1.970   2.533  17.624  0.2675 -0.1764 -0.8720
  106TCq2    O2 1613   1.994   2.416  17.650 -0.0663 -0.3606 -0.1626
  106TCq2    C2 1614   1.972   2.632   0.033 -0.5465  0.6531  0.4875
  106TCq2    C3 1615   1.935   2.761   0.010 -0.0265  0.3018  0.7356
  106TCq2    C4 1616   1.875   2.834   0.112  0.2934 -0.3532  0.7376
  106TCq2    C5 1617   1.862   2.784   0.243  0.7398 -0.3267 -0.0669
  106TCq2    C6 1618   1.911   2.653   0.257  0.7760  0.2046  0.4067
  106TCq2    C7 1619   1.966   2.576   0.160 -0.2889 -0.1715  0.4119
  106TCq2    C8 1620   1.905   2.586   0.383 -0.1029 -0.7766  0.8477
  106TCq2    O4 1621   2.008   2.539   0.423 -0.3477  0.1821 -0.8186
  106TCq2    C9 1622   1.822   2.966   0.081  0.1412  0.5338  0.0668
  106TCq2    O5 1623   1.828   3.002  17.658  0.1166 -0.2203 -0.0071
  106TCq2    O6 1624   1.753   3.021   0.173 -0.0235  0.0673 -0.6252
  106TCq2    H2 1625   1.946   2.810  17.608 -1.8936  0.1541  0.4337
  106TCq2    H3 1626   1.816   2.837   0.326  2.6666  1.5704 -0.2154
  106TCq2    H4 1627   1.986   2.471   0.176 -2.8815 -0.7295 -0.0304
  107TMC2    C1 1628   2.024   2.089  11.282  0.3465 -0.0660  0.0807
  107TMC2    C2 1629   2.015   2.177  11.181 -0.0417 -0.1663  0.5792
  107TMC2    C3 1630   2.004   2.133  11.049  0.3968 -0.1851  0.3909
  107TMC2    C4 1631   2.047   1.961  11.254  0.7882  0.3904  0.0006
  107TMC2    C5 1632   2.041   1.915  11.121 -0.4007 -0.9695  0.2434
  107TMC2    C6 1633   2.017   2.002  11.020  0.1872  0.5232  0.0557
  107TMC2     C 1634   1.951   2.108  11.404 -0.3198  0.4534  0.1136
  107TMC2     O 1635   1.916   2.221  11.441  0.2417  0.2867  0.7552
  107TMC2     H 1636   1.988   2.280  11.203 -1.7802 -0.0610 -2.0182
  107TMC2    H1 1637   2.092   1.891  11.323 -1.0298 -0.2781  0.4820
  107TMC2    H2 1638   2.014   1.966  10.918  3.9871  1.1795 -0.2599
  107TMC2    C7 1639   2.008   1.772  11.115  0.4633 -0.3064  0.4128
  107TMC2    C8 1640   2.008   2.225  10.935 -0.2238  0.7091  0.6564
  107TMC2    O1 1641   1.926   1.735  11.200 -0.2304  0.3643 -0.1699
  107TMC2    O2 1642   2.067   2.189  10.832 -0.0685  0.2403  0.1595
  107TMC2    O5 1643   2.026   2.343  10.988 -0.7214  0.1946  0.1029
  107TMC2    H5 1644   1.947   2.356  11.045  0.5932  0.2871  1.8891
  108MPD2     C 1645   1.825   1.821  11.592  0.5833 -0.1898 -0.0515
  108MPD2    C1 1646   1.850   1.952  11.574  0.2635  0.5756 -0.1346
  108MPD2    C2 1647   1.831   2.046  11.672  0.4009 -0.3462 -0.1051
  108MPD2    C3 1648   1.765   2.013  11.792 -0.4764  0.3952  0.4959
  108MPD2    C4 1649   1.719   1.882  11.802  0.0108 -0.0659 -0.2195
  108MPD2    C5 1650   1.753   1.791  11.705 -0.7103 -0.4643 -0.3269
  108MPD2     H 1651   1.870   2.146  11.657  2.3360 -1.2007 -0.8302
  108MPD2    H1 1652   1.654   1.851  11.884 -0.8807 -0.9694 -1.2766
  108MPD2    H2 1653   1.848   1.745  11.519 -0.1011  0.6379 -1.1338
  108MPD2    H3 1654   1.728   1.686  11.716 -1.2944 -0.5356 -2.3789
  108MPD2     N 1655   1.738   2.100  11.896 -0.7097  0.0942 -0.7719
  108MPD2    H5 1656   1.697   2.061  11.980  3.4837 -1.4385  0.5504
  108MPD2    N1 1657   1.904   1.984  11.448  0.4100 -0.1010 -0.5401
  108MPD2    H7 1658   1.910   1.913  11.377  2.6821  1.1845 -1.6492
  109MPD2     C 1659   2.703   0.320   2.276  0.1066  0.0316  0.1483
  109MPD2    C1 1660   2.672   0.383   2.163 -0.4165 -0.4259 -0.3136
  109MPD2    C2 1661   2.717   0.514   2.148  0.0142 -0.4352  0.5381
  109MPD2    C3 1662   2.796   0.579   2.242 -0.0016  0.3549 -0.8593
  109MPD2    C4 1663   2.825   0.510   2.356  0.1524 -0.2678  0.0783
  109MPD2    C5 1664   2.774   0.386   2.379 -0.2155  0.1905  0.2961
  109MPD2     H 1665   2.690   0.573   2.061  0.6414 -1.7324 -0.5336
  109MPD2    H1 1666   2.890   0.549   2.433 -0.7416  2.2576 -0.4210
  109MPD2    H2 1667   2.652   0.225   2.291  0.0595  0.2165  1.1316
  109MPD2    H3 1668   2.789   0.331   2.471  1.0710 -1.3795 -0.8429
  109MPD2     N 1669   2.827   0.712   2.221  0.4890  0.2880  0.4515
  109MPD2    H5 1670   2.799   0.758   2.135  1.6818  1.0501  0.4661
  109MPD2    N1 1671   2.601   0.309   2.068  0.1578  0.0239 -0.3275
  109MPD2    H7 1672   2.576   0.214   2.093  1.2089 -0.2106 -0.1538
  110TCq2    C1 1673   2.912   0.790   2.304  0.2225 -0.4695  0.0904
  110TCq2    O2 1674   2.970   0.762   2.408  0.1158 -0.5007  0.8124
  110TCq2    C2 1675   2.903   0.930   2.272 -0.6397  0.2867 -0.3344
  110TCq2    C3 1676   2.942   1.014   2.378 -0.1217  0.3834 -0.1218
  110TCq2    C4 1677   2.925   1.149   2.362 -0.0766 -0.2333 -0.2803
  110TCq2    C5 1678   2.864   1.203   2.252  0.3675  0.5765 -0.6729
  110TCq2    C6 1679   2.826   1.114   2.154  0.2308 -0.3616 -0.0016
  110TCq2    C7 1680   2.846   0.978   2.162 -0.8763  0.7506  0.1759
  110TCq2    C8 1681   2.735   1.171   2.048 -0.9187 -0.7093 -0.4072
  110TCq2    O4 1682   2.659   1.091   1.997  0.0034 -0.5262 -0.6588
  110TCq2    C9 1683   2.968   1.243   2.464  0.1785  0.0586 -0.6929
  110TCq2    O5 1684   3.027   1.192   2.562  0.4302  0.2334 -0.0290
  110TCq2    O6 1685   2.969   1.366   2.437  0.0865  0.1411 -0.2654
  110TCq2    H2 1686   2.970   0.971   2.473  1.2536  0.5970 -0.4381
  110TCq2    H3 1687   2.863   1.311   2.244 -1.2333  0.7553  1.8847
  110TCq2    H4 1688   2.815   0.914   2.080 -1.1458  0.5293  0.4530
  111TMC2    C1 1689   1.539   4.489  11.612 -0.2836  0.9144  0.3332
  111TMC2    C2 1690   1.498   4.581  11.706  0.2573  0.1049  0.1780
  111TMC2    C3 1691   1.594   4.589  11.810 -0.7801 -0.5654 -0.3583
  111TMC2    C4 1692   1.653   4.412  11.610 -0.4159  0.4678  0.2744
  111TMC2    C5 1693   1.734   4.425  11.723  0.9399  1.0313  0.8297
  111TMC2    C6 1694   1.706   4.508  11.828 -0.1734 -0.4295 -0.3934
  111TMC2     C 1695   1.464   4.481  11.490  0.5866  0.2244 -0.4438
  111TMC2     O 1696   1.520   4.478  11.381  0.0194  0.0955  0.8734
  111TMC2     H 1697   1.416   4.651  11.702  0.1752  0.2370  4.0536
  111TMC2    H1 1698   1.659   4.332  11.538 -0.8034 -0.2116  0.9992
  111TMC2    H2 1699   1.771   4.509  11.915  0.8005  1.3303 -1.1413
  111TMC2    C7 1700   1.835   4.322  11.747  0.1899 -0.4011  0.3209
  111TMC2    C8 1701   1.562   4.682  11.919 -0.6832  0.5152 -0.4367
  111TMC2    O1 1702   1.852   4.306  11.870  0.4646 -0.5813  0.2612
  111TMC2    O2 1703   1.445   4.711  11.944  0.6112 -0.5479 -0.1486
  111TMC2    O5 1704   1.680   0.001  11.984  0.0738 -0.0749  0.4748
  111TMC2    H5 1705   1.762   4.713  11.932 -0.7558 -1.5950 -0.4808
  112MPD2     C 1706   1.031   4.591  11.239 -0.1687  0.5419  0.5038
  112MPD2    C1 1707   1.144   4.521  11.202 -0.2642 -0.3512 -0.5834
  112MPD2    C2 1708   1.246   4.495  11.289 -0.0248  0.3554  0.7749
  112MPD2    C3 1709   1.227   4.544  11.420  0.1376 -0.3735 -0.6156
  112MPD2    C4 1710   1.111   4.608  11.464  0.1493 -0.4447  0.4706
  112MPD2    C5 1711   1.019   4.630  11.365 -0.5451 -0.1594  0.1699
  112MPD2     H 1712   1.335   4.445  11.252 -1.5837 -1.2839 -0.7008
  112MPD2    H1 1713   1.089   4.631  11.567 -0.9812 -1.7079  0.5099
  112MPD2    H2 1714   0.960   4.624  11.164  0.2177  0.2742  0.0182
  112MPD2    H3 1715   0.938   4.693  11.399  0.9665  0.5130  2.6108
  112MPD2     N 1716   1.329   4.512  11.514 -0.1953  0.5826 -0.7368
  112MPD2    H5 1717   1.308   4.522  11.613  0.9303 -1.7205 -0.2763
  112MPD2    N1 1718   1.159   4.481  11.069 -0.3280 -0.1994 -0.6863
  112MPD2    H7 1719   1.232   4.414  11.047  1.6444  1.0026  2.2330
  113MPD2     C 1720   0.682   2.304   1.042  0.5310 -0.7599  0.0511
  113MPD2    C1 1721   0.589   2.398   1.075 -0.7529  1.1166 -0.3866
  113MPD2    C2 1722   0.484   2.424   0.990  0.5490 -0.6276  0.3119
  113MPD2    C3 1723   0.472   2.346   0.879 -0.9939  0.4083  0.0593
  113MPD2    C4 1724   0.572   2.265   0.837  0.6362  0.0036 -0.3167
  113MPD2    C5 1725   0.672   2.239   0.926  0.6333 -0.6735  0.6535
  113MPD2     H 1726   0.408   2.497   1.015  0.7149  0.4142 -2.2669
  113MPD2    H1 1727   0.569   2.206   0.746 -1.7741 -0.4800  0.0769
  113MPD2    H2 1728   0.770   2.282   1.102  1.4613  3.5748  0.2518
  113MPD2    H3 1729   0.751   2.167   0.908  1.8436  1.2851 -1.9413
  113MPD2     N 1730   0.354   2.346   0.800  0.4337  0.0125  0.4411
  113MPD2    H5 1731   0.354   2.315   0.703  2.1586  1.9756 -0.1828
  113MPD2    N1 1732   0.594   2.475   1.194 -0.3264 -0.5439 -0.0694
  113MPD2    H7 1733   0.521   2.545   1.205 -0.2053 -0.4296  0.0111
  114TCq2    C1 1734   0.230   2.399   0.845  0.4788 -0.0617 -0.4297
  114TCq2    O2 1735   0.189   2.441   0.951 -0.2988 -0.0484  0.1178
  114TCq2    C2 1736   0.131   2.388   0.738  0.1270  0.5008 -0.9256
  114TCq2    C3 1737   0.153   2.460   0.623  0.5967  0.1992  0.2223
  114TCq2    C4 1738   0.063   2.457   0.517 -0.1461  0.7432  0.4524
  114TCq2    C5 1739   4.664   2.399   0.533  0.4076 -0.0700 -0.3422
  114TCq2    C6 1740   4.639   2.325   0.653  0.1364  0.8477 -0.0407
  114TCq2    C7 1741   0.006   2.332   0.761 -0.5428 -1.1125  0.0122
  114TCq2    C8 1742   4.509   2.257   0.664  0.0889  0.1145 -0.5915
  114TCq2    O4 1743   4.494   2.209   0.775  0.1299  0.1575  1.0875
  114TCq2    C9 1744   0.104   2.518   0.398 -0.2577  0.5228  0.2498
  114TCq2    O5 1745   0.020   2.542   0.309 -0.6191 -0.5118 -0.2894
  114TCq2    O6 1746   0.222   2.559   0.398 -1.2817 -0.2996 -0.1704
  114TCq2    H2 1747   0.256   2.491   0.614  0.2570  0.8139 -1.6143
  114TCq2    H3 1748   4.601   2.402   0.445 -0.9084 -1.3893  0.5740
  114TCq2    H4 1749   4.702   2.296   0.860 -1.7290 -0.5526 -0.1013
  115TMC2    C1 1750   1.247   4.585  17.481 -0.2154 -0.1073 -0.2139
  115TMC2    C2 1751   1.381   4.542  17.459  0.3221 -0.4168 -0.8730
  115TMC2    C3 1752   1.477   4.624  17.505 -0.3377  0.0427  0.4643
  115TMC2    C4 1753   1.222   4.711  17.514 -0.2943 -0.1817 -0.0089
  115TMC2    C5 1754   1.323   0.063  17.545 -0.7557 -0.0780 -0.1435
  115TMC2    C6 1755   1.451   0.027  17.547 -0.4065  0.1260  0.3013
  115TMC2     C 1756   1.142   4.491  17.436  0.3454 -0.4184 -0.3382
  115TMC2     O 1757   1.177   4.401  17.363 -0.1233  0.8011 -0.0326
  115TMC2     H 1758   1.401   4.438  17.433 -0.1520 -0.7592  0.1079
  115TMC2    H1 1759   1.125   0.035  17.501 -0.1153  0.2458  0.1970
  115TMC2    H2 1760   1.531   0.087  17.589 -2.5266  3.4857 -0.4565
  115TMC2    C7 1761   1.304   0.198  17.581  0.0861  1.1345  0.4850
  115TMC2    C8 1762   1.612   4.623  17.444  0.4237 -0.2399 -0.2534
  115TMC2    O1 1763   1.391   0.242  17.654  0.1040 -0.3391 -0.2339
  115TMC2    O2 1764   1.683   4.722  17.426  0.0416  0.4900 -0.0264
  115TMC2    O5 1765   1.649   4.502  17.399  0.0732 -0.0791 -0.1006
  115TMC2    H5 1766   1.592   4.423  17.410 -0.4444  0.0948 -1.5622
  116MPD2     C 1767   0.663   4.321  17.438  0.2442 -0.2583 -0.3311
  116MPD2    C1 1768   0.768   4.271  17.373  0.0219  0.4501 -0.2683
  116MPD2    C2 1769   0.886   4.344  17.378  0.4190 -0.5712 -0.4173
  116MPD2    C3 1770   0.893   4.462  17.462 -0.8418 -0.4474  0.4805
  116MPD2    C4 1771   0.787   4.492  17.543 -0.0220  0.2460 -0.0390
  116MPD2    C5 1772   0.672   4.426  17.524  0.0327  0.2859 -0.0714
  116MPD2     H 1773   0.970   4.318  17.316  0.6905  2.9697 -1.5531
  116MPD2    H1 1774   0.791   4.575  17.613  0.0241  1.1657 -1.1486
  116MPD2    H2 1775   0.566   4.273  17.437  0.0011  0.2567 -1.7555
  116MPD2    H3 1776   0.591   4.439  17.595  0.0564 -1.8722  0.3671
  116MPD2     N 1777   1.019   4.526  17.487  0.5587  0.2344 -0.2937
  116MPD2    H5 1778   1.011   4.601  17.555  0.6420  1.1151 -1.2509
  116MPD2    N1 1779   0.747   4.151  17.302  0.7493 -0.7167 -0.0509
  116MPD2    H7 1780   0.650   4.126  17.283  0.5040 -0.1358  0.4659
  117TMC2    C1 1781   4.169   0.862  14.057 -0.8983 -0.3642 -0.5036
  117TMC2    C2 1782   4.241   0.863  14.170 -0.4914  0.2646  0.8226
  117TMC2    C3 1783   4.370   0.905  14.165 -0.6491 -0.4044 -0.7458
  117TMC2    C4 1784   4.220   0.901  13.933  0.0041 -0.1423  0.7194
  117TMC2    C5 1785   4.354   0.920  13.922 -0.2864  0.0136  0.1257
  117TMC2    C6 1786   4.431   0.939  14.038  0.5087 -0.1360 -0.4438
  117TMC2     C 1787   4.031   0.826  14.064  0.9956  0.3581 -0.4036
  117TMC2     O 1788   4.004   0.753  14.158 -0.5387 -0.3213 -0.5474
  117TMC2     H 1789   4.192   0.841  14.264  0.7117 -0.4759  1.2889
  117TMC2    H1 1790   4.161   0.896  13.842 -0.6921  3.4245  1.0061
  117TMC2    H2 1791   4.537   0.931  14.020  0.4882 -0.5963 -0.3493
  117TMC2    C7 1792   4.419   0.922  13.792 -0.7607 -0.5843 -0.1094
  117TMC2    C8 1793   4.465   0.896  14.271 -0.8787 -0.1617  0.0659
  117TMC2    O1 1794   4.374   0.867  13.693  0.2910 -0.0736  0.0451
  117TMC2    O2 1795   4.436   0.850  14.382  0.3166 -0.5782  0.9359
  117TMC2    O5 1796   4.536   1.008  14.264 -0.3407  0.1467  0.3112
  117TMC2    H5 1797   4.553   1.046  14.175  2.1682  0.7543  1.0414
  118MPD2     C 1798   4.622   0.985  13.583 -1.5336  0.3791  0.5210
  118MPD2    C1 1799   4.602   1.063  13.694  0.0634 -0.0527 -0.5663
  118MPD2    C2 1800   4.666   1.178  13.712 -0.3952 -0.9623  0.3002
  118MPD2    C3 1801   0.051   1.209  13.631  0.4846  0.6219 -0.2096
  118MPD2    C4 1802   0.075   1.131  13.515 -0.0554 -0.7084 -0.7511
  118MPD2    C5 1803   4.718   1.021  13.492 -0.1536  0.1383  0.4196
  118MPD2     H 1804   4.618   1.246  13.782  2.2087 -0.0671  1.2422
  118MPD2    H1 1805   0.161   1.154  13.453 -0.3577  0.8703 -0.5925
  118MPD2    H2 1806   4.579   0.886  13.572  1.6663 -0.8937 -0.3364
  118MPD2    H3 1807   0.015   0.961  13.404 -0.9758 -1.1572  1.1165
  118MPD2     N 1808   0.114   1.331  13.643  0.0776 -0.9824  0.4814
  118MPD2    H5 1809   0.194   1.342  13.581 -1.3870  2.2919 -0.8557
  118MPD2    N1 1810   4.512   1.024  13.796  0.5579  0.3278  0.4705
  118MPD2    H7 1811   4.517   1.075  13.884 -0.7332  0.0480  0.7011
  119MPD2     C 1812   2.322   2.898  13.554  0.0759  1.0538  0.3542
  119MPD2    C1 1813   2.273   2.820  13.657 -0.9202  0.2183  0.3556
  119MPD2    C2 1814   2.270   2.682  13.634 -0.4206 -0.6966 -0.7463
  119MPD2    C3 1815   2.321   2.625  13.526 -0.1900  0.2003  0.0870
  119MPD2    C4 1816   2.380   2.708  13.434  0.0129  0.1631  0.9055
  119MPD2    C5 1817   2.383   2.842  13.450 -0.2103 -0.2928  0.9928
  119MPD2     H 1818   2.230   2.625  13.718  1.3684  1.5873  1.6639
  119MPD2    H1 1819   2.423   2.671  13.342 -0.3983 -0.8809  1.1291
  119MPD2    H2 1820   2.313   3.006  13.563 -1.7230  0.8558  0.8829
  119MPD2    H3 1821   2.427   2.907  13.375 -2.0793 -1.2622 -0.9466
  119MPD2     N 1822   2.323   2.490  13.498 -0.1066 -0.4844 -0.0179
  119MPD2    H5 1823   2.377   2.467  13.415  0.4441 -1.2995  0.5697
  119MPD2    N1 1824   2.230   2.875  13.774  0.7914  0.0214  0.4891
  119MPD2    H7 1825   2.196   2.970  13.777  0.2337 -0.1143 -1.0238
  120TCq2    C1 1826   2.282   2.389  13.579 -0.3661 -0.1369 -0.1640
  120TCq2    O2 1827   2.211   2.400  13.681  0.0126  0.0568 -0.0012
  120TCq2    C2 1828   2.299   2.255  13.526 -0.1674 -0.3124 -0.4851
  120TCq2    C3 1829   2.328   2.241  13.392  0.0371  0.0220  0.1694
  120TCq2    C4 1830   2.361   2.117  13.345  0.4589  0.5947 -0.6623
  120TCq2    C5 1831   2.339   2.007  13.425  0.6199  0.0757 -0.2961
  120TCq2    C6 1832   2.304   2.028  13.551 -0.9157  0.9986  0.0502
  120TCq2    C7 1833   2.269   2.152  13.605  0.0956  0.1493  0.1339
  120TCq2    C8 1834   2.307   1.918  13.642  0.2147  0.3176  0.3134
  120TCq2    O4 1835   2.384   1.824  13.618  0.4659 -0.1590  0.3673
  120TCq2    C9 1836   2.402   2.105  13.208 -0.0289  0.6882  0.0043
  120TCq2    O5 1837   2.406   2.213  13.140 -0.3494  0.2851  0.1035
  120TCq2    O6 1838   2.404   1.991  13.152 -0.9345  0.3004 -0.2239
  120TCq2    H2 1839   2.351   2.320  13.321  0.8098  0.8040  1.2871
  120TCq2    H3 1840   2.346   1.905  13.389 -0.1781 -0.5314  1.2860
  120TCq2    H4 1841   2.274   2.175  13.710  0.5037 -0.0442  0.1558
  121TMC2    C1 1842   4.110   4.216  13.943 -0.4306  0.4816  0.5300
  121TMC2    C2 1843   4.135   4.174  14.075  0.5001  0.1746 -0.0292
  121TMC2    C3 1844   4.145   4.042  14.103 -0.5516  0.6400 -0.2883
  121TMC2    C4 1845   4.075   4.128  13.846 -0.0081 -0.6361 -0.3072
  121TMC2    C5 1846   4.076   3.996  13.888  0.3047  0.1194  0.0921
  121TMC2    C6 1847   4.129   3.949  14.009  0.4785  0.3111  0.8995
  121TMC2     C 1848   4.063   4.349  13.944  0.4904  0.1599 -0.4145
  121TMC2     O 1849   4.062   4.417  14.048 -0.0068 -0.3221 -0.4493
  121TMC2     H 1850   4.142   4.243  14.158  0.1465 -0.9339  0.9284
  121TMC2    H1 1851   4.029   4.165  13.755  1.9237  1.5506 -0.3671
  121TMC2    H2 1852   4.130   3.843  14.034  4.3706  0.0791 -0.2911
  121TMC2    C7 1853   4.001   3.894  13.814 -0.7155 -0.2678 -0.4617
  121TMC2    C8 1854   4.149   3.997  14.240 -0.2351  0.0245 -1.1475
  121TMC2    O1 1855   4.034   3.780  13.812 -0.0556 -0.1183  0.6140
  121TMC2    O2 1856   4.108   4.074  14.324  0.5696  0.2227 -0.1602
  121TMC2    O5 1857   4.223   3.889  14.264  0.1329  0.3870  0.0662
  121TMC2    H5 1858   4.261   3.853  14.181  0.8954 -0.0264  0.5970
  122MPD2     C 1859   3.917   4.581  13.862  0.3013 -0.0915 -0.2313
  122MPD2    C1 1860   4.012   4.514  13.783  0.0845 -0.3407 -0.5163
  122MPD2    C2 1861   4.047   4.582  13.667 -0.8960  0.2895 -0.5179
  122MPD2    C3 1862   4.014   4.712  13.639  0.6490  0.2567 -0.0867
  122MPD2    C4 1863   3.901   0.033  13.699 -0.1512 -0.1979  0.1538
  122MPD2    C5 1864   3.860   4.697  13.818 -0.7374  0.5859  0.3383
  122MPD2     H 1865   4.109   4.530  13.595 -1.2002  0.7847 -1.1417
  122MPD2    H1 1866   3.866   0.132  13.672 -1.8166 -0.2048  2.3180
  122MPD2    H2 1867   3.879   4.525  13.947  1.8615 -0.8880 -0.0463
  122MPD2    H3 1868   3.773   0.016  13.868 -1.6875 -1.2087  0.1873
  122MPD2     N 1869   4.058   0.068  13.528 -0.6976 -0.0518 -0.2388
  122MPD2    H5 1870   4.010   0.154  13.504  0.2696  0.6161  0.2413
  122MPD2    N1 1871   4.068   4.394  13.813 -0.2748  0.0976 -0.8258
  122MPD2    H7 1872   4.125   4.339  13.749 -1.3982 -2.4398  0.3569
  123MPD2     C 1873   1.050   1.892   9.129  0.7164  0.0701 -0.1306
  123MPD2    C1 1874   1.041   2.030   9.099  0.1489 -0.7437 -0.0502
  123MPD2    C2 1875   1.159   2.102   9.076  0.8683 -0.2154  0.5215
  123MPD2    C3 1876   1.276   2.034   9.098  0.1133 -0.5475 -0.0245
  123MPD2    C4 1877   1.280   1.901   9.137  0.0530 -0.4489 -0.8569
  123MPD2    C5 1878   1.172   1.825   9.146 -0.2294 -0.1004  0.2953
  123MPD2     H 1879   1.158   2.204   9.038 -2.6336 -0.0682  0.9746
  123MPD2    H1 1880   1.371   1.844   9.156  0.2974  0.6990  1.3938
  123MPD2    H2 1881   0.956   1.838   9.141  0.1765  1.2355  0.9554
  123MPD2    H3 1882   1.179   1.718   9.165 -1.9504 -0.6270 -1.9284
  123MPD2     N 1883   1.397   2.103   9.085 -0.1062  0.0433 -0.0830
  123MPD2    H5 1884   1.383   2.203   9.075 -0.3076 -0.0413 -0.6269
  123MPD2    N1 1885   0.910   2.083   9.100  0.3380  0.3415 -0.1338
  123MPD2    H7 1886   0.839   2.019   9.132  1.2048 -0.8060 -0.4821
  124TCq2    C1 1887   1.524   2.056   9.106 -0.4986 -0.4673 -0.3352
  124TCq2    O2 1888   1.565   1.944   9.131 -0.2840 -0.5861 -0.3636
  124TCq2    C2 1889   1.616   2.166   9.106 -0.4040  0.2861 -0.3233
  124TCq2    C3 1890   1.586   2.279   9.039 -0.1714  0.2016 -0.0239
  124TCq2    C4 1891   1.663   2.385   9.050  0.4205  0.4241 -0.5822
  124TCq2    C5 1892   1.772   2.377   9.136 -0.1380 -0.0502 -0.1969
  124TCq2    C6 1893   1.799   2.259   9.202 -0.2614 -1.0991 -0.0507
  124TCq2    C7 1894   1.726   2.151   9.188 -0.1689  0.3544 -0.3786
  124TCq2    C8 1895   1.915   2.254   9.293 -0.0105 -0.5323  0.5570
  124TCq2    O4 1896   1.944   2.150   9.346 -0.5254 -0.3242  0.0836
  124TCq2    C9 1897   1.638   2.512   8.982  0.0211 -0.1319  0.3572
  124TCq2    O5 1898   1.557   2.519   8.889 -0.4224 -0.6197 -0.3631
  124TCq2    O6 1899   1.706   2.609   9.023  0.5629 -0.4527 -0.3414
  124TCq2    H2 1900   1.505   2.283   8.966  0.1251  1.0300 -0.3077
  124TCq2    H3 1901   1.836   2.465   9.141 -0.6164  0.2363  0.9854
  124TCq2    H4 1902   1.740   2.062   9.249 -0.1098 -0.3027 -1.3337
  125TMC2    C1 1903   2.669   3.865   9.894  0.8244  0.1414  0.5909
  125TMC2    C2 1904   2.730   3.904   9.773 -0.1910 -0.5802  0.1076
  125TMC2    C3 1905   2.828   3.824   9.729 -0.1303 -0.2294 -0.3620
  125TMC2    C4 1906   2.691   3.746   9.960 -0.2553 -0.3531 -0.7647
  125TMC2    C5 1907   2.787   3.671   9.904  0.2917  0.5164  0.2505
  125TMC2    C6 1908   2.848   3.701   9.789  0.4667  0.4826 -0.1371
  125TMC2     C 1909   2.597   3.970   9.963  0.1799 -0.6541  0.5245
  125TMC2     O 1910   2.570   4.073   9.901  0.2483  0.0647 -0.4141
  125TMC2     H 1911   2.713   4.002   9.729  0.6625  0.7450  2.7028
  125TMC2    H1 1912   2.644   3.717  10.053  4.0626  0.2812  1.5858
  125TMC2    H2 1913   2.904   3.628   9.733 -2.0847 -0.6885 -1.1786
  125TMC2    C7 1914   2.820   3.555   9.976 -0.2288 -0.9053 -0.2537
  125TMC2    C8 1915   2.877   3.843   9.597  0.0165  0.0471 -0.6251
  125TMC2    O1 1916   2.727   3.503  10.037 -0.3147  0.2276  0.2491
  125TMC2    O2 1917   2.982   3.791   9.561 -0.1726  0.5162 -0.1100
  125TMC2    O5 1918   2.760   3.841   9.528  0.4118 -0.5882  0.1401
  125TMC2    H5 1919   2.678   3.838   9.582 -0.3257 -0.5226 -0.9713
  126MPD1     C 1920   2.396   4.177  10.387  0.2539 -0.0990 -0.3289
  126MPD1    C1 1921   2.459   4.060  10.415  0.3181 -0.6027 -0.5081
  126MPD1    C2 1922   2.531   3.994  10.320 -0.1686 -0.6012  0.4516
  126MPD1    C3 1923   2.538   4.034  10.189 -0.0320  0.9257  0.4546
  126MPD1    C4 1924   2.477   4.155  10.161  1.0936  0.4689  0.2689
  126MPD1    C5 1925   2.421   4.232  10.263  0.3563 -0.2499  0.4543
  126MPD1     H 1926   2.577   3.901  10.350 -1.7167 -0.2712  3.8919
  126MPD1    H1 1927   2.491   4.198  10.062  0.8478  0.5247  0.2600
  126MPD1    H2 1928   2.350   4.239  10.464  2.4650  0.1736  0.7611
  126MPD1    H3 1929   2.392   4.331  10.230  4.0015  0.3132 -1.0624
  126MPD1     N 1930   2.599   3.948  10.097  0.3669 -0.1923  0.1438
  126MPD1    H5 1931   2.639   3.867  10.143 -1.3901  0.2987  2.5667
  126MPD1    N1 1932   2.427   3.986  10.528 -0.0270  0.0814  0.0486
  126MPD1    H6 1933   2.490   3.912  10.561  1.9824  1.4517 -0.7040
  126MPD1    H7 1934   2.402   4.045  10.608  1.0941 -1.1330  1.3026
  127MPD2     C 1935   4.514   2.510   9.552  0.5424 -0.2733 -0.5463
  127MPD2    C1 1936   4.472   2.506   9.685 -0.7400 -0.0200 -0.2454
  127MPD2    C2 1937   4.501   2.621   9.762 -0.4472  0.3858 -0.1320
  127MPD2    C3 1938   4.557   2.728   9.701  0.4256 -0.1768 -0.0790
  127MPD2    C4 1939   4.591   2.730   9.564  0.7964  0.0956  0.3345
  127MPD2    C5 1940   4.578   2.613   9.494 -0.1250 -0.2968 -0.4418
  127MPD2     H 1941   4.483   2.632   9.869  0.2449  2.4691 -0.2264
  127MPD2    H1 1942   4.639   2.817   9.523 -1.1949  0.1232 -1.9393
  127MPD2    H2 1943   4.498   2.427   9.484 -1.0870 -1.1147  0.8619
  127MPD2    H3 1944   4.631   2.611   9.399  0.1678 -0.4314 -0.2765
  127MPD2     N 1945   4.587   2.837   9.788 -0.1306  0.2900 -0.3547
  127MPD2    H5 1946   4.566   2.833   9.887 -0.7448  2.4409 -0.4072
  127MPD2    N1 1947   4.404   2.392   9.736 -0.4736  0.3306 -0.4441
  127MPD2    H7 1948   4.404   2.312   9.674  1.4028 -0.2776  0.3411
  128TCq2    C1 1949   4.372   2.376   9.874  0.4357 -0.0040 -0.4359
  128TCq2    O2 1950   4.394   2.453   9.967 -0.1226  0.4779 -0.4233
  128TCq2    C2 1951   4.317   2.251   9.908 -0.1407  0.2907  0.0045
  128TCq2    C3 1952   4.309   2.210  10.037  0.5087 -0.3089  0.6035
  128TCq2    C4 1953   4.255   2.090  10.068  0.1842 -0.2282 -0.0221
  128TCq2    C5 1954   4.190   2.016   9.972  0.9385  0.1819  0.0969
  128TCq2    C6 1955   4.198   2.059   9.849 -1.0105 -0.4816  0.8158
  128TCq2    C7 1956   4.266   2.173   9.808 -0.7286  0.0225 -0.1930
  128TCq2    C8 1957   4.177   1.955   9.742  0.6305  0.4432  0.3782
  128TCq2    O4 1958   4.229   1.981   9.629 -0.3720  0.5791  0.4527
  128TCq2    C9 1959   4.261   2.042  10.207 -0.7276  0.1234 -0.3224
  128TCq2    O5 1960   4.211   1.929  10.229 -0.3035 -0.2722 -0.3103
  128TCq2    O6 1961   4.341   2.106  10.282 -0.9781  0.3056 -0.2519
  128TCq2    H2 1962   4.363   2.254  10.119  0.8478 -1.4822  1.0095
  128TCq2    H3 1963   4.140   1.929  10.013  0.6839  0.0743 -0.4458
  128TCq2    H4 1964   4.275   2.194   9.702  0.3821  0.2739 -0.0548
  129MPD2     C 1965   2.769   4.676   2.026 -0.9480 -0.8951  0.0669
  129MPD2    C1 1966   2.690   4.596   1.945 -0.2488  0.1581  0.0907
  129MPD2    C2 1967   2.696   4.631   1.807  0.6717  0.4905 -0.7462
  129MPD2    C3 1968   2.761   0.020   1.759  0.3480 -0.3449  0.0153
  129MPD2    C4 1969   2.850   0.086   1.839 -0.4182 -0.3304  0.1003
  129MPD2    C5 1970   2.842   0.056   1.975  0.6377  0.2790 -0.4406
  129MPD2     H 1971   2.615   4.587   1.749 -0.6590  1.8735  0.0259
  129MPD2    H1 1972   2.919   0.157   1.795  0.8251 -1.6322 -0.0517
  129MPD2    H2 1973   2.789   4.651   2.130 -0.5946  1.8383  0.6351
  129MPD2    H3 1974   2.913   0.110   2.036 -1.9553  0.5668  2.2887
  129MPD2     N 1975   2.756   0.055   1.621 -0.1379 -0.0899 -0.2917
  129MPD2    H5 1976   2.706   4.714   1.560 -1.8453 -1.0413  2.1049
  129MPD2    N1 1977   2.615   4.478   1.980  0.3836 -0.6199  0.0448
  129MPD2    H7 1978   2.568   4.431   1.904 -3.2260  0.1282  1.7930
  130TCq2    C1 1979   2.605   4.437   2.106 -0.0639 -0.3435 -0.2484
  130TCq2    O2 1980   2.649   4.488   2.209  0.0861 -0.5688  0.1723
  130TCq2    C2 1981   2.533   4.312   2.123  0.4714 -0.4597  0.0298
  130TCq2    C3 1982   2.549   4.250   2.242 -0.1019  0.3631 -0.9254
  130TCq2    C4 1983   2.475   4.136   2.272  1.1130  0.1472  0.3395
  130TCq2    C5 1984   2.374   4.104   2.184  0.5529  0.0718  0.2922
  130TCq2    C6 1985   2.349   4.182   2.074 -0.6784 -0.1809  0.0558
  130TCq2    C7 1986   2.435   4.280   2.031 -0.4031 -0.7965  0.0885
  130TCq2    C8 1987   2.253   4.123   1.981 -0.4184 -0.1739 -0.0860
  130TCq2    O4 1988   2.267   4.164   1.867 -0.2838  0.2428  0.2753
  130TCq2    C9 1989   2.496   4.060   2.392 -0.1812  0.1327 -0.1661
  130TCq2    O5 1990   2.582   4.106   2.476  0.0597  0.2794 -0.6903
  130TCq2    O6 1991   2.460   3.940   2.385  0.0918  0.0299 -0.4814
  130TCq2    H2 1992   2.636   4.266   2.305 -1.4720  1.7961  0.5820
  130TCq2    H3 1993   2.310   4.023   2.219  0.4809  0.9915  2.2946
  130TCq2    H4 1994   2.413   4.334   1.940  0.0723  1.0585  1.0726
  131MPD2     C 1995   1.182   2.810   9.297 -0.1974 -0.4725 -0.4918
  131MPD2    C1 1996   1.213   2.676   9.296 -0.3243  0.2706 -0.0471
  131MPD2    C2 1997   1.105   2.588   9.277 -0.2505 -0.3793 -0.2991
  131MPD2    C3 1998   0.971   2.640   9.274  0.0705 -0.3219  0.1226
  131MPD2    C4 1999   0.950   2.773   9.261  0.5839  0.7851 -0.5650
  131MPD2    C5 2000   1.056   2.855   9.273 -0.4159 -0.3062 -0.4123
  131MPD2     H 2001   1.119   2.481   9.279 -2.4756 -0.6561  0.4050
  131MPD2    H1 2002   0.848   2.809   9.259 -0.1423 -1.1598  1.2025
  131MPD2    H2 2003   1.260   2.878   9.330 -0.2543 -0.8651  0.4357
  131MPD2    H3 2004   1.040   2.962   9.266 -0.9758 -0.1068  3.8591
  131MPD2     N 2005   0.874   2.544   9.248 -0.0421 -0.5090  0.8619
  131MPD2    H5 2006   0.903   2.447   9.244  0.8727 -0.1139 -1.6848
  131MPD2    N1 2007   1.344   2.635   9.333  0.0376 -0.5414  0.3146
  131MPD2    H7 2008   1.401   2.711   9.369  0.7506 -1.0410  0.2428
  132TCq2    C1 2009   1.745   2.346   9.625 -0.3795  0.1300  0.0654
  132TCq2    O2 2010   1.670   2.254   9.642  0.7633  0.2209  0.3375
  132TCq2    C2 2011   1.704   2.440   9.519  0.5004 -0.4101 -0.5138
  132TCq2    C3 2012   1.777   2.551   9.490  0.1596  0.4312 -0.1937
  132TCq2    C4 2013   1.730   2.641   9.398 -0.1156 -0.1354  0.4859
  132TCq2    C5 2014   1.606   2.623   9.338 -0.2567 -0.1282 -0.2330
  132TCq2    C6 2015   1.539   2.505   9.370 -0.2398  0.6225  0.5422
  132TCq2    C7 2016   1.586   2.412   9.457 -0.1183 -0.2351  0.2145
  132TCq2    C8 2017   1.395   2.505   9.327 -0.0865  0.0201  0.6107
  132TCq2    O4 2018   1.335   2.401   9.306  0.1904 -0.4470 -0.3328
  132TCq2    C9 2019   1.788   2.773   9.382 -0.2831  0.2913 -0.0357
  132TCq2    O5 2020   1.893   2.791   9.443  0.0467 -0.1998 -0.6234
  132TCq2    O6 2021   1.745   2.855   9.292  0.8647  0.0517 -0.4177
  132TCq2    H2 2022   1.868   2.576   9.544  0.3130 -0.0264 -0.2373
  132TCq2    H3 2023   1.582   2.688   9.255 -2.0247 -2.7076 -1.7332
  132TCq2    H4 2024   1.521   2.329   9.481 -2.3893  0.8445 -2.2237
  133MPD2     C 2025   0.826   4.050   8.734 -0.1730  0.2822  0.6875
  133MPD2    C1 2026   0.786   3.982   8.847 -0.2407  0.9563  0.1836
  133MPD2    C2 2027   0.876   3.902   8.910 -0.6887 -0.0460 -0.8442
  133MPD2    C3 2028   1.000   3.873   8.854 -0.4675  0.1940 -0.4480
  133MPD2    C4 2029   1.035   3.942   8.744 -0.1713 -0.4979  0.7537
  133MPD2    C5 2030   0.951   4.033   8.689 -0.0462 -1.1573 -0.7449
  133MPD2     H 2031   0.838   3.875   9.008 -0.3437 -0.8643 -0.9358
  133MPD2    H1 2032   1.133   3.926   8.698  1.1100  0.9351  3.0239
  133MPD2    H2 2033   0.754   4.108   8.677 -2.1892 -2.8718 -0.0191
  133MPD2    H3 2034   0.983   4.096   8.606  0.2941 -0.0509  0.2271
  133MPD2     N 2035   1.094   3.784   8.908 -0.2558 -0.0697 -0.1181
  133MPD2    H5 2036   1.182   3.772   8.859  0.2561  0.2200  0.7323
  133MPD2    N1 2037   0.649   4.010   8.894  0.4267 -0.1145 -0.2655
  133MPD2    H7 2038   0.604   4.090   8.850  0.4896 -0.2282 -0.5321
  134TCq2    C1 2039   0.592   3.948   9.000  0.0191  0.6464  0.2352
  134TCq2    O2 2040   0.627   3.847   9.056  0.4909 -0.1374 -0.0789
  134TCq2    C2 2041   0.452   3.989   9.013  0.2995  0.0166  0.5311
  134TCq2    C3 2042   0.359   3.901   9.061  0.1324  1.2895  0.1236
  134TCq2    C4 2043   0.229   3.944   9.071  0.5143 -0.2335  0.3180
  134TCq2    C5 2044   0.193   4.071   9.047  0.9137 -0.1314 -0.3690
  134TCq2    C6 2045   0.296   4.152   9.018  0.2418 -0.2093 -0.3743
  134TCq2    C7 2046   0.427   4.118   8.991 -0.9624  0.9003  0.2312
  134TCq2    C8 2047   0.257   4.295   9.008 -0.2078  0.0484 -0.0473
  134TCq2    O4 2048   0.325   4.363   8.935  0.0740 -0.3977 -0.2594
  134TCq2    C9 2049   0.126   3.852   9.114 -0.3625 -0.4885 -0.1368
  134TCq2    O5 2050   0.014   3.901   9.135  0.2535 -0.2826 -0.6073
  134TCq2    O6 2051   0.187   3.769   9.187 -0.0695  0.1573  0.2252
  134TCq2    H2 2052   0.398   3.803   9.087 -2.9507  0.4680  1.7178
  134TCq2    H3 2053   0.086   4.083   9.036  0.9878  1.3087  0.5144
  134TCq2    H4 2054   0.502   4.194   8.971  0.1288 -0.6112 -1.4665
  135MPD2     C 2055   4.190   3.898   9.639  0.0828  0.1570  0.5288
  135MPD2    C1 2056   4.136   3.776   9.614 -0.5905  0.2686 -0.1537
  135MPD2    C2 2057   4.215   3.677   9.556  0.2054 -0.3970  0.2237
  135MPD2    C3 2058   4.348   3.689   9.531 -0.3716  0.2985  0.4625
  135MPD2    C4 2059   4.397   3.819   9.551  0.0258  0.4835 -0.0222
  135MPD2    C5 2060   4.319   3.914   9.609 -0.4588  0.5028  0.5120
  135MPD2     H 2061   4.167   3.580   9.547 -1.9833  0.8017 -1.0470
  135MPD2    H1 2062   4.502   3.840   9.540  0.1616 -0.6195 -0.7845
  135MPD2    H2 2063   4.135   3.981   9.681 -0.2687  0.2655 -0.1516
  135MPD2    H3 2064   4.362   4.011   9.630  0.6323  0.0742  0.2272
  135MPD2     N 2065   4.437   3.590   9.476  0.4248  0.0294 -0.2353
  135MPD2    H5 2066   4.529   3.628   9.454  0.3040  1.0736  1.0269
  135MPD2    N1 2067   4.005   3.743   9.662  0.1173 -0.3404  0.0067
  135MPD2    H7 2068   3.984   3.646   9.681  4.0447 -1.1376  0.3762
  136TCq2    C1 2069   3.910   3.837   9.710  0.2783  0.3617 -0.5779
  136TCq2    O2 2070   3.920   3.958   9.724 -0.0366 -0.2485 -0.1028
  136TCq2    C2 2071   3.789   3.764   9.746 -0.0470  0.2836  0.9331
  136TCq2    C3 2072   3.767   3.638   9.705 -0.1824  0.4167  0.1160
  136TCq2    C4 2073   3.644   3.585   9.729 -0.2535 -0.2394  0.3022
  136TCq2    C5 2074   3.543   3.660   9.778  0.4277 -0.9325 -0.0587
  136TCq2    C6 2075   3.563   3.791   9.819  0.0473  0.6888  0.2459
  136TCq2    C7 2076   3.691   3.841   9.805 -0.5590 -0.5454  0.2519
  136TCq2    C8 2077   3.460   3.882   9.866  0.6102  0.1288 -0.1864
  136TCq2    O4 2078   3.444   3.994   9.824  0.5235  0.1685  0.3609
  136TCq2    C9 2079   3.611   3.461   9.668  0.5576  0.1438  0.0560
  136TCq2    O5 2080   3.706   3.382   9.657 -0.6056  0.1476  0.2537
  136TCq2    O6 2081   3.489   3.435   9.645 -0.3482  0.1904 -0.0801
  136TCq2    H2 2082   3.843   3.567   9.674 -1.8233 -0.1211 -2.7120
  136TCq2    H3 2083   3.446   3.612   9.779  0.8420 -1.7900 -3.0329
  136TCq2    H4 2084   3.695   3.949   9.819 -1.4433 -0.6820  1.5583
  137MPD2     C 2085   3.884   2.858   9.972 -0.1197 -0.6820  0.4587
  137MPD2    C1 2086   3.818   2.842  10.098 -0.3648  0.3473 -0.4237
  137MPD2    C2 2087   3.837   2.933  10.200 -0.2210 -0.0664  0.0497
  137MPD2    C3 2088   3.910   3.053  10.183  0.1689  0.0239  0.0487
  137MPD2    C4 2089   3.976   3.060  10.060  0.6952 -0.0770  0.4840
  137MPD2    C5 2090   3.954   2.975   9.955  0.1014  0.1126  0.1933
  137MPD2     H 2091   3.797   2.910  10.297 -2.2374  3.3260  0.0034
  137MPD2    H1 2092   4.046   3.142  10.047 -0.3386  0.8802  0.9728
  137MPD2    H2 2093   3.887   2.779   9.898  3.6474 -0.0064 -0.0962
  137MPD2    H3 2094   3.999   2.983   9.856 -0.8742 -2.7677 -0.4956
  137MPD2     N 2095   3.920   3.145  10.289  0.0624 -0.2085 -0.1763
  137MPD2    H5 2096   3.856   3.120  10.365 -0.4265 -1.2332 -0.9283
  137MPD2    N1 2097   3.733   2.735  10.108  0.0837 -0.6937 -0.2464
  137MPD2    H7 2098   3.725   2.673  10.029  0.0330 -0.3594 -0.5041
  138TCq2    C1 2099   3.631   2.727  10.197 -0.4736  0.0592  0.7287
  138TCq2    O2 2100   3.587   2.822  10.265 -0.6449  0.4894  0.4484
  138TCq2    C2 2101   3.537   2.612  10.175  0.1089  0.3675 -0.6311
  138TCq2    C3 2102   3.587   2.494  10.123 -0.8505  0.5268 -0.9810
  138TCq2    C4 2103   3.500   2.396  10.116 -0.0265  0.0728  0.3884
  138TCq2    C5 2104   3.373   2.398  10.163  0.2697  0.5017 -0.4938
  138TCq2    C6 2105   3.324   2.518  10.215  0.1039 -0.3482  0.1266
  138TCq2    C7 2106   3.407   2.626  10.213 -0.1758  0.5721 -0.2230
  138TCq2    C8 2107   3.184   2.537  10.247 -0.1660  0.2925  0.3949
  138TCq2    O4 2108   3.117   2.439  10.265 -0.3419 -0.0698 -0.1018
  138TCq2    C9 2109   3.540   2.277  10.045 -0.9090  0.4983  0.2199
  138TCq2    O5 2110   3.644   2.223  10.081  0.1548  0.0992  0.3870
  138TCq2    O6 2111   3.449   2.231   9.969 -0.1007 -0.0806 -0.4887
  138TCq2    H2 2112   3.684   2.474  10.079 -0.9874 -3.1316  0.3587
  138TCq2    H3 2113   3.316   2.306  10.159 -0.7796  1.1165  0.4630
  138TCq2    H4 2114   3.392   2.717  10.271 -0.8562 -0.2278  0.8461
  139TMC2    C1 2115   3.320   2.104  13.241  0.6037 -0.1098  0.3625
  139TMC2    C2 2116   3.279   2.088  13.115  0.2367 -0.5201 -0.2305
  139TMC2    C3 2117   3.151   2.119  13.089  0.5414 -0.0211 -0.1868
  139TMC2    C4 2118   3.242   2.130  13.350 -0.4692 -0.0043  0.5226
  139TMC2    C5 2119   3.109   2.142  13.324  0.6722 -0.1070  0.2342
  139TMC2    C6 2120   3.061   2.141  13.197 -0.1172  0.1290  0.3427
  139TMC2     C 2121   3.461   2.086  13.269  0.0322 -0.9651 -0.2326
  139TMC2     O 2122   3.538   2.037  13.180  0.2108  0.3023  0.6366
  139TMC2     H 2123   3.357   2.065  13.043  1.5725  0.8774  0.7794
  139TMC2    H1 2124   3.284   2.133  13.450  0.6343 -0.2295  0.0733
  139TMC2    H2 2125   2.955   2.149  13.176 -0.1776 -2.0457 -0.1359
  139TMC2    C7 2126   3.034   2.206  13.429  0.6132  0.0913  0.5389
  139TMC2    C8 2127   3.093   2.091  12.959 -0.7176 -0.8274  0.6748
  139TMC2    O1 2128   2.942   2.275  13.396 -0.6545 -0.0803  0.1718
  139TMC2    O2 2129   2.971   2.074  12.954  0.4949  0.4213 -0.5421
  139TMC2    O5 2130   3.177   2.074  12.858  0.0734  0.1943  0.2649
  139TMC2    H5 2131   3.272   2.097  12.860  0.8865 -3.4260  2.8641
  140MPD2     C 2132   3.692   2.198  13.519 -0.0263  0.1419 -0.0481
  140MPD2    C1 2133   3.624   2.108  13.442  0.8824 -0.0668 -0.0599
  140MPD2    C2 2134   3.673   1.980  13.426  0.2154 -0.3371  0.0075
  140MPD2    C3 2135   3.793   1.941  13.480 -0.4660 -0.7545  0.3041
  140MPD2    C4 2136   3.861   2.032  13.558  0.4901 -0.2775 -0.9551
  140MPD2    C5 2137   3.809   2.161  13.575 -0.3607 -0.1201  0.2880
  140MPD2     H 2138   3.602   1.906  13.390 -2.5956  1.6816  1.3977
  140MPD2    H1 2139   3.955   2.007  13.605 -0.0973  1.1500  0.9830
  140MPD2    H2 2140   3.648   2.295  13.538  0.7406  0.8641 -2.0835
  140MPD2    H3 2141   3.867   2.214  13.649 -0.2677 -0.6570  0.6038
  140MPD2     N 2142   3.843   1.812  13.457  0.1671 -0.5739 -0.1485
  140MPD2    H5 2143   3.775   1.757  13.404 -0.7076 -1.0960  1.5167
  140MPD2    N1 2144   3.501   2.143  13.387 -0.7279  0.2003  0.0074
  140MPD2    H7 2145   3.449   2.221  13.426 -2.7005 -2.0859  1.8874
  141TCq2    C1 2146   4.506   3.410  14.009 -0.6981 -0.0581 -0.0393
  141TCq2    O2 2147   4.477   3.466  13.908 -0.6552  0.7664  0.5521
  141TCq2    C2 2148   4.592   3.475  14.109 -0.8793 -0.1458 -0.3861
  141TCq2    C3 2149   4.656   3.590  14.069 -0.2283 -0.2462  0.5528
  141TCq2    C4 2150   0.039   3.639  14.138 -0.4427  0.4484  0.4251
  141TCq2    C5 2151   0.092   3.566  14.240  0.1454 -0.0367 -0.3509
  141TCq2    C6 2152   0.023   3.452  14.285 -0.7469  0.2515  0.0494
  141TCq2    C7 2153   4.629   3.410  14.225 -0.0460  0.9221  0.2683
  141TCq2    C8 2154   0.060   3.399  14.410 -0.7204 -0.8726 -0.1488
  141TCq2    O4 2155   0.132   3.461  14.485 -0.6100  0.0242 -0.1256
  141TCq2    C9 2156   0.099   3.768  14.104  0.5240  0.5903 -0.5735
  141TCq2    O5 2157   0.178   3.822  14.191 -0.4660  0.2572  0.1964
  141TCq2    O6 2158   0.067   3.819  13.989 -0.3290  0.0243 -0.2013
  141TCq2    H2 2159   4.636   3.651  13.982  0.5309 -0.5416  0.1678
  141TCq2    H3 2160   0.180   3.594  14.296 -0.8738  1.7850  0.3159
  141TCq2    H4 2161   4.576   3.320  14.256  2.0426  0.0039  1.1706
  142MPD2     C 2162   1.882   1.464  10.326 -0.0713 -0.1634  0.4278
  142MPD2    C1 2163   1.920   1.441  10.195  0.0647  0.0778  0.2844
  142MPD2    C2 2164   2.000   1.537  10.125 -0.4304  0.5513 -0.6394
  142MPD2    C3 2165   2.037   1.653  10.193  0.1360 -0.2027  0.1666
  142MPD2    C4 2166   1.996   1.671  10.322 -0.1712  0.3824 -0.0848
  142MPD2    C5 2167   1.925   1.575  10.385  0.1468  0.8100  0.6144
  142MPD2     H 2168   2.025   1.526  10.020 -2.1046 -0.9087 -0.8934
  142MPD2    H1 2169   2.031   1.757  10.377  0.0833  1.2121 -1.5447
  142MPD2    H2 2170   1.823   1.390  10.380 -2.3782  0.3989 -1.3173
  142MPD2    H3 2171   1.900   1.587  10.490 -1.3734 -0.8630  0.4337
  142MPD2     N 2172   2.118   1.747  10.134  0.0448 -0.8538 -0.4257
  142MPD2    H5 2173   2.146   1.822  10.197 -1.1665 -0.1989 -0.6645
  142MPD2    N1 2174   1.863   1.325  10.135 -0.2362  0.1170 -0.4049
  142MPD2    H7 2175   1.781   1.298  10.188  0.7012  0.1190  1.0572
  143TCq2    C1 2176   2.143   1.760   9.996 -0.8202 -0.3181  0.6712
  143TCq2    O2 2177   2.095   1.694   9.908 -0.1258  1.2100  0.3102
  143TCq2    C2 2178   2.229   1.872   9.962 -0.1083  0.4347 -0.1685
  143TCq2    C3 2179   2.314   1.917  10.057 -0.0444  0.0663  0.9525
  143TCq2    C4 2180   2.380   2.038  10.027 -0.3045 -0.0931  0.2370
  143TCq2    C5 2181   2.351   2.112   9.911  0.3861  0.1654 -0.7259
  143TCq2    C6 2182   2.259   2.056   9.820  0.2845 -0.3217 -0.4201
  143TCq2    C7 2183   2.194   1.936   9.845  0.4564  0.1561  0.5380
  143TCq2    C8 2184   2.237   2.113   9.691 -0.7743  0.0647 -0.0103
  143TCq2    O4 2185   2.222   2.034   9.593 -0.3892  0.2182 -0.3806
  143TCq2    C9 2186   2.475   2.096  10.126 -0.0236 -0.8094  0.1139
  143TCq2    O5 2187   2.475   2.217  10.151  0.6407 -0.2479  0.2490
  143TCq2    O6 2188   2.543   2.015  10.197 -0.3573  0.2997  0.9304
  143TCq2    H2 2189   2.339   1.857  10.144 -1.2765 -3.8648 -1.4223
  143TCq2    H3 2190   2.408   2.204   9.901  1.0657 -0.3529 -1.7665
  143TCq2    H4 2191   2.132   1.896   9.765  0.0181  0.0428  0.9417
  144MPD2     C 2192   4.704   2.033   0.318  0.0929  0.2341 -0.5414
  144MPD2    C1 2193   4.714   1.892   0.321 -0.2071  0.3678  0.1813
  144MPD2    C2 2194   0.112   1.834   0.316 -0.0973  1.0100  0.9609
  144MPD2    C3 2195   0.230   1.910   0.311  0.2586  0.0871 -0.1958
  144MPD2    C4 2196   0.219   2.042   0.309 -0.0731  0.1367 -0.0270
  144MPD2    C5 2197   0.099   2.105   0.317 -0.2700  0.4528 -1.0180
  144MPD2     H 2198   0.110   1.726   0.319 -2.3885  1.0425  0.0447
  144MPD2    H1 2199   0.309   2.103   0.303  0.7167 -0.9236  0.8821
  144MPD2    H2 2200   4.613   2.090   0.330  0.0685  0.2818 -0.9589
  144MPD2    H3 2201   0.098   2.213   0.310  0.2864  0.3508 -2.5912
  144MPD2     N 2202   0.359   1.854   0.318  0.2536  0.3984 -0.0003
  144MPD2    H5 2203   0.437   1.912   0.346 -1.1354  2.3360 -0.1253
  144MPD2    N1 2204   4.603   1.801   0.331 -0.5956  0.5035  0.1231
  144MPD2    H7 2205   4.625   1.703   0.338 -0.6032  0.3549 -1.9554
  145TCq2    C1 2206   0.378   1.716   0.295 -0.0621  0.2682 -0.2457
  145TCq2    O2 2207   0.300   1.628   0.256  0.1317 -0.0528 -0.2191
  145TCq2    C2 2208   0.510   1.671   0.333 -1.2362  0.3481  0.4349
  145TCq2    C3 2209   0.568   1.565   0.265  0.2406  0.0639 -0.8836
  145TCq2    C4 2210   0.686   1.505   0.313  0.1906 -0.5875 -0.6944
  145TCq2    C5 2211   0.744   1.549   0.430  0.4698 -0.3281 -0.0952
  145TCq2    C6 2212   0.684   1.657   0.496  0.3695  0.7704 -0.1735
  145TCq2    C7 2213   0.575   1.726   0.442  0.0234  0.5688  0.3725
  145TCq2    C8 2214   0.752   1.697   0.614 -0.1571  0.3304 -0.0372
  145TCq2    O4 2215   0.865   1.649   0.634  0.0082 -0.5298 -0.1727
  145TCq2    C9 2216   0.753   1.422   0.214 -0.8059  0.1664  0.1434
  145TCq2    O5 2217   0.705   1.387   0.107  0.3142  0.3843 -0.1547
  145TCq2    O6 2218   0.869   1.385   0.240  0.5307  0.1562 -0.1789
  145TCq2    H2 2219   0.522   1.522   0.177 -1.7169 -0.1276  0.2196
  145TCq2    H3 2220   0.831   1.497   0.468  1.2011  1.7514  1.0549
  145TCq2    H4 2221   0.512   1.790   0.502 -1.4592 -1.6597  1.1833
  146TMC2    C1 2222   1.291   4.457  12.771 -0.0272 -0.1929 -0.0126
  146TMC2    C2 2223   1.168   4.487  12.710 -0.6267 -0.3650  0.4168
  146TMC2    C3 2224   1.158   4.451  12.582 -0.1968 -0.4327  0.6962
  146TMC2    C4 2225   1.391   4.386  12.699 -0.2768 -0.3401 -0.6026
  146TMC2    C5 2226   1.362   4.347  12.575  0.3720  0.0743 -0.1645
  146TMC2    C6 2227   1.246   4.373  12.514 -0.9774 -0.6058  0.6228
  146TMC2     C 2228   1.312   4.491  12.911 -0.1410 -0.0223 -0.0564
  146TMC2     O 2229   1.222   4.563  12.948 -0.2191  0.4294  0.1261
  146TMC2     H 2230   1.089   4.537  12.764 -1.0311 -1.1734  0.5650
  146TMC2    H1 2231   1.488   4.375  12.747 -0.1420  0.0240 -0.7853
  146TMC2    H2 2232   1.229   4.345  12.411  0.0779 -3.0103  1.1072
  146TMC2    C7 2233   1.472   4.291  12.492 -0.3613 -0.0841  0.2615
  146TMC2    C8 2234   1.057   4.520  12.505 -0.8337 -0.0915 -0.0400
  146TMC2    O1 2235   1.463   4.307  12.372  0.2767 -0.4642 -0.1244
  146TMC2    O2 2236   1.007   4.630  12.533 -0.5250  0.0302 -0.2137
  146TMC2    O5 2237   1.000   4.426  12.426 -0.4276 -0.1160 -0.0175
  146TMC2    H5 2238   1.044   4.338  12.433 -1.1364 -0.4612  0.1958
  147MPD2     C 2239   1.918   4.035  12.451  0.0680 -0.2039 -0.0565
  147MPD2    C1 2240   1.891   4.030  12.579 -0.2990 -0.3816  0.3513
  147MPD2    C2 2241   1.776   4.101  12.613 -0.2537  0.3504  0.1222
  147MPD2    C3 2242   1.685   4.159  12.529  0.0776 -0.3281  0.3878
  147MPD2    C4 2243   1.718   4.149  12.391 -0.5687  0.5041 -0.0886
  147MPD2    C5 2244   1.835   4.092  12.354 -0.4583  0.0550 -0.2903
  147MPD2     H 2245   1.754   4.108  12.719  1.5811 -2.4009  0.7055
  147MPD2    H1 2246   1.652   4.179  12.311  1.0175  0.8421 -1.2584
  147MPD2    H2 2247   2.004   3.994  12.398 -0.5332 -2.0530  0.4102
  147MPD2    H3 2248   1.875   4.098  12.254 -0.9622  1.4160 -0.4054
  147MPD2     N 2249   1.563   4.217  12.573 -0.1172 -0.6190  0.0735
  147MPD2    H5 2250   1.545   4.207  12.672 -3.0656 -0.9087 -0.4907
  147MPD2    N1 2251   1.981   3.983  12.673  0.1730  0.3419  0.2651
  147MPD2    H7 2252   2.068   3.943  12.639 -0.8258 -2.0242  0.4919
  148MPD2     C 2253   1.839   3.350  10.389  0.4156 -0.1116  0.7575
  148MPD2    C1 2254   1.880   3.233  10.454  0.2775  0.1294 -0.5849
  148MPD2    C2 2255   1.815   3.111  10.423 -0.5278  0.7648 -0.0970
  148MPD2    C3 2256   1.711   3.100  10.326  0.1818  0.1901  0.0371
  148MPD2    C4 2257   1.677   3.220  10.265  0.3213 -0.6329  0.1319
  148MPD2    C5 2258   1.744   3.338  10.293 -0.7223  0.2203  0.1008
  148MPD2     H 2259   1.840   3.030  10.491 -1.0769  1.3190  0.7678
  148MPD2    H1 2260   1.602   3.232  10.187 -0.8202 -0.4833  1.2549
  148MPD2    H2 2261   1.877   3.447  10.417 -1.0343  1.0915 -1.4683
  148MPD2    H3 2262   1.703   3.429  10.249  0.0936  0.6280  0.1830
  148MPD2     N 2263   1.643   2.983  10.283  0.8959 -0.0740  0.0947
  148MPD2    H5 2264   1.560   2.996  10.226  1.5187 -0.5088 -0.9041
  148MPD2    N1 2265   1.992   3.221  10.544  0.1515 -0.6639 -0.5764
  148MPD2    H7 2266   2.019   3.129  10.577 -0.3507 -0.8309 -0.6439
  149TCq2    C1 2267   2.066   3.327  10.588  0.1385 -0.0445 -0.4567
  149TCq2    O2 2268   2.065   3.439  10.549  0.4179 -0.2342 -0.1751
  149TCq2    C2 2269   2.163   3.293  10.696 -0.3297 -0.4675  0.3408
  149TCq2    C3 2270   2.114   3.325  10.822  0.1812  0.5346  0.1901
  149TCq2    C4 2271   2.129   3.232  10.921 -0.3689  0.4061 -0.1016
  149TCq2    C5 2272   2.168   3.102  10.890  0.1489  0.5707  0.2036
  149TCq2    C6 2273   2.224   3.077  10.772  0.3169  0.6513 -0.1560
  149TCq2    C7 2274   2.214   3.171  10.672  0.0613 -0.0370 -1.4146
  149TCq2    C8 2275   2.193   2.944  10.711 -0.0542 -0.6902 -0.2492
  149TCq2    O4 2276   2.104   2.947  10.626  0.1295 -0.1652 -0.7482
  149TCq2    C9 2277   2.047   3.252  11.029 -0.6801  0.1857  0.3333
  149TCq2    O5 2278   1.961   3.347  11.018 -0.0947  0.2705 -0.4728
  149TCq2    O6 2279   2.020   3.147  11.093 -0.4794 -0.1913 -0.8004
  149TCq2    H2 2280   2.048   3.410  10.832 -0.1222  0.0938  1.8710
  149TCq2    H3 2281   2.157   3.024  10.964 -1.0365 -0.8519 -1.4848
  149TCq2    H4 2282   2.248   3.140  10.574  1.7397 -0.0412 -0.8345
  150MPD2     C 2283   3.006   2.844  12.273  0.3340 -0.4917  0.0993
  150MPD2    C1 2284   3.077   2.787  12.170 -0.1622  0.0373  0.1330
  150MPD2    C2 2285   3.195   2.845  12.135  0.1977 -0.3918 -0.2735
  150MPD2    C3 2286   3.238   2.966  12.188 -0.3953 -0.4223 -0.0223
  150MPD2    C4 2287   3.167   3.025  12.291 -0.2434 -0.9976 -0.2261
  150MPD2    C5 2288   3.055   2.963  12.335  0.2538 -0.3005  0.9277
  150MPD2     H 2289   3.267   2.808  12.064 -1.8426  0.9344 -3.0394
  150MPD2    H1 2290   3.214   3.100  12.353  0.3348 -2.7639  1.5025
  150MPD2    H2 2291   2.916   2.796  12.310  2.0375 -3.7639 -0.0043
  150MPD2    H3 2292   3.006   2.999  12.424 -1.0708  0.8997 -0.2966
  150MPD2     N 2293   3.341   3.028  12.120  0.4417  0.5534  0.8509
  150MPD2    H5 2294   3.393   2.976  12.050 -1.6656 -0.2328 -0.1305
  150MPD2    N1 2295   3.026   2.676  12.105  0.1998  0.3358 -0.6558
  150MPD2    H7 2296   2.937   2.642  12.139 -1.1693  2.9414 -1.6042
  151TCq2    C1 2297   3.410   3.138  12.162  0.0251 -0.2377  0.0971
  151TCq2    O2 2298   3.387   3.215  12.257 -0.1054 -0.6816  0.7740
  151TCq2    C2 2299   3.524   3.172  12.075 -0.0655  0.3981  0.0714
  151TCq2    C3 2300   3.524   3.121  11.949  0.6665  0.4996  0.5942
  151TCq2    C4 2301   3.644   3.132  11.881  0.3452  0.1899  0.1518
  151TCq2    C5 2302   3.755   3.169  11.941 -0.2992  0.3862  0.0317
  151TCq2    C6 2303   3.750   3.220  12.069 -0.2291  0.1336 -0.2755
  151TCq2    C7 2304   3.636   3.217  12.137 -0.5645  0.8400 -0.6559
  151TCq2    C8 2305   3.860   3.230  12.153  0.4259  0.0048 -0.4336
  151TCq2    O4 2306   3.855   3.304  12.252 -0.0206 -0.4274  0.1876
  151TCq2    C9 2307   3.668   3.071  11.751  0.7147  0.1321  0.1645
  151TCq2    O5 2308   3.792   3.064  11.712 -0.1032 -0.1974  0.3110
  151TCq2    O6 2309   3.569   3.035  11.678 -0.0353  0.4542 -0.9054
  151TCq2    H2 2310   3.441   3.088  11.888  1.7306  0.5518 -0.8827
  151TCq2    H3 2311   3.845   3.185  11.883 -0.1010 -1.1791 -0.0710
  151TCq2    H4 2312   3.626   3.243  12.241 -2.9591 -2.5898 -0.0167
  152MPD2     C 2313   2.894   2.008  12.642 -0.8440 -0.1638 -0.3652
  152MPD2    C1 2314   2.924   2.113  12.553 -0.2743  0.3133  0.2049
  152MPD2    C2 2315   2.819   2.191  12.496  0.2404  0.4084 -0.4093
  152MPD2    C3 2316   2.688   2.158  12.523  0.4960 -0.3203 -0.1581
  152MPD2    C4 2317   2.660   2.053  12.605  0.2732 -0.3983 -0.2632
  152MPD2    C5 2318   2.761   1.976  12.663 -0.5434 -0.0761  0.1752
  152MPD2     H 2319   2.842   2.271  12.426  2.3392  0.6351  0.5344
  152MPD2    H1 2320   2.561   2.012  12.619 -0.3627  1.4786  0.7213
  152MPD2    H2 2321   2.968   1.950  12.696 -1.7694  0.2207  1.3356
  152MPD2    H3 2322   2.732   1.897  12.731  0.5057 -0.0539  0.6377
  152MPD2     N 2323   2.584   2.238  12.472  0.7325 -0.2732  0.1621
  152MPD2    H5 2324   2.607   2.318  12.414  3.0929 -0.9170  0.1973
  152MPD2    N1 2325   3.063   2.146  12.537  0.3911 -0.6743  0.0406
  152MPD2    H7 2326   3.128   2.092  12.594  2.7804 -0.9292 -2.9826
  153TCq2    C1 2327   3.118   2.247  12.457 -0.2217  0.3886 -0.7595
  153TCq2    O2 2328   3.059   2.315  12.372  0.1768 -0.3868  0.7022
  153TCq2    C2 2329   3.256   2.270  12.490  0.2583 -0.0676  0.2477
  153TCq2    C3 2330   3.321   2.194  12.587 -0.5965 -0.2115 -0.1155
  153TCq2    C4 2331   3.446   2.230  12.627 -0.0073 -0.2280 -0.8443
  153TCq2    C5 2332   3.502   2.347  12.587 -0.6480 -0.6804 -0.3463
  153TCq2    C6 2333   3.432   2.418  12.490  0.2673  0.8427  0.1916
  153TCq2    C7 2334   3.318   2.375  12.437 -0.1379  0.0288  0.0947
  153TCq2    C8 2335   3.475   2.549  12.449  0.1030  0.5575  0.1328
  153TCq2    O4 2336   3.407   2.607  12.365 -0.2670 -0.2451  0.7859
  153TCq2    C9 2337   3.509   2.160  12.741 -0.3570  0.8995 -0.5268
  153TCq2    O5 2338   3.631   2.172  12.762  0.3095 -0.5105  0.2302
  153TCq2    O6 2339   3.429   2.092  12.812 -0.2497  0.0525 -0.0285
  153TCq2    H2 2340   3.284   2.097  12.618  0.7807 -1.0600 -1.1116
  153TCq2    H3 2341   3.592   2.381  12.636 -0.9020 -1.9158  0.9839
  153TCq2    H4 2342   3.247   2.435  12.381 -0.3723 -0.7414 -0.4243
  154MPD2     C 2343   4.141   2.625   0.433 -0.3660  0.4641 -0.1146
  154MPD2    C1 2344   4.157   2.761   0.460  0.4841  0.4820  0.3775
  154MPD2    C2 2345   4.229   2.793   0.574  0.2021 -0.6047  0.6981
  154MPD2    C3 2346   4.290   2.694   0.652 -0.3556 -0.1092  0.2504
  154MPD2    C4 2347   4.280   2.565   0.615 -0.4408 -0.5904 -0.5840
  154MPD2    C5 2348   4.207   2.530   0.507 -0.1073 -0.2471  0.1207
  154MPD2     H 2349   4.267   2.890   0.606  2.3097 -1.3108  0.3155
  154MPD2    H1 2350   4.300   2.474   0.670  0.4336 -0.7217 -1.1273
  154MPD2    H2 2351   4.087   2.594   0.345  3.1608 -2.1738 -1.3376
  154MPD2    H3 2352   4.203   2.422   0.495 -0.4858 -0.1256 -0.8743
  154MPD2     N 2353   4.354   2.728   0.774  0.4486  0.1699  0.0265
  154MPD2    H5 2354   4.357   2.823   0.810  0.0500  0.6555 -1.2035
  154MPD2    N1 2355   4.080   2.856   0.395 -0.2731  0.3961  0.4219
  154MPD2    H7 2356   4.015   2.827   0.322  1.6923  0.0532 -1.1811
  155TCq2    C1 2357   4.072   2.988   0.437 -0.7301  0.5476  0.2673
  155TCq2    O2 2358   4.120   3.043   0.534 -1.0012 -0.6095  0.1464
  155TCq2    C2 2359   4.011   3.076   0.334 -0.2022 -1.1067  0.6011
  155TCq2    C3 2360   4.025   3.216   0.347 -0.7246 -0.4476  0.0453
  155TCq2    C4 2361   3.969   3.303   0.259 -0.0104  0.6101  0.0432
  155TCq2    C5 2362   3.890   3.256   0.150 -0.3711  0.3245  0.7862
  155TCq2    C6 2363   3.890   3.112   0.137 -0.0167  0.0426  0.4763
  155TCq2    C7 2364   3.934   3.023   0.231  0.0009 -0.0282  0.2345
  155TCq2    C8 2365   3.840   3.054   0.009  0.1687  0.4374  0.1931
  155TCq2    O4 2366   3.791   2.940   0.020 -0.7475  0.8234 -0.2071
  155TCq2    C9 2367   3.988   3.440   0.267 -0.4140  0.5278  0.2381
  155TCq2    O5 2368   3.945   3.516   0.178 -0.1465  0.2338  0.6052
  155TCq2    O6 2369   4.054   3.484   0.364  0.4904 -0.8189  0.5672
  155TCq2    H2 2370   4.075   3.253   0.436  0.9900 -2.8870  0.0760
  155TCq2    H3 2371   3.868   3.327   0.071 -0.9122  1.2409  1.7651
  155TCq2    H4 2372   3.929   2.915   0.218 -0.3538  0.0481 -0.2445
  156MPD2     C 2373   3.638   4.394  11.385 -0.4194 -0.0507 -0.2350
  156MPD2    C1 2374   3.575   4.511  11.361  0.0925 -0.2367 -0.3674
  156MPD2    C2 2375   3.508   4.578  11.462  0.6894  0.1995 -0.1022
  156MPD2    C3 2376   3.501   4.523  11.593  0.4241 -0.8365 -0.6486
  156MPD2    C4 2377   3.567   4.406  11.618  0.0313  0.5908  0.8408
  156MPD2    C5 2378   3.630   4.337  11.513  0.4380  0.0327 -0.3391
  156MPD2     H 2379   3.456   4.672  11.451 -0.7501 -0.5351  0.3914
  156MPD2    H1 2380   3.568   4.355  11.713 -1.3715  1.7983  1.5075
  156MPD2    H2 2381   3.682   4.336  11.304  0.3446 -0.3051  0.3564
  156MPD2    H3 2382   3.673   4.240  11.530  0.6145  0.1301 -0.2346
  156MPD2     N 2383   3.426   4.590  11.692 -0.5329 -0.0303 -0.3139
  156MPD2    H5 2384   3.367   4.663  11.653 -2.1721 -0.7742  0.7465
  156MPD2    N1 2385   3.582   4.554  11.229  0.0268 -0.1038 -0.6144
  156MPD2    H7 2386   3.610   4.498  11.149  0.2535  0.0660 -0.6553
  157TCq2    C1 2387   3.560   4.681  11.196 -0.8010 -0.4676 -0.1188
  157TCq2    O2 2388   3.545   0.059  11.266 -0.1476 -0.3386  0.1879
  157TCq2    C2 2389   3.529   4.704  11.064 -0.3727  0.0878 -0.1747
  157TCq2    C3 2390   3.499   4.589  10.988 -0.0898  0.2294  0.2528
  157TCq2    C4 2391   3.430   4.611  10.876 -0.1776  0.1499  0.2356
  157TCq2    C5 2392   3.394   0.005  10.830 -0.1445  0.5632 -0.7246
  157TCq2    C6 2393   3.427   0.110  10.908 -0.5093 -0.1307 -0.1381
  157TCq2    C7 2394   3.506   0.104  11.015 -0.0098 -0.0744 -0.1388
  157TCq2    C8 2395   3.422   0.247  10.858 -0.0753  0.3111 -0.6994
  157TCq2    O4 2396   3.507   0.324  10.902  0.4533  0.2866 -0.2489
  157TCq2    C9 2397   3.410   4.496  10.791  0.5057  0.7896  0.0207
  157TCq2    O5 2398   3.447   4.390  10.841 -0.2094  0.0515 -0.3230
  157TCq2    O6 2399   3.362   4.514  10.676 -0.1536 -0.4309 -0.6252
  157TCq2    H2 2400   3.549   4.494  11.003 -0.1468  0.5018  2.2065
  157TCq2    H3 2401   3.339   0.010  10.736  0.0809  0.1782 -0.8759
  157TCq2    H4 2402   3.518   0.187  11.084 -0.4280  0.9822 -1.3307
  158TMC2    C1 2403   3.380   3.078  13.181 -0.1886  0.1853 -0.9330
  158TMC2    C2 2404   3.436   3.146  13.073 -0.4625 -0.2045 -0.6077
  158TMC2    C3 2405   3.371   3.256  13.030  0.1427 -0.1149  0.2989
  158TMC2    C4 2406   3.255   3.093  13.230  0.7010 -0.1044  0.3704
  158TMC2    C5 2407   3.197   3.209  13.177  0.6947 -0.4693  0.5174
  158TMC2    C6 2408   3.245   3.283  13.076  0.1184  0.0493  0.9758
  158TMC2     C 2409   3.463   2.963  13.229  0.6588 -0.1764  0.8208
  158TMC2     O 2410   3.551   2.917  13.156  0.2201  0.0698  0.0719
  158TMC2     H 2411   3.536   3.125  13.037 -0.6408 -1.5733 -0.2797
  158TMC2    H1 2412   3.203   3.025  13.297 -0.9388  2.0708  1.3001
  158TMC2    H2 2413   3.187   3.369  13.043 -2.3804 -1.5482  1.1660
  158TMC2    C7 2414   3.058   3.229  13.197  1.1840  0.2915  0.3040
  158TMC2    C8 2415   3.444   3.353  12.952  0.1038  0.2681  0.0996
  158TMC2    O1 2416   2.987   3.278  13.114  0.1195 -0.2896 -0.0921
  158TMC2    O2 2417   3.532   3.321  12.876 -0.3638  0.2791 -0.0889
  158TMC2    O5 2418   3.394   3.470  12.979 -0.0919  0.1427 -0.3625
  158TMC2    H5 2419   3.364   3.472  13.073  1.4444  0.6665  0.1184
  159MPD2     C 2420   3.589   2.606  13.577  0.2734  0.1432 -0.9676
  159MPD2    C1 2421   3.521   2.708  13.644  0.3188  0.5606  0.6217
  159MPD2    C2 2422   3.480   2.824  13.569 -0.0034 -0.0227  0.4788
  159MPD2    C3 2423   3.490   2.830  13.429 -0.4276  0.1880 -0.1592
  159MPD2    C4 2424   3.550   2.715  13.366 -0.2013  0.5536  0.1824
  159MPD2    C5 2425   3.589   2.606  13.442 -0.1817  0.0316  0.6434
  159MPD2     H 2426   3.409   2.898  13.606 -0.8433  0.0248 -1.2263
  159MPD2    H1 2427   3.566   2.708  13.259  4.4687 -1.7147  0.9861
  159MPD2    H2 2428   3.620   2.513  13.624 -3.4263 -0.7828 -0.3436
  159MPD2    H3 2429   3.634   2.517  13.400  1.6118  0.2210  2.1318
  159MPD2     N 2430   3.436   2.936  13.360 -0.8463 -0.1016 -0.4973
  159MPD2    H5 2431   3.379   3.001  13.413  0.0381  2.6908 -2.9740
  159MPD2    N1 2432   3.522   2.694  13.784 -0.2618 -0.2469 -0.5305
  159MPD2    H7 2433   3.529   2.598  13.816 -0.0091  0.2562  0.9360
  160TMC2    C1 2434   2.989   2.103   1.208 -0.6783 -0.0189 -0.1858
  160TMC2    C2 2435   3.026   2.202   1.285  0.1761 -0.3607  0.1275
  160TMC2    C3 2436   3.158   2.237   1.289  0.5254  0.5512  0.2891
  160TMC2    C4 2437   3.080   2.033   1.129  0.5847  0.3207 -0.0593
  160TMC2    C5 2438   3.210   2.079   1.125  0.8880 -0.2371  0.0301
  160TMC2    C6 2439   3.246   2.186   1.200 -0.3490  0.2418  0.4387
  160TMC2     C 2440   2.846   2.065   1.198  0.4062  0.0151 -0.4327
  160TMC2     O 2441   2.827   1.955   1.148 -0.5478  0.1803 -0.4358
  160TMC2     H 2442   2.957   2.247   1.356 -1.8749 -1.5424 -1.1077
  160TMC2    H1 2443   3.050   1.944   1.075 -1.6333  1.8800 -1.4426
  160TMC2    H2 2444   3.349   2.216   1.214 -0.5510  0.2928  1.7817
  160TMC2    C7 2445   3.292   2.058   1.005  0.5982  0.4762  0.4332
  160TMC2    C8 2446   3.218   2.320   1.387 -0.6332  0.3920 -0.2908
  160TMC2    O1 2447   3.238   1.986   0.921 -0.5565 -0.4440 -0.0218
  160TMC2    O2 2448   3.331   2.373   1.374  0.4333  0.1900  0.4942
  160TMC2    O5 2449   3.180   2.274   1.506 -0.3663 -0.1076  0.5878
  160TMC2    H5 2450   3.101   2.216   1.511  0.9545 -2.0573 -1.1813
  161MPD2     C 2451   2.548   2.074   1.254 -0.2435 -0.3665  0.3507
  161MPD2    C1 2452   2.635   2.174   1.269 -0.2632  0.8723 -0.0414
  161MPD2    C2 2453   2.589   2.295   1.309  0.0787  0.1810  0.2300
  161MPD2    C3 2454   2.454   2.327   1.332  0.4355  0.4670  0.6130
  161MPD2    C4 2455   2.365   2.225   1.313  0.1321 -0.0423  0.1336
  161MPD2    C5 2456   2.414   2.099   1.276 -0.0223  1.2329  0.6985
  161MPD2     H 2457   2.651   2.385   1.311 -0.4672  0.5210  1.9614
  161MPD2    H1 2458   2.260   2.238   1.332  0.0148  0.3218 -0.7421
  161MPD2    H2 2459   2.580   1.977   1.218 -0.9434 -0.2484 -0.5870
  161MPD2    H3 2460   2.346   2.014   1.282 -1.2567  2.0839 -1.1358
  161MPD2     N 2461   2.411   2.444   1.390  0.4045  0.4705 -0.9910
  161MPD2    H5 2462   2.313   2.448   1.416  0.1650  1.1646 -1.9650
  161MPD2    N1 2463   2.770   2.167   1.235 -0.2590  0.0239 -0.4566
  161MPD2    H7 2464   2.823   2.252   1.250 -0.3346  0.3853 -2.2257
  162TMC2    C1 2465   2.038   0.077   0.637 -0.3370  0.6860 -0.1700
  162TMC2    C2 2466   1.968   0.179   0.581  0.0959 -1.0668  0.6840
  162TMC2    C3 2467   1.930   0.280   0.660  0.4974  0.0587 -0.7933
  162TMC2    C4 2468   2.084   0.078   0.766  0.2304 -0.6216  0.2196
  162TMC2    C5 2469   2.050   0.187   0.841  0.3391  0.5518  0.6575
  162TMC2    C6 2470   1.975   0.291   0.788 -0.2854 -0.6770 -0.2265
  162TMC2     C 2471   2.032   4.667   0.574  0.0028 -0.8112  0.4247
  162TMC2     O 2472   2.122   4.588   0.598 -0.7333  0.2593  0.2535
  162TMC2     H 2473   1.941   0.164   0.478 -0.0161  1.0031  0.3998
  162TMC2    H1 2474   2.128   4.709   0.804  1.5672 -1.4421 -3.2210
  162TMC2    H2 2475   1.932   0.365   0.854  0.4665  0.4979 -1.0643
  162TMC2    C7 2476   2.048   0.183   0.983 -0.6245  0.8163  0.8011
  162TMC2    C8 2477   1.839   0.390   0.616  0.3659  0.3332  0.3629
  162TMC2    O1 2478   2.032   0.277   1.055 -0.7714 -0.0279 -0.0280
  162TMC2    O2 2479   1.815   0.484   0.690  0.1478  0.1584  0.3609
  162TMC2    O5 2480   1.841   0.399   0.479 -0.2848 -0.0238 -0.3182
  162TMC2    H5 2481   1.860   0.317   0.430 -0.0530 -0.8061  1.0797
  163MPD2     C 2482   1.759   4.269   0.406  0.1625  0.1818  0.4236
  163MPD2    C1 2483   1.877   4.272   0.467  0.8097 -0.0396  0.2539
  163MPD2    C2 2484   1.934   4.391   0.498  0.3384  0.0513  0.1001
  163MPD2    C3 2485   1.870   4.509   0.473  0.1699  0.2369  0.7143
  163MPD2    C4 2486   1.743   4.506   0.416  0.3376 -0.4846  0.1033
  163MPD2    C5 2487   1.692   4.386   0.387  0.4190  0.4553  0.3451
  163MPD2     H 2488   2.033   4.399   0.542 -0.5264 -2.1799  2.3811
  163MPD2    H1 2489   1.685   4.598   0.414  0.8041 -0.1849  0.2029
  163MPD2    H2 2490   1.710   4.176   0.380  1.1803 -0.9617  2.6926
  163MPD2    H3 2491   1.594   4.382   0.341  1.3028  0.2261 -1.5109
  163MPD2     N 2492   1.912   4.645   0.512  0.1491  0.1956 -0.5133
  163MPD2    H5 2493   1.842   4.719   0.510  0.9525  0.9946  1.2671
  163MPD2    N1 2494   1.936   4.144   0.501  0.0918 -0.0111  0.4817
  163MPD2    H7 2495   1.895   4.061   0.458 -3.6742  1.5145  1.1048
  164TCq2    C1 2496   1.825   3.794  11.540  0.1881 -0.2689 -0.0486
  164TCq2    O2 2497   1.745   3.765  11.628  0.0127 -0.0733 -0.0852
  164TCq2    C2 2498   1.810   3.920  11.472  0.2842 -0.6397  0.2633
  164TCq2    C3 2499   1.892   3.953  11.367  1.3857  0.3710  0.5307
  164TCq2    C4 2500   1.840   4.035  11.268 -0.2371 -0.1983 -0.7485
  164TCq2    C5 2501   1.720   4.094  11.275 -0.4804  0.0998  0.1574
  164TCq2    C6 2502   1.648   4.073  11.393  0.6087  0.1825  0.7662
  164TCq2    C7 2503   1.687   3.985  11.488  0.0782 -0.0636 -0.3588
  164TCq2    C8 2504   1.503   4.104  11.391 -0.5012 -0.5611  0.0999
  164TCq2    O4 2505   1.458   4.132  11.281  0.1626  0.2799  0.0833
  164TCq2    C9 2506   1.922   4.049  11.149  0.3706  0.0196 -0.1834
  164TCq2    O5 2507   2.025   3.971  11.139 -0.4329  0.5984 -0.5813
  164TCq2    O6 2508   1.895   4.143  11.070 -0.7941  0.1832 -0.2404
  164TCq2    H2 2509   1.990   3.911  11.348  0.0029 -2.1837 -1.0912
  164TCq2    H3 2510   1.671   4.148  11.194 -1.1830 -0.0441  0.4868
  164TCq2    H4 2511   1.628   3.948  11.571 -0.0966  1.2166  0.0953
  165MPD2     C 2512   2.184   1.649   1.370 -0.7543 -0.1280 -1.0911
  165MPD2    C1 2513   2.278   1.557   1.349 -0.3087 -0.3469 -0.0522
  165MPD2    C2 2514   2.405   1.590   1.389  0.3482  0.2315 -0.4102
  165MPD2    C3 2515   2.437   1.713   1.436 -0.3475  0.1117  0.0082
  165MPD2    C4 2516   2.334   1.805   1.468 -0.8338  0.4419 -0.5046
  165MPD2    C5 2517   2.203   1.768   1.432  0.1626  0.0851 -0.5099
  165MPD2     H 2518   2.480   1.511   1.388 -0.0717 -0.1590 -1.1606
  165MPD2    H1 2519   2.347   1.905   1.506  2.3913  0.2750 -1.2291
  165MPD2    H2 2520   2.084   1.630   1.331 -1.0463 -0.2497 -0.2853
  165MPD2    H3 2521   2.122   1.839   1.438  0.9596  0.6179  3.6556
  165MPD2     N 2522   2.572   1.754   1.462  0.0568  0.2370 -0.2340
  165MPD2    H5 2523   2.580   1.844   1.509  0.0721  0.3252 -0.4068
  165MPD2    N1 2524   2.248   1.430   1.295 -0.5146 -0.1903  0.0239
  165MPD2    H7 2525   2.156   1.416   1.253 -0.4444  1.0220 -0.5140
  166TCq2    C1 2526   2.687   1.688   1.419  0.4763  0.0181 -0.6088
  166TCq2    O2 2527   2.704   1.588   1.354 -0.1581  0.0733 -0.0002
  166TCq2    C2 2528   2.808   1.741   1.484  1.3783  0.4572 -0.3299
  166TCq2    C3 2529   2.803   1.858   1.554 -0.1356  0.1943 -0.0251
  166TCq2    C4 2530   2.908   1.941   1.565 -0.7059 -0.8250 -1.0389
  166TCq2    C5 2531   3.025   1.916   1.496 -0.6480  0.4291 -0.4145
  166TCq2    C6 2532   3.037   1.801   1.428 -0.4380  0.1465 -0.7680
  166TCq2    C7 2533   2.928   1.714   1.415 -0.2054  0.4869 -0.2110
  166TCq2    C8 2534   3.157   1.782   1.336  0.7560  0.0612  0.7995
  166TCq2    O4 2535   3.250   1.859   1.359  0.3040 -0.0441  0.6034
  166TCq2    C9 2536   2.883   2.071   1.620 -0.8864 -0.2931  1.4125
  166TCq2    O5 2537   2.960   2.162   1.569  0.3876 -0.7618 -0.6637
  166TCq2    O6 2538   2.781   2.085   1.689 -0.2042  0.2524 -0.6638
  166TCq2    H2 2539   2.707   1.877   1.601 -0.5037 -0.7623 -0.3863
  166TCq2    H3 2540   3.104   1.989   1.482  0.8699 -1.3855 -1.2881
  166TCq2    H4 2541   2.933   1.625   1.352 -0.5352 -0.8109  1.6131
  167TMC2    C1 2542   1.310   3.608  13.083 -0.0666  0.4787  0.2265
  167TMC2    C2 2543   1.284   3.568  13.209 -0.7456  0.0150  0.3620
  167TMC2    C3 2544   1.309   3.436  13.246  1.1202 -0.4712  0.2865
  167TMC2    C4 2545   1.374   3.524  12.989 -0.1404  0.5354 -0.1153
  167TMC2    C5 2546   1.412   3.399  13.035 -0.0394  0.1550  0.7590
  167TMC2    C6 2547   1.374   3.354  13.158  0.6216  0.7761 -0.6046
  167TMC2     C 2548   1.250   3.743  13.051 -0.3167  0.2639 -0.1105
  167TMC2     O 2549   1.260   3.821  13.142  0.0836 -0.3193 -0.4324
  167TMC2     H 2550   1.230   3.634  13.276 -0.7680 -0.6384  0.9831
  167TMC2    H1 2551   1.386   3.560  12.887  1.7158 -0.3357 -0.1950
  167TMC2    H2 2552   1.410   3.265  13.206 -1.2000  0.2091 -0.2896
  167TMC2    C7 2553   1.480   3.313  12.945 -0.7401 -0.2860  0.0086
  167TMC2    C8 2554   1.289   3.385  13.382  0.3393 -0.3398 -0.3593
  167TMC2    O1 2555   1.548   3.363  12.856 -0.9768 -0.5360  0.4335
  167TMC2    O2 2556   1.272   3.259  13.399 -0.0052  0.0726 -0.2271
  167TMC2    O5 2557   1.361   3.471  13.463  0.1337 -0.2628  0.4367
  167TMC2    H5 2558   1.378   3.562  13.432 -2.6378  0.1146  0.0050
  168MPD2     C 2559   1.218   4.003  12.911  0.4462  0.6286  0.2649
  168MPD2    C1 2560   1.201   3.879  12.852 -0.4514  0.1593  0.0993
  168MPD2    C2 2561   1.147   3.867  12.725  0.5970  0.1785  0.2933
  168MPD2    C3 2562   1.111   3.980  12.654  0.0644 -0.3639 -0.1771
  168MPD2    C4 2563   1.132   4.101  12.711  0.5255 -0.0081 -0.8024
  168MPD2    C5 2564   1.189   4.113  12.834 -0.0693 -0.1978 -0.2522
  168MPD2     H 2565   1.140   3.771  12.675  0.9572  0.2440  0.1187
  168MPD2    H1 2566   1.111   4.188  12.650 -1.0761 -0.3409 -0.7141
  168MPD2    H2 2567   1.263   4.027  13.006  1.6220  0.2938 -0.2149
  168MPD2    H3 2568   1.209   4.214  12.868  1.1459  0.1020 -1.8526
  168MPD2     N 2569   1.059   3.961  12.530  0.0085 -0.5395  0.5539
  168MPD2    H5 2570   1.048   3.865  12.501  0.0672 -0.4710  0.3046
  168MPD2    N1 2571   1.226   3.760  12.916 -0.4805  0.0307 -0.1334
  168MPD2    H7 2572   1.211   3.675  12.863  0.5247 -1.0671  1.3446
  169MPD1     C 2573   3.546   1.623  10.418 -0.0368  0.4790 -0.3621
  169MPD1    C1 2574   3.517   1.564  10.295 -0.1942  0.0907  0.7556
  169MPD1    C2 2575   3.621   1.552  10.205 -0.4362 -0.3381  0.0073
  169MPD1    C3 2576   3.740   1.611  10.224 -0.3378 -0.0016  0.3610
  169MPD1    C4 2577   3.766   1.679  10.344 -0.2121  0.5014  0.2768
  169MPD1    C5 2578   3.669   1.683  10.438 -0.1454  0.3439 -0.2955
  169MPD1     H 2579   3.609   1.499  10.111 -0.5322  0.0952 -0.2244
  169MPD1    H1 2580   3.863   1.725  10.361 -0.0985  0.5480 -0.4789
  169MPD1    H2 2581   3.473   1.614  10.497 -0.9152 -0.0324 -1.2433
  169MPD1    H3 2582   3.676   1.725  10.537 -0.4467  0.9978 -0.5494
  169MPD1     N 2583   3.837   1.599  10.121 -0.0026  0.2896  0.1383
  169MPD1    H5 2584   3.798   1.563  10.035 -0.8449 -0.4844  0.8416
  169MPD1    N1 2585   3.401   1.487  10.285  0.3755  1.3081  0.0272
  169MPD1    H6 2586   3.370   1.487  10.188  2.0529  0.4067 -0.5150
  169MPD1    H7 2587   3.324   1.528  10.336 -3.7779 -1.7462 -3.8189
  170MPD1     C 2588   2.158   0.236  13.096 -0.3222  0.2548  0.1279
  170MPD1    C1 2589   2.109   0.362  13.098 -0.0701  0.1020  0.1281
  170MPD1    C2 2590   2.120   0.444  13.207  0.0534  0.2899 -0.9918
  170MPD1    C3 2591   2.188   0.398  13.323  0.2540 -0.4390  0.5467
  170MPD1    C4 2592   2.254   0.272  13.314  0.0504  0.6418 -0.0537
  170MPD1    C5 2593   2.231   0.199  13.203  0.1838  0.0675 -0.1016
  170MPD1     H 2594   2.078   0.544  13.207 -0.9277 -0.1255 -1.0845
  170MPD1    H1 2595   2.318   0.229  13.390 -0.8294 -0.3275  0.1316
  170MPD1    H2 2596   2.136   0.170  13.013 -1.4215  1.0046 -0.1752
  170MPD1    H3 2597   2.267   0.096  13.203 -2.7376 -0.9403  2.5279
  170MPD1     N 2598   2.210   0.496  13.421 -0.6495  0.4787 -0.5529
  170MPD1    H5 2599   2.172   0.589  13.407 -2.1841 -0.2117 -0.9940
  170MPD1    N1 2600   2.014   0.398  13.004 -0.4684 -0.5493 -0.5425
  170MPD1    H6 2601   2.049   0.363  12.915  3.6131  1.0480  0.4187
  170MPD1    H7 2602   2.003   0.499  12.997 -0.3861 -0.3634  2.1959
  171MPD1     C 2603   0.976   2.064  15.388 -0.3237 -0.6296  0.2578
  171MPD1    C1 2604   1.050   1.980  15.311  0.7209 -0.2026 -0.3032
  171MPD1    C2 2605   1.037   1.843  15.334  0.3302  0.2893 -0.1675
  171MPD1    C3 2606   0.952   1.804  15.439  0.4093  0.7853  0.8691
  171MPD1    C4 2607   0.881   1.893  15.510 -0.6878  0.2617 -0.1126
  171MPD1    C5 2608   0.892   2.025  15.488 -0.4669  0.6786 -0.1782
  171MPD1     H 2609   1.090   1.782  15.262  0.4419  1.2138 -0.8756
  171MPD1    H1 2610   0.806   1.860  15.582  0.9823 -2.5179  0.3682
  171MPD1    H2 2611   0.982   2.172  15.380  1.0286 -0.8326 -1.5413
  171MPD1    H3 2612   0.840   2.091  15.556 -0.2368  1.0010 -0.3165
  171MPD1     N 2613   0.938   1.671  15.472 -0.2330 -0.8793  0.0524
  171MPD1    H5 2614   0.890   1.650  15.560  2.3967 -0.1855  1.6391
  171MPD1    N1 2615   1.123   2.030  15.203 -0.1909 -0.4877 -0.2271
  171MPD1    H6 2616   1.193   1.961  15.174  3.2166  2.0571  1.8325
  171MPD1    H7 2617   1.162   2.124  15.207 -1.5636 -0.1094  4.1720
  172MPD1     C 2618   0.381   1.001  17.513 -0.3352 -0.0125 -0.1980
  172MPD1    C1 2619   0.304   1.112  17.475 -0.2055  0.0291  0.5342
  172MPD1    C2 2620   0.342   1.236  17.505 -0.2400  0.2157  0.7180
  172MPD1    C3 2621   0.456   1.261  17.588 -0.5988  0.5919 -0.3360
  172MPD1    C4 2622   0.531   1.148  17.636  0.3095 -0.1952  0.1875
  172MPD1    C5 2623   0.499   1.024  17.591 -0.0189  0.5526  0.1284
  172MPD1     H 2624   0.278   1.310  17.458 -0.4903 -0.1494  0.4868
  172MPD1    H1 2625   0.616   1.175   0.003 -1.2127 -0.3835  2.3942
  172MPD1    H2 2626   0.351   0.900  17.488 -1.3848 -0.0924  1.4254
  172MPD1    H3 2627   0.556   0.940  17.629 -0.7542  0.0238  0.0828
  172MPD1     N 2628   0.510   1.386  17.620  0.4389  0.6737 -0.2629
  172MPD1    H5 2629   0.595   1.384  17.675  0.7247  0.0543 -0.7188
  172MPD1    N1 2630   0.202   1.095  17.380  0.6387 -0.6853 -0.3107
  172MPD1    H6 2631   0.175   0.997  17.377 -2.4809  0.1436  0.9253
  172MPD1    H7 2632   0.132   1.169  17.380  1.0336 -0.3107  0.6646
  173MPD1     C 2633   1.306   0.890  14.381  0.5674  0.4551  0.0430
  173MPD1    C1 2634   1.333   0.775  14.312  0.1940 -0.5857  0.2983
  173MPD1    C2 2635   1.314   0.656  14.376 -0.2641 -0.4930 -0.0473
  173MPD1    C3 2636   1.303   0.652  14.516  0.2685  0.0675  0.0022
  173MPD1    C4 2637   1.292   0.772  14.584 -0.4612 -0.6095  0.1370
  173MPD1    C5 2638   1.298   0.888  14.512  0.2859  0.7100 -0.0011
  173MPD1     H 2639   1.325   0.559  14.329 -0.7345 -0.3186 -0.5180
  173MPD1    H1 2640   1.289   0.771  14.692 -0.2010 -1.9610  0.1407
  173MPD1    H2 2641   1.320   0.990  14.343 -1.3700  0.6067 -0.2688
  173MPD1    H3 2642   1.303   0.980  14.570 -0.5075  0.3919  0.5815
  173MPD1     N 2643   1.310   0.525  14.580 -0.7202 -0.6667 -0.0484
  173MPD1    H5 2644   1.305   0.444  14.518 -0.7638  0.6172 -1.7252
  173MPD1    N1 2645   1.346   0.787  14.173  0.3745  0.0863  0.2726
  173MPD1    H6 2646   1.385   0.706  14.126 -0.8678 -0.0252 -0.5535
  173MPD1    H7 2647   1.389   0.874  14.142 -0.4697  0.4642  0.1673
  174MPD1     C 2648   1.339   4.237  14.590 -0.1715 -0.1314  0.1996
  174MPD1    C1 2649   1.407   4.335  14.520 -0.3037  0.0886 -1.3200
  174MPD1    C2 2650   1.375   4.470  14.551 -0.3588 -0.3647 -0.4128
  174MPD1    C3 2651   1.269   4.500  14.633 -0.5649  1.0294 -0.2575
  174MPD1    C4 2652   1.195   4.403  14.693  0.6666  0.4774 -0.1044
  174MPD1    C5 2653   1.235   4.273  14.678 -0.6463 -0.3269 -0.1941
  174MPD1     H 2654   1.440   4.546  14.509 -1.8363  1.8929  1.4387
  174MPD1    H1 2655   1.109   4.427  14.754  1.0072  1.5058 -0.0278
  174MPD1    H2 2656   1.361   4.131  14.578 -1.1093 -0.6295  2.8819
  174MPD1    H3 2657   1.184   4.192  14.728 -1.6713  0.5211  0.1201
  174MPD1     N 2658   1.230   4.632  14.668 -0.2208  0.2307  0.2279
  174MPD1    H5 2659   1.149   4.638  14.729 -0.2163 -1.3034  0.3895
  174MPD1    N1 2660   1.522   4.298  14.446  0.5512 -0.2358  0.3000
  174MPD1    H6 2661   1.559   4.362  14.376 -1.8337  0.5525 -0.2471
  174MPD1    H7 2662   1.506   4.205  14.408 -1.0959  0.0596  0.2558
  175MPD1     C 2663   4.409   1.405  15.280  0.1685 -0.0830  0.7789
  175MPD1    C1 2664   4.374   1.535  15.298  0.4135  0.1117 -0.0424
  175MPD1    C2 2665   4.367   1.586  15.423  0.7161  0.2481  0.3449
  175MPD1    C3 2666   4.398   1.509  15.531 -0.8769 -0.0152 -0.9698
  175MPD1    C4 2667   4.426   1.374  15.510  0.2083 -0.3789  0.3020
  175MPD1    C5 2668   4.443   1.324  15.382  0.2163  0.3655 -0.6446
  175MPD1     H 2669   4.342   1.689  15.446 -0.7321  0.2134 -1.0877
  175MPD1    H1 2670   4.443   1.302  15.588 -0.0848 -0.7816 -0.0033
  175MPD1    H2 2671   4.399   1.362  15.181  2.2511  3.0936 -0.7636
  175MPD1    H3 2672   4.471   1.222  15.356 -0.3870 -0.0918  0.5049
  175MPD1     N 2673   4.393   1.559  15.669  0.3651 -0.0492 -0.2053
  175MPD1    H5 2674   4.412   1.487  15.738 -0.2759  0.3486  0.3831
  175MPD1    N1 2675   4.319   1.608  15.187 -1.0384  0.6140 -0.5979
  175MPD1    H6 2676   4.324   1.710  15.189 -2.6152  0.7206 -2.0774
  175MPD1    H7 2677   4.371   1.588  15.103 -0.2626 -0.6667  0.1968
  176MPD1     C 2678   1.432   3.035  16.229 -0.4227  0.2451 -0.0820
  176MPD1    C1 2679   1.529   2.972  16.311  0.0979  0.3703  0.2484
  176MPD1    C2 2680   1.618   3.039  16.387 -0.5731  0.1389  0.4588
  176MPD1    C3 2681   1.606   3.175  16.388 -0.2882 -0.0920  0.6873
  176MPD1    C4 2682   1.510   3.241  16.312  0.1737 -0.3408 -0.6051
  176MPD1    C5 2683   1.429   3.171  16.227 -0.0133 -0.4731 -0.2305
  176MPD1     H 2684   1.687   2.986  16.452  0.3207  0.4359 -0.2330
  176MPD1    H1 2685   1.492   3.347  16.299 -0.1813 -0.5385 -1.7968
  176MPD1    H2 2686   1.384   2.979  16.149  0.8712  1.5868 -1.8232
  176MPD1    H3 2687   1.371   3.232  16.159  0.6981  1.0073  0.5002
  176MPD1     N 2688   1.695   3.251  16.474  0.0239  0.2489  0.1559
  176MPD1    H5 2689   1.760   3.197  16.530 -1.2182 -0.8957  0.5009
  176MPD1    N1 2690   1.544   2.834  16.283 -0.1204  0.1217 -0.4597
  176MPD1    H6 2691   1.545   2.788  16.374 -1.2641 -1.2380 -1.1420
  176MPD1    H7 2692   1.462   2.801  16.232 -1.1660  0.3554  1.0781
  177MPD1     C 2693   0.099   2.822  10.627 -0.3785  0.1429 -0.1543
  177MPD1    C1 2694   0.015   2.755  10.549 -0.9849 -0.3791  0.3705
  177MPD1    C2 2695   4.713   2.811  10.419 -0.3285 -0.1710 -0.0292
  177MPD1    C3 2696   0.058   2.931  10.376  0.2544  0.1435 -0.3654
  177MPD1    C4 2697   0.148   2.992  10.462 -0.1591 -0.2558 -0.7717
  177MPD1    C5 2698   0.164   2.937  10.588 -0.3727 -0.7266  0.4727
  177MPD1     H 2699   4.655   2.753  10.348 -1.2886  3.2979 -2.0570
  177MPD1    H1 2700   0.204   3.081  10.437  1.3785 -0.8792  0.4474
  177MPD1    H2 2701   0.128   2.791  10.727  2.2249  1.8794 -0.3693
  177MPD1    H3 2702   0.233   2.975  10.662  0.0960 -1.6379  0.5014
  177MPD1     N 2703   0.043   2.978  10.243 -0.7259  0.5119  0.6030
  177MPD1    H5 2704   4.708   2.917  10.186  1.4090 -0.3289 -0.6797
  177MPD1    N1 2705   4.701   2.627  10.579  0.4494  0.0612 -0.8065
  177MPD1    H6 2706   4.613   2.604  10.533 -0.2917  1.5202 -0.0923
  177MPD1    H7 2707   4.684   2.612  10.678 -0.8342  0.1722 -1.0121
  178MPD1     C 2708   2.232   4.669   0.282 -0.4045 -0.2030  0.0576
  178MPD1    C1 2709   2.338   4.582   0.318 -0.3362  0.5051 -0.1401
  178MPD1    C2 2710   2.419   4.534   0.227 -0.6794 -0.5567 -0.0476
  178MPD1    C3 2711   2.402   4.572   0.088  0.6964 -0.2427  0.5578
  178MPD1    C4 2712   2.305   4.667   0.055  0.1847  0.3854  1.0318
  178MPD1    C5 2713   2.222   4.703   0.147 -0.2073  1.3762 -0.4930
  178MPD1     H 2714   2.496   4.463   0.255  0.3412  1.3001  1.8556
  178MPD1    H1 2715   2.303   4.710  17.650  0.0957  0.0975  0.9064
  178MPD1    H2 2716   2.168   4.720   0.354 -0.3425  0.8891 -0.6564
  178MPD1    H3 2717   2.141   0.044   0.113 -0.0768  2.1973  0.7319
  178MPD1     N 2718   2.493   4.534  17.682 -0.2793  0.3009 -0.1956
  178MPD1    H5 2719   2.484   4.578  17.592  2.1782  0.2863 -0.4465
  178MPD1    N1 2720   2.363   4.555   0.450  0.0096 -0.5246 -0.3257
  178MPD1    H6 2721   2.396   4.461   0.468  0.4875 -0.5721 -1.4441
  178MPD1    H7 2722   2.276   4.565   0.503  0.6716 -2.0287  1.0289
  179MPD1     C 2723   2.188   2.962  15.372 -0.1402 -0.7459  0.2782
  179MPD1    C1 2724   2.126   2.889  15.274 -1.1541  0.0775  0.2624
  179MPD1    C2 2725   2.086   2.761  15.312  0.4568  0.0049 -0.0937
  179MPD1    C3 2726   2.098   2.715  15.445 -0.2746 -0.2461 -0.1897
  179MPD1    C4 2727   2.159   2.801  15.536  0.4338  0.2844  0.2430
  179MPD1    C5 2728   2.198   2.920  15.499  1.1369  0.3439  0.0203
  179MPD1     H 2729   2.035   2.703  15.237  1.7351 -0.0081 -0.9604
  179MPD1    H1 2730   2.153   2.788  15.643 -0.8445 -1.3812 -0.0386
  179MPD1    H2 2731   2.219   3.063  15.350  0.5421 -1.3146 -1.4006
  179MPD1    H3 2732   2.230   2.990  15.576  0.9273 -1.3469  1.6320
  179MPD1     N 2733   2.059   2.593  15.490  0.6011 -0.8684  0.1499
  179MPD1    H5 2734   2.085   2.570  15.585 -0.6738  1.1959  1.0091
  179MPD1    N1 2735   2.110   2.945  15.145  0.0320  0.3630 -0.2990
  179MPD1    H6 2736   2.193   2.999  15.119 -0.6320  1.0490 -1.0154
  179MPD1    H7 2737   2.091   2.876  15.072  1.0561  1.2730 -1.4194
  180MPD1     C 2738   2.574   4.227  15.787 -0.3691  0.1040  0.0969
  180MPD1    C1 2739   2.448   4.262  15.747  0.6749  0.5734  0.4266
  180MPD1    C2 2740   2.408   4.265  15.614  0.5800  0.0873  0.2661
  180MPD1    C3 2741   2.499   4.238  15.511 -0.1027 -0.3445  0.4630
  180MPD1    C4 2742   2.624   4.206  15.553 -0.5125  0.3172 -0.7222
  180MPD1    C5 2743   2.660   4.189  15.682 -1.1764  0.2570  0.0676
  180MPD1     H 2744   2.305   4.292  15.591  0.7514 -1.1457 -1.9594
  180MPD1    H1 2745   2.700   4.175  15.482  1.0070  0.1038  0.9970
  180MPD1    H2 2746   2.620   4.206  15.884  0.0247  1.1605  0.1398
  180MPD1    H3 2747   2.763   4.156  15.695 -0.4798  2.4165  0.0164
  180MPD1     N 2748   2.467   4.232  15.375  0.2734 -0.4297  0.3810
  180MPD1    H5 2749   2.543   4.232  15.308 -0.0598  1.9802  0.0029
  180MPD1    N1 2750   2.348   4.277  15.845 -0.3452 -0.5400 -0.3004
  180MPD1    H6 2751   2.397   4.305  15.929  2.2190 -1.1206 -1.6055
  180MPD1    H7 2752   2.279   4.344  15.810 -1.0704 -1.6266 -0.9565
  181MPD1     C 2753   4.701   1.149   9.631 -0.7504 -0.0813  0.0008
  181MPD1    C1 2754   0.049   1.036   9.598 -0.3841  0.4479 -0.3721
  181MPD1    C2 2755   4.722   0.908   9.623  0.7257 -0.0176 -0.0378
  181MPD1    C3 2756   4.605   0.892   9.706 -0.2914  0.4191 -0.2807
  181MPD1    C4 2757   4.543   1.005   9.750  0.4928 -0.3800  0.4189
  181MPD1    C5 2758   4.585   1.133   9.703 -0.2851 -1.0400  0.3352
  181MPD1     H 2759   0.047   0.828   9.568  0.6179 -0.7359  0.8954
  181MPD1    H1 2760   4.452   0.999   9.808  0.6676  1.0282  0.8390
  181MPD1    H2 2761   0.010   1.249   9.607 -1.5066  0.3142  0.6332
  181MPD1    H3 2762   4.527   1.219   9.735  1.2135  0.1736 -0.2704
  181MPD1     N 2763   4.545   0.762   9.732  0.0587 -0.2174  0.3116
  181MPD1    H5 2764   4.463   0.758   9.792 -1.0838  0.5073 -1.2002
  181MPD1    N1 2765   0.155   1.052   9.504  0.3519  0.6420 -0.5828
  181MPD1    H6 2766   0.207   0.965   9.492  2.6049  2.2047 -2.0310
  181MPD1    H7 2767   0.211   1.125   9.547 -0.0980  0.6054  0.0666
  182MPD1     C 2768   4.659   1.201   1.515 -0.0934 -0.7899  0.5878
  182MPD1    C1 2769   0.048   1.139   1.464 -0.3205  0.2387 -0.3345
  182MPD1    C2 2770   0.042   1.074   1.342  0.0993  0.1824 -0.2510
  182MPD1    C3 2771   4.641   1.071   1.281 -0.1300  0.1597 -0.0750
  182MPD1    C4 2772   4.532   1.131   1.339  0.5442  0.1813 -1.2445
  182MPD1    C5 2773   4.537   1.192   1.461 -0.6811  0.2018 -0.0366
  182MPD1     H 2774   0.127   1.033   1.289  0.4052  1.8394 -1.0445
  182MPD1    H1 2775   4.434   1.114   1.297  0.0393 -0.1540  0.0682
  182MPD1    H2 2776   4.670   1.256   1.608 -0.0372 -0.7983  0.5864
  182MPD1    H3 2777   4.450   1.233   1.509 -0.0008  1.1322  0.3983
  182MPD1     N 2778   4.615   1.022   1.150  0.2442 -0.2098  0.7657
  182MPD1    H5 2779   4.525   1.041   1.106  0.3285  2.7705  1.8976
  182MPD1    N1 2780   0.175   1.164   1.515  0.8938 -0.1677 -0.2957
  182MPD1    H6 2781   0.180   1.187   1.614 -1.1461 -2.5098  0.3557
  182MPD1    H7 2782   0.237   1.084   1.507 -0.2939 -1.1729  0.5943
  183MPD1     C 2783   1.287   0.800   9.790 -0.6980 -0.4881  0.7078
  183MPD1    C1 2784   1.180   0.842   9.866 -0.1805  0.0050 -0.3944
  183MPD1    C2 2785   1.059   0.878   9.804  0.3180  0.0786 -0.5163
  183MPD1    C3 2786   1.047   0.849   9.665  0.5033 -0.3057  0.1313
  183MPD1    C4 2787   1.156   0.808   9.596  0.4434 -0.3707 -0.3003
  183MPD1    C5 2788   1.277   0.781   9.655 -0.4380  0.0693 -0.3074
  183MPD1     H 2789   0.972   0.921   9.852  1.7188  2.2008  0.1216
  183MPD1    H1 2790   1.157   0.799   9.488  4.3015  1.2083 -0.4249
  183MPD1    H2 2791   1.384   0.781   9.834 -0.2325  1.8773  0.6688
  183MPD1    H3 2792   1.355   0.731   9.598  1.0343  0.3171  1.4696
  183MPD1     N 2793   0.924   0.881   9.611 -0.1801 -0.2265 -0.1787
  183MPD1    H5 2794   0.850   0.904   9.676 -1.9284  0.8349 -2.5096
  183MPD1    N1 2795   1.202   0.878  10.001 -0.3016  0.4816  0.3864
  183MPD1    H6 2796   1.122   0.886  10.064 -0.2037  1.6974  0.3546
  183MPD1    H7 2797   1.284   0.848  10.054 -0.0109  0.1777 -0.2333
  184MPD1     C 2798   3.655   2.101  10.634  0.7231 -0.9933 -0.4902
  184MPD1    C1 2799   3.792   2.116  10.645  0.6078  0.1306 -0.1811
  184MPD1    C2 2800   3.854   2.195  10.547 -0.1534 -0.1639  0.0371
  184MPD1    C3 2801   3.784   2.246  10.439 -0.3721 -0.1546 -0.6353
  184MPD1    C4 2802   3.646   2.227  10.432 -0.3891  0.1495 -0.3400
  184MPD1    C5 2803   3.582   2.156  10.528 -0.4344  0.7100  0.4339
  184MPD1     H 2804   3.960   2.214  10.557 -0.5176  1.3982  0.8743
  184MPD1    H1 2805   3.587   2.244  10.343  2.3044  1.9805 -1.7867
  184MPD1    H2 2806   3.611   2.043  10.714  0.8833  2.6939  2.2452
  184MPD1    H3 2807   3.476   2.141  10.514 -0.6539  0.5853  2.2451
  184MPD1     N 2808   3.849   2.298  10.329 -0.3538  0.6389  0.8925
  184MPD1    H5 2809   3.793   2.313  10.245  1.2505 -2.0722 -0.6276
  184MPD1    N1 2810   3.864   2.078  10.761 -0.1895  0.0796  0.8934
  184MPD1    H6 2811   3.946   2.024  10.736  0.2197  1.5100 -0.8523
  184MPD1    H7 2812   3.805   2.013  10.813 -0.7647 -0.5895 -0.5911
  185MPD1     C 2813   3.714   1.885   9.595  0.0567 -1.0435  0.3549
  185MPD1    C1 2814   3.814   1.968   9.556  0.0566  0.0491  0.0002
  185MPD1    C2 2815   3.842   2.072   9.645 -0.0235 -0.0001 -0.0454
  185MPD1    C3 2816   3.785   2.093   9.771  0.1328 -0.3161  0.3547
  185MPD1    C4 2817   3.690   2.000   9.807  0.1691  0.2421 -0.7658
  185MPD1    C5 2818   3.656   1.898   9.721 -0.4914 -0.1840 -0.2084
  185MPD1     H 2819   3.912   2.146   9.607 -0.1620 -1.0913 -2.3699
  185MPD1    H1 2820   3.656   1.999   9.910 -0.4946  2.4267 -0.9827
  185MPD1    H2 2821   3.675   1.806   9.532 -1.0304  0.7234 -1.1990
  185MPD1    H3 2822   3.575   1.832   9.749 -2.2001  1.9621 -0.1375
  185MPD1     N 2823   3.822   2.187   9.868  0.6022  0.7063 -0.2271
  185MPD1    H5 2824   3.761   2.193   9.949  0.4330  0.6411 -0.3511
  185MPD1    N1 2825   3.858   1.977   9.423  0.2241  0.7063  0.1068
  185MPD1    H6 2826   3.957   2.002   9.422  0.4308 -0.0886  1.3034
  185MPD1    H7 2827   3.852   1.891   9.370  1.1411  1.6539 -1.5595
  186MPD1     C 2828   2.202   3.295  15.535  0.1560 -0.3136 -0.6520
  186MPD1    C1 2829   2.145   3.325  15.654 -0.4188 -0.1371 -0.1789
  186MPD1    C2 2830   2.200   3.291  15.774  0.0036 -0.1287  0.3518
  186MPD1    C3 2831   2.325   3.232  15.781 -0.6469 -0.0231  0.0145
  186MPD1    C4 2832   2.379   3.196  15.655  0.4992  0.2667  0.0684
  186MPD1    C5 2833   2.319   3.233  15.536 -1.1033  0.0901 -0.0510
  186MPD1     H 2834   2.155   3.321  15.869  0.2676  1.3865 -0.0009
  186MPD1    H1 2835   2.469   3.138  15.642  1.1941  0.9788  1.6818
  186MPD1    H2 2836   2.150   3.325  15.445 -1.9166 -1.0686  0.2830
  186MPD1    H3 2837   2.362   3.197  15.444  0.8034 -0.5977  1.1252
  186MPD1     N 2838   2.394   3.196  15.902 -0.1796  0.0504  0.4135
  186MPD1    H5 2839   2.484   3.151  15.886 -0.9194 -1.2943  0.0428
  186MPD1    N1 2840   2.006   3.366  15.646  0.1119 -0.1081 -0.6580
  186MPD1    H6 2841   1.995   3.440  15.578 -0.1784 -0.0460 -0.5415
  186MPD1    H7 2842   1.991   3.412  15.736  2.4102 -0.2807 -0.1694
  187MPD1     C 2843   2.269   4.473  17.326  0.1913  0.7199  0.0189
  187MPD1    C1 2844   2.303   4.591  17.251 -0.0246 -0.1583 -0.3669
  187MPD1    C2 2845   2.204   4.687  17.238 -0.6445  0.1526  0.4151
  187MPD1    C3 2846   2.094   4.671  17.310  0.2375  0.1509  0.3946
  187MPD1    C4 2847   2.063   4.557  17.377 -0.0730 -0.6812 -0.8190
  187MPD1    C5 2848   2.150   4.453  17.386  0.0249 -0.4404 -0.1159
  187MPD1     H 2849   2.229   0.059  17.193  1.7502  0.1194  1.6881
  187MPD1    H1 2850   1.965   4.545  17.421 -0.6219  2.3536 -1.2749
  187MPD1    H2 2851   2.343   4.395  17.335 -0.5675 -0.2805 -2.2327
  187MPD1    H3 2852   2.117   4.355  17.419  0.4818 -0.2521  0.8909
  187MPD1     N 2853   1.997   0.048  17.305 -0.1969 -0.4760  0.3067
  187MPD1    H5 2854   1.910   0.021  17.351 -0.0370 -0.1747  0.7808
  187MPD1    N1 2855   2.428   4.606  17.186  0.1538  0.2090  0.0675
  187MPD1    H6 2856   2.453   4.531  17.122 -2.6302 -0.5002 -0.2248
  187MPD1    H7 2857   2.427   4.688  17.126  2.8362 -0.0898 -0.3812
  188MPD1     C 2858   0.853   4.648  10.122 -0.8491 -0.0876 -0.2709
  188MPD1    C1 2859   0.933   4.699  10.022  0.4803  0.4916  0.4930
  188MPD1    C2 2860   1.019   4.604   9.961 -0.5598  0.1343  0.0168
  188MPD1    C3 2861   1.053   4.479  10.023 -0.4565  0.1363  0.4140
  188MPD1    C4 2862   0.988   4.447  10.139  0.2718 -0.1584 -0.1356
  188MPD1    C5 2863   0.884   4.524  10.178 -0.7386  0.2278  0.3664
  188MPD1     H 2864   1.089   4.636   9.885 -2.4179  0.6069 -1.5116
  188MPD1    H1 2865   1.023   4.363  10.197  2.3819  0.5056 -0.4356
  188MPD1    H2 2866   0.784   4.703  10.186 -0.8344  0.4861 -0.7521
  188MPD1    H3 2867   0.828   4.501  10.268 -0.2215  0.9517  0.8741
  188MPD1     N 2868   1.146   4.386   9.979  0.5221  0.3313 -0.2809
  188MPD1    H5 2869   1.171   4.311  10.043  0.2730  0.9000  0.4844
  188MPD1    N1 2870   0.903   0.099   9.962 -0.8800  0.2180 -0.2732
  188MPD1    H6 2871   0.857   0.163  10.026  1.9744 -0.4808  2.4667
  188MPD1    H7 2872   0.991   0.137   9.929 -0.8512  0.4473  0.0647
  189MPD1     C 2873   2.847   4.705   0.670  0.1401 -0.6490  0.1928
  189MPD1    C1 2874   2.720   4.669   0.630  0.0174 -0.1514  0.0479
  189MPD1    C2 2875   2.690   4.665   0.492 -0.2822 -0.0189 -0.2501
  189MPD1    C3 2876   2.768   0.009   0.399 -0.1558  0.0089  0.2608
  189MPD1    C4 2877   2.884   0.070   0.443 -0.7964  0.2161  0.0800
  189MPD1    C5 2878   2.928   0.044   0.570  0.2043  0.7605  0.7399
  189MPD1     H 2879   2.600   4.615   0.459 -0.6314  0.3638  0.1184
  189MPD1    H1 2880   2.948   0.125   0.376 -1.0750  2.7189  1.8523
  189MPD1    H2 2881   2.894   4.691   0.767 -0.5445 -2.7644  0.2017
  189MPD1    H3 2882   3.027   0.063   0.610 -0.6174  1.4898  2.4197
  189MPD1     N 2883   2.714   0.028   0.272  0.0274  0.4154  0.6971
  189MPD1    H5 2884   2.618   4.723   0.253 -0.3740  2.2588  0.0198
  189MPD1    N1 2885   2.642   4.606   0.727  0.6735 -0.6257 -0.2666
  189MPD1    H6 2886   2.669   4.629   0.823 -0.0012 -1.6105  0.1600
  189MPD1    H7 2887   2.542   4.622   0.716  0.8602  1.3766  0.8843
  190MPD1     C 2888   1.984   3.902  15.089 -0.3888 -0.7181 -0.0883
  190MPD1    C1 2889   2.104   3.899  15.033  0.1240 -0.0518 -0.2246
  190MPD1    C2 2890   2.210   3.876  15.120  0.2484 -0.8000  0.0889
  190MPD1    C3 2891   2.200   3.907  15.256 -0.1081 -0.7588 -0.0879
  190MPD1    C4 2892   2.072   3.921  15.312 -0.0610 -0.6214  0.3473
  190MPD1    C5 2893   1.967   3.913  15.229 -0.6366 -0.1007 -0.2802
  190MPD1     H 2894   2.303   3.848  15.072  0.7760  1.8884 -0.4626
  190MPD1    H1 2895   2.054   3.925  15.418 -0.5131  0.2173  0.2391
  190MPD1    H2 2896   1.891   3.902  15.033 -1.4121  1.5904  1.6031
  190MPD1    H3 2897   1.871   3.913  15.279 -0.8300 -1.1333 -0.6481
  190MPD1     N 2898   2.316   3.911  15.334 -1.0605 -0.4364 -0.4372
  190MPD1    H5 2899   2.403   3.919  15.282 -0.4257 -0.1985  0.6653
  190MPD1    N1 2900   2.119   3.886  14.893  0.2718  0.4071 -0.8488
  190MPD1    H6 2901   2.056   3.946  14.839 -1.2764 -0.0897  0.4049
  190MPD1    H7 2902   2.210   3.925  14.870  1.1009  0.1874  2.1653
  191MPD1     C 2903   0.879   1.691  12.718  0.4703 -0.0631 -1.2032
  191MPD1    C1 2904   0.862   1.731  12.592 -0.6942 -0.4433 -0.2724
  191MPD1    C2 2905   0.973   1.750  12.512 -0.3157  1.2117  0.1318
  191MPD1    C3 2906   1.094   1.706  12.550  0.3466  0.4896  0.1660
  191MPD1    C4 2907   1.108   1.659  12.677 -0.4895 -0.3452  0.3127
  191MPD1    C5 2908   1.001   1.647  12.759 -0.3242  0.4718  0.2360
  191MPD1     H 2909   0.967   1.790  12.411 -1.1995  1.1677  0.1661
  191MPD1    H1 2910   1.197   1.613  12.718 -0.8538  0.6921  2.2535
  191MPD1    H2 2911   0.800   1.701  12.791  0.0345 -0.9958 -1.5486
  191MPD1    H3 2912   1.024   1.619  12.862  1.3306  0.5666 -0.1039
  191MPD1     N 2913   1.192   1.724  12.458 -0.4409  0.8557  0.2865
  191MPD1    H5 2914   1.159   1.759  12.368 -1.8822 -1.9211 -0.2915
  191MPD1    N1 2915   0.743   1.793  12.562 -0.0869  0.4799  0.1101
  191MPD1    H6 2916   0.663   1.748  12.605  0.1272  0.1336  0.1456
  191MPD1    H7 2917   0.731   1.801  12.461  0.2760  0.0244  0.0292
  192MPD1     C 2918   1.304   1.953  11.580  0.1445  0.1417  0.2669
  192MPD1    C1 2919   1.404   2.014  11.649 -0.2038  0.0627  0.2176
  192MPD1    C2 2920   1.402   2.008  11.792 -1.1575 -0.2468  0.3746
  192MPD1    C3 2921   1.314   1.921  11.858  0.1911 -0.1852  0.3057
  192MPD1    C4 2922   1.227   1.847  11.776  0.7843  0.4928  0.3595
  192MPD1    C5 2923   1.220   1.863  11.643 -0.3289 -0.7342  0.1138
  192MPD1     H 2924   1.466   2.077  11.846  0.3369 -0.6049 -0.9355
  192MPD1    H1 2925   1.152   1.786  11.826  0.6280 -1.3918 -2.1277
  192MPD1    H2 2926   1.279   1.966  11.475 -1.3621  0.7087  0.6813
  192MPD1    H3 2927   1.152   1.802  11.584 -0.9184 -3.1180  3.2758
  192MPD1     N 2928   1.331   1.888  11.993 -0.0821  0.2213 -0.0043
  192MPD1    H5 2929   1.274   1.813  12.032 -1.4702  0.8835 -0.7647
  192MPD1    N1 2930   1.494   2.102  11.582 -0.2762 -0.4046 -0.1774
  192MPD1    H6 2931   1.507   2.072  11.485 -0.4467  3.7103 -1.4593
  192MPD1    H7 2932   1.583   2.099  11.631 -1.1101 -2.3575  1.1974
  193MPD1     C 2933   0.515   1.727  16.456  0.7288 -0.4006 -0.4488
  193MPD1    C1 2934   0.604   1.632  16.507  0.0677  0.1184 -0.6061
  193MPD1    C2 2935   0.731   1.665  16.538 -0.4883 -0.3769  0.5433
  193MPD1    C3 2936   0.768   1.802  16.550  0.2336 -0.2314 -0.4804
  193MPD1    C4 2937   0.681   1.895  16.495 -0.6951 -0.3190  0.1046
  193MPD1    C5 2938   0.561   1.856  16.448  0.3569  0.2958 -0.3238
  193MPD1     H 2939   0.797   1.581  16.556  2.0167  1.4200 -0.2433
  193MPD1    H1 2940   0.710   1.999  16.506 -2.1124  0.2150 -1.1863
  193MPD1    H2 2941   0.414   1.705  16.423  0.5275  0.0099 -0.0961
  193MPD1    H3 2942   0.493   1.929  16.406  0.0114  0.1815  0.0410
  193MPD1     N 2943   0.893   1.838  16.606 -0.5557  0.9686 -0.2622
  193MPD1    H5 2944   0.911   1.937  16.592  1.8295  0.6904  0.8303
  193MPD1    N1 2945   0.572   1.499  16.502 -0.5119  0.0660 -0.4753
  193MPD1    H6 2946   0.472   1.484  16.505  0.1074 -4.2298 -0.6332
  193MPD1    H7 2947   0.627   1.446  16.570 -0.8192 -0.8361 -0.9334
  194MPD1     C 2948   3.871   4.245  16.501  0.2215 -0.3672 -0.4876
  194MPD1    C1 2949   3.819   4.136  16.440  0.0821  0.5227  0.2368
  194MPD1    C2 2950   3.818   4.014  16.497  0.4218  0.3857 -0.2967
  194MPD1    C3 2951   3.853   3.998  16.632 -0.7476 -0.4901 -0.1995
  194MPD1    C4 2952   3.896   4.115  16.700 -0.5888  0.1515  0.3205
  194MPD1    C5 2953   3.922   4.229  16.630 -0.3876  0.1152 -0.0583
  194MPD1     H 2954   3.793   3.925  16.439  0.5841  0.3165 -0.2602
  194MPD1    H1 2955   3.908   4.110  16.808 -0.9395  0.6003  0.3808
  194MPD1    H2 2956   3.882   4.342  16.454  1.5357  0.1455  0.8815
  194MPD1    H3 2957   3.961   4.320  16.675  2.1974 -0.8304 -0.4177
  194MPD1     N 2958   3.848   3.879  16.704 -0.1826  0.5850  0.1912
  194MPD1    H5 2959   3.888   3.879  16.798  4.0832  2.4303 -1.6205
  194MPD1    N1 2960   3.784   4.147  16.301 -0.4621 -0.9304  0.3939
  194MPD1    H6 2961   3.746   4.237  16.273 -0.5794 -1.6728 -1.8649
  194MPD1    H7 2962   3.720   4.078  16.262  0.8937  0.1622 -3.7810
  195MPD1     C 2963   1.775   3.565   0.787 -0.2346 -0.3166  0.0979
  195MPD1    C1 2964   1.797   3.700   0.755 -0.3921 -0.1196  0.2098
  195MPD1    C2 2965   1.801   3.734   0.621  0.2806  0.0667 -0.1284
  195MPD1    C3 2966   1.776   3.652   0.523 -0.0307 -0.5908  0.1674
  195MPD1    C4 2967   1.755   3.518   0.551 -0.0525 -0.7578 -1.2400
  195MPD1    C5 2968   1.751   3.476   0.679  0.3268 -0.2479 -0.5472
  195MPD1     H 2969   1.820   3.839   0.602 -2.2306  0.6709  0.7559
  195MPD1    H1 2970   1.714   3.453   0.474 -1.4805 -2.3651  0.8751
  195MPD1    H2 2971   1.784   3.518   0.884  1.2624 -0.1281  0.0552
  195MPD1    H3 2972   1.748   3.369   0.691 -0.6340 -0.5349 -3.2477
  195MPD1     N 2973   1.764   3.696   0.386  0.2311 -0.3357 -0.1747
  195MPD1    H5 2974   1.728   3.631   0.317  0.2230  0.1698 -0.6582
  195MPD1    N1 2975   1.833   3.788   0.855 -0.0292 -0.0759 -0.1860
  195MPD1    H6 2976   1.781   3.769   0.941  0.2613  0.8140  0.1806
  195MPD1    H7 2977   1.809   3.885   0.835  2.8710  0.8358  0.7528
  196MPD1     C 2978   0.743   0.345   0.849  0.0110 -0.4049 -0.5682
  196MPD1    C1 2979   0.729   0.400   0.732  0.2590 -0.3636 -0.3697
  196MPD1    C2 2980   0.745   0.538   0.727  0.4505 -0.2403  0.5561
  196MPD1    C3 2981   0.753   0.619   0.836 -0.2512  0.9427  0.4090
  196MPD1    C4 2982   0.771   0.554   0.954  0.3381 -0.5566  0.7029
  196MPD1    C5 2983   0.761   0.422   0.960  0.3213  0.0369  0.3567
  196MPD1     H 2984   0.741   0.584   0.629 -0.6492  0.0243  0.7196
  196MPD1    H1 2985   0.766   0.615   1.044 -0.6314 -0.0550  0.3025
  196MPD1    H2 2986   0.748   0.237   0.860  2.5123 -0.3937 -1.5534
  196MPD1    H3 2987   0.773   0.365   1.052  2.5951  1.2616  0.8172
  196MPD1     N 2988   0.750   0.757   0.842 -0.1362 -0.4027 -0.6283
  196MPD1    H5 2989   0.747   0.797   0.935  1.2654  0.1955 -0.8386
  196MPD1    N1 2990   0.755   0.326   0.611  0.1505 -0.2060  0.7159
  196MPD1    H6 2991   0.706   0.362   0.529 -1.7403 -1.7589  1.1535
  196MPD1    H7 2992   0.735   0.227   0.625  1.6605 -0.1444  3.3768
  197MPD1     C 2993   4.119   1.893  17.175 -0.2322 -0.0763 -0.4972
  197MPD1    C1 2994   4.236   1.894  17.242  0.1919 -0.5881 -0.2750
  197MPD1    C2 2995   4.359   1.903  17.178  0.4560 -0.0440 -1.1820
  197MPD1    C3 2996   4.362   1.931  17.037  0.1969  0.2656  0.3855
  197MPD1    C4 2997   4.236   1.938  16.974 -0.0566  0.3554 -0.6402
  197MPD1    C5 2998   4.120   1.920  17.042  0.2491 -0.7115 -0.2783
  197MPD1     H 2999   4.446   1.890  17.241  0.2067  1.1945 -0.5780
  197MPD1    H1 3000   4.225   1.957  16.867  1.1026  0.4126 -0.7513
  197MPD1    H2 3001   4.024   1.873  17.223  0.3828 -0.5147  0.5334
  197MPD1    H3 3002   4.022   1.930  16.996  0.5058 -2.3233 -1.1736
  197MPD1     N 3003   4.478   1.949  16.961  0.3892  0.0895 -0.6744
  197MPD1    H5 3004   4.467   1.954  16.860 -2.2813 -1.4076 -0.4847
  197MPD1    N1 3005   4.228   1.865  17.377  0.5810  0.4592  0.4190
  197MPD1    H6 3006   4.308   1.892  17.433 -0.4518 -0.5559  2.4006
  197MPD1    H7 3007   4.149   1.912  17.420  0.3079 -0.8557  1.3601
  198MPD1     C 3008   1.143   0.401  15.803 -0.2435 -0.7007  0.2112
  198MPD1    C1 3009   1.217   0.386  15.914 -0.6729  0.1013 -0.4229
  198MPD1    C2 3010   1.350   0.421  15.912 -0.5839 -0.6323  0.1117
  198MPD1    C3 3011   1.410   0.462  15.799  0.5598  0.1485 -0.2429
  198MPD1    C4 3012   1.337   0.467  15.685  0.0821  0.2166  0.0977
  198MPD1    C5 3013   1.204   0.438  15.678  0.2913 -0.2339  0.0605
  198MPD1     H 3014   1.405   0.425  16.005  0.2401 -1.2156 -0.3519
  198MPD1    H1 3015   1.381   0.501  15.592  0.4373  0.0701  0.2138
  198MPD1    H2 3016   1.035   0.388  15.805 -0.8207  3.9708 -0.7549
  198MPD1    H3 3017   1.154   0.459  15.585  0.2701 -0.0228  0.1189
  198MPD1     N 3018   1.548   0.482  15.801  0.0788  0.3114 -0.5067
  198MPD1    H5 3019   1.583   0.497  15.895  0.0912  1.0836 -0.6344
  198MPD1    N1 3020   1.147   0.363  16.036 -0.1162  0.0089 -0.0758
  198MPD1    H6 3021   1.206   0.329  16.111 -2.2920 -0.2536  1.5153
  198MPD1    H7 3022   1.065   0.305  16.016 -0.6010  0.9049 -0.6886
  199MPD1     C 3023   2.975   1.186  10.579  0.3555 -0.1029  0.0174
  199MPD1    C1 3024   2.868   1.207  10.493 -0.6325  0.7996  0.4489
  199MPD1    C2 3025   2.884   1.176  10.356 -0.4698  0.3033  0.1865
  199MPD1    C3 3026   3.010   1.136  10.308  0.5412 -0.2059 -0.5241
  199MPD1    C4 3027   3.113   1.118  10.395 -0.2212 -0.6329 -0.2060
  199MPD1    C5 3028   3.096   1.148  10.526  0.0386 -0.9399  0.7231
  199MPD1     H 3029   2.802   1.192  10.287  0.8199  2.2171 -0.9031
  199MPD1    H1 3030   3.207   1.076  10.358 -0.5949 -2.5010  0.9814
  199MPD1    H2 3031   2.978   1.201  10.687  1.4394 -0.5560  0.0422
  199MPD1    H3 3032   3.180   1.138  10.594  0.9158 -1.0444 -0.3737
  199MPD1     N 3033   3.049   1.107  10.177 -0.5007  0.1619 -0.5802
  199MPD1    H5 3034   3.138   1.064  10.155 -0.7713  0.1393 -1.6527
  199MPD1    N1 3035   2.742   1.246  10.544  0.2077  0.0869  0.0014
  199MPD1    H6 3036   2.691   1.310  10.484  0.4305 -0.1049 -0.3869
  199MPD1    H7 3037   2.751   1.283  10.639 -1.5583 -0.1046  0.2331
  200MPD1     C 3038   2.337   1.100  14.725  0.2528  0.1420 -0.1114
  200MPD1    C1 3039   2.399   0.997  14.796  0.3422 -0.1835 -0.0003
  200MPD1    C2 3040   2.537   0.984  14.777  0.5935  0.6078 -0.0051
  200MPD1    C3 3041   2.608   1.080  14.704  0.6870 -0.3909 -0.2787
  200MPD1    C4 3042   2.538   1.182  14.635  0.2052  0.2468  0.4886
  200MPD1    C5 3043   2.404   1.194  14.650  0.3068  0.0947 -0.0837
  200MPD1     H 3044   2.585   0.900  14.826  0.5669 -0.2755 -1.4985
  200MPD1    H1 3045   2.591   1.259  14.578 -0.2422  0.4914  0.4038
  200MPD1    H2 3046   2.230   1.118  14.729  0.2249 -0.4446  1.9364
  200MPD1    H3 3047   2.357   1.271  14.589  1.1797  0.8941  0.2448
  200MPD1     N 3048   2.753   1.072  14.697  0.7028 -0.9198  0.3781
  200MPD1    H5 3049   2.799   0.992  14.738  1.4840 -1.1275 -0.8981
  200MPD1    N1 3050   2.317   0.892  14.842 -0.4749 -0.6575 -0.2737
  200MPD1    H6 3051   2.361   0.849  14.923  0.0736  3.6539  1.7307
  200MPD1    H7 3052   2.219   0.915  14.856 -0.9509 -2.9536  0.1040
  201MPD1     C 3053   0.095   4.468  12.811  0.4081  0.2903 -0.8801
  201MPD1    C1 3054   0.175   4.406  12.715 -0.4988 -0.2945  0.1363
  201MPD1    C2 3055   0.313   4.414  12.734  0.6895 -0.2195  0.3897
  201MPD1    C3 3056   0.371   4.476  12.846  0.2361 -0.1833  0.7097
  201MPD1    C4 3057   0.283   4.537  12.938  0.0946 -0.0360  0.3031
  201MPD1    C5 3058   0.150   4.531  12.915  0.6926 -0.1596 -0.3478
  201MPD1     H 3059   0.380   4.370  12.661 -0.9242 -0.6825 -0.8075
  201MPD1    H1 3060   0.321   4.582  13.029  1.6563 -3.3638  1.2926
  201MPD1    H2 3061   4.710   4.470  12.797  0.6097  3.2259 -1.9712
  201MPD1    H3 3062   0.098   4.567  13.003 -0.8811  0.0480 -1.3616
  201MPD1     N 3063   0.511   4.453  12.877  0.0465  0.0680  0.1771
  201MPD1    H5 3064   0.555   4.392  12.809  0.1375 -0.0985  0.3892
  201MPD1    N1 3065   0.124   4.322  12.613  0.3425  0.4542 -0.0097
  201MPD1    H6 3066   0.048   4.369  12.566  0.4098 -0.3352 -0.9016
  201MPD1    H7 3067   0.199   4.300  12.548  0.1451 -0.8683  0.2007
  202MPD1     C 3068   1.235   4.538   9.223  0.1088  0.6934  0.1886
  202MPD1    C1 3069   1.133   4.622   9.179  0.6695  0.1208 -0.6598
  202MPD1    C2 3070   1.006   4.611   9.237 -0.8343  0.4993  0.6670
  202MPD1    C3 3071   0.988   4.547   9.362  0.3729  0.3072 -0.3977
  202MPD1    C4 3072   1.091   4.476   9.412  0.7082  0.6359 -0.0544
  202MPD1    C5 3073   1.208   4.475   9.342 -0.0769  0.1285 -0.4523
  202MPD1     H 3074   0.925   4.672   9.198 -0.7444  0.3799  0.3012
  202MPD1    H1 3075   1.072   4.417   9.501  1.9345  2.9743  1.7510
  202MPD1    H2 3076   1.326   4.511   9.170 -0.2935  2.6056 -1.4661
  202MPD1    H3 3077   1.285   4.410   9.382  2.2328  0.5224 -4.2929
  202MPD1     N 3078   0.865   4.555   9.432 -0.3579 -0.8725 -0.7559
  202MPD1    H5 3079   0.854   4.495   9.513  1.7202  1.1945  1.0662
  202MPD1    N1 3080   1.139   4.653   9.040  0.7025  0.6321  0.2344
  202MPD1    H6 3081   1.073   0.004   9.018 -0.6765  0.1855  2.8421
  202MPD1    H7 3082   1.236   4.671   9.013 -0.0948  0.0691 -3.0619
  203MPD1     C 3083   4.568   1.605  12.798  0.3143  0.5615  0.0904
  203MPD1    C1 3084   4.632   1.481  12.811 -0.0578  0.2055  1.3612
  203MPD1    C2 3085   4.570   1.374  12.753  0.2873 -0.3391 -0.0163
  203MPD1    C3 3086   4.448   1.387  12.688  0.5835  0.1992  0.2009
  203MPD1    C4 3087   4.388   1.516  12.677  0.1090 -0.0499  1.1305
  203MPD1    C5 3088   4.452   1.619  12.733  0.0914  0.4336 -0.5853
  203MPD1     H 3089   4.609   1.275  12.773  1.0122  0.3792  2.1378
  203MPD1    H1 3090   4.293   1.539  12.629  0.2884  0.0754  0.8354
  203MPD1    H2 3091   4.607   1.687  12.857  1.5656  1.3727 -1.8973
  203MPD1    H3 3092   4.399   1.714  12.728  1.6616  1.3937  0.9748
  203MPD1     N 3093   4.392   1.273  12.630 -0.0420  0.6739 -0.7374
  203MPD1    H5 3094   4.408   1.184  12.674 -0.2980  0.4064 -1.1800
  203MPD1    N1 3095   0.039   1.470  12.854 -0.5423  0.0061 -0.5028
  203MPD1    H6 3096   0.066   1.372  12.850 -0.0684  0.1043  0.3787
  203MPD1    H7 3097   0.056   1.522  12.940  2.5419 -0.4845 -0.8275
  204MPD1     C 3098   2.975   1.353  17.574 -0.1981 -0.1246  0.1991
  204MPD1    C1 3099   3.022   1.227  17.545 -0.0977 -0.2747 -0.3379
  204MPD1    C2 3100   3.067   1.202  17.420  0.1255  0.0390  0.0310
  204MPD1    C3 3101   3.118   1.297  17.342 -0.0938  0.8815 -0.0290
  204MPD1    C4 3102   3.083   1.427  17.372  0.3080  0.0510  0.9423
  204MPD1    C5 3103   3.018   1.453  17.486 -0.5707  0.5334 -0.6528
  204MPD1     H 3104   3.070   1.099  17.386 -0.1119 -0.4764  1.5849
  204MPD1    H1 3105   3.109   1.513  17.312  0.8828 -0.7265  0.0773
  204MPD1    H2 3106   2.918   1.383  17.661  1.2278  2.5851  0.2098
  204MPD1    H3 3107   2.990   1.554  17.513 -1.6500 -0.6968  2.8603
  204MPD1     N 3108   3.191   1.253  17.233  0.3504 -0.1771 -0.6861
  204MPD1    H5 3109   3.206   1.154  17.216  0.3577 -0.6358  2.0183
  204MPD1    N1 3110   2.969   1.118  17.616 -0.8770  0.0701 -0.2392
  204MPD1    H6 3111   3.020   1.030  17.610 -0.0913  0.5142 -0.0612
  204MPD1    H7 3112   2.958   1.144   0.020 -3.3233  2.0670 -1.0477
  205MPD1     C 3113   0.155   0.565  16.966 -0.3496 -0.2575  0.6093
  205MPD1    C1 3114   0.063   0.606  16.866  0.6840 -0.1467  0.7916
  205MPD1    C2 3115   4.649   0.583  16.893 -0.2441 -0.1942 -0.4994
  205MPD1    C3 3116   4.609   0.517  17.009 -0.2205  0.1149 -0.4821
  205MPD1    C4 3117   4.701   0.486  17.105  0.3244  0.2306 -0.2934
  205MPD1    C5 3118   0.106   0.507  17.079  0.1432 -0.6183  0.6383
  205MPD1     H 3119   4.578   0.620  16.821 -0.2820  0.4197 -0.1472
  205MPD1    H1 3120   4.674   0.447  17.202 -1.1212  1.2155 -0.2988
  205MPD1    H2 3121   0.262   0.579  16.965 -0.0012 -3.0189  0.5584
  205MPD1    H3 3122   0.185   0.473  17.146  0.7636 -0.8319 -0.2044
  205MPD1     N 3123   4.475   0.487  17.046 -0.8800  0.4978  0.2553
  205MPD1    H5 3124   4.461   0.435  17.132 -0.1461 -2.0944 -1.2019
  205MPD1    N1 3125   0.111   0.674  16.753  0.1490  0.1192  0.5623
  205MPD1    H6 3126   0.044   0.688  16.678 -0.5582 -2.0375  0.7911
  205MPD1    H7 3127   0.199   0.637  16.715 -0.2830  1.9082 -2.1780
  206MPD1     C 3128   4.130   3.028  16.472 -0.0049  0.0628 -0.0422
  206MPD1    C1 3129   4.136   2.919  16.387 -0.8047  0.2591 -0.0864
  206MPD1    C2 3130   4.052   2.915  16.274 -0.5221  0.3896  0.2378
  206MPD1    C3 3131   3.970   3.025  16.253  0.1850 -0.4655 -0.1027
  206MPD1    C4 3132   3.970   3.131  16.336  0.2200 -0.0872 -0.5802
  206MPD1    C5 3133   4.046   3.124  16.452  0.6967 -0.2142 -0.4888
  206MPD1     H 3134   4.049   2.833  16.204 -1.1112  0.7287 -0.1307
  206MPD1    H1 3135   3.903   3.215  16.326 -1.1775 -0.8464  2.2700
  206MPD1    H2 3136   4.183   3.034  16.567 -0.3823  0.7554  0.1220
  206MPD1    H3 3137   4.035   3.200  16.529  0.9544 -0.4667 -0.2043
  206MPD1     N 3138   3.910   3.057  16.130 -0.2424  0.3943 -0.6226
  206MPD1    H5 3139   3.874   3.151  16.134  0.4499  0.6404 -0.2340
  206MPD1    N1 3140   4.208   2.806  16.423 -0.4071  0.3670  0.3670
  206MPD1    H6 3141   4.286   2.820  16.486  1.3315  1.1971 -1.9469
  206MPD1    H7 3142   4.241   2.753  16.343 -0.6889  0.1175  0.4167
  207MPD1     C 3143   1.456   0.907   9.216 -0.2526 -0.2513  0.0043
  207MPD1    C1 3144   1.498   1.031   9.253  0.0486 -0.2535  0.5956
  207MPD1    C2 3145   1.548   1.054   9.381 -0.1602 -0.0739 -0.2060
  207MPD1    C3 3146   1.556   0.946   9.472  0.2478  0.2099 -0.6509
  207MPD1    C4 3147   1.519   0.819   9.431 -0.6860  0.0534  0.2354
  207MPD1    C5 3148   1.466   0.801   9.304  0.2260  0.2873 -0.3868
  207MPD1     H 3149   1.573   1.155   9.412 -1.5767 -0.2523  1.5197
  207MPD1    H1 3150   1.522   0.728   9.489  0.5951  0.2745  0.5098
  207MPD1    H2 3151   1.420   0.895   9.115  0.2474 -2.5349  0.0909
  207MPD1    H3 3152   1.445   0.698   9.277  1.6694 -0.2272  0.4512
  207MPD1     N 3153   1.598   0.961   9.604  0.0806 -0.5302 -0.2549
  207MPD1    H5 3154   1.601   0.881   9.665 -1.3444 -0.0818  0.4102
  207MPD1    N1 3155   1.478   1.134   9.159 -0.1877 -0.3504 -0.2061
  207MPD1    H6 3156   1.381   1.136   9.127 -0.5357 -2.1762  0.7745
  207MPD1    H7 3157   1.491   1.230   9.191  0.2099 -1.4534  2.9208
  208MPD1     C 3158   0.416   0.314  17.068 -0.8209  0.2178 -0.0401
  208MPD1    C1 3159   0.318   0.222  17.081  0.3666 -0.0614  0.2615
  208MPD1    C2 3160   0.270   0.199  17.205 -0.2958 -0.2853  0.1601
  208MPD1    C3 3161   0.318   0.256  17.325 -1.1623  0.5844 -0.7334
  208MPD1    C4 3162   0.425   0.341  17.314 -0.1817  0.7894  0.4628
  208MPD1    C5 3163   0.469   0.375  17.187  0.2271 -0.6553  0.7796
  208MPD1     H 3164   0.179   0.141  17.206  0.7880 -1.9725  1.4624
  208MPD1    H1 3165   0.467   0.392  17.400  1.2649  2.0477 -0.9923
  208MPD1    H2 3166   0.439   0.342  16.965 -0.2016 -0.7196 -0.1499
  208MPD1    H3 3167   0.556   0.438  17.177  0.5771 -1.4217 -1.0303
  208MPD1     N 3168   0.251   0.228  17.451 -0.1798 -0.0211  0.3738
  208MPD1    H5 3169   0.167   0.172  17.443  0.6844 -1.6576  2.9931
  208MPD1    N1 3170   0.254   0.172  16.969 -0.8109 -0.7653  0.1324
  208MPD1    H6 3171   0.216   0.080  16.988 -1.9993 -0.4313 -0.6045
  208MPD1    H7 3172   0.313   0.172  16.886 -1.8552 -0.4176 -0.6144
  209MPD1     C 3173   0.554   0.587   9.850 -0.2857 -0.6832  0.1254
  209MPD1    C1 3174   0.633   0.681   9.908  0.0713 -0.0849  1.2186
  209MPD1    C2 3175   0.725   0.630   9.999 -0.6118  0.0909  0.2542
  209MPD1    C3 3176   0.722   0.502  10.043 -0.1220  0.5510 -0.5589
  209MPD1    C4 3177   0.639   0.405   9.990  0.4539 -0.1852 -0.1276
  209MPD1    C5 3178   0.557   0.454   9.887 -0.1132 -0.0948 -0.1860
  209MPD1     H 3179   0.786   0.700  10.056 -0.1196 -0.5173  0.4755
  209MPD1    H1 3180   0.654   0.300  10.009  1.0303 -0.3763 -1.6213
  209MPD1    H2 3181   0.495   0.596   9.759 -0.7647 -2.7976  0.2205
  209MPD1    H3 3182   0.504   0.378   9.831 -1.4515  0.8859 -0.2504
  209MPD1     N 3183   0.829   0.469  10.136 -0.1444  0.2129  0.0640
  209MPD1    H5 3184   0.887   0.547  10.164  2.4593 -1.9507  0.6482
  209MPD1    N1 3185   0.657   0.806   9.852  0.3580  0.5304  0.2167
  209MPD1    H6 3186   0.578   0.847   9.802  1.7707  1.6246 -1.1421
  209MPD1    H7 3187   0.685   0.871   9.925 -0.0177  0.4970  0.3902
  210MPD1     C 3188   1.436   4.611  10.862 -0.1507  0.4460  0.0050
  210MPD1    C1 3189   1.388   4.569  10.740 -0.4738 -0.4590  0.0631
  210MPD1    C2 3190   1.331   4.658  10.648  0.3790 -0.4543  0.4003
  210MPD1    C3 3191   1.310   0.064  10.683 -0.3085 -0.7796  0.5088
  210MPD1    C4 3192   1.359   0.104  10.804  0.6570 -0.0484  0.4394
  210MPD1    C5 3193   1.420   0.018  10.889  0.3049  0.3019  0.1021
  210MPD1     H 3194   1.304   4.620  10.551 -0.6189  2.2788 -0.4020
  210MPD1    H1 3195   1.329   0.200  10.846 -0.4485  0.4494 -1.4452
  210MPD1    H2 3196   1.485   4.550  10.936  1.5625 -2.3254 -3.4086
  210MPD1    H3 3197   1.482   0.051  10.972  0.9312  0.2351 -0.3388
  210MPD1     N 3198   1.234   0.156  10.600 -0.1074 -0.5092 -0.0423
  210MPD1    H5 3199   1.236   0.252  10.632 -0.6356 -0.8174  0.9147
  210MPD1    N1 3200   1.418   4.436  10.700 -0.2801 -0.6152  0.1589
  210MPD1    H6 3201   1.433   4.377  10.781 -0.6277  1.7174  1.9440
  210MPD1    H7 3202   1.505   4.434  10.647  1.2346  1.6231  2.5028
  211MPD1     C 3203   4.693   0.430  16.521 -0.4275  0.0305 -0.2713
  211MPD1    C1 3204   4.575   0.405  16.593  0.4452  0.1844  0.8194
  211MPD1    C2 3205   4.453   0.432  16.530  0.5527  0.3610  0.2196
  211MPD1    C3 3206   4.449   0.481  16.401  0.2036 -0.2500 -0.7269
  211MPD1    C4 3207   4.564   0.508  16.336  0.2866  0.2361  0.0097
  211MPD1    C5 3208   4.684   0.485  16.399  0.2139  0.3188 -0.3648
  211MPD1     H 3209   4.359   0.420  16.583  0.0533 -1.0775 -0.9987
  211MPD1    H1 3210   4.561   0.562  16.242 -4.7204  0.0749  0.0904
  211MPD1    H2 3211   0.067   0.409  16.564  0.0210  2.7403  0.0846
  211MPD1    H3 3212   0.058   0.516  16.362  0.1208  1.0048 -0.0113
  211MPD1     N 3213   4.319   0.505  16.353  0.1774 -0.2124 -0.7331
  211MPD1    H5 3214   4.249   0.492  16.425 -1.3537 -1.0876 -2.3801
  211MPD1    N1 3215   4.575   0.329  16.712  0.3014  0.0162 -0.5243
  211MPD1    H6 3216   4.659   0.343  16.767 -1.0742  2.3833  0.9507
  211MPD1    H7 3217   4.497   0.357  16.771 -0.3900  1.9599 -2.3489
  212MPD1     C 3218   3.481   3.786  16.652 -0.1428 -1.0440 -0.6913
  212MPD1    C1 3219   3.490   3.667  16.592 -0.5918 -0.2707 -0.3096
  212MPD1    C2 3220   3.408   3.567  16.643  0.4545 -0.9682 -0.0468
  212MPD1    C3 3221   3.331   3.587  16.755 -0.0512  0.0152  0.4165
  212MPD1    C4 3222   3.332   3.711  16.817 -0.4361  0.2089  0.3428
  212MPD1    C5 3223   3.405   3.815  16.765 -0.2369  0.0067 -0.0327
  212MPD1     H 3224   3.409   3.470  16.595  2.0553 -1.4627  0.9775
  212MPD1    H1 3225   3.265   3.746  16.894 -2.3840 -0.3355 -1.1053
  212MPD1    H2 3226   3.529   3.864  16.594 -1.2748 -0.1074 -0.3721
  212MPD1    H3 3227   3.398   3.914  16.808 -0.3999 -1.0179  2.3109
  212MPD1     N 3228   3.244   3.491  16.812  0.1733  0.9488 -0.6549
  212MPD1    H5 3229   3.191   3.516  16.896  1.5839 -2.0217  1.1154
  212MPD1    N1 3230   3.558   3.658  16.468 -0.1791  0.0033  0.2440
  212MPD1    H6 3231   3.602   3.567  16.459  0.5161  0.1188  2.4389
  212MPD1    H7 3232   3.625   3.732  16.447  0.5034 -0.2687  1.5251
  213MPD1     C 3233   1.715   4.432  16.027 -0.0411 -0.3637 -0.0176
  213MPD1    C1 3234   1.669   4.306  15.996 -0.2791 -0.4453  0.2055
  213MPD1    C2 3235   1.596   4.313  15.878  0.1185  0.1261 -0.1255
  213MPD1    C3 3236   1.620   4.397  15.768 -0.0985  0.5011  0.1093
  213MPD1    C4 3237   1.701   4.506  15.798 -0.4685 -0.0644 -0.0609
  213MPD1    C5 3238   1.753   4.518  15.924  0.3854 -0.3439  0.1059
  213MPD1     H 3239   1.522   4.235  15.864 -0.3064  0.5885 -0.4917
  213MPD1    H1 3240   1.726   4.587  15.731 -2.6028  0.9420  0.3626
  213MPD1    H2 3241   1.764   4.443  16.123  2.4258 -0.4213 -1.2768
  213MPD1    H3 3242   1.821   4.602  15.930 -0.1055  0.1724 -1.4371
  213MPD1     N 3243   1.562   4.374  15.643  0.4611  0.3299 -0.3482
  213MPD1    H5 3244   1.497   4.296  15.641 -0.2934  1.0080 -2.4833
  213MPD1    N1 3245   1.627   4.226  16.107  0.0683  0.3549  0.2207
  213MPD1    H6 3246   1.696   4.229  16.182  1.7981  0.2272 -1.3511
  213MPD1    H7 3247   1.603   4.135  16.070  0.1410  0.9132 -1.2098
  214MPD1     C 3248   1.154   3.721  14.994 -0.8200 -0.3739 -0.4083
  214MPD1    C1 3249   1.192   3.726  15.126 -0.5113 -0.0183 -0.1095
  214MPD1    C2 3250   1.248   3.841  15.182 -0.0863  0.4556  0.3299
  214MPD1    C3 3251   1.250   3.956  15.111  0.1240  0.6090  0.1699
  214MPD1    C4 3252   1.207   3.953  14.981  0.5147  0.1245  0.1370
  214MPD1    C5 3253   1.163   3.839  14.921  0.2188  0.0485 -0.3640
  214MPD1     H 3254   1.289   3.843  15.282  0.3286 -0.7128  0.1883
  214MPD1    H1 3255   1.211   4.042  14.918  1.6084  0.2504  0.3739
  214MPD1    H2 3256   1.118   3.637  14.935 -1.4083  0.6953 -1.5917
  214MPD1    H3 3257   1.136   3.829  14.816  0.8908 -0.7588 -0.4625
  214MPD1     N 3258   1.310   4.080  15.153  0.1768  0.5852 -0.3217
  214MPD1    H5 3259   1.292   4.166  15.102 -2.0171  1.1738  1.4619
  214MPD1    N1 3260   1.194   3.605  15.194 -0.3104  0.9532  0.0667
  214MPD1    H6 3261   1.136   3.526  15.166  1.5583 -0.0370 -1.0287
  214MPD1    H7 3262   1.170   3.611  15.292 -1.0608 -0.0693 -0.0485
  215MPD1     C 3263   0.747   0.551  10.441  0.1043 -0.1209 -0.4822
  215MPD1    C1 3264   0.756   0.680  10.402 -0.5953  1.1064  0.2349
  215MPD1    C2 3265   0.850   0.760  10.453 -0.0899 -0.3604 -0.5090
  215MPD1    C3 3266   0.932   0.720  10.558 -0.0874 -0.1322  0.2224
  215MPD1    C4 3267   0.913   0.594  10.606  0.1057  0.9181  0.1137
  215MPD1    C5 3268   0.817   0.518  10.550  0.3083 -0.3140  0.0848
  215MPD1     H 3269   0.860   0.859  10.411 -0.6331 -0.1501 -0.1378
  215MPD1    H1 3270   0.956   0.547  10.694 -1.7001  2.8559  2.0198
  215MPD1    H2 3271   0.679   0.481  10.392 -0.8029  0.7200 -0.4163
  215MPD1    H3 3272   0.809   0.418  10.591  0.2912  0.9227  3.0930
  215MPD1     N 3273   1.038   0.798  10.606  0.4743  0.1259 -0.0877
  215MPD1    H5 3274   1.038   0.888  10.560  0.0013  0.7557  1.1359
  215MPD1    N1 3275   0.689   0.725  10.290 -0.8207 -0.6070 -0.6634
  215MPD1    H6 3276   0.605   0.669  10.278 -1.0879 -0.2295 -0.5367
  215MPD1    H7 3277   0.664   0.822  10.306  0.6535 -0.2370 -0.6311
  216MPD1     C 3278   4.127   2.019  16.535  0.4059  0.3320  1.1024
  216MPD1    C1 3279   4.002   2.032  16.485 -0.0005  0.5458 -0.6489
  216MPD1    C2 3280   3.913   2.112  16.554 -0.3034  0.3983 -0.2504
  216MPD1    C3 3281   3.948   2.177  16.674 -0.4153 -0.8825 -0.0835
  216MPD1    C4 3282   4.075   2.154  16.727  0.1374  0.2577  0.3717
  216MPD1    C5 3283   4.161   2.075  16.658  0.1819 -0.0961  0.1521
  216MPD1     H 3284   3.820   2.134  16.503 -1.1053 -1.1263  0.5421
  216MPD1    H1 3285   4.112   2.198  16.819  0.4177 -0.2727  0.5099
  216MPD1    H2 3286   4.203   1.958  16.488 -0.1860 -0.2059  0.8342
  216MPD1    H3 3287   4.263   2.073  16.695  0.1024 -0.5523  0.3487
  216MPD1     N 3288   3.851   2.258  16.731 -0.6562 -0.0302 -0.2275
  216MPD1    H5 3289   3.759   2.261  16.688 -0.1874 -0.5531 -1.2645
  216MPD1    N1 3290   3.963   1.960  16.375 -0.1180 -0.4250 -0.2024
  216MPD1    H6 3291   4.043   1.933  16.319 -0.9184 -2.1013 -0.5566
  216MPD1    H7 3292   3.887   2.004  16.323 -0.9720 -0.0405  1.3726
  217MPD1     C 3293   4.645   2.585   9.039 -0.5539 -0.0077 -0.1451
  217MPD1    C1 3294   4.526   2.635   9.079 -0.4464  0.5605 -0.1789
  217MPD1    C2 3295   4.518   2.754   9.155 -0.0527  0.2172  0.2671
  217MPD1    C3 3296   4.634   2.823   9.191  0.2361 -0.1106  0.1662
  217MPD1    C4 3297   0.027   2.768   9.150  0.2599  0.0922  0.0223
  217MPD1    C5 3298   0.039   2.650   9.082  0.1257 -0.0901 -0.1993
  217MPD1     H 3299   4.421   2.785   9.193 -1.0265 -2.1638 -0.2304
  217MPD1    H1 3300   0.115   2.825   9.178  0.7786 -0.6143 -0.1425
  217MPD1    H2 3301   4.650   2.500   8.972  0.0190  0.5257 -0.7888
  217MPD1    H3 3302   0.138   2.614   9.057 -0.2703 -1.7298  0.5818
  217MPD1     N 3303   4.635   2.945   9.258  0.2534  0.1365  0.1976
  217MPD1    H5 3304   0.005   2.977   9.283  0.4436 -1.3237  1.3134
  217MPD1    N1 3305   4.411   2.590   9.020  0.2232 -0.4241 -0.7878
  217MPD1    H6 3306   4.335   2.610   9.085 -0.7702  0.2949 -2.1642
  217MPD1    H7 3307   4.415   2.489   9.005  1.3374 -0.3384 -1.1310
  218MPD1     C 3308   1.201   1.239  12.766 -0.3906  0.3996 -0.6761
  218MPD1    C1 3309   1.204   1.104  12.777  0.0316 -0.0740  0.2110
  218MPD1    C2 3310   1.321   1.041  12.748  0.1691 -0.1616 -0.3190
  218MPD1    C3 3311   1.433   1.122  12.710  0.0537 -0.5088 -0.0588
  218MPD1    C4 3312   1.429   1.252  12.693 -0.0718 -0.3553 -0.1535
  218MPD1    C5 3313   1.304   1.309  12.705 -0.3391  0.2879 -0.5926
  218MPD1     H 3314   1.337   0.936  12.768 -0.7366 -0.4475 -1.0614
  218MPD1    H1 3315   1.512   1.319  12.673  0.6247 -0.9496  0.7393
  218MPD1    H2 3316   1.111   1.294  12.790 -1.5229 -1.3783 -0.8780
  218MPD1    H3 3317   1.301   1.416  12.693 -2.0566  0.3929  0.7506
  218MPD1     N 3318   1.552   1.047  12.700  0.3889  0.6413 -0.1378
  218MPD1    H5 3319   1.534   0.953  12.734  0.1233  0.5100 -0.6327
  218MPD1    N1 3320   1.103   1.034  12.851  0.4076 -0.4976 -0.1298
  218MPD1    H6 3321   1.017   1.084  12.828  0.1596  0.0357  1.9621
  218MPD1    H7 3322   1.109   0.942  12.808  1.0295 -0.2876 -0.4902
  219MPD1     C 3323   2.639   1.012  12.874 -0.5431 -0.7273 -0.1008
  219MPD1    C1 3324   2.593   1.060  12.750 -0.5087  0.9875 -0.2127
  219MPD1    C2 3325   2.451   1.046  12.727  0.2645 -0.5816  0.0698
  219MPD1    C3 3326   2.366   0.993  12.819  0.1814  0.0267  0.0460
  219MPD1    C4 3327   2.418   0.961  12.945 -0.5369 -0.3811 -0.9504
  219MPD1    C5 3328   2.551   0.988  12.978  0.2356  0.0117 -0.7151
  219MPD1     H 3329   2.413   1.071  12.629  0.6379 -3.0542 -0.7221
  219MPD1    H1 3330   2.355   0.916  13.022  2.0478  0.2875  1.5684
  219MPD1    H2 3331   2.745   1.003  12.894 -0.2930  0.0556 -1.0949
  219MPD1    H3 3332   2.594   0.955  13.072  1.8922  1.6706 -0.8894
  219MPD1     N 3333   2.224   0.971  12.810  0.1947  0.4917  0.3578
  219MPD1    H5 3334   2.181   0.963  12.901  0.4038 -0.6479  0.3627
  219MPD1    N1 3335   2.684   1.103  12.656 -0.0784 -1.4844 -0.1305
  219MPD1    H6 3336   2.764   1.145  12.701 -0.9693 -0.4249  0.4658
  219MPD1    H7 3337   2.643   1.168  12.589  0.3146 -0.2187  0.8745
  220MPD1     C 3338   1.490   1.539   9.047 -0.2122 -0.2954  0.1187
  220MPD1    C1 3339   1.547   1.565   9.170 -0.5140 -0.0569  0.1490
  220MPD1    C2 3340   1.493   1.495   9.281  0.1638  0.4703 -0.5252
  220MPD1    C3 3341   1.375   1.418   9.267 -0.0778 -0.0810  0.3466
  220MPD1    C4 3342   1.314   1.408   9.141 -0.2836 -0.3756 -0.5384
  220MPD1    C5 3343   1.371   1.482   9.036 -0.0482 -0.0879 -0.1715
  220MPD1     H 3344   1.536   1.507   9.379  1.2536  2.5151 -1.2457
  220MPD1    H1 3345   1.228   1.347   9.117 -0.3766 -0.5323  0.1858
  220MPD1    H2 3346   1.525   1.588   8.957 -2.3740  2.3972  0.7467
  220MPD1    H3 3347   1.310   1.468   8.947 -1.6710 -2.3558  1.2725
  220MPD1     N 3348   1.332   1.345   9.381 -0.4916 -0.3293  0.0771
  220MPD1    H5 3349   1.389   1.348   9.465  0.0172 -2.3210 -0.1871
  220MPD1    N1 3350   1.668   1.632   9.185 -0.4835 -0.4625 -0.0560
  220MPD1    H6 3351   1.667   1.678   9.276  0.0690  0.9880 -0.7912
  220MPD1    H7 3352   1.694   1.699   9.113 -2.7053  0.0928 -0.3453
  221MPD1     C 3353   4.623   3.824  16.809 -1.1500 -0.1974 -0.0499
  221MPD1    C1 3354   4.707   3.881  16.712  0.4033  0.8253  0.3423
  221MPD1    C2 3355   4.640   3.911  16.594 -0.2128 -0.3545 -0.3533
  221MPD1    C3 3356   4.509   3.878  16.563  0.2497 -0.0094  0.3568
  221MPD1    C4 3357   4.437   3.813  16.658 -0.1825  0.0970  0.6033
  221MPD1    C5 3358   4.495   3.794  16.783  0.2908  0.7065  0.0087
  221MPD1     H 3359   4.696   3.968  16.520  0.5499 -1.1366 -0.3791
  221MPD1    H1 3360   4.333   3.797  16.632  0.0797  3.0148 -2.1973
  221MPD1    H2 3361   4.651   3.803  16.912 -0.2309  0.7443 -0.1005
  221MPD1    H3 3362   4.433   3.741  16.855  0.5096 -0.1582 -0.4446
  221MPD1     N 3363   4.431   3.927  16.453 -0.6748 -0.8881 -0.3720
  221MPD1    H5 3364   4.336   3.892  16.442 -0.4582 -1.0594 -1.7545
  221MPD1    N1 3365   0.112   3.927  16.744 -0.6031  0.6334  0.5366
  221MPD1    H6 3366   0.139   3.873  16.826  0.7460  0.7759  0.1850
  221MPD1    H7 3367   0.172   3.896  16.667 -2.1153 -2.0050  0.4122
  222MPD1     C 3368   3.390   3.029  17.074  0.0014  0.6288 -0.5160
  222MPD1    C1 3369   3.367   3.167  17.088 -0.4155 -0.1218  0.7154
  222MPD1    C2 3370   3.296   3.211  17.198 -0.1833 -0.7733  0.7229
  222MPD1    C3 3371   3.243   3.134  17.301  0.2924  0.0300  0.6532
  222MPD1    C4 3372   3.262   3.000  17.286 -0.8938 -0.4340 -0.3046
  222MPD1    C5 3373   3.333   2.955  17.178 -0.0144  0.3978 -0.3998
  222MPD1     H 3374   3.314   3.317  17.217  0.6062 -0.6875 -0.5524
  222MPD1    H1 3375   3.234   2.925  17.359  1.0866 -0.1306  0.7622
  222MPD1    H2 3376   3.468   2.984  17.014  1.0842  0.4739  1.0117
  222MPD1    H3 3377   3.370   2.853  17.179  0.2278  0.4921  0.4682
  222MPD1     N 3378   3.177   3.177  17.417  0.1908 -1.0924 -0.9096
  222MPD1    H5 3379   3.150   3.106  17.483  1.6208 -0.6902  0.1111
  222MPD1    N1 3380   3.459   3.253  17.016  0.3333 -0.1001 -0.6001
  222MPD1    H6 3381   3.497   3.207  16.934  3.4977  0.9867  0.2179
  222MPD1    H7 3382   3.405   3.333  16.983 -0.8530 -1.2492 -1.4412
  223MPD1     C 3383   3.400   3.275   0.654 -0.1934 -0.2240  0.2257
  223MPD1    C1 3384   3.391   3.400   0.599 -0.3394 -0.1137 -0.2409
  223MPD1    C2 3385   3.324   3.414   0.479 -0.2060  0.5036  0.2212
  223MPD1    C3 3386   3.262   3.305   0.426  0.3892  0.1594 -0.1851
  223MPD1    C4 3387   3.267   3.179   0.486 -0.4392  0.3775 -0.5848
  223MPD1    C5 3388   3.335   3.167   0.598 -0.2911 -0.5494 -0.0074
  223MPD1     H 3389   3.325   3.511   0.431  0.4457  0.6472  0.5229
  223MPD1    H1 3390   3.208   3.095   0.452  0.1029 -0.5539  0.7846
  223MPD1    H2 3391   3.460   3.257   0.743 -0.7055 -0.0634  0.6050
  223MPD1    H3 3392   3.343   3.066   0.637 -1.1718 -0.0960  1.3502
  223MPD1     N 3393   3.187   3.326   0.307  0.5795 -0.1979  0.3739
  223MPD1    H5 3394   3.177   3.419   0.268  2.1814 -0.7606 -1.3907
  223MPD1    N1 3395   3.463   3.509   0.650 -0.3214 -0.1301 -0.0905
  223MPD1    H6 3396   3.472   3.513   0.751  2.6683  1.8923 -0.4482
  223MPD1    H7 3397   3.422   3.600   0.630  1.9171  0.6205 -1.2107
  224MPD1     C 3398   0.856   4.236   9.098  0.4529  0.3146 -0.3312
  224MPD1    C1 3399   0.774   4.347   9.079 -0.6221  0.1126 -0.3799
  224MPD1    C2 3400   0.660   4.357   9.154 -0.1678  0.2184  0.3881
  224MPD1    C3 3401   0.624   4.259   9.241 -0.2224 -0.3412 -0.2148
  224MPD1    C4 3402   0.699   4.149   9.250 -0.3596 -0.3987  0.4026
  224MPD1    C5 3403   0.819   4.136   9.181 -0.4388 -0.0338 -0.0299
  224MPD1     H 3404   0.612   4.454   9.150 -2.1576 -0.8605 -2.1849
  224MPD1    H1 3405   0.685   4.066   9.319  1.9760 -1.1475 -0.0382
  224MPD1    H2 3406   0.945   4.222   9.037 -1.1642 -0.0516 -2.5807
  224MPD1    H3 3407   0.881   4.047   9.173  1.1472  1.0420  0.3743
  224MPD1     N 3408   0.509   4.271   9.322 -0.0507 -0.0407  0.3705
  224MPD1    H5 3409   0.482   4.178   9.352 -1.4164  0.8235  1.8515
  224MPD1    N1 3410   0.819   4.460   8.999 -0.9412 -0.0413  0.3747
  224MPD1    H6 3411   0.910   4.492   9.030 -0.2957  0.7868 -2.3677
  224MPD1    H7 3412   0.752   4.536   8.999 -2.1358 -1.0850  2.9010
  225MPD1     C 3413   1.277   2.106  12.423 -0.1613 -0.2029  0.2733
  225MPD1    C1 3414   1.162   2.055  12.470  0.3342  0.5654  0.5074
  225MPD1    C2 3415   1.050   2.054  12.390  0.0256 -0.1904 -0.6244
  225MPD1    C3 3416   1.056   2.089  12.257 -0.0044 -0.5300  0.2379
  225MPD1    C4 3417   1.175   2.143  12.209 -0.6041  0.7088 -0.0841
  225MPD1    C5 3418   1.277   2.154  12.292  0.3828 -0.2573 -0.2373
  225MPD1     H 3419   0.951   2.027  12.423 -0.8439  0.3366 -2.8116
  225MPD1    H1 3420   1.180   2.176  12.106  0.6062  0.6654 -0.0351
  225MPD1    H2 3421   1.368   2.105  12.482  1.3100  2.8976 -1.9446
  225MPD1    H3 3422   1.382   2.175  12.271  0.4306  0.6701  0.9184
  225MPD1     N 3423   0.948   2.102  12.177 -0.2972  0.3153  0.4332
  225MPD1    H5 3424   0.965   2.148  12.088 -0.3721 -1.2517 -0.3983
  225MPD1    N1 3425   1.155   2.020  12.606  0.0180  0.8812 -0.6215
  225MPD1    H6 3426   1.251   2.009  12.638 -0.1236  0.6026 -0.2979
  225MPD1    H7 3427   1.113   1.928  12.618 -1.7855  1.6785 -0.7643
  226MPD1     C 3428   0.275   2.669   9.423  0.4614 -0.1635  0.6168
  226MPD1    C1 3429   0.209   2.565   9.485  0.4019  0.8518  0.1587
  226MPD1    C2 3430   0.220   2.444   9.432  0.5292  0.3235  0.2233
  226MPD1    C3 3431   0.292   2.427   9.320  0.3608 -0.4217 -0.0879
  226MPD1    C4 3432   0.338   2.531   9.249 -0.2956 -0.0033 -0.0566
  226MPD1    C5 3433   0.342   2.649   9.306 -1.1924 -0.0991  0.4767
  226MPD1     H 3434   0.167   2.358   9.470  1.9677  0.2472  2.0416
  226MPD1    H1 3435   0.386   2.528   9.152 -1.3832  1.8987 -0.6580
  226MPD1    H2 3436   0.284   2.764   9.474  1.5525 -0.1917  0.4631
  226MPD1    H3 3437   0.380   2.742   9.264 -1.7517  0.5329  1.3586
  226MPD1     N 3438   0.287   2.293   9.267  0.0060 -0.0002  0.3376
  226MPD1    H5 3439   0.240   2.226   9.327 -0.3419 -1.2493 -1.3413
  226MPD1    N1 3440   0.149   2.581   9.608 -0.7529  0.1036 -0.3455
  226MPD1    H6 3441   0.101   2.498   9.642 -2.2790  1.1373 -0.0160
  226MPD1    H7 3442   0.093   2.665   9.612  0.9605  1.2054  0.4703
  227MPD1     C 3443   4.289   1.804   9.263 -0.3148  0.2150 -0.0489
  227MPD1    C1 3444   4.316   1.932   9.210  0.3296 -0.2710  0.3375
  227MPD1    C2 3445   4.449   1.965   9.185 -0.6539  0.3022 -0.6967
  227MPD1    C3 3446   4.547   1.877   9.201  0.2113 -0.2607 -0.1112
  227MPD1    C4 3447   4.527   1.755   9.246  0.4109  0.2932 -0.2914
  227MPD1    C5 3448   4.395   1.721   9.275 -0.1112 -0.2732  0.5776
  227MPD1     H 3449   4.482   2.065   9.161 -2.3498  0.9888 -0.2266
  227MPD1    H1 3450   4.609   1.689   9.272 -0.3774 -0.4823  0.2467
  227MPD1    H2 3451   4.185   1.780   9.283 -0.5671  0.8589 -0.5498
  227MPD1    H3 3452   4.365   1.625   9.317  0.5219 -0.5541  0.3815
  227MPD1     N 3453   4.679   1.928   9.168  0.3692  0.4893 -0.8097
  227MPD1    H5 3454   4.690   2.026   9.145 -2.2345  0.8241 -0.7336
  227MPD1    N1 3455   4.205   2.020   9.184  0.2785 -0.0752 -0.5093
  227MPD1    H6 3456   4.115   1.979   9.159 -0.0139  0.1168  0.2271
  227MPD1    H7 3457   4.244   2.097   9.130  0.1486  0.0848 -0.3724
  228MPD1     C 3458   2.682   4.479  12.639  0.1570  0.0309 -0.2612
  228MPD1    C1 3459   2.574   4.450  12.560  0.4021 -0.2239 -0.4984
  228MPD1    C2 3460   2.469   4.382  12.622 -0.9196 -0.0988 -0.0063
  228MPD1    C3 3461   2.471   4.336  12.752 -0.4793 -0.0516 -0.4713
  228MPD1    C4 3462   2.578   4.378  12.826  0.4197  0.3809 -0.2823
  228MPD1    C5 3463   2.684   4.444  12.773  0.1093 -0.6053 -0.0909
  228MPD1     H 3464   2.379   4.352  12.570 -0.5852  1.4490 -1.4820
  228MPD1    H1 3465   2.595   4.343  12.927 -1.7980  0.5319  0.1413
  228MPD1    H2 3466   2.772   4.529  12.606 -1.2054  2.4034 -0.3592
  228MPD1    H3 3467   2.764   4.462  12.844  0.9543  2.1836 -1.7634
  228MPD1     N 3468   2.364   4.259  12.802 -0.1739 -0.4620  0.0340
  228MPD1    H5 3469   2.279   4.255  12.747 -0.3177  1.5107  0.1119
  228MPD1    N1 3470   2.575   4.473  12.419  0.2324 -0.0923  0.1192
  228MPD1    H6 3471   2.637   4.545  12.380  0.1526 -0.1139 -0.0487
  228MPD1    H7 3472   2.485   4.505  12.382 -0.2830  1.6126  2.8537
  229MPD1     C 3473   2.113   2.782  14.767 -0.5671  0.3568 -0.2804
  229MPD1    C1 3474   2.165   2.675  14.705  0.4467  0.2743  0.0518
  229MPD1    C2 3475   2.167   2.557  14.763  0.1055 -0.5818  0.3819
  229MPD1    C3 3476   2.138   2.539  14.891 -0.3219 -0.3562 -0.0600
  229MPD1    C4 3477   2.070   2.642  14.950  0.1254 -0.4755  0.7229
  229MPD1    C5 3478   2.055   2.766  14.893  0.9684  0.3804  0.7525
  229MPD1     H 3479   2.209   2.475  14.706  0.1214  0.2395 -0.7759
  229MPD1    H1 3480   2.025   2.618  15.045  3.8926 -1.2559  2.3166
  229MPD1    H2 3481   2.096   2.881  14.725  3.3006  0.3600 -1.8692
  229MPD1    H3 3482   2.007   2.852  14.939  0.4214  0.9054 -0.8250
  229MPD1     N 3483   2.146   2.413  14.966 -0.1678 -0.2798 -0.7482
  229MPD1    H5 3484   2.101   2.400  15.056 -2.9399  2.4440 -1.7720
  229MPD1    N1 3485   2.201   2.682  14.571  0.3419  0.2539  0.3294
  229MPD1    H6 3486   2.220   2.777  14.541  1.0524 -0.1403 -0.4549
  229MPD1    H7 3487   2.286   2.630  14.552 -0.4971  0.4404 -3.9662
  230MPD1     C 3488   2.487   2.457  15.717 -0.8306  0.3168 -0.2806
  230MPD1    C1 3489   2.422   2.528  15.612  0.0008  0.1226  0.5926
  230MPD1    C2 3490   2.372   2.463  15.502 -0.0829 -0.1379 -0.0544
  230MPD1    C3 3491   2.373   2.323  15.501 -0.3639 -0.0618 -0.1446
  230MPD1    C4 3492   2.442   2.254  15.596  0.1996  0.0030  0.3212
  230MPD1    C5 3493   2.500   2.322  15.700 -0.6763 -0.2762  0.3388
  230MPD1     H 3494   2.318   2.520  15.427 -1.6676 -0.9665  0.4654
  230MPD1    H1 3495   2.443   2.146  15.587 -1.5163  0.0991 -0.9554
  230MPD1    H2 3496   2.529   2.505  15.804  0.7449 -3.7949  1.2124
  230MPD1    H3 3497   2.557   2.276  15.779  1.0385  0.1969 -0.6296
  230MPD1     N 3498   2.324   2.255  15.383  0.3719 -0.2122 -0.3795
  230MPD1    H5 3499   2.299   2.317  15.306 -2.6290 -2.8584 -1.5531
  230MPD1    N1 3500   2.407   2.668  15.625  0.6581 -0.1430  0.8782
  230MPD1    H6 3501   2.385   2.716  15.538  1.1222 -2.9155 -0.7551
  230MPD1    H7 3502   2.493   2.701  15.668  1.2594  0.5647 -0.8454
  231MPD1     C 3503   0.264   3.898  16.053  0.5797 -0.0200 -0.1353
  231MPD1    C1 3504   0.361   3.843  15.965  0.2516  0.3284 -0.2505
  231MPD1    C2 3505   0.424   3.929  15.876  0.3658 -0.6206 -0.4910
  231MPD1    C3 3506   0.399   4.065  15.864  0.6294  0.9051  0.3314
  231MPD1    C4 3507   0.303   4.114  15.947 -0.5728  0.4170 -0.0430
  231MPD1    C5 3508   0.240   4.032  16.033 -0.1671  0.4430 -0.2729
  231MPD1     H 3509   0.503   3.883  15.818 -0.3604 -2.0036 -0.4019
  231MPD1    H1 3510   0.269   4.217  15.936 -0.5869  0.2138 -1.8453
  231MPD1    H2 3511   0.198   3.850  16.124  0.3994 -0.0572 -0.3301
  231MPD1    H3 3512   0.167   4.090  16.089  0.2939  3.9939 -3.3097
  231MPD1     N 3513   0.465   4.146  15.772 -0.3011 -0.5490  0.4863
  231MPD1    H5 3514   0.501   4.095  15.693  2.1865  2.2511 -0.1965
  231MPD1    N1 3515   0.379   3.707  15.956 -0.0527  0.3736 -0.0725
  231MPD1    H6 3516   0.473   3.679  15.931  0.1599  0.3088  0.7809
  231MPD1    H7 3517   0.354   3.646  16.034  0.9399  0.6089  0.4187
  232MPD1     C 3518   3.044   1.807  17.409  0.2317  0.6189  0.3920
  232MPD1    C1 3519   3.014   1.869  17.525  0.0030 -0.5057 -0.0416
  232MPD1    C2 3520   2.890   1.849  17.580 -0.0598 -0.5316 -0.3579
  232MPD1    C3 3521   2.784   1.783  17.516 -0.1997  0.4356  0.3193
  232MPD1    C4 3522   2.806   1.752  17.386  0.2947  0.7037  0.3033
  232MPD1    C5 3523   2.937   1.759  17.333 -0.4397 -0.3021  0.4029
  232MPD1     H 3524   2.864   1.885  17.679  0.6539  2.5308 -1.2894
  232MPD1    H1 3525   2.724   1.716  17.325  0.0817 -1.2334  1.7470
  232MPD1    H2 3526   3.143   1.796  17.364  0.0957  1.8250 -0.2065
  232MPD1    H3 3527   2.958   1.717  17.235  0.6828 -1.1186  0.9769
  232MPD1     N 3528   2.658   1.763  17.583  0.3706 -0.1782  0.0668
  232MPD1    H5 3529   2.655   1.769  17.684 -1.5495 -2.5673  0.1404
  232MPD1    N1 3530   3.107   1.927  17.609  0.6232  0.4051 -0.1276
  232MPD1    H6 3531   3.071   1.992  17.679 -0.4250 -0.0148 -0.2859
  232MPD1    H7 3532   3.186   1.961  17.555  1.9076  0.2865  1.6645
  233MPD1     C 3533   3.092   1.393   1.376  0.1337 -0.2243  0.5779
  233MPD1    C1 3534   3.133   1.337   1.258  0.3442 -0.0857 -0.2685
  233MPD1    C2 3535   3.272   1.342   1.228 -0.0830  0.0214  0.6789
  233MPD1    C3 3536   3.362   1.410   1.313 -0.0560 -0.0341 -0.0815
  233MPD1    C4 3537   3.318   1.471   1.429  0.2836  0.2702  0.5446
  233MPD1    C5 3538   3.184   1.454   1.462 -0.7034  0.2651  0.5571
  233MPD1     H 3539   3.306   1.301   1.134 -2.3497  1.1966 -0.6508
  233MPD1    H1 3540   3.376   1.529   1.499  0.4691  0.0445  0.5739
  233MPD1    H2 3541   2.989   1.390   1.408  0.7475 -0.8489  2.4388
  233MPD1    H3 3542   3.138   1.490   1.553 -2.6932 -1.0588  0.0809
  233MPD1     N 3543   3.500   1.436   1.276 -0.3182  0.1430 -0.5200
  233MPD1    H5 3544   3.560   1.490   1.337 -0.9139  1.4057 -1.0661
  233MPD1    N1 3545   3.051   1.256   1.175  0.0789 -0.4931 -0.8048
  233MPD1    H6 3546   3.086   1.246   1.080  0.7683 -4.8873 -0.1069
  233MPD1    H7 3547   2.952   1.278   1.175 -0.1082 -1.3291 -0.5080
  234MPD1     C 3548   0.425   3.031  10.823  0.3883 -0.7131 -0.6980
  234MPD1    C1 3549   0.519   3.017  10.724 -0.3092 -0.3371  0.4301
  234MPD1    C2 3550   0.522   3.108  10.620  0.6186  0.1291  0.2002
  234MPD1    C3 3551   0.454   3.226  10.622 -0.6432 -0.7612 -0.3527
  234MPD1    C4 3552   0.375   3.248  10.740  0.6249  0.6407 -0.8339
  234MPD1    C5 3553   0.358   3.147  10.833  1.2435 -0.3940  0.2014
  234MPD1     H 3554   0.566   3.086  10.524 -0.1028  1.6653 -0.4911
  234MPD1    H1 3555   0.319   3.338  10.761 -1.8660 -0.7586 -1.4729
  234MPD1    H2 3556   0.402   2.956  10.898 -0.1560  0.5619  0.4154
  234MPD1    H3 3557   0.288   3.160  10.915 -0.9370  1.0492 -1.8744
  234MPD1     N 3558   0.457   3.317  10.510 -0.3296 -0.0174 -0.0172
  234MPD1    H5 3559   0.509   3.291  10.427  2.0350  1.4189  1.0097
  234MPD1    N1 3560   0.583   2.889  10.705 -0.5988 -0.6036 -0.4757
  234MPD1    H6 3561   0.674   2.899  10.661 -1.7446 -0.3872 -2.8066
  234MPD1    H7 3562   0.598   2.821  10.780 -0.0643 -0.8200 -0.7848
  235MPD1     C 3563   0.368   2.073   9.888 -0.5164 -0.4784  0.4156
  235MPD1    C1 3564   0.451   2.184   9.894  0.3475 -0.3631 -0.0068
  235MPD1    C2 3565   0.515   2.226   9.778  0.1906 -0.7321 -0.6106
  235MPD1    C3 3566   0.497   2.161   9.656 -0.3436  0.6473  0.3018
  235MPD1    C4 3567   0.413   2.049   9.657 -0.1634 -0.1072  0.6274
  235MPD1    C5 3568   0.347   2.013   9.768 -0.4856  0.1743  0.5419
  235MPD1     H 3569   0.590   2.304   9.782  0.5338 -1.1580  1.1424
  235MPD1    H1 3570   0.397   1.991   9.567  0.3376 -1.1477  1.2067
  235MPD1    H2 3571   0.308   2.038   9.972  2.4713  0.4028  2.9269
  235MPD1    H3 3572   0.287   1.923   9.760  0.6761 -0.6130  0.5310
  235MPD1     N 3573   0.570   2.210   9.549  0.2394  0.8305 -0.3736
  235MPD1    H5 3574   0.631   2.286   9.578  1.5592  0.1165 -1.3236
  235MPD1    N1 3575   0.487   2.221  10.024 -0.1469 -0.2003 -0.1692
  235MPD1    H6 3576   0.406   2.236  10.084  0.4282 -0.4217  0.6668
  235MPD1    H7 3577   0.522   2.316  10.014  0.1910 -0.3666 -0.5537
  236MPD1     C 3578   1.082   2.850   9.656 -0.0057  0.1388  0.6309
  236MPD1    C1 3579   1.106   2.723   9.699  0.6132 -0.2192 -0.6645
  236MPD1    C2 3580   1.159   2.696   9.821  0.1424 -0.5659  0.0835
  236MPD1    C3 3581   1.211   2.804   9.898  0.3261 -0.6790 -0.1313
  236MPD1    C4 3582   1.198   2.928   9.848  0.4093 -0.5618 -0.1859
  236MPD1    C5 3583   1.131   2.953   9.735 -0.8173 -0.4580 -0.6987
  236MPD1     H 3584   1.154   2.596   9.863  0.1957 -0.1140  1.1549
  236MPD1    H1 3585   1.231   3.011   9.909  2.1723  0.3866 -2.4395
  236MPD1    H2 3586   1.032   2.880   9.565 -1.4252  0.9953  1.6921
  236MPD1    H3 3587   1.123   3.054   9.697 -0.0298  0.2674  1.0644
  236MPD1     N 3588   1.271   2.782  10.020  0.0680 -0.1225 -0.0763
  236MPD1    H5 3589   1.305   2.869  10.059  2.4705 -1.9154  1.7558
  236MPD1    N1 3590   1.050   2.619   9.623  1.0876  0.3707  0.1789
  236MPD1    H6 3591   1.095   2.531   9.646  1.0840  0.0062 -1.1903
  236MPD1    H7 3592   1.045   2.637   9.523  1.2753 -0.0355  0.0947
  237MPD1     C 3593   0.911   0.547  15.434 -0.1858 -0.6151  0.1729
  237MPD1    C1 3594   0.822   0.586  15.532  0.6051 -0.1006  0.3040
  237MPD1    C2 3595   0.684   0.601  15.506  0.0720  0.4768  0.4462
  237MPD1    C3 3596   0.632   0.596  15.374  0.2667 -0.2832 -1.1431
  237MPD1    C4 3597   0.725   0.561  15.279 -0.0918 -0.2546  0.5153
  237MPD1    C5 3598   0.858   0.544  15.305  0.1262  0.9682 -0.5047
  237MPD1     H 3599   0.620   0.632  15.588 -2.2462 -1.1594 -0.7460
  237MPD1    H1 3600   0.693   0.558  15.175  0.0370  0.8544  0.4384
  237MPD1    H2 3601   1.016   0.528  15.451 -0.4731 -3.3281 -1.0190
  237MPD1    H3 3602   0.927   0.524  15.223  1.5201  1.6989  0.5057
  237MPD1     N 3603   0.496   0.604  15.346  0.0295 -0.0632  0.6175
  237MPD1    H5 3604   0.469   0.583  15.250 -2.0062  0.1131  1.1439
  237MPD1    N1 3605   0.859   0.593  15.662 -0.0610  0.5627 -0.1330
  237MPD1    H6 3606   0.808   0.671  15.705 -1.4897 -0.0199 -0.7923
  237MPD1    H7 3607   0.958   0.611  15.679 -0.3069  2.5741 -0.7982
  238MPD1     C 3608   2.303   4.636  16.106  0.5101 -0.8709 -0.3645
  238MPD1    C1 3609   2.173   4.605  16.080 -0.8053  0.4063  0.3001
  238MPD1    C2 3610   2.136   4.582  15.950  0.1711 -0.5218 -0.3257
  238MPD1    C3 3611   2.216   4.597  15.843 -0.3956 -0.4218  0.5809
  238MPD1    C4 3612   2.348   4.626  15.868 -0.0030 -0.0300  0.0545
  238MPD1    C5 3613   2.394   4.643  15.997 -0.2360 -0.3585 -0.1755
  238MPD1     H 3614   2.029   4.573  15.933  0.2039 -0.1261 -0.7497
  238MPD1    H1 3615   2.426   4.640  15.793  1.8247 -0.7876  1.8175
  238MPD1    H2 3616   2.339   4.648  16.207  0.1215  3.2542 -0.7006
  238MPD1    H3 3617   2.500   4.664  16.013 -0.6016  1.8179 -0.5738
  238MPD1     N 3618   2.169   4.587  15.710  0.1391  0.0010  0.1830
  238MPD1    H5 3619   2.240   4.626  15.649 -0.7864  0.2044 -0.7620
  238MPD1    N1 3620   2.091   4.607  16.188  0.0757  0.9142  0.0043
  238MPD1    H6 3621   2.010   4.547  16.172  1.3204 -1.1800  1.5019
  238MPD1    H7 3622   2.124   4.610  16.285  1.7468  1.2405 -0.5786
  239MPD1     C 3623   2.577   0.415  14.931  0.0037 -0.2068  0.0069
  239MPD1    C1 3624   2.691   0.451  14.864 -0.1098 -0.1554  0.0238
  239MPD1    C2 3625   2.685   0.535  14.755 -0.0619  0.1703  0.2623
  239MPD1    C3 3626   2.566   0.596  14.719  0.5666  0.6136 -1.2012
  239MPD1    C4 3627   2.452   0.563  14.793 -0.1771 -0.0908  0.3614
  239MPD1    C5 3628   2.459   0.472  14.894  0.1787 -0.6431  0.0099
  239MPD1     H 3629   2.782   0.559  14.712 -0.5651 -0.1258 -1.0325
  239MPD1    H1 3630   2.353   0.603  14.773 -0.6446 -1.5903 -0.3098
  239MPD1    H2 3631   2.582   0.345  15.015  1.8274  0.9599  0.8661
  239MPD1    H3 3632   2.366   0.460  14.949 -1.4454 -1.2802 -2.8311
  239MPD1     N 3633   2.551   0.679  14.612 -0.1249  0.0695  0.3482
  239MPD1    H5 3634   2.459   0.721  14.602 -0.8145 -1.4713  0.1734
  239MPD1    N1 3635   2.813   0.391  14.895 -0.0313  0.5211 -0.2063
  239MPD1    H6 3636   2.837   0.351  14.986 -4.7897 -0.7162  0.4834
  239MPD1    H7 3637   2.896   0.435  14.856  1.7118 -2.3222  0.3041
  240MPD1     C 3638   1.544   0.180  13.579 -1.3345 -0.2934  0.5311
  240MPD1    C1 3639   1.563   0.069  13.493  0.1880 -0.0646 -0.0823
  240MPD1    C2 3640   1.646   4.693  13.544  0.1156 -0.1347 -0.8207
  240MPD1    C3 3641   1.690   4.690  13.673 -0.3239  0.4395  0.3902
  240MPD1    C4 3642   1.669   0.075  13.756 -0.2824 -0.6710  0.2196
  240MPD1    C5 3643   1.591   0.178  13.708 -0.0579  0.6278  0.0691
  240MPD1     H 3644   1.683   4.610  13.484  0.5780 -1.2702  1.0267
  240MPD1    H1 3645   1.706   0.091  13.856 -0.1926  0.2691  0.0376
  240MPD1    H2 3646   1.492   0.268  13.544 -2.7059 -0.6963  1.5832
  240MPD1    H3 3647   1.577   0.269  13.765  3.0703  1.0563  0.1736
  240MPD1     N 3648   1.773   4.591  13.718  0.5567 -0.4023 -0.0031
  240MPD1    H5 3649   1.796   4.519  13.650  2.4329 -0.1736  0.3857
  240MPD1    N1 3650   1.533   0.081  13.355 -0.0929  0.2444  0.5412
  240MPD1    H6 3651   1.516   4.714  13.310 -0.0338 -0.0545  1.1077
  240MPD1    H7 3652   1.449   0.138  13.346 -0.5600 -0.7285 -1.1658
  241MPD1     C 3653   2.286   4.502  14.602  0.1394  0.4792 -0.7393
  241MPD1    C1 3654   2.322   4.390  14.527 -0.1518  0.0109  0.0543
  241MPD1    C2 3655   2.254   4.364  14.412 -0.4958  0.0462 -0.4931
  241MPD1    C3 3656   2.146   4.444  14.371  0.4994 -0.4903  0.1849
  241MPD1    C4 3657   2.112   4.551  14.455  0.0815 -0.1134 -0.3689
  241MPD1    C5 3658   2.178   4.578  14.573 -0.3923 -0.1666  0.4952
  241MPD1     H 3659   2.286   4.279  14.353 -0.6284  1.2848 -2.3561
  241MPD1    H1 3660   2.033   4.623  14.434 -1.0344 -1.2036  0.0821
  241MPD1    H2 3661   2.335   4.528  14.695  1.9607 -0.0886 -1.5233
  241MPD1    H3 3662   2.149   4.660  14.639 -0.6674  0.4820 -0.4285
  241MPD1     N 3663   2.070   4.430  14.258  0.7780 -0.1589 -0.6630
  241MPD1    H5 3664   1.998   4.501  14.245 -0.0570 -1.0747 -1.0635
  241MPD1    N1 3665   2.402   4.295  14.584  0.1068 -0.2555  0.5686
  241MPD1    H6 3666   2.466   4.330  14.655  0.3424 -2.0228  1.2143
  241MPD1    H7 3667   2.464   4.250  14.517 -0.7088 -1.7237  0.8029
  242MPD1     C 3668   1.829   3.713  15.662 -0.2663 -0.1426 -0.5366
  242MPD1    C1 3669   1.968   3.723  15.661 -0.0231 -0.2985  0.2454
  242MPD1    C2 3670   2.034   3.683  15.542 -0.4738 -0.5335  0.2119
  242MPD1    C3 3671   1.969   3.631  15.437 -0.1989  0.7885 -0.5728
  242MPD1    C4 3672   1.834   3.610  15.449  0.3234 -1.0230 -0.3335
  242MPD1    C5 3673   1.763   3.655  15.557 -0.9182  0.1917 -0.0923
  242MPD1     H 3674   2.142   3.689  15.544 -0.6281  2.4789 -0.5367
  242MPD1    H1 3675   1.779   3.558  15.370 -0.3832 -1.9345  0.7473
  242MPD1    H2 3676   1.768   3.761  15.737  0.8600 -0.4453  0.5580
  242MPD1    H3 3677   1.657   3.635  15.556 -1.2519  1.9194 -0.6420
  242MPD1     N 3678   2.033   3.586  15.316  0.0436  0.1118  0.1488
  242MPD1    H5 3679   1.970   3.559  15.241  0.1620  2.6058 -0.8379
  242MPD1    N1 3680   2.037   3.786  15.765 -0.0868 -0.7297  0.1029
  242MPD1    H6 3681   1.982   3.795  15.850 -1.5642  2.1596 -1.1351
  242MPD1    H7 3682   2.130   3.752  15.786  0.7231  1.0022 -0.6584
  243MPD1     C 3683   3.475   2.032  17.619  0.3591 -0.0015  0.1584
  243MPD1    C1 3684   3.513   1.898  17.631  0.2096 -0.0104  0.7743
  243MPD1    C2 3685   3.509   1.820  17.522  0.6775  0.5373  0.2851
  243MPD1    C3 3686   3.469   1.868  17.395  0.1346 -0.0093 -1.0406
  243MPD1    C4 3687   3.409   1.996  17.387  1.1920  0.3462  0.3554
  243MPD1    C5 3688   3.427   2.076  17.500  0.3335 -0.3119 -0.4499
  243MPD1     H 3689   3.549   1.719  17.523 -0.3549  0.1102 -0.5486
  243MPD1    H1 3690   3.362   2.042  17.301  1.3742  0.7980  0.4972
  243MPD1    H2 3691   3.490   2.089   0.016  0.4209 -0.5982  0.5217
  243MPD1    H3 3692   3.376   2.171  17.509 -2.3693 -1.8567  0.4322
  243MPD1     N 3693   3.496   1.791  17.280 -0.9304 -0.0219  0.3507
  243MPD1    H5 3694   3.554   1.708  17.290 -0.4654  0.3704  0.8841
  243MPD1    N1 3695   3.582   1.851   0.048 -0.2479 -0.1071  0.1042
  243MPD1    H6 3696   3.545   1.891   0.134 -0.9660 -1.1303  0.2710
  243MPD1    H7 3697   3.586   1.749   0.058  1.0842  0.0528  1.3164
  244MPD1     C 3698   4.046   1.201  17.331 -0.0821  0.2170 -0.5115
  244MPD1    C1 3699   4.001   1.325  17.376 -0.1604  0.4161  0.2196
  244MPD1    C2 3700   3.898   1.390  17.327 -0.5579 -0.3050 -0.3738
  244MPD1    C3 3701   3.839   1.342  17.214  0.2746 -0.1925  0.8437
  244MPD1    C4 3702   3.885   1.222  17.165  0.0961  0.6308 -0.2928
  244MPD1    C5 3703   3.990   1.158  17.215 -0.8710  0.9014 -0.7110
  244MPD1     H 3704   3.858   1.480  17.373  0.5697 -0.4031  0.7816
  244MPD1    H1 3705   3.843   1.183  17.072  1.6710  0.6098 -0.9886
  244MPD1    H2 3706   4.111   1.137  17.390 -0.9511 -1.2504 -1.1324
  244MPD1    H3 3707   4.015   1.060  17.174 -1.7051  0.2508  0.3562
  244MPD1     N 3708   3.742   1.427  17.152 -0.4406  0.5111 -0.1034
  244MPD1    H5 3709   3.714   1.510  17.203  0.1039 -0.8851  2.4698
  244MPD1    N1 3710   4.066   1.364  17.495 -0.6292 -0.8509  0.3473
  244MPD1    H6 3711   4.164   1.334  17.500 -0.0569  1.1558  1.1215
  244MPD1    H7 3712   4.051   1.462  17.515 -0.4267 -0.2354 -2.5914
  245MPD1     C 3713   4.410   2.503  13.032 -0.6996 -0.2519 -0.3641
  245MPD1    C1 3714   4.392   2.521  13.167  0.3770  0.2531 -0.0389
  245MPD1    C2 3715   4.453   2.624  13.229 -0.2102  0.5883 -0.4799
  245MPD1    C3 3716   4.536   2.707  13.152  0.4402 -0.4693  0.4897
  245MPD1    C4 3717   4.548   2.687  13.010  0.1239  0.5881  0.1536
  245MPD1    C5 3718   4.483   2.589  12.955  0.1718  0.3665 -0.2559
  245MPD1     H 3719   4.425   2.638  13.333 -0.8758  0.0386 -0.5848
  245MPD1    H1 3720   4.608   2.754  12.948  0.8600 -1.6793 -1.5680
  245MPD1    H2 3721   4.363   2.422  12.977  1.0172  0.0948 -2.3082
  245MPD1    H3 3722   4.490   2.575  12.848  3.2220  1.6910 -0.2197
  245MPD1     N 3723   4.619   2.801  13.226 -0.0466 -0.0611 -0.4177
  245MPD1    H5 3724   4.644   2.773  13.320  0.6051  0.6631 -0.3726
  245MPD1    N1 3725   4.290   2.447  13.237  0.3537  0.1542  0.2329
  245MPD1    H6 3726   4.275   2.356  13.195  1.3507  0.7895 -1.4835
  245MPD1    H7 3727   4.314   2.436  13.335 -2.5166  0.1806  0.9634
  246MPD1     C 3728   4.659   4.687   9.077 -0.2507 -0.4279  0.0275
  246MPD1    C1 3729   4.596   4.580   9.131  0.0691  0.0379  0.3390
  246MPD1    C2 3730   4.663   4.455   9.118  0.4571 -0.0736  0.7931
  246MPD1    C3 3731   0.065   4.449   9.062 -0.1066 -0.4068 -0.2682
  246MPD1    C4 3732   0.122   4.560   9.006 -0.5848  1.1683 -0.2816
  246MPD1    C5 3733   0.053   4.678   9.013 -0.8303  0.9021  0.4407
  246MPD1     H 3734   4.609   4.370   9.157  0.0002 -0.3066 -0.3514
  246MPD1    H1 3735   0.224   4.561   8.969 -0.4772  3.0787  0.0813
  246MPD1    H2 3736   4.610   0.060   9.076 -1.1103 -0.8881 -1.5787
  246MPD1    H3 3737   0.107   0.045   8.989 -0.1516  0.8221  1.6974
  246MPD1     N 3738   0.132   4.323   9.068 -0.2887 -0.1164  0.2003
  246MPD1    H5 3739   0.086   4.246   9.115 -0.4356  0.3245  0.7817
  246MPD1    N1 3740   4.463   4.595   9.170  0.0856  0.7123  0.5231
  246MPD1    H6 3741   4.432   4.521   9.232 -1.9991  0.1976 -1.1216
  246MPD1    H7 3742   4.448   4.689   9.204  0.3801 -0.5815  4.2347
  247MPD1     C 3743   3.983   2.193  15.720 -0.0826 -0.2410 -0.4488
  247MPD1    C1 3744   4.065   2.080  15.712  0.1072  0.2576  0.6394
  247MPD1    C2 3745   4.201   2.095  15.759 -0.1868 -0.7849 -0.7074
  247MPD1    C3 3746   4.239   2.213  15.828 -0.5007  0.6343 -0.1444
  247MPD1    C4 3747   4.143   2.307  15.855  0.5929  0.0384 -0.0817
  247MPD1    C5 3748   4.018   2.292  15.809 -0.8761 -0.1989  0.3206
  247MPD1     H 3749   4.273   2.016  15.739  0.7552  0.4362 -2.1283
  247MPD1    H1 3750   4.162   2.390  15.922  1.4326 -0.5241  0.3826
  247MPD1    H2 3751   3.889   2.202  15.668  0.4765  1.4789 -1.1763
  247MPD1    H3 3752   3.945   2.372  15.822  2.1670  2.7541 -0.5867
  247MPD1     N 3753   4.366   2.240  15.882 -0.0719 -0.0929 -0.3842
  247MPD1    H5 3754   4.383   2.321  15.941 -0.0377 -1.1816  1.1153
  247MPD1    N1 3755   4.026   1.986  15.625  1.1233 -0.2923 -0.5280
  247MPD1    H6 3756   4.068   1.897  15.651  1.2876 -0.5545 -1.6833
  247MPD1    H7 3757   3.926   1.970  15.626  1.3126 -1.4610 -1.0219
  248MPD1     C 3758   3.717   3.084  17.203 -0.0866 -0.2598  0.0571
  248MPD1    C1 3759   3.803   3.188  17.231  0.1605  0.0072  0.2673
  248MPD1    C2 3760   3.850   3.207  17.365 -0.2001 -0.1005 -0.0388
  248MPD1    C3 3761   3.817   3.111  17.462  0.3714 -0.3845  0.2791
  248MPD1    C4 3762   3.737   3.003  17.433 -0.5327  0.2150  0.6152
  248MPD1    C5 3763   3.687   2.992  17.306  0.0319 -0.4777 -0.1370
  248MPD1     H 3764   3.909   3.294  17.391 -0.6298  0.5718 -1.2879
  248MPD1    H1 3765   3.713   2.933  17.512  4.6021 -1.2382  0.8740
  248MPD1    H2 3766   3.681   3.061  17.104 -2.0665  1.5400  0.3713
  248MPD1    H3 3767   3.622   2.909  17.278 -1.9260  0.9411  0.2656
  248MPD1     N 3768   3.865   3.131  17.595 -0.4248  0.5226 -0.4074
  248MPD1    H5 3769   3.922   3.213  17.610  0.2060 -0.4736  2.5140
  248MPD1    N1 3770   3.835   3.286  17.137  0.7082 -0.1956  0.2423
  248MPD1    H6 3771   3.920   3.335  17.165  1.5175 -1.4532  0.0304
  248MPD1    H7 3772   3.847   3.244  17.045  2.0738  0.6936  0.0039
  249MPD1     C 3773   2.491   2.935  10.031 -0.2723 -0.3076 -0.3062
  249MPD1    C1 3774   2.613   2.897  10.088 -0.2110  1.4047 -0.3461
  249MPD1    C2 3775   2.656   2.771  10.056 -0.4136 -0.3355  0.0172
  249MPD1    C3 3776   2.579   2.683   9.981 -0.3780 -0.0920  0.6146
  249MPD1    C4 3777   2.457   2.723   9.931  0.2901  0.6719  0.1821
  249MPD1    C5 3778   2.411   2.844   9.968 -0.0898 -0.3567  0.2498
  249MPD1     H 3779   2.747   2.731  10.099 -0.3242  0.0483  0.1763
  249MPD1    H1 3780   2.398   2.654   9.873  1.8602  0.7349 -1.4747
  249MPD1    H2 3781   2.447   3.032  10.052  0.3677 -0.2619  0.8128
  249MPD1    H3 3782   2.312   2.875   9.935 -0.4783 -1.4294  0.4241
  249MPD1     N 3783   2.643   2.564   9.949 -0.2318  0.1382  0.0929
  249MPD1    H5 3784   2.734   2.536   9.984 -0.2224  0.4744  0.3406
  249MPD1    N1 3785   2.700   2.989  10.150 -0.1842  0.2024 -0.1125
  249MPD1    H6 3786   2.760   2.941  10.218 -1.6579 -1.9806 -0.3242
  249MPD1    H7 3787   2.658   3.067  10.199 -4.7185 -2.6935  0.6480
  250MPD2     C 3788   3.352   1.090  13.171  0.5521  0.1037 -0.2616
  250MPD2    C1 3789   3.339   1.165  13.052 -0.7525 -0.0218 -0.1397
  250MPD2    C2 3790   3.311   1.105  12.931  0.2091 -0.2809  0.4200
  250MPD2    C3 3791   3.296   0.968  12.925 -0.2842 -0.1426 -0.4708
  250MPD2    C4 3792   3.336   0.892  13.039 -0.9427 -0.1164  0.7724
  250MPD2    C5 3793   3.355   0.957  13.160 -0.3857  0.7248 -0.4524
  250MPD2     H 3794   3.295   1.165  12.843  1.1265 -0.8130 -0.1028
  250MPD2    H1 3795   3.316   0.786  13.045 -1.1056  0.0105  2.7489
  250MPD2    H2 3796   3.381   1.139  13.263 -0.2173 -0.2546  0.1716
  250MPD2    H3 3797   3.380   0.898  13.247 -1.4511  0.5381 -0.2659
  250MPD2     N 3798   3.240   0.898  12.816 -0.0536  0.4510  0.2423
  250MPD2    H5 3799   3.243   0.797  12.825  3.1557  0.3977 -1.7057
  250MPD2    N1 3800   3.346   1.307  13.061  0.4519  0.3576 -0.9596
  250MPD2    H7 3801   3.372   1.345  13.152 -0.4672  0.9904 -0.9637
  251TMC3    C1 3802   3.366   1.529  13.004 -0.0829  0.2068 -0.4022
  251TMC3    C2 3803   3.275   1.574  13.094 -0.4235  0.2261  0.2424
  251TMC3    C3 3804   3.312   1.653  13.202 -0.0776  0.0081  0.5457
  251TMC3    C4 3805   3.493   1.562  13.019 -0.3997  0.5535 -0.1189
  251TMC3    C5 3806   3.526   1.641  13.128  0.1682 -0.1266  0.4120
  251TMC3    C6 3807   3.440   1.677  13.231  0.3862 -0.4934  0.1898
  251TMC3     C 3808   3.348   1.398  12.958  0.8450 -0.4802  0.3365
  251TMC3     O 3809   3.331   1.388  12.837 -0.4003  0.2273 -0.0547
  251TMC3     H 3810   3.180   1.524  13.078 -0.3387 -0.2653  1.3168
  251TMC3    H1 3811   3.565   1.517  12.951  2.8177  2.6357  1.9228
  251TMC3    H2 3812   3.481   1.731  13.316 -0.7457  0.5156  0.0958
  251TMC3    C7 3813   3.660   1.664  13.145 -0.3406  0.9351  0.0876
  251TMC3    C8 3814   3.209   1.728  13.270 -0.2679 -0.2286  0.7568
  251TMC3    O1 3815   3.708   1.658  13.260  0.2395  0.6548 -0.2099
  251TMC3    O2 3816   3.248   1.786  13.371 -0.3697 -0.1456  0.0076
  252TMC3    C1 3817   4.045   1.567  10.021  0.0379 -0.0057  0.6736
  252TMC3    C2 3818   4.173   1.617  10.008 -0.0897 -0.8943  0.4802
  252TMC3    C3 3819   4.253   1.554   9.926 -0.3824  0.9829  0.1421
  252TMC3    C4 3820   4.000   1.456   9.959  0.6450 -0.1442 -0.1776
  252TMC3    C5 3821   4.085   1.399   9.865 -0.0489 -0.2382  0.6099
  252TMC3    C6 3822   4.219   1.441   9.856 -0.1396 -0.3193 -0.5276
  252TMC3     C 3823   3.971   1.620  10.135  0.0096 -0.6824  0.5761
  252TMC3     O 3824   4.037   1.656  10.232  0.5211  0.1865 -0.3381
  252TMC3     H 3825   4.192   1.712  10.056 -2.2850  0.6295 -1.6748
  252TMC3    H1 3826   3.900   1.423   9.982  0.7643 -0.5142 -0.1860
  252TMC3    H2 3827   4.288   1.382   9.796  0.9090 -0.7039  1.0620
  252TMC3    C7 3828   4.055   1.279   9.790  0.1301 -0.6095 -0.2064
  252TMC3    C8 3829   4.367   1.628   9.853 -0.7370 -0.6032  0.3618
  252TMC3    O1 3830   4.138   1.236   9.711 -0.4513 -0.2074  0.1680
  252TMC3    O2 3831   4.423   1.575   9.756  0.1572  1.1248 -1.1575
  253MPD2     C 3832   0.186   1.011  15.425 -1.3540 -0.3550 -0.1056
  253MPD2    C1 3833   0.055   0.973  15.419  0.1704  0.4274  0.1676
  253MPD2    C2 3834   4.719   0.900  15.526 -0.3357 -0.6137  0.2575
  253MPD2    C3 3835   0.068   0.869  15.636 -0.5115 -0.6653  0.3769
  253MPD2    C4 3836   0.199   0.904  15.640  0.0375 -0.6865 -0.4318
  253MPD2    C5 3837   0.260   0.979  15.535  0.0273 -0.2519 -0.0041
  253MPD2     H 3838   4.612   0.886  15.522 -0.3830  0.2558 -1.7797
  253MPD2    H1 3839   0.259   0.888  15.729  0.0789 -1.5264 -0.6127
  253MPD2    H2 3840   0.216   1.071  15.340 -1.2598 -0.4873 -0.1660
  253MPD2    H3 3841   0.362   1.015  15.547  0.2473 -0.8847  0.0370
  253MPD2     N 3842   0.013   0.829  15.761  0.0177  0.3697  0.4449
  253MPD2    H5 3843   0.084   0.778  15.813 -0.2255  1.8674  2.2139
  253MPD2    N1 3844   4.712   1.009  15.298 -0.2189  0.2453 -0.6862
  253MPD2    H7 3845   0.034   1.087  15.250  1.4198 -0.3020 -0.0347
  254TMC3    C1 3846   4.578   0.755  15.918 -0.2359  0.6459 -0.2497
  254TMC3    C2 3847   4.447   0.789  15.951  0.5751  0.2993 -0.0982
  254TMC3    C3 3848   4.437   0.864  16.063 -0.2354 -0.0838 -0.4048
  254TMC3    C4 3849   4.677   0.762  16.002  0.0351 -0.3647 -0.3274
  254TMC3    C5 3850   4.659   0.825  16.121  0.1535 -0.2196  0.9667
  254TMC3    C6 3851   4.541   0.884  16.152  0.4285  0.5819  0.2173
  254TMC3     C 3852   4.604   0.831  15.798  0.6434  0.4524 -0.0484
  254TMC3     O 3853   4.507   0.884  15.751 -0.0315 -0.1551  0.0307
  254TMC3     H 3854   4.360   0.767  15.890  0.9305  1.2434 -0.9453
  254TMC3    H1 3855   0.048   0.714  15.977  0.6297  0.1701  0.8702
  254TMC3    H2 3856   4.523   0.949  16.237 -0.9921 -0.7792  0.9799
  254TMC3    C7 3857   0.048   0.836  16.218  0.5618  0.1720 -0.0701
  254TMC3    C8 3858   4.349   0.979  16.043  0.2077  0.2033 -0.4130
  254TMC3    O1 3859   0.032   0.907  16.318 -0.0635 -0.1272  0.2904
  254TMC3    O2 3860   4.313   1.032  16.146 -0.1258  0.4073  0.1955
  255MPD2     C 3861   3.216   3.063  10.578 -0.3761 -0.0949 -0.3617
  255MPD2    C1 3862   3.228   3.192  10.603  0.2494  0.0588 -0.4302
  255MPD2    C2 3863   3.352   3.248  10.627 -0.0954 -0.6690 -0.3427
  255MPD2    C3 3864   3.469   3.176  10.608  0.4402  0.7764  0.2714
  255MPD2    C4 3865   3.458   3.045  10.578  0.1497 -0.0965 -0.1854
  255MPD2    C5 3866   3.333   2.991  10.559  0.5593 -0.3145  0.4411
  255MPD2     H 3867   3.367   3.352  10.652 -1.0115 -0.5664 -0.2262
  255MPD2    H1 3868   3.547   2.986  10.557  0.6452  0.8689 -0.7750
  255MPD2    H2 3869   3.117   3.019  10.577  0.6358 -2.3482 -0.2442
  255MPD2    H3 3870   3.334   2.883  10.547  1.4946 -0.3726  1.0070
  255MPD2     N 3871   3.594   3.240  10.608  1.0966  0.0680 -0.1912
  255MPD2    H5 3872   3.593   3.338  10.634 -1.5861  0.1642 -0.6643
  255MPD2    N1 3873   3.108   3.270  10.604  0.0998 -0.2626  0.3998
  255MPD2    H7 3874   3.022   3.217  10.609  0.5110 -1.0937 -1.1786
  256TMC3    C1 3875   2.980   3.458  10.518  0.3698  0.6480 -0.4988
  256TMC3    C2 3876   2.981   3.584  10.457  0.3512  0.8019  0.4634
  256TMC3    C3 3877   2.871   3.618  10.378 -0.1160  0.9047 -0.7657
  256TMC3    C4 3878   2.865   3.373  10.494  0.0060  0.1298 -0.2885
  256TMC3    C5 3879   2.755   3.418  10.427  0.2115  0.1497  0.7628
  256TMC3    C6 3880   2.765   3.537  10.353 -0.0926 -0.2462  0.3153
  256TMC3     C 3881   3.110   3.407  10.570  0.1682 -0.0849 -0.0217
  256TMC3     O 3882   3.211   3.482  10.562 -0.2157 -0.4205 -0.1450
  256TMC3     H 3883   3.060   3.658  10.463  0.1919  1.0432 -0.5001
  256TMC3    H1 3884   2.858   3.269  10.523 -0.9966 -0.1527 -1.5782
  256TMC3    H2 3885   2.692   3.570  10.280 -0.9627 -0.0099  1.2901
  256TMC3    C7 3886   2.672   3.308  10.381  0.0194 -0.0042 -0.4209
  256TMC3    C8 3887   2.886   3.732  10.288  1.0420 -0.0898  0.1355
  256TMC3    O1 3888   2.721   3.195  10.367 -0.3508 -0.5225  0.8352
  256TMC3    O2 3889   2.786   3.794  10.247  0.1926 -0.5875  0.1349
  257MPD2     C 3890   2.641   1.235  13.355  0.8857  0.2335  0.1951
  257MPD2    C1 3891   2.523   1.196  13.288  0.5462 -0.3267 -0.6531
  257MPD2    C2 3892   2.451   1.092  13.335  0.0151 -0.0721 -0.4481
  257MPD2    C3 3893   2.492   1.033  13.454  0.2523  0.5445 -0.6642
  257MPD2    C4 3894   2.612   1.069  13.515  0.0284  0.3107 -0.1283
  257MPD2    C5 3895   2.689   1.168  13.459  0.0330 -0.2152  0.5180
  257MPD2     H 3896   2.357   1.057  13.293 -0.4705  2.6192 -1.6100
  257MPD2    H1 3897   2.658   1.020  13.600  0.0795  1.0945  0.3010
  257MPD2    H2 3898   2.699   1.312  13.305  0.8385  0.7912  1.0026
  257MPD2    H3 3899   2.778   1.208  13.506 -0.1988 -1.0503  1.6681
  257MPD2     N 3900   2.403   0.947  13.511  0.5471  0.0365  0.1272
  257MPD2    H5 3901   2.330   0.909  13.451 -0.3290  0.8108  0.6945
  257MPD2    N1 3902   2.487   1.269  13.170  0.5605 -0.0744  0.0969
  257MPD2    H7 3903   2.551   1.340  13.137 -1.7158  2.6476  1.5738
  258TMC3    C1 3904   2.301   0.801  13.673 -0.1347 -0.1250 -0.2056
  258TMC3    C2 3905   2.307   0.696  13.586 -0.0200  0.2078 -0.1744
  258TMC3    C3 3906   2.265   0.581  13.632 -0.0737 -0.1981 -0.0458
  258TMC3    C4 3907   2.260   0.789  13.804 -0.4542 -0.2397 -0.6246
  258TMC3    C5 3908   2.228   0.663  13.850 -0.3038  0.9396 -0.1164
  258TMC3    C6 3909   2.227   0.560  13.762 -0.2781 -0.3756  0.2866
  258TMC3     C 3910   2.383   0.922  13.647 -0.5919 -0.4722  0.3208
  258TMC3     O 3911   2.432   0.964  13.748  0.3462 -0.1351  0.2199
  258TMC3     H 3912   2.373   0.693  13.501 -1.3373 -0.8034 -1.1558
  258TMC3    H1 3913   2.257   0.868  13.877 -1.0290 -1.2438  0.4486
  258TMC3    H2 3914   2.215   0.458  13.798  1.3226 -0.9560 -0.8426
  258TMC3    C7 3915   2.239   0.634  13.986  0.0725  0.0249  0.5403
  258TMC3    C8 3916   2.267   0.467  13.549 -0.0692 -0.1113 -0.2109
  258TMC3    O1 3917   2.189   0.713  14.065 -0.1381  1.1098 -0.1690
  258TMC3    O2 3918   2.298   0.359  13.596  0.1505  0.5230 -0.0599
  259MPD2     C 3919   2.214   2.865   1.086 -0.3845 -0.4509  0.2787
  259MPD2    C1 3920   2.096   2.811   1.107 -0.4488 -0.3358 -0.7610
  259MPD2    C2 3921   2.098   2.671   1.125  0.3890  0.8776  0.2599
  259MPD2    C3 3922   2.201   2.590   1.081  0.0147 -0.4014  0.1819
  259MPD2    C4 3923   2.319   2.653   1.057 -0.9790 -0.4748 -0.0680
  259MPD2    C5 3924   2.327   2.787   1.065 -0.1255  0.4338 -0.7495
  259MPD2     H 3925   2.005   2.619   1.145  0.1082  1.0344 -0.6847
  259MPD2    H1 3926   2.417   2.611   1.037 -0.8221 -0.6087  0.9714
  259MPD2    H2 3927   2.221   2.971   1.068  0.6997 -0.4070  1.0099
  259MPD2    H3 3928   2.421   2.840   1.066  0.7763 -1.1431 -2.3477
  259MPD2     N 3929   2.184   2.450   1.060  0.2929  0.0520 -0.2656
  259MPD2    H5 3930   2.094   2.406   1.079  0.8844 -0.2157  1.9109
  259MPD2    N1 3931   1.983   2.890   1.128 -0.2436  0.9625 -0.3184
  259MPD2    H7 3932   1.996   2.989   1.115  1.1762  0.7961 -0.1760
  260TMC3    C1 3933   2.228   2.236   0.976 -0.1719  0.0308  0.1396
  260TMC3    C2 3934   2.321   2.141   0.939 -0.0468 -0.3266 -0.5926
  260TMC3    C3 3935   2.291   2.045   0.848  0.0479  0.1129 -0.2065
  260TMC3    C4 3936   2.117   2.243   0.903 -0.1463 -0.2051  0.1856
  260TMC3    C5 3937   2.090   2.152   0.806  0.5234  0.3193 -0.1101
  260TMC3    C6 3938   2.174   2.049   0.772  0.1412  0.0666 -0.0415
  260TMC3     C 3939   2.278   2.364   1.007  0.1364 -0.5656 -0.6520
  260TMC3     O 3940   2.387   2.389   0.959 -0.0648  0.5431 -0.2008
  260TMC3     H 3941   2.410   2.137   1.001 -0.3427  0.1761 -0.1408
  260TMC3    H1 3942   2.040   2.318   0.918 -0.0513 -0.0679 -0.0259
  260TMC3    H2 3943   2.148   1.982   0.690  1.5747 -0.9452  0.3265
  260TMC3    C7 3944   1.979   2.169   0.712  0.8130 -0.4322  0.0148
  260TMC3    C8 3945   2.389   1.943   0.826 -0.0828  0.7967  0.6546
  260TMC3    O1 3946   1.978   2.109   0.605  0.1820 -0.3073 -0.2634
  260TMC3    O2 3947   2.471   1.939   0.917 -0.2452  0.4022  0.4882
  261MPD2     C 3948   2.558   0.983  12.384  0.1799 -0.2935  0.4258
  261MPD2    C1 3949   2.680   0.987  12.320  0.5538  0.0713  0.0282
  261MPD2    C2 3950   2.683   1.033  12.196  0.5056  0.3517 -0.5196
  261MPD2    C3 3951   2.581   1.085  12.130  0.0994  0.1030 -0.2425
  261MPD2    C4 3952   2.456   1.079  12.191  0.4043 -0.1182 -0.2222
  261MPD2    C5 3953   2.447   1.025  12.315  0.0090 -0.4999 -0.2623
  261MPD2     H 3954   2.783   1.045  12.157  0.1838 -0.8156 -1.6804
  261MPD2    H1 3955   2.362   1.112  12.147 -0.4998 -2.1579  0.1766
  261MPD2    H2 3956   2.551   0.954  12.488 -1.2759 -3.4200 -0.5227
  261MPD2    H3 3957   2.351   1.013  12.363  0.6191  1.4097  1.3985
  261MPD2     N 3958   2.592   1.160  12.006 -0.1627  0.3167  0.1380
  261MPD2    H5 3959   2.684   1.168  11.964  0.7947  0.9232  2.3254
  261MPD2    N1 3960   2.791   0.934  12.393 -0.5305  0.0540  0.5725
  261MPD2    H7 3961   2.788   0.925  12.494  0.4378  0.1843  0.6071
  262TMC3    C1 3962   2.543   1.322  11.837 -0.5359 -0.2970 -0.1946
  262TMC3    C2 3963   2.523   1.455  11.846  0.3822 -0.2836  1.2585
  262TMC3    C3 3964   2.604   1.538  11.769 -0.6868  0.3772  0.6518
  262TMC3    C4 3965   2.641   1.268  11.763  0.4197 -0.5584 -0.1448
  262TMC3    C5 3966   2.722   1.356  11.691 -0.1401  0.0234 -0.0305
  262TMC3    C6 3967   2.716   1.491  11.701  0.0547 -0.4581 -0.1660
  262TMC3     C 3968   2.495   1.243  11.949 -0.2627 -0.5345 -0.0896
  262TMC3     O 3969   2.384   1.270  11.993 -0.5376 -0.0366  0.4413
  262TMC3     H 3970   2.440   1.490  11.908  1.0808  6.1400 -1.3820
  262TMC3    H1 3971   2.666   1.162  11.768 -1.2318 -0.9756 -0.5865
  262TMC3    H2 3972   2.781   1.554  11.642 -0.9039 -1.0504 -1.8461
  262TMC3    C7 3973   2.809   1.300  11.590  0.4139 -0.3924  1.0972
  262TMC3    C8 3974   2.620   1.678  11.810 -0.2301  0.7094  0.1344
  262TMC3    O1 3975   2.916   1.352  11.563 -1.4339 -0.0908 -0.4538
  262TMC3    O2 3976   2.710   1.735  11.745 -0.1392 -0.8223 -0.4316
  263MPD2     C 3977   3.817   0.275  11.169  0.0587 -0.7528 -0.5415
  263MPD2    C1 3978   3.893   0.376  11.233  0.5190 -0.1376 -0.1725
  263MPD2    C2 3979   3.955   0.464  11.147  0.3264 -0.4079 -0.1187
  263MPD2    C3 3980   3.941   0.456  11.009  0.1838 -0.0091  0.6660
  263MPD2    C4 3981   3.872   0.354  10.952 -0.2507 -0.9374 -0.0475
  263MPD2    C5 3982   3.810   0.266  11.036 -0.1182  0.9628 -0.2898
  263MPD2     H 3983   4.004   0.556  11.178  0.7091 -0.1611 -1.4739
  263MPD2    H1 3984   3.866   0.345  10.844  3.1140 -1.9317 -0.1537
  263MPD2    H2 3985   3.786   0.191  11.231  0.6351  0.3123  1.2061
  263MPD2    H3 3986   3.750   0.184  11.000  0.1468  0.9601 -0.7390
  263MPD2     N 3987   4.009   0.563  10.940  0.1366  0.3565  0.5311
  263MPD2    H5 3988   4.047   0.642  10.992  0.2375  0.7682 -0.1655
  263MPD2    N1 3989   3.890   0.369  11.373  0.2233  0.5274 -0.3729
  263MPD2    H7 3990   3.862   0.281  11.415  1.0438  0.3397 -0.2069
  264TMC3    C1 3991   4.112   0.695  10.768 -0.0021  0.7580  0.5395
  264TMC3    C2 3992   4.112   0.786  10.869 -0.2460  0.2523 -0.6265
  264TMC3    C3 3993   4.237   0.825  10.911 -0.0173 -0.9456  0.6135
  264TMC3    C4 3994   4.218   0.661  10.695  0.3969  0.2761 -0.1685
  264TMC3    C5 3995   4.343   0.716  10.734 -0.2974 -0.2917  0.5239
  264TMC3    C6 3996   4.350   0.796  10.839  0.3792 -0.1632  0.3880
  264TMC3     C 3997   4.035   0.576  10.800 -0.3119  0.6128  0.9603
  264TMC3     O 3998   4.015   0.490  10.718  0.4813  0.5761  0.3763
  264TMC3     H 3999   4.020   0.825  10.911  1.2425  1.9662  1.0679
  264TMC3    H1 4000   4.222   0.591  10.612 -0.3568 -0.0129  0.0407
  264TMC3    H2 4001   4.446   0.838  10.868  1.2989 -1.6854 -0.4685
  264TMC3    C7 4002   4.413   0.765  10.622  0.5967 -0.3411 -0.3874
  264TMC3    C8 4003   4.248   0.960  10.957 -0.5557 -0.0312 -0.7616
  264TMC3    O1 4004   4.434   0.690  10.530 -0.1850 -0.7628 -0.1512
  264TMC3    O2 4005   4.348   1.018  10.919  0.0028  0.2787 -0.3380
  265MPD2     C 4006   0.979   0.888  15.115  0.2361  0.6159  0.5014
  265MPD2    C1 4007   1.079   0.976  15.149 -0.1147 -0.3271 -0.4931
  265MPD2    C2 4008   1.203   0.950  15.097 -0.3004  0.6473  0.1665
  265MPD2    C3 4009   1.224   0.836  15.024 -0.0542 -0.5134  0.0473
  265MPD2    C4 4010   1.127   0.750  14.987 -0.4749 -0.0553  0.4989
  265MPD2    C5 4011   1.006   0.779  15.037  0.0270  0.2695  0.8379
  265MPD2     H 4012   1.285   1.018  15.115  1.0782 -0.6953 -1.1389
  265MPD2    H1 4013   1.134   0.667  14.917 -0.8697  2.5333 -2.6257
  265MPD2    H2 4014   0.876   0.887  15.150  0.0636  0.8613  0.0152
  265MPD2    H3 4015   0.928   0.706  15.022 -0.9274  1.2807  0.8675
  265MPD2     N 4016   1.351   0.811  14.967 -0.8263 -0.4130  0.0188
  265MPD2    H5 4017   1.348   0.723  14.917  1.2832  1.0941 -2.7368
  265MPD2    N1 4018   1.061   1.082  15.235 -0.0554 -0.0517  0.2781
  265MPD2    H7 4019   1.140   1.142  15.257  1.3606 -0.9423 -2.3974
  266TMC3    C1 4020   0.963   1.204  15.414 -0.2655 -0.9145  0.3090
  266TMC3    C2 4021   0.926   1.180  15.546  0.2644  0.4864 -0.6040
  266TMC3    C3 4022   0.910   1.288  15.628  0.1114  0.0467 -0.9819
  266TMC3    C4 4023   0.973   1.332  15.370 -0.3655 -0.0971  0.2716
  266TMC3    C5 4024   0.953   1.438  15.455  0.1745  0.0078 -0.8605
  266TMC3    C6 4025   0.921   1.420  15.590  0.9469  0.0483 -0.6034
  266TMC3     C 4026   0.948   1.098  15.319 -0.4280  0.5866 -0.4663
  266TMC3     O 4027   0.848   1.032  15.333 -0.2050  0.6523  0.1720
  266TMC3     H 4028   0.920   1.076  15.575 -0.9391  0.4821 -0.8547
  266TMC3    H1 4029   1.004   1.351  15.268 -0.1619 -0.8968  0.1887
  266TMC3    H2 4030   0.895   1.501  15.657 -0.1187  2.5049 -3.9656
  266TMC3    C7 4031   0.990   1.565  15.400 -0.6215 -0.1961  0.0678
  266TMC3    C8 4032   0.889   1.259  15.771  0.2859  0.2163 -0.3418
  266TMC3    O1 4033   1.034   1.566  15.284  0.0696  0.4907  0.3809
  266TMC3    O2 4034   0.896   1.139  15.791  0.2542 -0.3519 -0.0344
  267MPD2     C 4035   3.609   2.452  17.659 -0.5851  0.0358  0.1173
  267MPD2    C1 4036   3.559   2.548  17.579 -0.9937  0.7336 -0.2990
  267MPD2    C2 4037   3.562   2.545  17.441  0.3706  0.5912  0.2486
  267MPD2    C3 4038   3.616   2.430  17.383  0.5702 -0.0056 -0.4524
  267MPD2    C4 4039   3.666   2.327  17.464 -0.6370 -0.6870 -0.3513
  267MPD2    C5 4040   3.654   2.337  17.600  0.3922 -0.0335 -0.2536
  267MPD2     H 4041   3.559   2.639  17.386 -0.5178 -0.1575 -0.9818
  267MPD2    H1 4042   3.711   2.240  17.416 -0.1044 -0.8944  0.5024
  267MPD2    H2 4043   3.612   2.452   0.074 -1.4127  7.0182  0.1038
  267MPD2    H3 4044   3.686   2.260  17.670 -0.9558 -1.2924 -1.0252
  267MPD2     N 4045   3.621   2.415  17.246  0.2365 -0.3887 -0.2397
  267MPD2    H5 4046   3.673   2.338  17.204 -0.1177 -1.8739  2.0560
  267MPD2    N1 4047   3.528   2.670  17.648 -0.0532  0.3476  0.2587
  267MPD2    H7 4048   3.535   2.665   0.056  3.0135 -3.2757 -0.1213
  268TMC3    C1 4049   3.448   2.886  17.691 -0.5918 -0.2508  0.0244
  268TMC3    C2 4050   3.458   3.018  17.638  0.6611 -0.8742 -0.1032
  268TMC3    C3 4051   3.485   3.118   0.040 -0.0685 -0.1370  0.3568
  268TMC3    C4 4052   3.472   2.869   0.131 -0.3404 -0.6197  0.9248
  268TMC3    C5 4053   3.506   2.972   0.222  0.0326  0.0046 -1.0028
  268TMC3    C6 4054   3.496   3.104   0.179 -0.2541  0.2782  0.1216
  268TMC3     C 4055   3.464   2.779  17.596  0.6991  0.4945  0.2135
  268TMC3     O 4056   3.444   2.805  17.476 -0.4854 -0.0966 -0.1242
  268TMC3     H 4057   3.462   3.029  17.531 -1.6320 -2.1387 -0.3281
  268TMC3    H1 4058   3.441   2.776   0.177 -1.2564  0.0542  1.6631
  268TMC3    H2 4059   3.502   3.191   0.243  1.5864  0.0579  0.2535
  268TMC3    C7 4060   3.578   2.926   0.342  0.0416  0.2127 -0.2145
  268TMC3    C8 4061   3.445   3.248  17.676 -0.1385 -0.0539  0.2101
  268TMC3    O1 4062   3.599   2.809   0.360 -0.1450 -0.6504  0.2459
  268TMC3    O2 4063   3.403   3.339   0.052 -0.0594 -0.4197  0.6815
  269MPD2     C 4064   3.619   1.220  15.716 -0.0308 -0.5701  0.1314
  269MPD2    C1 4065   3.482   1.255  15.715 -0.6611  0.0768 -0.4296
  269MPD2    C2 4066   3.446   1.381  15.662 -0.0550  0.4027  0.0317
  269MPD2    C3 4067   3.538   1.463  15.602  0.3505  0.6858  0.2893
  269MPD2    C4 4068   3.672   1.432  15.612 -0.6836  0.4654 -0.3707
  269MPD2    C5 4069   3.714   1.309  15.670  0.8347  0.1864  0.4558
  269MPD2     H 4070   3.343   1.416  15.655 -0.1932  0.8163  4.0987
  269MPD2    H1 4071   3.744   1.501  15.569  1.8925 -1.9729 -0.0020
  269MPD2    H2 4072   3.655   1.129  15.763 -0.2611  0.1271  1.6541
  269MPD2    H3 4073   3.820   1.287  15.664  0.7529 -0.3956  1.1746
  269MPD2     N 4074   3.493   1.583  15.539  0.1332  0.1753  0.0319
  269MPD2    H5 4075   3.401   1.617  15.565 -0.0514  0.1378 -0.5580
  269MPD2    N1 4076   3.396   1.165  15.777 -0.3481  0.1175 -0.8777
  269MPD2    H7 4077   3.444   1.078  15.793  0.5705  0.9052  0.6700
  270TMC3    C1 4078   3.192   1.055  15.831  0.0763  0.7013 -0.2293
  270TMC3    C2 4079   3.101   1.007  15.736  0.2750  0.2670  0.3953
  270TMC3    C3 4080   3.081   0.874  15.713 -0.2704 -0.2131  0.2081
  270TMC3    C4 4081   3.258   0.965  15.912 -0.2427 -0.7188 -0.1745
  270TMC3    C5 4082   3.224   0.828  15.894 -0.3915 -0.1487  0.4289
  270TMC3    C6 4083   3.137   0.783  15.799 -0.1537  0.1582  0.6065
  270TMC3     C 4084   3.260   1.179  15.797 -0.5496 -0.2853  0.0939
  270TMC3     O 4085   3.193   1.274  15.762  0.5735  0.1322 -0.1313
  270TMC3     H 4086   3.074   1.090  15.673 -0.6249 -0.7604 -0.5818
  270TMC3    H1 4087   3.326   0.996  15.990  0.1959 -1.0871 -0.4045
  270TMC3    H2 4088   3.126   0.680  15.767  0.8808 -0.0804  0.9926
  270TMC3    C7 4089   3.314   0.726  15.955 -0.1061 -0.2832 -0.1779
  270TMC3    C8 4090   3.014   0.837  15.590 -0.4705 -0.5451 -0.5133
  270TMC3    O1 4091   3.423   0.760  16.000 -0.3261  0.1466 -0.0393
  270TMC3    O2 4092   2.927   0.914  15.545  0.1947 -0.4428  0.2477
  271MPD2     C 4093   3.125   0.878  13.802 -1.2766  0.2742  0.3426
  271MPD2    C1 4094   3.056   0.890  13.921 -0.0238  0.0988  0.0882
  271MPD2    C2 4095   2.949   0.971  13.929 -0.4698 -0.6132 -0.3111
  271MPD2    C3 4096   2.912   1.060  13.827 -0.4958  1.2344 -0.6342
  271MPD2    C4 4097   3.001   1.066  13.720  0.7210 -0.4826 -0.6190
  271MPD2    C5 4098   3.108   0.976  13.708 -0.1461 -0.0087 -0.3164
  271MPD2     H 4099   2.889   0.960  14.018 -0.6057  0.7620 -0.2220
  271MPD2    H1 4100   2.981   1.136  13.639 -0.5578  0.4477  0.5013
  271MPD2    H2 4101   3.208   0.808  13.797 -1.1916  0.5137 -1.4663
  271MPD2    H3 4102   3.167   0.975  13.617 -1.6093 -0.9681 -1.2481
  271MPD2     N 4103   2.803   1.144  13.836  0.6462  0.5608  0.6559
  271MPD2    H5 4104   2.798   1.212  13.760  1.9346  0.9860  0.9575
  271MPD2    N1 4105   3.099   0.832  14.044  0.0282 -0.3913 -0.2959
  271MPD2    H7 4106   3.055   0.876  14.124  0.1859  3.0555 -2.1035
  272TMC3    C1 4107   3.212   0.688  14.212 -0.6765 -0.4898  0.6745
  272TMC3    C2 4108   3.282   0.575  14.226  0.6819  0.3039 -0.0442
  272TMC3    C3 4109   3.293   0.516  14.348  0.7782 -0.3237  0.5539
  272TMC3    C4 4110   3.136   0.738  14.317  0.0201 -0.4008  0.4727
  272TMC3    C5 4111   3.152   0.681  14.439  0.1179  0.2118  0.0358
  272TMC3    C6 4112   3.229   0.575  14.459 -0.6118 -0.3561  0.1778
  272TMC3     C 4113   3.198   0.734  14.072 -0.7303  0.2858 -0.3577
  272TMC3     O 4114   3.268   0.670  13.994 -0.3345 -0.0590 -0.0580
  272TMC3     H 4115   3.349   0.544  14.147 -0.3691 -1.9314 -0.0466
  272TMC3    H1 4116   3.059   0.815  14.307 -0.3203 -0.9846 -1.3040
  272TMC3    H2 4117   3.243   0.525  14.554 -3.0839  1.9709  1.7581
  272TMC3    C7 4118   3.060   0.724  14.538 -0.5548 -0.1799  0.1660
  272TMC3    C8 4119   3.354   0.381  14.361  0.0313  0.8963  0.4175
  272TMC3    O1 4120   2.958   0.780  14.496  0.2981 -0.1936  0.6210
  272TMC3    O2 4121   3.366   0.313  14.261 -0.1057  0.3010  0.4766
  273MPD2     C 4122   3.939   4.142  11.787  0.5593 -0.5779  0.3757
  273MPD2    C1 4123   4.042   4.225  11.753  0.1751 -0.1117  0.3558
  273MPD2    C2 4124   4.090   4.228  11.624 -0.0573  0.0937 -0.3607
  273MPD2    C3 4125   4.047   4.137  11.533 -0.5670  0.1259  0.3572
  273MPD2    C4 4126   3.958   4.040  11.575 -0.7823  0.4284  0.1343
  273MPD2    C5 4127   3.889   4.058  11.694  0.2698  0.6783 -0.0533
  273MPD2     H 4128   4.167   4.300  11.603  0.6949 -0.9169 -1.0600
  273MPD2    H1 4129   3.914   3.969  11.506 -0.2698 -1.5978  1.8706
  273MPD2    H2 4130   3.904   4.137  11.889  1.2502  1.3625  0.6983
  273MPD2    H3 4131   3.801   3.998  11.714  1.2449 -0.3699  1.1006
  273MPD2     N 4132   4.137   4.104  11.427  0.0182  0.6391  0.5007
  273MPD2    H5 4133   4.131   4.008  11.393 -0.6819  0.4173  1.2439
  273MPD2    N1 4134   4.092   4.306  11.853 -0.0542  0.6178  0.0964
  273MPD2    H7 4135   4.046   4.311  11.944  0.2456  0.7292  0.2423
  274TMC3    C1 4136   4.303   4.135  11.262  0.3566  0.3181  0.4332
  274TMC3    C2 4137   4.228   4.112  11.149  0.5847 -0.9156  0.4693
  274TMC3    C3 4138   4.279   4.165  11.034 -0.4715 -0.4580  0.0931
  274TMC3    C4 4139   4.415   4.207  11.256  0.6908  0.3984 -0.5952
  274TMC3    C5 4140   4.463   4.267  11.141  0.0595 -0.3348 -0.4914
  274TMC3    C6 4141   4.394   4.234  11.024  0.4946  0.5097  0.6934
  274TMC3     C 4142   4.226   4.190  11.370  0.3555  0.0354  0.0251
  274TMC3     O 4143   4.248   4.311  11.394  0.0956 -0.1745 -0.3523
  274TMC3     H 4144   4.144   4.044  11.161  1.0797 -1.4740  0.7186
  274TMC3    H1 4145   4.464   4.226  11.351  2.9598 -1.2131 -1.4442
  274TMC3    H2 4146   4.412   4.305  10.943 -1.5041  1.2214  0.8583
  274TMC3    C7 4147   4.502   4.413  11.146 -0.3431  0.0010 -0.2464
  274TMC3    C8 4148   4.199   4.149  10.915 -0.1100 -0.6221  0.2397
  274TMC3    O1 4149   4.566   4.466  11.053  0.3004 -0.0259  0.4182
  274TMC3    O2 4150   4.084   4.110  10.920 -0.4266 -0.2617  0.1850
  275MPD2     C 4151   4.237   1.948  14.284 -0.6213  0.4661  0.6089
  275MPD2    C1 4152   4.248   1.900  14.412 -0.2898  0.0908  0.1688
  275MPD2    C2 4153   4.188   1.779  14.445  0.3734  0.9635  0.2965
  275MPD2    C3 4154   4.094   1.724  14.360  0.1135  0.0641  0.0061
  275MPD2    C4 4155   4.080   1.781  14.234  0.0419 -0.0614 -0.4383
  275MPD2    C5 4156   4.144   1.890  14.196 -0.8145  0.5200 -0.3484
  275MPD2     H 4157   4.196   1.753  14.550  1.3763  2.2363  0.5392
  275MPD2    H1 4158   4.011   1.733  14.165 -1.1147 -1.4152  1.6729
  275MPD2    H2 4159   4.297   2.034  14.255  1.5106 -1.4741 -0.7932
  275MPD2    H3 4160   4.133   1.937  14.099 -2.5535  0.2779 -0.2674
  275MPD2     N 4161   4.013   1.617  14.395  0.4223 -0.1820 -0.6152
  275MPD2    H5 4162   3.950   1.591  14.320 -0.4461  1.7478 -0.5544
  275MPD2    N1 4163   4.329   1.958  14.513 -0.1321  0.1384  0.3001
  275MPD2    H7 4164   4.345   1.901  14.595  0.7451  1.5079  1.0809
  276TMC3    C1 4165   4.437   2.128  14.629  0.2256  0.4156 -0.1349
  276TMC3    C2 4166   4.487   2.036  14.719 -0.0613 -0.0176 -0.2910
  276TMC3    C3 4167   4.541   2.084  14.837 -0.9397 -0.3118  0.7820
  276TMC3    C4 4168   4.422   2.266  14.658  0.3974 -0.1941  0.0981
  276TMC3    C5 4169   4.486   2.297  14.771  0.2565  0.5602 -0.6619
  276TMC3    C6 4170   4.533   2.215  14.870 -0.0656 -0.5765 -0.2228
  276TMC3     C 4171   4.376   2.084  14.508  0.5167  0.5277  0.5129
  276TMC3     O 4172   4.358   2.170  14.424  0.1961 -0.2631  0.5436
  276TMC3     H 4173   4.514   1.936  14.688  0.3955  0.3310 -1.0194
  276TMC3    H1 4174   4.386   2.340  14.588  1.0179  0.8625  0.8850
  276TMC3    H2 4175   4.580   2.261  14.956 -0.4546 -2.2327  0.8860
  276TMC3    C7 4176   4.486   2.446  14.803 -0.2322 -0.1971  0.1508
  276TMC3    C8 4177   4.624   2.011  14.925 -0.9360  0.1418  0.3354
  276TMC3    O1 4178   4.395   2.513  14.754 -0.3352  0.0350 -0.2462
  276TMC3    O2 4179   4.680   2.077  15.016  0.0256 -0.1419 -0.1526
  277MPD2     C 4180   1.662   1.310  13.022 -0.3602  0.2901 -0.8343
  277MPD2    C1 4181   1.524   1.328  13.036  0.2800  0.3392 -0.1862
  277MPD2    C2 4182   1.439   1.218  13.055  0.1582 -0.5463 -0.2070
  277MPD2    C3 4183   1.494   1.093  13.095  0.0804 -0.1329  0.2465
  277MPD2    C4 4184   1.631   1.082  13.100 -0.0913  0.1194 -0.8394
  277MPD2    C5 4185   1.709   1.187  13.054 -0.5451  0.1176  0.1365
  277MPD2     H 4186   1.333   1.220  13.032  0.1712 -1.2300 -0.3340
  277MPD2    H1 4187   1.677   0.986  13.121  3.5257  2.1679  0.5971
  277MPD2    H2 4188   1.729   1.394  13.005 -2.3756  2.5106  2.2030
  277MPD2    H3 4189   1.817   1.184  13.058 -0.5712  0.0924  0.6943
  277MPD2     N 4190   1.397   0.989  13.113 -1.0296 -0.6421 -0.5594
  277MPD2    H5 4191   1.299   1.015  13.105 -0.5990  1.1906  0.2925
  277MPD2    N1 4192   1.479   1.458  13.009  0.8080  0.4580 -0.5153
  277MPD2    H7 4193   1.547   1.529  12.984 -0.5456  0.9357 -2.8373
  278TMC3    C1 4194   1.302   0.786  13.172  0.5023 -0.3118 -0.0894
  278TMC3    C2 4195   1.324   0.679  13.251  1.0328  0.0271 -0.2088
  278TMC3    C3 4196   1.216   0.605  13.280  0.3413 -0.4720  0.1950
  278TMC3    C4 4197   1.177   0.833  13.131 -0.1360 -0.0082  0.4230
  278TMC3    C5 4198   1.070   0.751  13.173 -0.1491  0.0698 -1.0344
  278TMC3    C6 4199   1.089   0.640  13.244  0.1625  0.0195 -0.1330
  278TMC3     C 4200   1.425   0.859  13.142 -0.1107 -0.6336 -0.5479
  278TMC3     O 4201   1.534   0.813  13.172 -0.0578  0.1128 -0.6126
  278TMC3     H 4202   1.418   0.646  13.293 -0.0681 -2.7343  0.1232
  278TMC3    H1 4203   1.160   0.920  13.067 -2.2604 -0.6775  0.0659
  278TMC3    H2 4204   1.001   0.583  13.272 -0.1443  0.8715  0.6439
  278TMC3    C7 4205   0.942   0.760  13.107 -0.2430  0.0767 -0.1985
  278TMC3    C8 4206   1.237   0.473  13.332 -0.3547 -0.6840  0.5512
  278TMC3    O1 4207   0.949   0.794  12.991 -0.7394  0.1203  0.2685
  278TMC3    O2 4208   1.321   0.457  13.420 -0.2918  0.5685 -0.7544
  279MPD2     C 4209   1.198   1.905  17.666 -0.5369 -0.2747 -0.0500
  279MPD2    C1 4210   1.118   1.836  17.573  0.4219  0.2760  0.6065
  279MPD2    C2 4211   1.171   1.804  17.449 -0.0691 -0.4029 -0.4048
  279MPD2    C3 4212   1.298   1.853  17.399  0.3602  0.9243  0.1986
  279MPD2    C4 4213   1.373   1.916  17.495 -0.8212 -1.0525 -0.0316
  279MPD2    C5 4214   1.323   1.937  17.619 -0.2488  0.0031  0.5996
  279MPD2     H 4215   1.109   1.743  17.383 -0.6631 -0.4469  0.1956
  279MPD2    H1 4216   1.474   1.954  17.482  0.3186 -2.6993  3.7844
  279MPD2    H2 4217   1.165   1.931   0.072  0.7860 -3.6405  1.2572
  279MPD2    H3 4218   1.382   2.001  17.683  1.4202 -0.3082 -0.6040
  279MPD2     N 4219   1.355   1.830  17.268  0.4660  0.4323 -0.3249
  279MPD2    H5 4220   1.453   1.849  17.252  0.5219 -0.6622 -1.2977
  279MPD2    N1 4221   0.984   1.790  17.621 -0.2993 -0.4230  1.1035
  279MPD2    H7 4222   0.956   1.816   0.022 -0.0155  1.4583  0.6805
  280TMC3    C1 4223   0.769   1.702  17.626  0.3441 -0.0302  0.3808
  280TMC3    C2 4224   0.691   1.595  17.593  0.0550  0.3914 -0.1323
  280TMC3    C3 4225   0.555   1.609  17.612 -0.3681  0.4569  0.1115
  280TMC3    C4 4226   0.720   1.814  17.683 -0.0619  0.1586 -0.2355
  280TMC3    C5 4227   0.584   1.824   0.000  0.6854  0.1427 -0.3609
  280TMC3    C6 4228   0.501   1.727  17.648  0.0795  0.5271  0.4568
  280TMC3     C 4229   0.895   1.714  17.555 -0.8226  0.1647 -0.4425
  280TMC3     O 4230   0.907   1.654  17.448 -0.0264 -0.3993  0.0295
  280TMC3     H 4231   0.738   1.507  17.550 -1.0301  0.3165 -1.1382
  280TMC3    H1 4232   0.780   1.902   0.010 -1.1614  0.4060  1.8914
  280TMC3    H2 4233   0.394   1.732  17.668 -0.2381  1.0268 -1.4546
  280TMC3    C7 4234   0.526   1.954   0.037  0.1238 -0.1170 -0.0377
  280TMC3    C8 4235   0.459   1.507  17.575 -0.5067  0.1591 -0.1427
  280TMC3    O1 4236   0.574   2.009   0.136  0.0074  0.2054  0.6814
  280TMC3    O2 4237   0.346   1.535  17.548  0.1976  0.2186  0.3355
  281TMC3    C1 4238   3.952   1.616  13.465 -1.0412  0.5124 -0.0956
  281TMC3    C2 4239   4.056   1.559  13.400 -0.3342  0.6257 -0.2739
  281TMC3    C3 4240   4.026   1.436  13.352 -0.2780  0.8232 -0.7216
  281TMC3    C4 4241   3.832   1.550  13.495 -0.1944 -0.3963  0.2562
  281TMC3    C5 4242   3.825   1.422  13.464  0.8742  0.6855  0.0260
  281TMC3    C6 4243   3.923   1.362  13.386 -0.0322  0.2983 -0.1222
  281TMC3     C 4244   3.959   1.756  13.498 -0.2412  0.1078  0.1288
  281TMC3     O 4245   4.067   1.810  13.525 -0.1927 -0.2899  0.4278
  281TMC3     H 4246   4.143   1.616  13.366  0.4524 -1.2096 -1.3688
  281TMC3    H1 4247   3.755   1.589  13.561 -0.2790 -0.1468  0.0099
  281TMC3    H2 4248   3.902   1.269  13.333 -0.9583  1.6480 -2.1337
  281TMC3    C7 4249   3.712   1.345  13.501  0.0798 -0.4343 -0.8635
  281TMC3    C8 4250   4.105   1.380  13.245  0.2210  0.4424  0.1199
  281TMC3    O1 4251   3.607   1.405  13.523  0.0084 -0.0587  0.1932
  281TMC3    O2 4252   4.135   1.264  13.268  0.2577 -0.0536  0.0708
  282MPD2     C 4253   1.381   2.621  14.794  0.0486 -0.0404  0.4374
  282MPD2    C1 4254   1.283   2.682  14.863  0.2352  0.2810 -0.2287
  282MPD2    C2 4255   1.157   2.688  14.803  0.1400 -0.9818  0.2803
  282MPD2    C3 4256   1.130   2.637  14.678  0.2838  0.0769 -0.3809
  282MPD2    C4 4257   1.234   2.586  14.602  0.1631 -0.2776  0.1069
  282MPD2    C5 4258   1.356   2.575  14.671  0.3341  0.4714  0.0080
  282MPD2     H 4259   1.079   2.741  14.856  1.7687  0.4357  1.2155
  282MPD2    H1 4260   1.231   2.560  14.497 -0.7060  0.4597 -0.0466
  282MPD2    H2 4261   1.484   2.622  14.826  0.6877 -3.6079 -1.5071
  282MPD2    H3 4262   1.450   2.553  14.621  1.2326 -0.5434  2.1633
  282MPD2     N 4263   0.995   2.633  14.628  0.7981  0.2174  0.0346
  282MPD2    H5 4264   0.921   2.683  14.677  1.2692  0.2301  0.7359
  282MPD2    N1 4265   1.291   2.713  15.003 -0.5099 -0.3616  0.2481
  282MPD2    H7 4266   1.219   2.777  15.035  0.4333  1.7010 -1.7159
  283TMC3    C1 4267   1.400   2.712  15.222 -0.6009  0.0616 -0.1171
  283TMC3    C2 4268   1.528   2.733  15.270  0.6853  0.2840 -0.3391
  283TMC3    C3 4269   1.543   2.727  15.404  0.1977  0.3943  0.8613
  283TMC3    C4 4270   1.296   2.672  15.297  0.0106  0.7283  0.3032
  283TMC3    C5 4271   1.310   2.670  15.432  0.2161 -0.5393 -0.2323
  283TMC3    C6 4272   1.434   2.692  15.485 -0.0893 -0.3476 -0.2011
  283TMC3     C 4273   1.400   2.676  15.084 -0.2658 -0.5980  0.3136
  283TMC3     O 4274   1.502   2.628  15.042  0.0159 -0.9511  0.2232
  283TMC3     H 4275   1.610   2.772  15.211  1.8038  2.2078  2.4777
  283TMC3    H1 4276   1.203   2.657  15.245 -1.0309  1.7896  1.8813
  283TMC3    H2 4277   1.454   2.671  15.589  1.1129  1.4020 -0.0818
  283TMC3    C7 4278   1.207   2.607  15.514 -0.0273 -0.6432 -0.3380
  283TMC3    C8 4279   1.618   2.839  15.459  0.7182 -0.5565  0.2548
  283TMC3    O1 4280   1.221   2.621  15.634  0.0447 -0.2279 -0.4825
  283TMC3    O2 4281   1.694   2.818  15.551 -0.6488 -0.2788 -0.2904
  284MPD2     C 4282   3.922   2.629  11.718 -0.0960 -0.4314  0.0522
  284MPD2    C1 4283   3.971   2.502  11.707  0.0906 -0.4657  0.5275
  284MPD2    C2 4284   3.890   2.397  11.739 -0.2012  0.7128 -0.8094
  284MPD2    C3 4285   3.763   2.417  11.801  0.1642  0.1212 -0.0701
  284MPD2    C4 4286   3.711   2.542  11.810  0.1715 -0.0451  0.3084
  284MPD2    C5 4287   3.793   2.647  11.770  0.4888  0.6032 -0.1003
  284MPD2     H 4288   3.922   2.293  11.730  0.1615  0.6594  1.2045
  284MPD2    H1 4289   3.615   2.577  11.847 -1.6437 -2.4122 -2.1639
  284MPD2    H2 4290   3.983   2.716  11.693 -0.2028  0.1859  1.9158
  284MPD2    H3 4291   3.742   2.741  11.755  0.1889  0.3237 -0.8588
  284MPD2     N 4292   3.683   2.312  11.861 -0.4661  0.1416  0.1941
  284MPD2    H5 4293   3.587   2.331  11.886  0.3633  2.4234  1.6630
  284MPD2    N1 4294   4.103   2.483  11.655 -0.2206  0.4528 -0.2027
  284MPD2    H7 4295   4.152   2.568  11.630  0.0092  0.5545  0.5847
  285TMC3    C1 4296   4.318   2.395  11.629  0.3318  0.4293 -0.1614
  285TMC3    C2 4297   4.388   2.286  11.582 -0.0389  0.0842  0.0542
  285TMC3    C3 4298   4.504   2.307  11.516 -0.0017 -0.0504  0.0358
  285TMC3    C4 4299   4.364   2.518  11.602 -0.2255 -0.4460  0.3895
  285TMC3    C5 4300   4.485   2.533  11.538 -0.4782 -0.0540 -0.4061
  285TMC3    C6 4301   4.563   2.430  11.499  0.3944  0.5692  0.0639
  285TMC3     C 4302   4.176   2.372  11.649 -0.0686  0.0818  0.5780
  285TMC3     O 4303   4.133   2.259  11.652 -0.4560 -0.5783  0.3542
  285TMC3     H 4304   4.352   2.187  11.607 -1.8569  1.2986  2.1992
  285TMC3    H1 4305   4.310   2.610  11.623 -2.1108 -1.2863 -0.7543
  285TMC3    H2 4306   4.650   2.447  11.437  0.3403 -0.0589 -0.1789
  285TMC3    C7 4307   4.536   2.665  11.540 -0.2179 -0.0226 -0.0538
  285TMC3    C8 4308   4.566   2.182  11.477  0.0289  0.0606  0.4453
  285TMC3    O1 4309   4.463   2.762  11.538  0.2219 -1.2785  0.5615
  285TMC3    O2 4310   4.503   2.076  11.488  0.8148  0.6758 -0.5796
  286MPD2     C 4311   4.212   1.605   1.424  0.2768  0.8272 -0.0865
  286MPD2    C1 4312   4.231   1.589   1.289 -0.9603  0.3680  0.4026
  286MPD2    C2 4313   4.352   1.537   1.250  0.3773 -0.2723  0.0301
  286MPD2    C3 4314   4.452   1.501   1.346 -0.2949  0.0901 -0.2824
  286MPD2    C4 4315   4.425   1.510   1.482  0.2228 -0.0178  0.0324
  286MPD2    C5 4316   4.302   1.563   1.519  0.7783  0.0003 -0.2818
  286MPD2     H 4317   4.371   1.537   1.144  2.2006  2.1071  0.3628
  286MPD2    H1 4318   4.493   1.470   1.556  1.0814  1.7852  0.2270
  286MPD2    H2 4319   4.116   1.649   1.448  0.1727  0.0494  0.9126
  286MPD2    H3 4320   4.272   1.583   1.621 -0.4513 -1.6129 -0.3257
  286MPD2     N 4321   4.579   1.450   1.313 -0.3217  0.0571 -0.5184
  286MPD2    H5 4322   4.636   1.435   1.396 -4.5067  0.7688  2.4936
  286MPD2    N1 4323   4.142   1.633   1.188  0.2523  0.1871 -0.0803
  286MPD2    H7 4324   4.180   1.612   1.096 -0.8608  0.2316 -0.5437
  287TMC3    C1 4325   0.037   1.386   1.175  0.5421  0.0661 -0.3710
  287TMC3    C2 4326   0.087   1.296   1.081  0.0930  0.7820 -0.8839
  287TMC3    C3 4327   0.219   1.253   1.087 -0.5516 -0.1338  0.4308
  287TMC3    C4 4328   0.118   1.422   1.281  0.3200 -0.9983  0.3311
  287TMC3    C5 4329   0.253   1.387   1.280  0.3622  0.1587  0.3369
  287TMC3    C6 4330   0.305   1.297   1.187 -0.0526 -0.3355  0.6766
  287TMC3     C 4331   4.622   1.419   1.189 -0.4511 -1.0253  0.7661
  287TMC3     O 4332   4.555   1.410   1.085 -0.1493 -0.2594  0.1718
  287TMC3     H 4333   0.013   1.267   1.008  0.1323  2.6137 -1.6609
  287TMC3    H1 4334   0.085   1.468   1.373 -0.2375 -0.1937 -0.2632
  287TMC3    H2 4335   0.406   1.257   1.185 -0.4445 -1.3078  0.1609
  287TMC3    C7 4336   0.333   1.421   1.397 -0.0314  0.0503 -0.1223
  287TMC3    C8 4337   0.269   1.168   0.990 -1.0311 -0.4983 -0.0007
  287TMC3    O1 4338   0.291   1.510   1.469  0.4518  0.2055  0.0385
  287TMC3    O2 4339   0.379   1.120   1.016 -0.4385 -0.5376  0.2319
  288TMC3    C1 4340   1.237   0.144  14.698 -0.4281  0.2233  0.6798
  288TMC3    C2 4341   1.189   0.126  14.826  0.2354 -0.1977  0.0866
  288TMC3    C3 4342   1.186   0.237  14.909 -0.4957 -0.3790 -0.5110
  288TMC3    C4 4343   1.295   0.264  14.660 -0.3350 -0.7134 -0.1663
  288TMC3    C5 4344   1.282   0.367  14.744  0.5454 -0.5750 -0.2048
  288TMC3    C6 4345   1.222   0.356  14.862  0.1092  0.1484 -0.3471
  288TMC3     C 4346   1.298   0.026  14.637 -0.2231 -0.0549 -0.3109
  288TMC3     O 4347   1.387   0.037  14.556 -1.3406 -0.1431  0.3448
  288TMC3     H 4348   1.168   0.026  14.864 -0.6332  0.0883  0.3475
  288TMC3    H1 4349   1.327   0.274  14.557  3.4782  2.7876  1.3720
  288TMC3    H2 4350   1.210   0.439  14.931 -1.1509 -1.0396  0.8606
  288TMC3    C7 4351   1.321   0.508  14.717  0.3015  0.0467 -0.4102
  288TMC3    C8 4352   1.177   0.230  15.057  0.4268 -0.0037 -0.3450
  288TMC3    O1 4353   1.353   0.595  14.796 -0.8009 -0.1122 -0.2954
  288TMC3    O2 4354   1.229   0.320  15.119  0.0443  0.7987  0.5826
  289MPD2     C 4355   1.624   3.926  14.227  0.0026 -0.3021 -0.2899
  289MPD2    C1 4356   1.590   4.028  14.141 -0.0110  0.0064  0.3775
  289MPD2    C2 4357   1.462   4.083  14.155 -0.3504 -0.1509  0.4515
  289MPD2    C3 4358   1.369   4.046  14.255 -0.8404 -0.7911 -0.0303
  289MPD2    C4 4359   1.404   3.936  14.332  0.1817 -0.3429 -0.4854
  289MPD2    C5 4360   1.531   3.886  14.317  0.1639  0.3684 -0.6969
  289MPD2     H 4361   1.433   4.165  14.091 -0.6748 -3.9505 -4.2790
  289MPD2    H1 4362   1.326   3.888  14.390  1.3331 -0.0636  1.3000
  289MPD2    H2 4363   1.720   3.876  14.230  1.4368  2.3154 -2.0720
  289MPD2    H3 4364   1.550   3.805  14.387  1.3093 -1.0288 -2.6346
  289MPD2     N 4365   1.241   4.111  14.271  0.1260 -0.0945 -0.5366
  289MPD2    H5 4366   1.171   4.064  14.329 -0.1019  1.0747  0.1265
  289MPD2    N1 4367   1.693   4.070  14.044  0.1057 -0.5861  0.3546
  289MPD2    H7 4368   1.781   4.020  14.052  0.9176  1.4424  3.8568
  290TMC3    C1 4369   1.099   4.288  14.315 -0.1994 -0.0571 -0.2871
  290TMC3    C2 4370   1.102   4.425  14.348  0.0648 -0.7844 -0.1570
  290TMC3    C3 4371   0.996   4.476  14.423 -0.1697 -0.2595  0.2304
  290TMC3    C4 4372   0.992   4.210  14.337  0.6947  0.2844  0.3429
  290TMC3    C5 4373   0.899   4.266  14.425  0.1739 -0.2217 -0.9144
  290TMC3    C6 4374   0.898   4.397  14.467  0.3958  1.1693 -1.0782
  290TMC3     C 4375   1.221   4.242  14.244 -0.0901 -0.0761 -0.4956
  290TMC3     O 4376   1.309   4.321  14.210  0.0331 -0.0400 -0.1298
  290TMC3     H 4377   1.191   4.484  14.328 -0.2942  0.2788  1.3147
  290TMC3    H1 4378   0.992   4.109  14.297 -1.8710  0.8627 -1.1394
  290TMC3    H2 4379   0.825   4.442  14.533  0.4769 -0.2055 -0.0431
  290TMC3    C7 4380   0.770   4.200  14.435  0.4076 -0.1576 -0.2913
  290TMC3    C8 4381   1.002   4.623  14.445 -0.7643 -0.7213  0.3133
  290TMC3    O1 4382   0.677   4.272  14.456 -0.1787  0.0549  0.1731
  290TMC3    O2 4383   0.930   4.667  14.530 -0.0640  0.2953  0.2186
  291MPD2     C 4384   1.305   4.435   0.093 -0.2926  0.0713 -0.8705
  291MPD2    C1 4385   1.257   4.311   0.060 -0.0361  0.0242  0.8996
  291MPD2    C2 4386   1.356   4.217   0.029 -0.0946  0.1187  0.3994
  291MPD2    C3 4387   1.491   4.246   0.036 -0.0961  0.1856 -0.2299
  291MPD2    C4 4388   1.531   4.381   0.065 -0.4247 -0.0882  0.6695
  291MPD2    C5 4389   1.439   4.472   0.104  0.3026 -0.2491  0.5369
  291MPD2     H 4390   1.329   4.118  17.689  0.1428 -0.1246  0.9339
  291MPD2    H1 4391   1.633   4.414   0.084 -0.0209 -1.1462  0.3110
  291MPD2    H2 4392   1.236   4.515   0.113 -0.8769 -0.8580  0.8255
  291MPD2    H3 4393   1.464   4.575   0.126 -1.8926 -0.0132  1.9165
  291MPD2     N 4394   1.596   4.156   0.022 -0.2683  0.1705  0.3698
  291MPD2    H5 4395   1.692   4.182   0.041  0.4064 -2.1919  0.2669
  291MPD2    N1 4396   1.118   4.275   0.053  0.1607  0.6466 -0.2179
  291MPD2    H7 4397   1.103   4.177   0.030  1.9645  0.6734 -1.5021
  292TMC3    C1 4398   0.884   4.287   0.070 -0.4608  0.1019 -0.0774
  292TMC3    C2 4399   0.781   4.323   0.159 -1.0014 -0.2628  0.4401
  292TMC3    C3 4400   0.680   4.231   0.183 -0.3381 -0.5797  0.1678
  292TMC3    C4 4401   0.881   4.163  17.694 -0.0844  0.2680  0.2680
  292TMC3    C5 4402   0.767   4.089   0.019 -0.3414  0.2222  0.4659
  292TMC3    C6 4403   0.671   4.113   0.118 -0.1809  0.2872 -0.2584
  292TMC3     C 4404   1.012   4.360   0.073 -0.0119 -0.3003 -0.4961
  292TMC3     O 4405   1.015   4.472   0.123 -0.0172  0.2237 -0.3496
  292TMC3     H 4406   0.803   4.405   0.226  0.7468 -0.0782 -0.3612
  292TMC3    H1 4407   0.943   4.139  17.608  1.6737  1.0664  1.3172
  292TMC3    H2 4408   0.585   4.046   0.120  0.8174 -0.9312  1.7292
  292TMC3    C7 4409   0.727   3.996  17.607 -1.2125 -0.5958 -0.5574
  292TMC3    C8 4410   0.593   4.267   0.291  0.2384  0.5386 -0.0088
  292TMC3    O1 4411   0.813   3.924  17.557 -0.5632  0.4098 -0.2509
  292TMC3    O2 4412   0.611   4.376   0.346 -0.3661 -0.3452 -0.3292
  293MPD2     C 4413   2.673   0.602  12.431 -0.3134 -0.4377  0.5552
  293MPD2    C1 4414   2.575   0.637  12.519  0.2574 -0.2651  1.0412
  293MPD2    C2 4415   2.600   0.664  12.653 -0.0960  0.0207 -0.3024
  293MPD2    C3 4416   2.729   0.656  12.704  0.0129  0.1714  0.8090
  293MPD2    C4 4417   2.827   0.626  12.611 -0.0627 -0.0255 -0.9308
  293MPD2    C5 4418   2.797   0.595  12.479  0.5701  0.3975 -0.2455
  293MPD2     H 4419   2.522   0.693  12.722 -2.2285 -0.7236 -2.3963
  293MPD2    H1 4420   2.930   0.604  12.639  0.0998  1.8659 -0.0570
  293MPD2    H2 4421   2.652   0.580  12.327 -0.8988  0.9973  0.3764
  293MPD2    H3 4422   2.874   0.557  12.412  0.3488  1.4285 -1.0935
  293MPD2     N 4423   2.754   0.678  12.846  0.0916  0.3645  0.2586
  293MPD2    H5 4424   2.683   0.687  12.918 -0.0212  0.8385  0.0899
  293MPD2    N1 4425   2.453   0.657  12.459 -0.2676 -0.4175  0.0615
  293MPD2    H7 4426   2.447   0.655  12.358 -1.6966  1.0790  0.1180
  294TMC3    C1 4427   2.228   0.706  12.429  0.0883  0.6827 -0.4042
  294TMC3    C2 4428   2.110   0.724  12.480  0.1399 -0.6719 -0.1400
  294TMC3    C3 4429   2.007   0.753  12.402  0.2447 -0.0099  0.0080
  294TMC3    C4 4430   2.252   0.739  12.295 -0.4501  0.1775 -0.5816
  294TMC3    C5 4431   2.152   0.785  12.220  0.0812 -0.8851  0.4038
  294TMC3    C6 4432   2.023   0.791  12.274 -0.3501 -0.5812  0.6500
  294TMC3     C 4433   2.336   0.662  12.521 -0.2405 -0.4424 -0.1621
  294TMC3     O 4434   2.303   0.647  12.638  0.5098  0.1206  0.2013
  294TMC3     H 4435   2.088   0.693  12.582 -0.3137 -0.2092 -0.0982
  294TMC3    H1 4436   2.353   0.752  12.260  0.0819  0.6323  1.1156
  294TMC3    H2 4437   1.935   0.820  12.218 -0.9718 -1.1084  1.3514
  294TMC3    C7 4438   2.161   0.823  12.083  0.7589  0.8312 -0.4296
  294TMC3    C8 4439   1.891   0.684  12.447  0.8262 -0.4547  0.3505
  294TMC3    O1 4440   2.050   0.847  12.036 -0.0018 -0.1058 -0.2856
  294TMC3    O2 4441   1.796   0.751  12.492  0.4080  0.4258 -0.6019
  295MPD2     C 4442   2.856   4.204   1.004 -0.2207  0.3369  0.3240
  295MPD2    C1 4443   2.829   4.320   0.930  0.3179  0.0122 -0.1709
  295MPD2    C2 4444   2.788   4.435   0.989  0.2886 -0.0080 -0.4902
  295MPD2    C3 4445   2.773   4.440   1.127  0.8751  0.4316  0.0578
  295MPD2    C4 4446   2.795   4.324   1.205 -0.4546 -0.0557  0.4722
  295MPD2    C5 4447   2.849   4.214   1.144  0.1563 -0.1773 -0.0512
  295MPD2     H 4448   2.759   4.520   0.928 -0.5971  0.6253  0.8286
  295MPD2    H1 4449   2.787   4.336   1.313  0.4637  4.5628  0.0113
  295MPD2    H2 4450   2.894   4.114   0.959 -0.8944  0.7831 -1.1263
  295MPD2    H3 4451   2.876   4.128   1.204  1.4778 -0.2442 -0.7477
  295MPD2     N 4452   2.735   4.556   1.193  0.6363  0.6998  0.6955
  295MPD2    H5 4453   2.722   4.549   1.293  0.8412 -1.2120  0.5779
  295MPD2    N1 4454   2.824   4.320   0.788 -0.6519  0.2369  0.3484
  295MPD2    H7 4455   2.783   4.403   0.746 -0.1427  1.3377  2.0375
  296TMC3    C1 4456   2.721   0.071   1.219  0.3216 -0.0092  0.0655
  296TMC3    C2 4457   2.685   0.195   1.166  0.3795  0.3441  0.0819
  296TMC3    C3 4458   2.698   0.308   1.241 -0.4933 -0.1731 -0.2155
  296TMC3    C4 4459   2.758   0.056   1.349 -0.1875 -0.7525 -0.1775
  296TMC3    C5 4460   2.771   0.177   1.418 -0.4126 -0.5217  0.2490
  296TMC3    C6 4461   2.745   0.302   1.370 -0.1883  0.2438  0.0141
  296TMC3     C 4462   2.715   4.677   1.125  0.1310 -0.4158  0.1804
  296TMC3     O 4463   2.704   4.705   1.006 -0.5198 -0.0944 -0.4630
  296TMC3     H 4464   2.637   0.195   1.068  0.3762 -0.6858  0.0797
  296TMC3    H1 4465   2.795   4.686   1.390  2.9473  0.1625 -0.8569
  296TMC3    H2 4466   2.753   0.388   1.435 -0.8153  1.2776 -1.2836
  296TMC3    C7 4467   2.802   0.168   1.557 -1.1429 -0.0940  0.2982
  296TMC3    C8 4468   2.661   0.437   1.182 -0.1021  0.0152 -0.0362
  296TMC3    O1 4469   2.853   0.265   1.605 -0.6593  0.5386  0.5023
  296TMC3    O2 4470   2.655   0.532   1.258 -0.1274  0.3742  0.7730
  297MPD2     C 4471   0.088   1.512  16.232 -0.4630  0.2330 -0.4384
  297MPD2    C1 4472   0.082   1.602  16.127 -0.5196 -0.1860 -0.1513
  297MPD2    C2 4473   0.191   1.663  16.075  0.2915 -0.5458 -0.2994
  297MPD2    C3 4474   0.316   1.624  16.125  0.0137 -0.0387 -0.6347
  297MPD2    C4 4475   0.320   1.530  16.225 -0.2237  0.2472 -0.3991
  297MPD2    C5 4476   0.209   1.486  16.287 -0.2768 -0.0051  0.3210
  297MPD2     H 4477   0.174   1.727  15.990  0.3937  0.2479  0.2832
  297MPD2    H1 4478   0.420   1.510  16.260 -0.0564  0.3999 -0.7836
  297MPD2    H2 4479   0.003   1.469  16.283  1.1611 -2.8139 -0.3367
  297MPD2    H3 4480   0.215   1.416  16.369 -0.2117 -0.3751 -0.0025
  297MPD2     N 4481   0.437   1.690  16.094  0.7903  0.3354 -0.4760
  297MPD2    H5 4482   0.520   1.646  16.132 -1.0856 -2.8242 -0.0405
  297MPD2    N1 4483   4.678   1.647  16.086  0.2454 -0.1022 -0.2389
  297MPD2    H7 4484   4.673   1.710  16.006 -2.0994 -0.3070 -0.2556
  298TMC3    C1 4485   4.454   1.686  16.070  0.4819  0.6874 -0.0497
  298TMC3    C2 4486   4.461   1.661  15.938 -0.5142 -0.2897  0.1196
  298TMC3    C3 4487   4.367   1.715  15.850  0.2719 -0.3468 -0.2782
  298TMC3    C4 4488   4.360   1.764  16.123  0.2533 -0.1892  0.1809
  298TMC3    C5 4489   4.270   1.816  16.032 -0.0293 -0.0667 -0.1522
  298TMC3    C6 4490   4.262   1.789  15.898 -0.6872 -0.3962  0.1624
  298TMC3     C 4491   4.563   1.646  16.157  0.2628  0.0246 -0.2742
  298TMC3     O 4492   4.529   1.602  16.263  0.9159 -0.1796  0.5175
  298TMC3     H 4493   4.535   1.592  15.900  0.5926  0.8060  0.2573
  298TMC3    H1 4494   4.369   1.798  16.226  0.3064  0.6838 -0.1136
  298TMC3    H2 4495   4.197   1.848  15.835  0.6634 -0.1093 -0.9846
  298TMC3    C7 4496   4.186   1.925  16.081 -0.2890  0.1338 -0.7166
  298TMC3    C8 4497   4.372   1.691  15.709 -0.2452 -0.3946  0.0082
  298TMC3    O1 4498   4.213   1.979  16.186  0.2595  0.4877  0.1032
  298TMC3    O2 4499   4.370   1.794  15.645  0.2809 -0.0185  0.2719
  299MPD2     C 4500   1.210   1.585   9.976 -0.9917 -0.0885  0.1251
  299MPD2    C1 4501   1.131   1.545  10.088 -0.3155  0.5579  0.4498
  299MPD2    C2 4502   0.997   1.517  10.063 -0.8257  0.2465 -0.2008
  299MPD2    C3 4503   0.944   1.532   9.934 -0.0885  0.0295 -0.4833
  299MPD2    C4 4504   1.012   1.589   9.831 -0.3841 -0.0062  0.4012
  299MPD2    C5 4505   1.147   1.612   9.855 -0.5942  0.5342 -0.4061
  299MPD2     H 4506   0.928   1.493  10.142 -0.2039 -2.3679 -0.4479
  299MPD2    H1 4507   0.968   1.591   9.732  0.9503  0.0707 -0.1854
  299MPD2    H2 4508   1.306   1.634   9.987  1.0232 -3.7849 -0.9510
  299MPD2    H3 4509   1.210   1.630   9.769  0.9699  1.0203  0.8534
  299MPD2     N 4510   0.799   1.514   9.920 -0.4420  0.4359 -0.4583
  299MPD2    H5 4511   0.759   1.556   9.837  2.0646  3.3209 -0.2220
  299MPD2    N1 4512   1.184   1.539  10.221  0.0703  0.2662  0.5959
  299MPD2    H7 4513   1.278   1.576  10.230 -0.0495  1.1473 -1.7387
  300TMC3    C1 4514   0.579   1.453   9.972 -0.6122  0.6333 -0.4006
  300TMC3    C2 4515   0.540   1.585   9.978  0.6016 -0.0261 -0.1250
  300TMC3    C3 4516   0.417   1.624  10.039  0.4894  0.3061 -0.1935
  300TMC3    C4 4517   0.501   1.361  10.039  0.1343  0.0389 -0.2664
  300TMC3    C5 4518   0.403   1.404  10.119  0.8835 -0.1610  1.1157
  300TMC3    C6 4519   0.356   1.531  10.125  0.1450  0.3032  0.5908
  300TMC3     C 4520   0.719   1.426   9.988  0.2914 -0.1353  0.5610
  300TMC3     O 4521   0.756   1.340  10.070 -0.0817  0.6645 -0.8627
  300TMC3     H 4522   0.609   1.656   9.935 -1.1670  1.4008 -0.6133
  300TMC3    H1 4523   0.530   1.257  10.033  2.6999  0.7539  0.0751
  300TMC3    H2 4524   0.274   1.562  10.188 -1.9466 -0.3139 -1.8070
  300TMC3    C7 4525   0.350   1.302  10.214 -0.0031  0.1802 -0.4715
  300TMC3    C8 4526   0.415   1.757  10.093  0.3957 -0.0266 -1.1153
  300TMC3    O1 4527   0.382   1.183  10.187  0.1088  0.6372  0.5406
  300TMC3    O2 4528   0.519   1.818  10.099 -0.2902  0.0242 -0.2082
  301MPD2     C 4529   2.805   3.240   1.866 -0.3387  0.1116  0.6396
  301MPD2    C1 4530   2.724   3.296   1.778  0.2462  0.0332 -0.0091
  301MPD2    C2 4531   2.654   3.221   1.683  0.1717 -0.5087  0.1757
  301MPD2    C3 4532   2.664   3.079   1.692  0.6755 -0.4986  0.0304
  301MPD2    C4 4533   2.749   3.023   1.784  0.8420 -0.3661 -0.2923
  301MPD2    C5 4534   2.822   3.109   1.861 -0.3002 -0.0222 -0.1625
  301MPD2     H 4535   2.585   3.272   1.618  1.2451 -0.1316 -0.6804
  301MPD2    H1 4536   2.751   2.915   1.793  0.7320 -0.3192  0.2699
  301MPD2    H2 4537   2.860   3.289   1.945  0.4992  2.7525 -1.6031
  301MPD2    H3 4538   2.886   3.061   1.934 -1.4231 -1.1918  0.0441
  301MPD2     N 4539   2.589   2.991   1.614 -0.6261 -0.4057 -0.5623
  301MPD2    H5 4540   2.592   2.893   1.640 -2.0417 -0.1032  0.7626
  301MPD2    N1 4541   2.712   3.439   1.768 -0.4787  0.8915 -0.3079
  301MPD2    H7 4542   2.643   3.478   1.704  0.9655  0.2651 -2.2275
  302TMC3    C1 4543   2.416   2.907   1.474  0.0059  0.0391  0.2692
  302TMC3    C2 4544   2.479   2.789   1.464 -0.8710  0.3372 -0.0254
  302TMC3    C3 4545   2.410   2.674   1.450 -0.0252 -0.4470 -0.4001
  302TMC3    C4 4546   2.279   2.905   1.475  0.4006  0.1496  0.4808
  302TMC3    C5 4547   2.209   2.792   1.459  0.4664 -0.4204  0.3761
  302TMC3    C6 4548   2.272   2.675   1.441 -0.1370  0.1060  0.2089
  302TMC3     C 4549   2.480   3.024   1.534 -0.1143 -0.5068 -0.1770
  302TMC3     O 4550   2.433   3.135   1.500 -0.2719 -0.0493 -0.0582
  302TMC3     H 4551   2.587   2.793   1.448 -0.7762  0.0427  0.5553
  302TMC3    H1 4552   2.238   3.001   1.502  1.7456  0.5758  0.9945
  302TMC3    H2 4553   2.210   2.587   1.428  0.7578 -0.3969 -0.6985
  302TMC3    C7 4554   2.067   2.785   1.481  0.5245  0.4803 -0.3142
  302TMC3    C8 4555   2.482   2.560   1.412 -0.5294 -0.1850 -0.2762
  302TMC3    O1 4556   2.008   2.677   1.490 -0.1700 -0.3159 -0.0870
  302TMC3    O2 4557   2.599   2.580   1.393 -0.0896  0.0751 -0.1252
  303MPD2     C 4558   2.016   0.851  10.181  0.9407  0.4011 -0.4021
  303MPD2    C1 4559   1.951   0.765  10.099 -0.0296 -0.3198  0.1098
  303MPD2    C2 4560   1.961   0.783   9.957 -0.3916 -0.2362  0.1122
  303MPD2    C3 4561   2.026   0.890   9.897  0.7181  0.2092 -0.8437
  303MPD2    C4 4562   2.095   0.968   9.988 -0.0712  0.1931  0.0302
  303MPD2    C5 4563   2.082   0.953  10.121  0.0067 -0.1922 -0.3704
  303MPD2     H 4564   1.908   0.712   9.894 -0.4511  0.1864 -0.3178
  303MPD2    H1 4565   2.170   1.040   9.959 -0.1401  0.5670  0.7890
  303MPD2    H2 4566   2.011   0.838  10.289  0.7898 -0.1219 -0.4739
  303MPD2    H3 4567   2.134   1.012  10.196 -0.5658 -0.2636  0.0932
  303MPD2     N 4568   2.043   0.907   9.757 -0.0517 -0.1407 -0.2028
  303MPD2    H5 4569   2.108   0.978   9.724 -0.2818  0.8493  1.4263
  303MPD2    N1 4570   1.878   0.660  10.159  0.1456  0.3137 -0.3987
  303MPD2    H7 4571   1.886   0.641  10.258  1.0234 -0.9080 -0.7034
  304TMC3    C1 4572   1.723   0.499  10.194  0.2421 -0.2870 -0.8698
  304TMC3    C2 4573   1.588   0.497  10.166  0.0294  0.5454 -0.0766
  304TMC3    C3 4574   1.518   0.383  10.200 -0.3968  0.5643  0.2012
  304TMC3    C4 4575   1.797   0.390  10.227  0.0889  0.6965  0.0874
  304TMC3    C5 4576   1.729   0.278  10.260 -0.4752 -0.3149 -0.2718
  304TMC3    C6 4577   1.590   0.272  10.248 -0.0383  0.0785 -0.2186
  304TMC3     C 4578   1.786   0.587  10.094  0.4655 -0.2465  0.4622
  304TMC3     O 4579   1.748   0.586   9.977  0.1293  0.3705 -0.0790
  304TMC3     H 4580   1.539   0.582  10.120 -0.8500  0.6476  1.0614
  304TMC3    H1 4581   1.905   0.394  10.215 -0.0092 -1.6718 -1.5233
  304TMC3    H2 4582   1.537   0.182  10.275  0.3886  0.1834  0.9396
  304TMC3    C7 4583   1.791   0.162  10.193  0.3461 -0.0656  0.4608
  304TMC3    C8 4584   1.399   0.341  10.122 -0.3059 -0.9306  0.9039
  304TMC3    O1 4585   1.912   0.142  10.202  0.1837  0.5052 -0.1676
  304TMC3    O2 4586   1.385   0.218  10.124  0.4571 -0.7089  0.3523
  305MPD2     C 4587   0.999   2.781  14.144  0.1511  0.2278 -0.4829
  305MPD2    C1 4588   1.073   2.889  14.102 -0.2241 -0.1261 -0.5312
  305MPD2    C2 4589   1.064   2.925  13.968 -0.6119  0.0518 -0.3883
  305MPD2    C3 4590   0.979   2.851  13.883 -0.3120  0.6670 -0.4988
  305MPD2    C4 4591   0.901   2.751  13.929  1.1303 -0.3637 -0.3325
  305MPD2    C5 4592   0.911   2.719  14.064 -0.1362 -0.1715 -0.0245
  305MPD2     H 4593   1.132   3.000  13.930 -0.4619  0.2299  0.2192
  305MPD2    H1 4594   0.836   2.690  13.867  0.0908 -1.5525  1.9365
  305MPD2    H2 4595   1.007   2.746  14.246 -2.6894  1.6352  0.2562
  305MPD2    H3 4596   0.852   2.636  14.100 -0.1548  0.3802  1.2017
  305MPD2     N 4597   0.982   2.869  13.745 -0.7311  0.3124  0.7433
  305MPD2    H5 4598   0.955   2.785  13.694 -1.6807  1.7575 -1.1657
  305MPD2    N1 4599   1.172   2.934  14.191  0.0914  0.8621  0.4179
  305MPD2    H7 4600   1.182   2.880  14.276 -0.4216 -0.9401 -0.6532
  306TMC3    C1 4601   1.356   3.057  14.262  0.4776 -1.0730  0.0180
  306TMC3    C2 4602   1.438   2.948  14.289  0.0202 -0.7534 -0.3876
  306TMC3    C3 4603   1.545   2.963  14.373 -0.3515 -0.2529  0.0398
  306TMC3    C4 4604   1.394   3.183  14.304  0.1535 -0.9225 -0.5500
  306TMC3    C5 4605   1.517   3.201  14.379 -0.8725  0.1256  0.3047
  306TMC3    C6 4606   1.583   3.086  14.419 -0.0698  0.7164  0.0763
  306TMC3     C 4607   1.250   3.046  14.172 -0.9166  0.4561 -0.4832
  306TMC3     O 4608   1.246   3.127  14.084  0.0475 -0.5379 -0.0421
  306TMC3     H 4609   1.409   2.848  14.261 -0.0796 -1.0982  0.9132
  306TMC3    H1 4610   1.353   3.276  14.266  0.9282 -0.6574 -0.7331
  306TMC3    H2 4611   1.666   3.100  14.487 -0.7739  0.7051  0.9401
  306TMC3    C7 4612   1.574   3.328  14.405 -0.1245  0.4099 -0.0869
  306TMC3    C8 4613   1.598   2.846  14.436  0.5967  0.6219  0.2723
  306TMC3    O1 4614   1.536   3.412  14.324 -0.0692 -0.2203  0.5777
  306TMC3    O2 4615   1.565   2.739  14.387 -0.0093  0.2615  0.2449
  307MPD2     C 4616   4.372   1.490   0.566  0.0165 -0.4113 -0.9818
  307MPD2    C1 4617   4.294   1.391   0.523 -0.2954 -0.6669 -0.9198
  307MPD2    C2 4618   4.157   1.404   0.518 -1.0089  0.5581 -0.1472
  307MPD2    C3 4619   4.101   1.527   0.538  0.1957  0.2144  0.2680
  307MPD2    C4 4620   4.182   1.633   0.573  0.9487  0.3039  0.1031
  307MPD2    C5 4621   4.318   1.612   0.594 -0.2945 -0.1334 -0.3644
  307MPD2     H 4622   4.093   1.320   0.493  1.1294 -1.0772 -0.1213
  307MPD2    H1 4623   4.149   1.736   0.577 -0.0039 -0.0640  1.8846
  307MPD2    H2 4624   4.480   1.491   0.574 -0.2333  4.0523  1.5741
  307MPD2    H3 4625   4.383   1.697   0.609  2.1537 -2.0976  0.1086
  307MPD2     N 4626   3.959   1.532   0.528  1.1467 -0.3055 -0.1304
  307MPD2    H5 4627   3.906   1.449   0.503 -1.3584  1.0161  0.7932
  307MPD2    N1 4628   4.343   1.276   0.455 -0.3629  0.3252 -0.2400
  307MPD2    H7 4629   4.268   1.227   0.406  0.5280 -0.7913 -0.4899
  308TMC3    C1 4630   3.604   1.427   0.590  0.0278  0.4306  0.3994
  308TMC3    C2 4631   3.558   1.428   0.460 -0.6962  0.3558 -0.5557
  308TMC3    C3 4632   3.618   1.512   0.370 -0.0457 -0.4130  0.1937
  308TMC3    C4 4633   3.704   1.504   0.631  0.2082  0.9989 -0.4611
  308TMC3    C5 4634   3.751   1.599   0.541 -0.3479 -0.0348 -1.1355
  308TMC3    C6 4635   3.711   1.602   0.410 -0.0478  0.1939  0.0080
  308TMC3     C 4636   3.544   1.337   0.690 -0.4247  0.2165  0.6183
  308TMC3     O 4637   3.606   1.287   0.780  0.4529  0.5709  0.6083
  308TMC3     H 4638   3.472   1.365   0.442 -0.1623 -0.5971  0.2197
  308TMC3    H1 4639   3.755   1.491   0.726  1.9603  1.8968 -1.2687
  308TMC3    H2 4640   3.756   1.670   0.339  1.6590 -0.0063  0.9232
  308TMC3    C7 4641   3.887   1.642   0.547  0.6539  0.7063 -0.8560
  308TMC3    C8 4642   3.572   1.498   0.233  0.0459 -0.2944  0.2312
  308TMC3    O1 4643   3.922   1.757   0.543 -0.1657 -0.0958  0.0250
  308TMC3    O2 4644   3.596   1.592   0.157 -0.2440  0.1696  0.0246
  309MPD2     C 4645   3.008   1.026  16.941  0.5419 -0.4193  0.0650
  309MPD2    C1 4646   2.964   1.145  16.885 -0.5500 -0.1787 -0.0115
  309MPD2    C2 4647   2.892   1.229  16.965  0.5713  0.3807 -0.1973
  309MPD2    C3 4648   2.851   1.191  17.092  0.7021  0.2028 -0.3222
  309MPD2    C4 4649   2.900   1.075  17.150  0.2648  0.6705 -0.6197
  309MPD2    C5 4650   2.983   0.996  17.075  0.0873  0.5448 -0.6108
  309MPD2     H 4651   2.856   1.324  16.929  0.8061  1.0454  1.2968
  309MPD2    H1 4652   2.883   1.045  17.253 -2.4665 -0.1096 -1.3041
  309MPD2    H2 4653   3.074   0.959  16.888 -0.9102 -1.3000 -0.6442
  309MPD2    H3 4654   3.025   0.909  17.126 -3.2075 -0.8040 -0.2133
  309MPD2     N 4655   2.769   1.275  17.182  0.1786  0.3301 -0.4770
  309MPD2    H5 4656   2.754   1.231  17.272  1.4129 -1.5733 -1.2018
  309MPD2    N1 4657   2.993   1.181  16.752 -0.0204  0.4019  0.5797
  309MPD2    H7 4658   2.986   1.280  16.731 -0.0015  0.2338 -0.2193
  310TMC3    C1 4659   3.095   1.181  16.536  0.0168 -0.2700 -0.9397
  310TMC3    C2 4660   3.012   1.273  16.482 -0.2880 -0.1445  0.0616
  310TMC3    C3 4661   3.039   1.320  16.358 -0.0860  0.2469 -0.3491
  310TMC3    C4 4662   3.207   1.142  16.476  0.6044  0.1002  0.2068
  310TMC3    C5 4663   3.241   1.192  16.355 -0.3670 -0.3204  0.2941
  310TMC3    C6 4664   3.155   1.281  16.297 -0.0923 -0.1932 -0.8192
  310TMC3     C 4665   3.077   1.115  16.667 -0.0443  0.0234  0.0398
  310TMC3     O 4666   3.144   1.019  16.689 -0.2376  0.2638 -0.0445
  310TMC3     H 4667   2.912   1.299  16.514 -0.8692 -2.7247  0.3415
  310TMC3    H1 4668   3.280   1.083  16.530  0.1429 -1.6558 -1.1065
  310TMC3    H2 4669   3.168   1.315  16.195 -1.1278  1.3096 -0.4452
  310TMC3    C7 4670   3.357   1.134  16.290  0.2313 -0.1359  1.1899
  310TMC3    C8 4671   2.955   1.429  16.311 -0.0186  0.7233 -0.1612
  310TMC3    O1 4672   3.377   1.016  16.327  0.0548 -0.1804  0.0809
  310TMC3    O2 4673   2.854   1.452  16.370 -0.0316  0.4337  0.2350
  311MPD2     C 4674   0.268   2.755  12.623 -0.2975 -1.3270 -0.0799
  311MPD2    C1 4675   0.252   2.845  12.730 -0.2592  1.0190 -1.0923
  311MPD2    C2 4676   0.128   2.877  12.770  0.3936  0.1847  0.5165
  311MPD2    C3 4677   0.019   2.835  12.698  0.4899  0.4151 -0.3006
  311MPD2    C4 4678   0.036   2.749  12.588  0.5417 -0.3690 -0.3433
  311MPD2    C5 4679   0.161   2.711  12.555 -0.0472  0.0162 -0.1698
  311MPD2     H 4680   0.106   2.933  12.860  2.0016  0.3411  0.8068
  311MPD2    H1 4681   4.678   2.711  12.527  0.8410 -0.6859 -0.5457
  311MPD2    H2 4682   0.365   2.719  12.591  0.2924 -1.7978  2.2406
  311MPD2    H3 4683   0.175   2.643  12.471 -1.0376  0.9305 -1.0791
  311MPD2     N 4684   4.619   2.875  12.748  0.1189  0.1384 -0.3142
  311MPD2    H5 4685   4.615   2.909  12.843  0.7012  0.0335 -0.2537
  311MPD2    N1 4686   0.361   2.897  12.802 -0.6120 -0.2339 -0.2474
  311MPD2    H7 4687   0.340   2.969  12.871  2.8974 -0.3505  0.9524
  312TMC3    C1 4688   4.373   2.885  12.761 -0.2939 -0.0521  0.3233
  312TMC3    C2 4689   4.255   2.856  12.701 -0.1149  0.0567  0.5305
  312TMC3    C3 4690   4.150   2.830  12.785 -0.0673 -0.0672 -0.5729
  312TMC3    C4 4691   4.374   2.925  12.896 -0.6784 -0.1763  0.0105
  312TMC3    C5 4692   4.257   2.923  12.961  0.1160 -0.3045  0.0628
  312TMC3    C6 4693   4.142   2.868  12.916  0.0076 -0.3396  0.3557
  312TMC3     C 4694   4.495   2.868  12.678  0.7415  0.0810  0.7445
  312TMC3     O 4695   4.468   2.837  12.559  0.4533 -0.7639 -0.2740
  312TMC3     H 4696   4.241   2.842  12.595  0.9526  2.5195  0.0515
  312TMC3    H1 4697   4.459   2.985  12.925 -0.5920 -0.6870  0.8189
  312TMC3    H2 4698   4.054   2.843  12.975  2.5569 -2.5053  3.1771
  312TMC3    C7 4699   4.263   2.924  13.111  0.1856 -0.7508  0.5956
  312TMC3    C8 4700   4.022   2.780  12.738 -0.1114  0.8755 -0.5225
  312TMC3    O1 4701   4.211   2.839  13.180 -0.2148  0.2459 -0.1742
  312TMC3    O2 4702   3.967   2.692  12.801  0.2715 -0.0473  0.0455
  313MPD2     C 4703   4.690   1.767  10.602  0.2738 -0.3464  0.1845
  313MPD2    C1 4704   4.558   1.784  10.653  0.0189  0.8478 -0.1339
  313MPD2    C2 4705   4.454   1.704  10.601  0.1078 -0.2339  0.1643
  313MPD2    C3 4706   4.477   1.609  10.504  0.5822 -0.5351  0.4144
  313MPD2    C4 4707   4.604   1.598  10.448  0.4818  0.3962 -0.5399
  313MPD2    C5 4708   4.703   1.666  10.506  0.5107 -0.4608 -0.5420
  313MPD2     H 4709   4.357   1.729  10.643 -0.2066 -0.7421 -0.2512
  313MPD2    H1 4710   4.628   1.521  10.376  1.1481 -0.1984  0.3208
  313MPD2    H2 4711   0.056   1.817  10.637 -0.0838  0.1189  0.4180
  313MPD2    H3 4712   0.075   1.655  10.454  1.2918 -0.1994  0.8356
  313MPD2     N 4713   4.359   1.529  10.462 -0.0625  0.5401 -0.0683
  313MPD2    H5 4714   4.275   1.540  10.517  0.8834 -0.8482  1.6678
  313MPD2    N1 4715   4.532   1.888  10.743 -0.4037  0.1959  0.0140
  313MPD2    H7 4716   4.435   1.920  10.744 -0.4247  0.1706 -1.2518
  314TMC3    C1 4717   4.575   2.075  10.868  0.4903 -1.3550 -0.5623
  314TMC3    C2 4718   4.653   2.131  10.959 -0.1746 -0.0821  0.5155
  314TMC3    C3 4719   4.606   2.244  11.021  0.4892  0.4599  0.7046
  314TMC3    C4 4720   4.471   2.135  10.814  0.7877  0.1373 -1.0081
  314TMC3    C5 4721   4.434   2.257  10.866  0.3295  0.2220 -0.5679
  314TMC3    C6 4722   4.494   2.304  10.975  0.0365  0.0606 -0.3232
  314TMC3     C 4723   4.627   1.959  10.807  0.1086  0.7954 -0.1481
  314TMC3     O 4724   0.017   1.925  10.824  0.4766 -0.0103 -0.2699
  314TMC3     H 4725   0.009   2.070  11.002 -1.2106 -2.2325 -0.6611
  314TMC3    H1 4726   4.412   2.094  10.733 -0.9718 -0.4439  0.5557
  314TMC3    H2 4727   4.457   2.399  11.014 -2.1094 -1.2911  0.9621
  314TMC3    C7 4728   4.375   2.352  10.786  0.3851 -0.1931  0.3243
  314TMC3    C8 4729   4.694   2.323  11.105 -0.4023  0.5299 -0.0175
  314TMC3    O1 4730   4.324   2.449  10.840 -0.0989 -0.4088 -0.2302
  314TMC3    O2 4731   4.639   2.415  11.172  0.0628  0.0949 -0.0357
  315MPD2     C 4732   3.909   1.931  17.681  0.5503 -0.0287 -0.2336
  315MPD2    C1 4733   4.039   1.937   0.041  0.2005 -0.3311  1.2744
  315MPD2    C2 4734   4.128   2.027  17.682 -0.3749 -0.5391  0.2674
  315MPD2    C3 4735   4.094   2.099  17.576  0.9202  0.6332  0.6158
  315MPD2    C4 4736   3.962   2.100  17.525  0.3108  0.0325 -0.5893
  315MPD2    C5 4737   3.870   2.016  17.577 -0.0053 -0.6840  0.5937
  315MPD2     H 4738   4.229   2.032   0.027 -0.0056 -0.2638 -0.7239
  315MPD2    H1 4739   3.935   2.160  17.438 -1.2281  2.1483  1.3538
  315MPD2    H2 4740   3.843   1.854   0.026  0.3868  1.5736  2.6500
  315MPD2    H3 4741   3.772   2.007  17.530  2.0595  0.4209 -3.9115
  315MPD2     N 4742   4.198   2.168  17.517  0.2319 -0.4737  0.1618
  315MPD2    H5 4743   4.288   2.159  17.564 -0.8440 -0.9126  2.1382
  315MPD2    N1 4744   4.093   1.847   0.133 -0.4639 -0.1215  0.2939
  315MPD2    H7 4745   4.190   1.860   0.160 -0.2971  0.6950 -0.6682
  316TMC3    C1 4746   4.341   2.242  17.356 -0.5540 -0.2385  0.0589
  316TMC3    C2 4747   4.429   2.257  17.463  0.6266  0.0167  0.2254
  316TMC3    C3 4748   4.556   2.279  17.429  0.4152 -0.2652  0.3417
  316TMC3    C4 4749   4.370   2.240  17.223  0.5387  0.4355 -0.0063
  316TMC3    C5 4750   4.506   2.269  17.198 -0.4121 -0.6460 -0.0114
  316TMC3    C6 4751   4.599   2.272  17.297 -0.2568  0.3451 -0.5626
  316TMC3     C 4752   4.201   2.228  17.389 -1.0045 -0.2962 -0.2046
  316TMC3     O 4753   4.116   2.218  17.303 -0.3474  0.1826  0.0409
  316TMC3     H 4754   4.411   2.276  17.568 -0.0217  0.1654  0.0852
  316TMC3    H1 4755   4.293   2.247  17.146  2.2586  2.9015 -1.5039
  316TMC3    H2 4756   4.701   2.300  17.275 -0.8124  4.0448  1.4413
  316TMC3    C7 4757   4.558   2.259  17.068  0.3919 -0.4619  0.2844
  316TMC3    C8 4758   4.654   2.310  17.536  0.1478  0.2196 -0.4161
  316TMC3    O1 4759   4.677   2.254  17.040 -0.0167  0.5436 -0.0675
  316TMC3    O2 4760   4.617   2.385  17.621  0.0032 -0.0907  0.1219
  317MPD2     C 4761   1.350   4.494  13.197  0.2415 -0.7299  0.0769
  317MPD2    C1 4762   1.427   4.415  13.118  0.0705  0.3545  0.4949
  317MPD2    C2 4763   1.520   4.329  13.173 -0.1130 -0.3178 -0.9906
  317MPD2    C3 4764   1.554   4.343  13.307 -0.3011 -0.1637  0.0382
  317MPD2    C4 4765   1.482   4.432  13.383  0.4554  0.5220 -0.2523
  317MPD2    C5 4766   1.378   4.508  13.329  0.1979  0.0398 -0.5106
  317MPD2     H 4767   1.577   4.265  13.107  0.3048  0.2528 -1.1949
  317MPD2    H1 4768   1.494   4.430  13.491 -0.0279 -2.8700 -0.2632
  317MPD2    H2 4769   1.284   4.567  13.153  1.0136  0.8988  1.6111
  317MPD2    H3 4770   1.319   4.582  13.382 -0.4411 -1.0169  0.2336
  317MPD2     N 4771   1.655   4.259  13.359 -0.2881 -0.3974 -0.5477
  317MPD2    H5 4772   1.686   4.174  13.313 -1.7585 -1.0898 -0.2555
  317MPD2    N1 4773   1.410   4.421  12.974  0.3252 -0.6731 -0.1406
  317MPD2    H7 4774   1.471   4.367  12.913  2.0667  0.2795  0.7556
  318TMC3    C1 4775   1.832   4.199  13.498  0.2678  0.2677  0.1830
  318TMC3    C2 4776   1.796   4.080  13.555  0.1029  0.6097  0.2965
  318TMC3    C3 4777   1.889   4.024  13.642 -0.8516 -0.1510  0.1151
  318TMC3    C4 4778   1.939   4.271  13.537  0.6776  0.2390  0.0600
  318TMC3    C5 4779   2.012   4.226  13.640  0.0384 -0.0491  0.0541
  318TMC3    C6 4780   1.996   4.100  13.689 -0.2699 -1.0393  0.0279
  318TMC3     C 4781   1.714   4.277  13.478  0.8152 -0.2258 -0.4601
  318TMC3     O 4782   1.705   4.368  13.560  0.7647 -0.3202 -0.5487
  318TMC3     H 4783   1.699   4.033  13.543  0.9556 -1.1113  0.1919
  318TMC3    H1 4784   1.934   4.377  13.517  0.1874  0.6181  2.1797
  318TMC3    H2 4785   2.065   4.060  13.763 -2.0364 -2.0578  1.1327
  318TMC3    C7 4786   2.145   4.283  13.658  0.9519 -0.2032  0.4528
  318TMC3    C8 4787   1.847   3.923  13.744 -0.0939  0.5943 -0.6146
  318TMC3    O1 4788   2.173   4.367  13.738  0.1010 -0.1639 -0.0391
  318TMC3    O2 4789   1.902   3.939  13.850 -0.1347 -0.2802  0.4797
  319MPD2     C 4790   2.749   0.914  16.411  0.1711 -0.5171 -0.2757
  319MPD2    C1 4791   2.680   0.839  16.502  0.3158 -0.0330  0.5945
  319MPD2    C2 4792   2.542   0.844  16.503 -0.0999  0.4550 -0.1671
  319MPD2    C3 4793   2.467   0.912  16.412  0.1090 -0.1140  0.7353
  319MPD2    C4 4794   2.535   0.994  16.323 -0.0086 -1.0625 -0.4157
  319MPD2    C5 4795   2.673   0.997  16.326  0.0611  0.9438  0.7949
  319MPD2     H 4796   2.501   0.772  16.573  0.4733  0.2521 -0.0383
  319MPD2    H1 4797   2.483   1.060  16.255 -0.8988  2.1710  3.3731
  319MPD2    H2 4798   2.857   0.913  16.411  0.1393 -0.4254  3.9450
  319MPD2    H3 4799   2.732   1.059  16.260 -2.6778 -0.7069 -3.1785
  319MPD2     N 4800   2.324   0.905  16.406 -0.3004  0.6278  0.7245
  319MPD2    H5 4801   2.276   0.964  16.339  0.2985  0.7713  0.4161
  319MPD2    N1 4802   2.735   0.753  16.603  0.3154  0.1132 -0.7868
  319MPD2    H7 4803   2.673   0.695  16.658  1.2199  0.8283  0.9622
  320TMC3    C1 4804   2.101   0.862  16.486  1.0185  0.3568 -0.1190
  320TMC3    C2 4805   2.036   0.877  16.369 -0.2899 -0.2276  0.1441
  320TMC3    C3 4806   1.901   0.866  16.367 -0.1524 -0.2204 -0.6704
  320TMC3    C4 4807   2.026   0.840  16.602  0.0131 -0.5299  0.3253
  320TMC3    C5 4808   1.893   0.814  16.588 -0.0458  0.0011 -0.4572
  320TMC3    C6 4809   1.825   0.842  16.474 -0.0801  0.5095 -0.7624
  320TMC3     C 4810   2.247   0.855  16.509 -0.1279  0.5760  0.2116
  320TMC3     O 4811   2.283   0.802  16.615 -0.0605  0.4498 -0.6608
  320TMC3     H 4812   2.096   0.905  16.283 -1.0560  2.1060  0.3731
  320TMC3    H1 4813   2.076   0.840  16.698  0.9388  3.1485 -0.1802
  320TMC3    H2 4814   1.718   0.834  16.458 -0.0359  1.7664 -1.7183
  320TMC3    C7 4815   1.853   0.678  16.615 -0.6154 -0.2997 -0.0285
  320TMC3    C8 4816   1.828   0.888  16.243  0.5102  0.0958 -0.4081
  320TMC3    O1 4817   1.808   0.620  16.521  0.2663 -0.3390 -0.0093
  320TMC3    O2 4818   1.871   0.972  16.163  0.3062 -0.2057 -0.6525
  321TMC3    C1 4819   2.901   0.615  16.711 -0.8836 -0.2943  0.5098
  321TMC3    C2 4820   3.028   0.569  16.676 -0.3251 -0.1286 -0.2706
  321TMC3    C3 4821   3.052   0.431  16.673 -0.5725 -0.4016  0.1807
  321TMC3    C4 4822   2.802   0.529  16.741  0.4795 -0.0213 -0.4272
  321TMC3    C5 4823   2.829   0.395  16.735  1.0698 -0.0840  0.1593
  321TMC3    C6 4824   2.943   0.343  16.683 -0.6963 -0.3367  0.6226
  321TMC3     C 4825   2.868   0.734  16.627  0.2468 -0.0778  0.6043
  321TMC3     O 4826   2.961   0.791  16.577 -0.0067 -0.4057  0.4451
  321TMC3     H 4827   3.112   0.636  16.662 -0.3717 -0.3487 -1.6118
  321TMC3    H1 4828   2.709   0.559  16.789  1.8816  2.0028  1.0648
  321TMC3    H2 4829   2.963   0.236  16.683 -1.3434 -0.4725  4.1896
  321TMC3    C7 4830   2.768   0.321  16.845  0.2409  0.8208  0.2502
  321TMC3    C8 4831   3.154   0.377  16.766  0.8009 -0.2482 -0.2823
  321TMC3    O1 4832   2.663   0.355  16.894  0.3098  0.1748 -0.5160
  321TMC3    O2 4833   3.125   0.276  16.824 -0.4992 -0.2610  0.5888
  322MPD2     C 4834   1.229   2.330  13.448 -0.8008 -0.4668  0.6858
  322MPD2    C1 4835   1.252   2.262  13.562  0.6547  0.3806  0.3351
  322MPD2    C2 4836   1.313   2.139  13.548  0.0537  0.5644 -0.0057
  322MPD2    C3 4837   1.361   2.090  13.427 -0.6232 -0.2044  0.5849
  322MPD2    C4 4838   1.329   2.158  13.312  0.4683  0.0600  0.4816
  322MPD2    C5 4839   1.267   2.280  13.327 -1.0099  0.7125 -0.4238
  322MPD2     H 4840   1.338   2.093  13.643  2.4931  1.2075 -0.3441
  322MPD2    H1 4841   1.368   2.127  13.216  1.6188  0.7491  0.7228
  322MPD2    H2 4842   1.170   2.421  13.445  0.4118  0.2945  0.0203
  322MPD2    H3 4843   1.249   2.341  13.240 -1.1216  1.0478 -0.1655
  322MPD2     N 4844   1.429   1.970  13.430  0.9439 -0.1800 -0.4308
  322MPD2    H5 4845   1.439   1.932  13.523  3.1227 -0.6629 -0.8670
  322MPD2    N1 4846   1.196   2.322  13.679 -0.0760 -0.8741 -0.0425
  322MPD2    H7 4847   1.180   2.422  13.678  1.4585 -0.6308 -0.3035
  323TMC3    C1 4848   1.112   2.320  13.904  0.3006  0.0341  0.1773
  323TMC3    C2 4849   1.142   2.456  13.914  0.5125  0.3863  0.1628
  323TMC3    C3 4850   1.187   2.509  14.035 -0.5318 -0.1315  0.9437
  323TMC3    C4 4851   1.100   2.247  14.021  0.1725 -0.2534  0.3449
  323TMC3    C5 4852   1.160   2.303  14.128  0.4271 -0.9526 -0.7819
  323TMC3    C6 4853   1.200   2.434  14.142  1.1750  0.6109 -0.1361
  323TMC3     C 4854   1.147   2.249  13.787  0.6543  0.9211  0.0462
  323TMC3     O 4855   1.153   2.129  13.801 -1.1328  0.1860 -0.0642
  323TMC3     H 4856   1.139   2.522  13.829 -3.6660 -0.2054 -0.1755
  323TMC3    H1 4857   1.092   2.139  14.017 -1.6862 -0.0972  0.2141
  323TMC3    H2 4858   1.206   2.484  14.239 -1.8415 -2.5586  1.6797
  323TMC3    C7 4859   1.237   2.212  14.204  0.1705  0.1293  0.2459
  323TMC3    C8 4860   1.294   2.604  14.034 -0.1965 -0.5517  0.6259
  323TMC3    O1 4861   1.232   2.092  14.181  0.1895 -0.1230 -0.0276
  323TMC3    O2 4862   1.382   2.598  14.120 -0.1105  0.7747 -0.0019
  324MPD2     C 4863   3.834   3.877  14.271  0.1114  0.5624 -1.0818
  324MPD2    C1 4864   3.740   3.853  14.177 -0.1465 -0.0015 -0.1570
  324MPD2    C2 4865   3.620   3.927  14.178 -0.8685 -0.4970  0.5063
  324MPD2    C3 4866   3.599   4.007  14.292  0.3977 -0.2905  0.3102
  324MPD2    C4 4867   3.696   4.027  14.386  0.5126 -0.3769 -0.6362
  324MPD2    C5 4868   3.813   3.968  14.370  0.8147  0.6209  0.0993
  324MPD2     H 4869   3.555   3.922  14.091  0.0451  0.3863 -0.2396
  324MPD2    H1 4870   3.682   4.083  14.478 -2.8624 -1.0058 -0.7660
  324MPD2    H2 4871   3.930   3.828  14.276 -0.2585 -0.0518 -0.0102
  324MPD2    H3 4872   3.888   3.979  14.448 -0.9245 -0.4723  1.9264
  324MPD2     N 4873   3.474   4.066  14.314 -0.4306 -0.1602 -0.2043
  324MPD2    H5 4874   3.459   4.106  14.406 -3.0266  0.2449 -0.8069
  324MPD2    N1 4875   3.758   3.764  14.064 -0.0591  0.5773 -0.4317
  324MPD2    H7 4876   3.675   3.750  14.008  0.4559  0.8184 -1.2503
  325TMC3    C1 4877   3.262   4.150  14.280 -0.2173  0.7192 -0.8485
  325TMC3    C2 4878   3.148   4.133  14.212  0.5330  0.4865 -0.1490
  325TMC3    C3 4879   3.033   4.181  14.264 -0.1893 -0.5852  0.5799
  325TMC3    C4 4880   3.270   4.228  14.393  0.4625 -0.8306 -0.1300
  325TMC3    C5 4881   3.149   4.277  14.443 -0.7974  0.4228 -0.6399
  325TMC3    C6 4882   3.029   4.251  14.381  1.3578  0.1762  0.0680
  325TMC3     C 4883   3.382   4.082  14.223 -0.3146 -0.0172  0.9268
  325TMC3     O 4884   3.377   4.062  14.100  0.3941 -0.4872 -0.4546
  325TMC3     H 4885   3.147   4.076  14.120 -1.3720 -0.0966  0.2308
  325TMC3    H1 4886   3.358   4.243  14.455 -2.9450  1.4095  4.1787
  325TMC3    H2 4887   2.938   4.307  14.400 -0.3256 -2.9080  0.9749
  325TMC3    C7 4888   3.151   4.347  14.565  0.4794 -0.3727 -0.3842
  325TMC3    C8 4889   2.912   4.113  14.232  0.1088  1.1829  0.2379
  325TMC3    O1 4890   3.261   4.375  14.606  0.2011 -0.1693 -0.1125
  325TMC3    O2 4891   2.923   4.043  14.132 -0.3140 -0.3589 -0.2057
  326MPD2     C 4892   4.070   4.495  11.012  0.4415 -0.1015  0.3923
  326MPD2    C1 4893   4.059   4.500  10.875  0.3442 -0.0003  0.1258
  326MPD2    C2 4894   4.165   4.546  10.799  0.2644  0.1683 -0.3623
  326MPD2    C3 4895   4.270   4.614  10.860  0.7622  0.2934 -0.9888
  326MPD2    C4 4896   4.266   4.624  10.998  0.3128 -0.2675  0.2308
  326MPD2    C5 4897   4.169   4.561  11.074  0.1549 -0.2488 -0.1453
  326MPD2     H 4898   4.153   4.547  10.691  0.1114 -2.3182 -0.3823
  326MPD2    H1 4899   4.342   4.679  11.052 -0.1105 -1.0274  1.6170
  326MPD2    H2 4900   4.004   4.451  11.086 -1.1303  1.0727 -0.3146
  326MPD2    H3 4901   4.175   4.566  11.182  1.0137 -0.1469 -0.1987
  326MPD2     N 4902   4.376   4.680  10.787  0.5208 -0.2007  0.1420
  326MPD2    H5 4903   4.451   4.719  10.844  1.4047  0.7120 -1.6704
  326MPD2    N1 4904   3.937   4.461  10.810  0.2227  0.3965  0.2039
  326MPD2    H7 4905   3.927   4.485  10.712 -0.9579  0.6020  0.3754
  327TMC3    C1 4906   3.725   4.379  10.771  1.1772  0.0295  0.7030
  327TMC3    C2 4907   3.699   4.485  10.683  0.3360  0.1585 -0.1725
  327TMC3    C3 4908   3.681   4.455  10.556  0.3212 -0.3467  0.0644
  327TMC3    C4 4909   3.718   4.251  10.727  0.1779  0.0764 -0.1671
  327TMC3    C5 4910   3.731   4.235  10.593  0.6258 -0.7548  0.2879
  327TMC3    C6 4911   3.717   4.336  10.511 -0.1779  0.8762 -0.4880
  327TMC3     C 4912   3.828   4.399  10.867 -0.3840  0.8282  0.7601
  327TMC3     O 4913   3.821   4.324  10.967  0.0639 -0.0215  0.3309
  327TMC3     H 4914   3.689   4.590  10.708  1.0978  0.1995 -0.0498
  327TMC3    H1 4915   3.737   4.168  10.795 -0.8426  1.1687  1.4544
  327TMC3    H2 4916   3.709   4.320  10.404  1.3795  0.2955 -0.5241
  327TMC3    C7 4917   3.814   4.122  10.554 -0.5412  0.7599 -0.0494
  327TMC3    C8 4918   3.690   4.567  10.462 -0.0845 -0.1834  0.4752
  327TMC3    O1 4919   3.827   4.026  10.621 -0.0454 -0.1601 -0.4768
  327TMC3    O2 4920   3.755   4.558  10.356 -0.3442 -0.4933  0.5278
  328MPD2     C 4921   2.052   4.008  16.888 -0.5429  0.2521  0.7097
  328MPD2    C1 4922   1.954   3.966  16.801 -0.1427  0.0206  0.1063
  328MPD2    C2 4923   1.854   4.061  16.763 -0.1606  0.8535 -0.2716
  328MPD2    C3 4924   1.837   4.184  16.829 -0.5808 -0.3419  0.4507
  328MPD2    C4 4925   1.929   4.216  16.924 -0.3661 -0.0843 -0.3686
  328MPD2    C5 4926   2.038   4.129  16.949  0.8955 -0.2020  0.5321
  328MPD2     H 4927   1.788   4.029  16.684  0.1177 -2.5899  0.8972
  328MPD2    H1 4928   1.914   4.312  16.971  0.3739 -2.0290  3.8852
  328MPD2    H2 4929   2.125   3.941  16.931 -0.6435  1.4014  2.6851
  328MPD2    H3 4930   2.121   4.163  17.011 -0.0462  1.1102  1.0855
  328MPD2     N 4931   1.734   4.279  16.799 -0.5160 -0.4901  0.3284
  328MPD2    H5 4932   1.727   4.365  16.852 -0.3733  0.0708 -0.5547
  328MPD2    N1 4933   1.958   3.830  16.749 -0.1048 -0.0339  0.6396
  328MPD2    H7 4934   2.030   3.766  16.781  0.1510  0.7293  1.6259
  329TMC3    C1 4935   1.877   3.627  16.673  0.2227 -0.2477  0.2114
  329TMC3    C2 4936   1.887   3.566  16.795 -0.1164 -0.4234 -0.3686
  329TMC3    C3 4937   1.842   3.436  16.803 -0.3430 -0.3517 -0.3800
  329TMC3    C4 4938   1.822   3.570  16.565  0.2399 -0.2390 -0.7494
  329TMC3    C5 4939   1.769   3.446  16.582 -0.4082 -0.5931  0.4622
  329TMC3    C6 4940   1.798   3.372  16.695  0.2131 -0.4289 -0.6191
  329TMC3     C 4941   1.866   3.771  16.671 -0.0073  0.2893  0.3458
  329TMC3     O 4942   1.786   3.824  16.599 -0.0927 -0.1073 -0.3283
  329TMC3     H 4943   1.924   3.612  16.885 -0.5675  1.6180 -1.2104
  329TMC3    H1 4944   1.786   3.615  16.473  2.3089 -0.7469 -1.8047
  329TMC3    H2 4945   1.783   3.265  16.704 -0.9802 -0.3344 -1.5584
  329TMC3    C7 4946   1.691   3.390  16.480  0.4931 -0.0974  0.0120
  329TMC3    C8 4947   1.825   3.374  16.932 -0.0734  0.6305 -0.2272
  329TMC3    O1 4948   1.646   3.461  16.390  0.0756 -0.3999  1.0187
  329TMC3    O2 4949   1.844   3.254  16.931  0.2210  0.3653  0.1092
  330TMC3    C1 4950   4.697   3.276   9.907  0.0604  0.3311 -0.0309
  330TMC3    C2 4951   4.639   3.190   9.820 -0.0554 -0.1193 -0.3890
  330TMC3    C3 4952   4.649   3.057   9.853  0.0946 -0.4172  0.6191
  330TMC3    C4 4953   0.053   3.246  10.006  0.5908 -0.4592  0.4546
  330TMC3    C5 4954   0.066   3.114  10.047  1.0221 -0.0420 -0.1506
  330TMC3    C6 4955   0.001   3.018   9.971 -0.2531  0.2578 -0.1783
  330TMC3     C 4956   4.618   3.400   9.925 -0.4479  0.5877  0.5515
  330TMC3     O 4957   4.668   3.486   9.991  0.3397 -0.0775 -0.6216
  330TMC3     H 4958   4.595   3.236   9.732  0.3989 -0.1037 -0.6106
  330TMC3    H1 4959   0.105   3.322  10.063 -0.6815  0.4696  0.3831
  330TMC3    H2 4960   0.014   2.912   9.988 -0.3846  0.0863 -1.1677
  330TMC3    C7 4961   0.107   3.087  10.185 -0.3796  0.2858  0.0911
  330TMC3    C8 4962   4.613   2.964   9.744 -0.6783 -0.0096 -0.7160
  330TMC3    O1 4963   0.172   3.178  10.237  0.0604  0.4226 -0.0005
  330TMC3    O2 4964   4.642   3.008   9.634 -0.0194  0.0306  0.2711
  331MPD2     C 4965   1.923   3.013  12.816  0.4242  0.4364  0.2423
  331MPD2    C1 4966   2.042   3.037  12.749  0.2976 -0.3372  0.4639
  331MPD2    C2 4967   2.117   2.939  12.688 -0.4917  0.3193  0.0251
  331MPD2    C3 4968   2.073   2.815  12.703  0.4731  0.4085 -0.1910
  331MPD2    C4 4969   1.957   2.786  12.763  0.0448 -0.3689 -0.8652
  331MPD2    C5 4970   1.876   2.882  12.817  0.2958  0.9575 -0.0580
  331MPD2     H 4971   2.211   2.957  12.636 -0.7888 -1.5555 -1.1576
  331MPD2    H1 4972   1.925   2.683  12.756 -0.7572 -0.2398  1.0171
  331MPD2    H2 4973   1.872   3.091  12.873  1.2485  1.4280 -0.3799
  331MPD2    H3 4974   1.789   2.845  12.870  0.7677  2.4228  1.7518
  331MPD2     N 4975   2.152   2.712  12.641 -0.0522  0.0344  0.0196
  331MPD2    H5 4976   2.242   2.741  12.604  0.3127 -0.5939  0.4131
  331MPD2    N1 4977   2.070   3.173  12.724 -0.7396  0.0498 -0.9294
  331MPD2    H7 4978   1.999   3.245  12.735 -0.1775  0.2943  1.0990
  332TMC3    C1 4979   2.204   2.510  12.526  0.9332  0.0717  0.2577
  332TMC3    C2 4980   2.241   2.582  12.418  0.3136 -0.0798 -0.4115
  332TMC3    C3 4981   2.356   2.547  12.349 -0.2422  0.0194  0.4865
  332TMC3    C4 4982   2.263   2.388  12.556 -0.3121  0.1880  0.3131
  332TMC3    C5 4983   2.375   2.354  12.479  0.7500  0.3303  0.0834
  332TMC3    C6 4984   2.426   2.435  12.381 -0.0490 -0.1811 -0.2158
  332TMC3     C 4985   2.125   2.572  12.630  0.1160  0.2817  0.2421
  332TMC3     O 4986   2.060   2.504  12.705 -0.7361  0.1592 -0.2796
  332TMC3     H 4987   2.191   2.674  12.390 -0.2964 -0.9321 -2.0712
  332TMC3    H1 4988   2.234   2.336  12.648  2.0290 -0.0558  0.9145
  332TMC3    H2 4989   2.513   2.406  12.323 -0.7629  1.6390 -2.2336
  332TMC3    C7 4990   2.447   2.234  12.507 -0.2194  0.3307 -0.0767
  332TMC3    C8 4991   2.368   2.579  12.208  0.1625  1.1119  0.5811
  332TMC3    O1 4992   2.380   2.152  12.568  0.3039 -0.7346 -0.4601
  332TMC3    O2 4993   2.266   2.610  12.148  0.3025 -0.5961 -0.1260
  333MPD2     C 4994   2.800   2.646  11.334  0.3700  0.3283 -0.3579
  333MPD2    C1 4995   2.748   2.561  11.243  0.0946 -0.3957  0.5279
  333MPD2    C2 4996   2.663   2.454  11.288 -0.3632  1.0507  0.3541
  333MPD2    C3 4997   2.621   2.450  11.423  0.5050 -0.5230  0.6746
  333MPD2    C4 4998   2.667   2.555  11.508 -0.3821  0.0734  0.3672
  333MPD2    C5 4999   2.762   2.643  11.465  0.5493  0.8801 -0.6610
  333MPD2     H 5000   2.634   2.370  11.225 -0.6306  1.8417 -0.5869
  333MPD2    H1 5001   2.637   2.563  11.612  1.7898  0.7787  0.9454
  333MPD2    H2 5002   2.871   2.720  11.299 -1.0300  1.5222 -0.6602
  333MPD2    H3 5003   2.800   2.718  11.534  1.8853  1.0630 -1.5954
  333MPD2     N 5004   2.536   2.343  11.457  0.3770  0.2841  0.7819
  333MPD2    H5 5005   2.500   2.278  11.389  1.1876  4.0261 -3.2303
  333MPD2    N1 5006   2.783   2.585  11.104 -0.2982 -0.2391  0.0274
  333MPD2    H7 5007   2.840   2.666  11.081 -0.0605 -0.1404  0.9668
  334TMC3    C1 5008   2.767   2.618  10.873 -0.2525 -0.2538  0.0025
  334TMC3    C2 5009   2.823   2.552  10.763 -0.4448  0.5427 -0.5076
  334TMC3    C3 5010   2.908   2.632  10.685  0.2682  0.2915  0.0328
  334TMC3    C4 5011   2.787   2.750  10.889  0.0161 -0.5809  0.0720
  334TMC3    C5 5012   2.868   2.823  10.804  0.6376 -0.8261 -0.6011
  334TMC3    C6 5013   2.939   2.762  10.700  0.0949  0.1311 -0.1041
  334TMC3     C 5014   2.740   2.527  10.989  0.5900  0.2857  0.6781
  334TMC3     O 5015   2.684   2.421  10.961 -0.1420 -0.4193 -0.2630
  334TMC3     H 5016   2.820   2.444  10.762  0.3782  0.5007  1.7371
  334TMC3    H1 5017   2.749   2.798  10.979 -1.2254  0.6675 -1.1416
  334TMC3    H2 5018   3.005   2.809  10.628  0.8392 -1.1388 -0.2485
  334TMC3    C7 5019   2.875   2.966  10.811  0.0231 -0.5053 -0.1919
  334TMC3    C8 5020   3.022   2.552  10.647 -0.0551  0.1691 -0.3669
  334TMC3    O1 5021   2.980   3.018  10.789 -0.2469 -0.1294 -0.8310
  334TMC3    O2 5022   2.998   2.462  10.561 -0.4510 -0.3582 -0.3098
  335TMC3    C1 5023   2.687   4.447  17.590 -0.0022  0.1563 -0.4579
  335TMC3    C2 5024   2.623   4.443  17.467  0.4775 -0.7982  0.2994
  335TMC3    C3 5025   2.707   4.421  17.360  0.1016 -0.0942  1.2391
  335TMC3    C4 5026   2.819   4.434  17.613 -0.0415 -0.1113  0.4952
  335TMC3    C5 5027   2.899   4.412  17.508 -0.6928  0.1360 -0.1688
  335TMC3    C6 5028   2.848   4.412  17.378  0.5106  0.3162  0.6754
  335TMC3     C 5029   2.597   4.449   0.009 -0.1352  0.0684 -0.4145
  335TMC3     O 5030   2.630   4.371   0.098  0.2899 -1.0272  0.0665
  335TMC3     H 5031   2.522   4.477  17.451  1.5488  2.4510  0.4337
  335TMC3    H1 5032   2.860   4.447   0.019  6.1069 -2.1117 -1.7537
  335TMC3    H2 5033   2.911   4.398  17.291  0.1135  1.4219  0.2115
  335TMC3    C7 5034   3.023   4.336  17.526  0.2519 -0.0496 -0.0951
  335TMC3    C8 5035   2.656   4.347  17.247 -0.4599 -0.5117 -0.6694
  335TMC3    O1 5036   3.077   4.291  17.427  0.0412 -0.1896 -0.0047
  335TMC3    O2 5037   2.726   4.357  17.144 -0.0781 -0.4479  0.2202
  336MPD2     C 5038   2.085   2.090  16.082  0.2828 -0.2773  0.4426
  336MPD2    C1 5039   2.046   2.010  15.977 -0.1544 -0.3737 -0.1655
  336MPD2    C2 5040   2.009   1.878  15.997 -0.1300  0.8432 -0.6738
  336MPD2    C3 5041   2.030   1.823  16.125 -0.2062 -0.6422 -0.1612
  336MPD2    C4 5042   2.076   1.904  16.229 -0.4103  0.0561  0.8222
  336MPD2    C5 5043   2.097   2.032  16.207  0.6321 -0.1253 -0.2237
  336MPD2     H 5044   1.964   1.826  15.913 -0.7105  1.0752 -0.5021
  336MPD2    H1 5045   2.086   1.860  16.328 -0.5168 -2.9626 -0.4985
  336MPD2    H2 5046   2.088   2.198  16.069  0.1231 -0.5869 -2.1739
  336MPD2    H3 5047   2.131   2.098  16.287  0.7068 -2.0554  1.3315
  336MPD2     N 5048   1.998   1.689  16.158  0.5721  0.6642  0.7948
  336MPD2    H5 5049   2.035   1.652  16.245  1.1210 -0.8502 -0.0737
  336MPD2    N1 5050   2.017   2.062  15.843  0.2495  0.0105 -0.5069
  336MPD2    H7 5051   1.967   1.998  15.782  0.0680  0.7387 -1.1265
  337TMC3    C1 5052   1.982   2.241  15.677 -0.1334 -0.8416  0.7783
  337TMC3    C2 5053   1.869   2.178  15.636 -0.5590  0.1247 -0.2507
  337TMC3    C3 5054   1.806   2.214  15.526  0.0712  0.4234 -0.1336
  337TMC3    C4 5055   2.031   2.353  15.616  0.3598  0.5782 -0.0790
  337TMC3    C5 5056   1.973   2.377  15.495 -0.0256 -0.2842 -0.0292
  337TMC3    C6 5057   1.860   2.315  15.445  0.4756  0.2528 -0.3694
  337TMC3     C 5058   2.060   2.179  15.791  0.5865  0.2160  0.1228
  337TMC3     O 5059   2.151   2.248  15.838  0.0160 -0.6165 -0.1127
  337TMC3     H 5060   1.823   2.094  15.687 -0.0253 -1.3579 -2.2024
  337TMC3    H1 5061   2.121   2.400  15.653  1.1055 -0.5999 -0.3977
  337TMC3    H2 5062   1.817   2.343  15.349  2.9001  0.2270 -1.4497
  337TMC3    C7 5063   1.994   2.496  15.416  0.1707  0.7043 -0.0969
  337TMC3    C8 5064   1.668   2.185  15.516 -0.8070 -0.1619  0.4477
  337TMC3    O1 5065   1.979   2.480  15.296 -0.0421 -0.4195 -0.0106
  337TMC3    O2 5066   1.606   2.126  15.603  0.3884  0.4474  0.0371
  338MPD2     C 5067   2.420   1.638   1.027  0.3682  0.4302  0.3181
  338MPD2    C1 5068   2.352   1.554   0.934 -0.5467 -0.2251 -0.0433
  338MPD2    C2 5069   2.225   1.592   0.909  0.3698 -0.0858 -0.6557
  338MPD2    C3 5070   2.156   1.690   0.983  0.2330  0.2681 -0.7103
  338MPD2    C4 5071   2.228   1.779   1.069 -0.6897 -0.0832 -0.3616
  338MPD2    C5 5072   2.361   1.745   1.090  0.7650 -0.9685 -0.5562
  338MPD2     H 5073   2.174   1.527   0.839 -1.3809 -0.5586  1.0744
  338MPD2    H1 5074   2.180   1.861   1.122  0.0566 -1.1966  2.0106
  338MPD2    H2 5075   2.526   1.631   1.050  0.7450  1.9634 -0.8917
  338MPD2    H3 5076   2.427   1.799   1.157 -1.6598 -0.6121  1.5476
  338MPD2     N 5077   2.020   1.704   0.946  0.5782 -0.3355 -0.3377
  338MPD2    H5 5078   1.989   1.636   0.877 -1.4702  0.5824 -0.3089
  338MPD2    N1 5079   2.415   1.447   0.863  0.1908  0.1631 -0.6514
  338MPD2    H7 5080   2.356   1.410   0.789  1.4824 -0.5622 -1.3180
  339TMC3    C1 5081   1.820   1.809   0.889 -0.6042 -0.3960 -0.5207
  339TMC3    C2 5082   1.720   1.889   0.933 -0.2169  0.3150 -0.9497
  339TMC3    C3 5083   1.642   1.942   0.834  0.0060  0.1031  0.3072
  339TMC3    C4 5084   1.839   1.769   0.761  0.0539 -0.1240  0.9134
  339TMC3    C5 5085   1.758   1.829   0.670 -0.0521 -0.3960  0.4213
  339TMC3    C6 5086   1.655   1.909   0.699 -0.4435 -0.0725 -0.7339
  339TMC3     C 5087   1.936   1.803   0.984 -0.3523  0.4205 -0.4519
  339TMC3     O 5088   1.943   1.894   1.067 -0.2930 -0.4455  0.3096
  339TMC3     H 5089   1.696   1.897   1.039  0.5881 -0.7220 -0.6859
  339TMC3    H1 5090   1.925   1.716   0.721  1.5218  0.3599  3.4437
  339TMC3    H2 5091   1.604   1.972   0.627  1.5826  1.5747 -0.7227
  339TMC3    C7 5092   1.808   1.805   0.532  1.1736 -0.0144  0.5177
  339TMC3    C8 5093   1.510   2.000   0.873  0.4461 -0.5627 -0.6000
  339TMC3    O1 5094   1.916   1.749   0.513 -0.2883  0.0346  0.3403
  339TMC3    O2 5095   1.432   2.012   0.777  0.1913  0.4326  0.3818
  340MPD2     C 5096   2.203   3.136  10.267 -0.4057 -0.2552 -0.7276
  340MPD2    C1 5097   2.307   3.073  10.326 -0.3504 -0.5861  0.0388
  340MPD2    C2 5098   2.427   3.133  10.363  0.0188 -0.8679 -0.6452
  340MPD2    C3 5099   2.436   3.275  10.348 -0.9372  0.2011 -0.7810
  340MPD2    C4 5100   2.322   3.341  10.308  0.1290  0.3047  0.1356
  340MPD2    C5 5101   2.208   3.271  10.263 -0.2202  0.4897 -0.2902
  340MPD2     H 5102   2.510   3.068  10.388 -1.0615 -2.5514 -1.4139
  340MPD2    H1 5103   2.322   3.449  10.297 -1.1103  0.2617 -0.2654
  340MPD2    H2 5104   2.108   3.087  10.247  0.0758 -0.9675 -1.2583
  340MPD2    H3 5105   2.133   3.331  10.212 -0.0568  0.3339 -0.7115
  340MPD2     N 5106   2.545   3.358  10.363 -0.0733 -0.8289 -0.4183
  340MPD2    H5 5107   2.534   3.457  10.381  0.5760 -0.9143  0.4803
  340MPD2    N1 5108   2.279   2.936  10.342 -0.4420  0.4524  0.6612
  340MPD2    H7 5109   2.183   2.909  10.324 -0.1352  0.8258 -1.5002
  341TMC3    C1 5110   2.318   2.705  10.377 -0.0107  0.0473 -0.8031
  341TMC3    C2 5111   2.249   2.683  10.262 -0.2250 -0.3068 -0.0505
  341TMC3    C3 5112   2.293   2.581  10.183 -0.4849  0.0038  0.2445
  341TMC3    C4 5113   2.426   2.619  10.414  0.8714 -0.0030 -0.1393
  341TMC3    C5 5114   2.472   2.528  10.320  0.0959  0.2083 -0.2546
  341TMC3    C6 5115   2.399   2.495  10.211 -0.0133  0.7391 -0.4981
  341TMC3     C 5116   2.358   2.845  10.398 -0.0332  0.0996 -0.5757
  341TMC3     O 5117   2.464   2.860  10.446  0.1490  0.3245 -0.6798
  341TMC3     H 5118   2.177   2.752  10.219 -0.6063 -0.6542  0.0346
  341TMC3    H1 5119   2.481   2.649  10.503  1.2152 -1.1132  0.0180
  341TMC3    H2 5120   2.452   2.451  10.127  0.3378  2.8019 -1.3462
  341TMC3    C7 5121   2.618   2.539  10.309  0.4308  0.6339  0.1520
  341TMC3    C8 5122   2.210   2.549  10.064 -0.3618 -0.0646 -0.4544
  341TMC3    O1 5123   2.682   2.438  10.266  0.3226  0.2842  0.1782
  341TMC3    O2 5124   2.148   2.640  10.007 -0.7395  0.0449 -0.1188
  342MPD2     C 5125   0.118   2.737  17.317  1.0626 -0.0215  0.3244
  342MPD2    C1 5126   0.252   2.714  17.308 -0.3461  0.2957 -0.2735
  342MPD2    C2 5127   0.332   2.823  17.276 -0.2224 -0.6437  0.4141
  342MPD2    C3 5128   0.283   2.946  17.233 -0.2543 -0.5667 -0.0260
  342MPD2    C4 5129   0.145   2.956  17.231 -0.2054  0.3455  0.0212
  342MPD2    C5 5130   0.062   2.856  17.272 -0.1111 -0.1370  0.2584
  342MPD2     H 5131   0.439   2.819  17.296 -0.2725 -0.0006  0.8044
  342MPD2    H1 5132   0.094   3.044  17.194 -2.1174 -0.9762 -0.5258
  342MPD2    H2 5133   0.049   2.662  17.355  0.9981  0.0306  0.3093
  342MPD2    H3 5134   4.679   2.875  17.256  0.3541  1.7947 -0.5483
  342MPD2     N 5135   0.364   3.053  17.195 -0.1324 -0.2974 -0.2565
  342MPD2    H5 5136   0.323   3.143  17.170  1.6389  1.7257  4.1110
  342MPD2    N1 5137   0.317   2.591  17.315 -0.0448 -0.4016  1.1117
  342MPD2    H7 5138   0.416   2.583  17.293 -0.5936 -2.2597 -0.6769
  343TMC3    C1 5139   0.374   2.373  17.362 -0.3839  0.2339 -0.3870
  343TMC3    C2 5140   0.501   2.413  17.334 -0.7841  0.5956  0.2727
  343TMC3    C3 5141   0.592   2.328  17.267  0.1652 -0.9285 -0.0933
  343TMC3    C4 5142   0.341   2.245  17.325  0.4369  0.3256 -0.2124
  343TMC3    C5 5143   0.438   2.158  17.273  0.6969  0.0913  1.0089
  343TMC3    C6 5144   0.564   2.204  17.232  0.4533 -0.1610  0.1109
  343TMC3     C 5145   0.261   2.467  17.347  0.2744  0.8538  0.1105
  343TMC3     O 5146   0.139   2.442  17.366 -0.3441 -0.2080 -0.1482
  343TMC3     H 5147   0.541   2.514  17.339 -3.3105  1.5303  1.4435
  343TMC3    H1 5148   0.241   2.208  17.344  0.1295  1.2707 -0.0114
  343TMC3    H2 5149   0.632   2.140  17.177 -1.5842  1.4942 -4.3006
  343TMC3    C7 5150   0.408   2.017  17.267 -0.1352 -0.3220 -0.8213
  343TMC3    C8 5151   0.726   2.370  17.250  0.3772 -0.0670 -0.4347
  343TMC3    O1 5152   0.286   1.999  17.278 -0.4372  0.1377  0.3142
  343TMC3    O2 5153   0.773   2.455  17.330 -0.1535 -1.0616 -0.4276
  344MPD2     C 5154   1.759   1.736  10.664  0.3012  0.3246 -0.4193
  344MPD2    C1 5155   1.671   1.778  10.564  0.4969 -0.5679 -0.8390
  344MPD2    C2 5156   1.700   1.890  10.492 -0.5163  0.1015  0.0874
  344MPD2    C3 5157   1.817   1.954  10.505  0.5549 -0.3818  0.1822
  344MPD2    C4 5158   1.911   1.903  10.585  0.1085  0.3444  0.0858
  344MPD2    C5 5159   1.880   1.797  10.665 -0.5709 -0.2746  0.1957
  344MPD2     H 5160   1.616   1.920  10.430 -0.2203  0.4644 -0.1376
  344MPD2    H1 5161   2.014   1.935  10.573 -0.1175  0.3696 -1.7996
  344MPD2    H2 5162   1.745   1.644  10.719  2.7397  0.5502  0.5997
  344MPD2    H3 5163   1.948   1.758  10.739  0.5851  1.0856 -0.1628
  344MPD2     N 5164   1.849   2.067  10.423  0.1360 -0.4558 -0.0505
  344MPD2    H5 5165   1.936   2.111  10.448 -0.0414 -1.1025  1.7196
  344MPD2    N1 5166   1.551   1.712  10.541 -0.2045  0.1786 -0.3339
  344MPD2    H7 5167   1.498   1.741  10.459  2.4784  3.9845 -0.7136
  345TMC3    C1 5168   1.815   2.267  10.299 -0.4240 -0.1809  1.0019
  345TMC3    C2 5169   1.914   2.322  10.371 -0.4203 -0.0278 -0.6281
  345TMC3    C3 5170   1.967   2.440  10.332 -0.2414  0.3800 -0.3471
  345TMC3    C4 5171   1.754   2.330  10.196  0.1100  0.3935  0.5147
  345TMC3    C5 5172   1.805   2.458  10.169 -0.7756 -0.1220 -0.5962
  345TMC3    C6 5173   1.915   2.511  10.233  0.8762 -0.8451  0.2677
  345TMC3     C 5174   1.765   2.136  10.335  0.6441  0.1537 -0.1822
  345TMC3     O 5175   1.666   2.103  10.274  0.1177 -0.4124 -0.4314
  345TMC3     H 5176   1.951   2.277  10.462  0.2232 -1.1218 -1.4243
  345TMC3    H1 5177   1.666   2.293  10.145  0.2310  0.3177  0.3612
  345TMC3    H2 5178   1.965   2.602  10.203  0.9998 -1.3317 -1.0275
  345TMC3    C7 5179   1.756   2.543  10.058 -0.7131  0.0982  0.8496
  345TMC3    C8 5180   2.025   2.521  10.435 -0.0930  0.0394  0.4422
  345TMC3    O1 5181   1.802   2.653  10.058 -0.3471 -0.0644  0.8934
  345TMC3    O2 5182   1.990   2.637  10.422 -0.2374 -0.5172 -0.3319
  346MPD2     C 5183   1.902   4.032  14.507  0.6948 -0.6773  0.1474
  346MPD2    C1 5184   2.035   4.047  14.481  0.0371 -0.4667 -0.9369
  346MPD2    C2 5185   2.120   4.106  14.578  0.3856 -0.7473 -0.2758
  346MPD2    C3 5186   2.060   4.148  14.698  1.4623  0.0342  0.3019
  346MPD2    C4 5187   1.922   4.131  14.721 -0.1003 -0.1745 -0.2785
  346MPD2    C5 5188   1.844   4.083  14.616  0.7251  0.5469 -1.0967
  346MPD2     H 5189   2.227   4.114  14.562 -0.0558 -0.8586 -3.3395
  346MPD2    H1 5190   1.874   4.163  14.813 -1.2606 -2.0318 -0.2328
  346MPD2    H2 5191   1.832   3.977  14.445 -0.9473  1.8288 -0.1923
  346MPD2    H3 5192   1.737   4.067  14.624  0.4636  2.2036 -1.2675
  346MPD2     N 5193   2.148   4.192  14.797 -0.6683 -0.4187  0.2385
  346MPD2    H5 5194   2.244   4.178  14.768 -0.0851  0.2313  1.8952
  346MPD2    N1 5195   2.088   4.008  14.354 -0.0471  0.0525  0.1118
  346MPD2    H7 5196   2.174   4.050  14.322  1.0110 -0.9929  1.5236
  347TMC3    C1 5197   2.227   4.307  14.983  0.3470 -0.2432  0.2274
  347TMC3    C2 5198   2.337   4.340  14.922  0.0207  0.5399 -0.0972
  347TMC3    C3 5199   2.456   4.363  14.986 -0.4038 -0.0034  0.6150
  347TMC3    C4 5200   2.226   4.285  15.113  0.4925 -0.4636  0.5352
  347TMC3    C5 5201   2.343   4.293  15.183 -0.6403 -0.4565  0.5653
  347TMC3    C6 5202   2.462   4.331  15.123 -0.2395  0.4260  0.5244
  347TMC3     C 5203   2.110   4.272  14.902  0.2739 -0.2095 -0.6870
  347TMC3     O 5204   2.000   4.302  14.944 -0.2356  0.3449  0.0865
  347TMC3     H 5205   2.325   4.363  14.817 -1.1184 -0.7438 -0.2520
  347TMC3    H1 5206   2.137   4.255  15.168 -0.8446  2.1557 -0.1815
  347TMC3    H2 5207   2.548   4.354  15.185 -1.6239  2.2163  1.8018
  347TMC3    C7 5208   2.343   4.270  15.328 -0.4757 -0.6011  0.3367
  347TMC3    C8 5209   2.571   4.388  14.903 -0.2917  0.3943  0.4616
  347TMC3    O1 5210   2.233   4.282  15.386  0.1152  0.0321 -0.9004
  347TMC3    O2 5211   2.547   4.411  14.784 -0.3777 -0.1020 -0.0324
  348MPD2     C 5212   4.679   3.552  12.339  0.1003 -0.0679 -0.2526
  348MPD2    C1 5213   0.068   3.593  12.274 -0.2483  0.1724  0.6209
  348MPD2    C2 5214   0.051   3.656  12.152  0.7412  0.0741 -0.1157
  348MPD2    C3 5215   4.649   3.659  12.089 -0.6052  0.2556  0.6644
  348MPD2    C4 5216   4.546   3.606  12.159 -0.6452  0.3293 -0.1683
  348MPD2    C5 5217   4.562   3.558  12.279  0.1420  0.1748 -0.4949
  348MPD2     H 5218   0.143   3.690  12.106  2.6565 -2.3430  1.9111
  348MPD2    H1 5219   4.444   3.607  12.121 -1.0142  0.9477  0.8268
  348MPD2    H2 5220   4.690   3.500  12.434  0.4487  0.2703 -0.1033
  348MPD2    H3 5221   4.475   3.511  12.322  0.7512 -2.0597 -1.6662
  348MPD2     N 5222   4.644   3.705  11.955 -0.3771 -0.1149 -0.2673
  348MPD2    H5 5223   0.010   3.742  11.923 -0.4221 -0.4372 -0.7584
  348MPD2    N1 5224   0.202   3.565  12.310  0.1759  0.5242  0.1660
  348MPD2    H7 5225   0.266   3.587  12.235 -1.6825 -2.1647 -2.1928
  349TMC3    C1 5226   0.378   3.473  12.407 -0.5633  0.4674  0.1889
  349TMC3    C2 5227   0.422   3.346  12.431 -0.1279 -0.4524 -0.4709
  349TMC3    C3 5228   0.497   3.284  12.335 -0.3129  0.2759  0.1964
  349TMC3    C4 5229   0.437   3.555  12.310 -0.2125  0.1931 -0.3295
  349TMC3    C5 5230   0.516   3.489  12.212  0.4237  0.8341 -0.1851
  349TMC3    C6 5231   0.534   3.352  12.225 -0.0545  0.6129  0.2098
  349TMC3     C 5232   0.238   3.489  12.418  0.0752  0.6129 -1.0635
  349TMC3     O 5233   0.175   3.442  12.512  0.2819  0.1818 -0.1134
  349TMC3     H 5234   0.365   3.280  12.495 -1.7846  1.5865  0.1560
  349TMC3    H1 5235   0.421   3.662  12.312 -1.4306  0.0092 -0.2076
  349TMC3    H2 5236   0.593   3.310  12.144  0.8869  0.9946  0.7035
  349TMC3    C7 5237   0.461   3.523  12.078 -0.1580 -0.1114 -0.6671
  349TMC3    C8 5238   0.532   3.142  12.363 -0.3349  0.4150  0.6856
  349TMC3    O1 5239   0.442   3.425  12.003  0.2757  0.5362  0.2737
  349TMC3    O2 5240   0.486   3.093  12.465 -0.9721 -0.4990  0.2925
  350MPD2     C 5241   3.903   0.691   9.920  0.2501 -0.1975  0.3369
  350MPD2    C1 5242   4.039   0.710   9.944  0.1239 -0.4072  0.3801
  350MPD2    C2 5243   4.068   0.829  10.013  0.0455  0.6979 -0.3910
  350MPD2    C3 5244   3.975   0.921  10.044 -0.5081 -0.7271 -0.5081
  350MPD2    C4 5245   3.840   0.893  10.013 -0.0361  1.1873  0.1143
  350MPD2    C5 5246   3.804   0.774   9.967 -0.0089 -0.3819  0.2462
  350MPD2     H 5247   4.171   0.846  10.042 -0.1385 -0.6891  1.1104
  350MPD2    H1 5248   3.759   0.956  10.049 -0.5351  1.2760 -1.1596
  350MPD2    H2 5249   3.878   0.592   9.883 -0.5301 -0.2277  0.9467
  350MPD2    H3 5250   3.700   0.747   9.950 -0.4320  1.5677 -0.1999
  350MPD2     N 5251   4.000   1.050  10.105  0.8331 -0.8007  0.1994
  350MPD2    H5 5252   3.925   1.113  10.131  0.3400 -0.7572 -1.2805
  350MPD2    N1 5253   4.137   0.620   9.905 -0.4873 -0.4723  0.0061
  350MPD2    H7 5254   4.235   0.643   9.922 -0.1112  0.6506 -3.6264
  351TMC3    C1 5255   4.241   0.482   9.765 -0.0338  0.0531 -0.9511
  351TMC3    C2 5256   4.272   0.354   9.726 -0.5370  0.1933  0.3136
  351TMC3    C3 5257   4.383   0.337   9.643 -0.1562  0.0034  0.1892
  351TMC3    C4 5258   4.326   0.585   9.729 -0.4237 -0.4364 -0.5427
  351TMC3    C5 5259   4.449   0.558   9.667  0.0513  0.4813 -0.5181
  351TMC3    C6 5260   4.477   0.432   9.626  0.6422 -0.2142 -0.5724
  351TMC3     C 5261   4.117   0.512   9.827  0.1372  1.1809 -0.2766
  351TMC3     O 5262   4.026   0.430   9.817  0.2003  0.0462 -0.1448
  351TMC3     H 5263   4.209   0.277   9.768  0.3036 -0.8469 -0.3338
  351TMC3    H1 5264   4.303   0.690   9.741 -3.1723 -1.2962  1.6397
  351TMC3    H2 5265   4.577   0.411   9.590  0.9813 -1.2176  0.9388
  351TMC3    C7 5266   4.554   0.654   9.643 -0.1388 -0.0810 -0.2452
  351TMC3    C8 5267   4.430   0.205   9.605 -0.4827  0.2823  0.0363
  351TMC3    O1 5268   4.629   0.633   9.550 -0.3157 -0.2895  0.1797
  351TMC3    O2 5269   4.547   0.195   9.566  0.4081 -0.2559 -0.2820
  352MPD2     C 5270   2.712   3.806   1.026  0.3988  1.0333 -0.1577
  352MPD2    C1 5271   2.640   3.903   1.092 -0.1238  0.5250 -0.0951
  352MPD2    C2 5272   2.636   3.897   1.229  1.0694 -0.3672 -0.3373
  352MPD2    C3 5273   2.716   3.805   1.297  0.0165 -0.0118  0.1001
  352MPD2    C4 5274   2.781   3.702   1.233 -0.3303  0.5218 -0.7476
  352MPD2    C5 5275   2.775   3.703   1.094 -0.1309  0.2647  0.4586
  352MPD2     H 5276   2.575   3.964   1.290  1.8333  1.2075 -1.3009
  352MPD2    H1 5277   2.847   3.634   1.285  0.6838  0.1996 -2.4395
  352MPD2    H2 5278   2.721   3.805   0.917  1.0731 -0.8417 -0.0900
  352MPD2    H3 5279   2.825   3.623   1.040  1.2111  1.5434 -0.1956
  352MPD2     N 5280   2.727   3.796   1.438 -0.8054  0.1205 -0.3794
  352MPD2    H5 5281   2.792   3.723   1.466  0.1468  1.1152  0.0138
  352MPD2    N1 5282   2.573   4.002   1.013 -0.4842  0.3214 -0.3595
  352MPD2    H7 5283   2.595   3.987   0.915 -0.2013  0.2620 -0.2877
  353TMC3    C1 5284   2.695   3.825   1.665 -0.1434 -0.1634 -0.0455
  353TMC3    C2 5285   2.769   3.711   1.694  0.1026  0.7889 -0.3918
  353TMC3    C3 5286   2.750   3.668   1.823  0.1762 -0.2745 -0.2932
  353TMC3    C4 5287   2.623   3.889   1.764  0.0103  0.0759  0.6147
  353TMC3    C5 5288   2.603   3.842   1.890  0.0695  0.4354  0.3964
  353TMC3    C6 5289   2.679   3.730   1.925  0.1872 -0.9732 -0.5165
  353TMC3     C 5290   2.662   3.869   1.529 -0.7658 -0.9318  0.0547
  353TMC3     O 5291   2.582   3.960   1.510  0.0314 -0.0890 -0.0049
  353TMC3     H 5292   2.806   3.639   1.621 -1.1473  1.7619 -2.0074
  353TMC3    H1 5293   2.566   3.976   1.734  0.5884  0.4239  0.5300
  353TMC3    H2 5294   2.654   3.671   2.012  1.3552 -0.3455  0.2351
  353TMC3    C7 5295   2.459   3.818   1.903 -0.3273  0.0206 -0.3566
  353TMC3    C8 5296   2.776   3.530   1.853 -0.6422  0.1596 -0.4851
  353TMC3    O1 5297   2.400   3.831   1.793  0.1159  0.1473  0.2844
  353TMC3    O2 5298   2.840   3.508   1.955  0.1208 -0.3837 -0.7467
  354TMC3    C1 5299   4.168   0.106  13.324 -0.4598 -0.7596 -0.6451
  354TMC3    C2 5300   4.117   0.228  13.319 -0.1703  0.0375 -0.6082
  354TMC3    C3 5301   4.134   0.301  13.199 -0.3959  0.1400 -0.3847
  354TMC3    C4 5302   4.223   0.043  13.212 -0.7254  0.4522  0.5581
  354TMC3    C5 5303   4.234   0.111  13.096  0.2307 -0.0572  0.3375
  354TMC3    C6 5304   4.187   0.240  13.082 -0.1599  0.4359 -0.5321
  354TMC3     C 5305   4.161   0.029  13.448 -0.4001 -0.0397  0.0223
  354TMC3     O 5306   4.228   4.652  13.449  0.2421  0.0755 -0.4798
  354TMC3     H 5307   4.085   0.285  13.405 -0.4473 -0.2270 -0.5339
  354TMC3    H1 5308   4.295   4.688  13.233 -0.3968  0.8683  0.9876
  354TMC3    H2 5309   4.207   0.303  12.996  2.1960 -2.4333 -2.0680
  354TMC3    C7 5310   4.277   0.033  12.980  0.0960  0.2074  0.2813
  354TMC3    C8 5311   4.113   0.446  13.215  0.4888 -0.5606  0.3763
  354TMC3    O1 5312   4.242   4.636  12.981 -0.4402  0.4574  0.4952
  354TMC3    O2 5313   4.091   0.487  13.330 -0.5818 -0.4080 -0.3756
  355MPD2     C 5314   4.077   0.874  11.605  0.2744  0.3436 -0.6298
  355MPD2    C1 5315   4.193   0.838  11.531 -0.2043  0.1346 -0.5615
  355MPD2    C2 5316   4.315   0.886  11.566  0.1173 -0.1580  0.4295
  355MPD2    C3 5317   4.327   0.984  11.670 -0.1789 -0.2548 -0.2630
  355MPD2    C4 5318   4.209   1.019  11.735  0.5614 -0.4145  0.7334
  355MPD2    C5 5319   4.085   0.968  11.705  0.5093 -0.6676 -0.7739
  355MPD2     H 5320   4.401   0.841  11.517 -0.3018 -2.3074  1.6860
  355MPD2    H1 5321   4.213   1.083  11.822 -2.3957  1.3582 -0.4347
  355MPD2    H2 5322   3.983   0.830  11.572 -0.8213  1.2215  1.3518
  355MPD2    H3 5323   3.997   0.996  11.761  0.6679 -0.1879 -0.7614
  355MPD2     N 5324   4.445   1.052  11.709 -0.2045 -0.3771  0.9422
  355MPD2    H5 5325   4.440   1.114  11.789  0.5338 -1.5981  1.9340
  355MPD2    N1 5326   4.177   0.766  11.416  0.0985  0.0697 -0.7490
  355MPD2    H7 5327   4.092   0.711  11.409  2.0386 -3.3265  2.5226
  356TMC3    C1 5328   4.653   1.162  11.661 -0.0496  0.0066 -0.0572
  356TMC3    C2 5329   0.055   1.143  11.606  0.0163 -0.0828  0.4423
  356TMC3    C3 5330   0.148   1.239  11.623  0.1656 -0.0622 -0.2839
  356TMC3    C4 5331   4.616   1.276  11.717 -0.0843 -0.7432  0.0572
  356TMC3    C5 5332   4.709   1.375  11.734  0.6456  0.4484 -0.8399
  356TMC3    C6 5333   0.117   1.354  11.687  0.2118 -0.6347  0.2398
  356TMC3     C 5334   4.564   1.046  11.641 -0.6518 -0.5196  0.0038
  356TMC3     O 5335   4.597   0.968  11.554 -0.1516 -0.1830  0.3597
  356TMC3     H 5336   0.084   1.049  11.561  1.9598  0.8058 -0.1571
  356TMC3    H1 5337   4.513   1.290  11.748 -0.6863  0.0194 -2.2977
  356TMC3    H2 5338   0.194   1.429  11.699  0.0369 -0.7670  2.1572
  356TMC3    C7 5339   4.676   1.489  11.823  0.0292 -0.1217 -0.0224
  356TMC3    C8 5340   0.257   1.245  11.521 -0.0326  0.0407 -0.0674
  356TMC3    O1 5341   4.560   1.511  11.838  0.1317 -0.0634 -0.1958
  356TMC3    O2 5342   0.241   1.180  11.418  0.3492  0.9086 -0.0756
  357MPD2     C 5343   4.076   0.985   0.585 -0.0593 -0.1616  0.5211
  357MPD2    C1 5344   4.157   1.052   0.670  0.9453 -0.0663 -0.1578
  357MPD2    C2 5345   4.098   1.146   0.750 -0.3170  0.1919 -0.1331
  357MPD2    C3 5346   3.963   1.172   0.751 -0.2631  0.2610 -0.7925
  357MPD2    C4 5347   3.883   1.102   0.675  0.1441 -0.2669  0.0723
  357MPD2    C5 5348   3.937   1.008   0.591 -0.0209 -0.1361  0.2772
  357MPD2     H 5349   4.158   1.213   0.810 -1.2563  2.1138 -1.3300
  357MPD2    H1 5350   3.775   1.117   0.671  0.2882  0.1521 -2.4751
  357MPD2    H2 5351   4.137   0.925   0.518 -1.2429  0.7823 -1.3717
  357MPD2    H3 5352   3.873   0.939   0.538  1.8445 -1.0880 -0.7647
  357MPD2     N 5353   3.904   1.247   0.851 -0.0800 -0.3355 -0.4661
  357MPD2    H5 5354   3.803   1.239   0.863  0.0790 -0.6564  0.6163
  357MPD2    N1 5355   4.296   1.020   0.677  0.4900 -0.6141  0.3234
  357MPD2    H7 5356   4.330   0.939   0.628 -0.3413 -1.8963  1.8542
  358TMC3    C1 5357   4.517   1.024   0.766 -0.0523 -0.2892 -0.5398
  358TMC3    C2 5358   4.544   0.912   0.686  0.2034 -0.1840 -0.1141
  358TMC3    C3 5359   4.626   0.820   0.743 -0.1229  0.5683 -0.3044
  358TMC3    C4 5360   4.568   1.047   0.889 -0.1560 -0.6473 -0.3156
  358TMC3    C5 5361   4.651   0.951   0.937  0.5387  0.3432  0.3723
  358TMC3    C6 5362   4.679   0.846   0.867  0.6623 -0.1549 -0.2664
  358TMC3     C 5363   4.383   1.088   0.760  0.1814  0.1800 -0.1389
  358TMC3     O 5364   4.381   1.200   0.810 -0.6003  0.4351  0.2630
  358TMC3     H 5365   4.501   0.889   0.589 -1.1062 -1.0010  0.6635
  358TMC3    H1 5366   4.522   1.126   0.947 -1.1010 -1.4875  0.0864
  358TMC3    H2 5367   0.037   0.783   0.902  0.7290  1.0325  1.6927
  358TMC3    C7 5368   4.707   0.964   1.070 -0.0801  0.5284  0.4296
  358TMC3    C8 5369   4.661   0.692   0.670  0.6541 -0.5040 -0.7968
  358TMC3    O1 5370   0.102   0.929   1.094 -0.9006 -0.3130 -0.0266
  358TMC3    O2 5371   4.637   0.690   0.548  0.4771  1.0498 -0.0305
  359MPD2     C 5372   4.591   4.055  12.250 -0.5322  0.0097  0.5771
  359MPD2    C1 5373   4.459   4.101  12.279 -0.4795 -0.4987  0.1620
  359MPD2    C2 5374   4.374   4.025  12.358  0.9468  0.2539  0.4263
  359MPD2    C3 5375   4.433   3.914  12.424 -1.2159 -0.4193  0.1948
  359MPD2    C4 5376   4.565   3.894  12.411 -0.1471 -0.0246 -0.3489
  359MPD2    C5 5377   4.642   3.949  12.319  0.2400 -0.2624  0.0802
  359MPD2     H 5378   4.271   4.057  12.367  1.9332  3.0242  1.8965
  359MPD2    H1 5379   4.620   3.817  12.464  0.0944  0.3338 -0.0808
  359MPD2    H2 5380   4.657   4.092  12.172 -2.0083 -1.2461 -1.2578
  359MPD2    H3 5381   0.020   3.911  12.308 -0.1733 -0.5991 -2.6588
  359MPD2     N 5382   4.359   3.845  12.529  0.2668 -0.1999  0.1225
  359MPD2    H5 5383   4.409   3.778  12.588  0.4526 -0.3559 -0.2059
  359MPD2    N1 5384   4.406   4.220  12.215  0.5579 -0.1023  0.0478
  359MPD2    H7 5385   4.310   4.247  12.230  0.7279  1.6675 -2.0627
  360TMC3    C1 5386   4.416   4.413  12.078  0.7473 -0.3422 -0.6489
  360TMC3    C2 5387   4.481   4.529  12.045 -0.4904 -0.8020 -0.3642
  360TMC3    C3 5388   4.401   4.619  11.985 -0.0087  0.3213  0.4314
  360TMC3    C4 5389   4.293   4.382  12.033 -0.6450 -0.0610 -0.1391
  360TMC3    C5 5390   4.223   4.473  11.958 -0.2689 -0.7417  0.3967
  360TMC3    C6 5391   4.270   4.601  11.945 -0.4475 -0.4353  0.5912
  360TMC3     C 5392   4.488   4.304  12.141 -0.4734 -0.5971  0.0537
  360TMC3     O 5393   4.609   4.310  12.144 -0.5724  0.6014 -0.0135
  360TMC3     H 5394   4.575   4.561  12.088 -0.9924 -0.0888  0.2062
  360TMC3    H1 5395   4.256   4.280  12.038 -3.5305  0.8628 -2.3996
  360TMC3    H2 5396   4.204   4.670  11.894  1.1435  0.5694 -0.1475
  360TMC3    C7 5397   4.163   4.424  11.836 -0.1377  0.4395 -0.0760
  360TMC3    C8 5398   4.469   0.010  11.917  0.1057  0.7675  0.3128
  360TMC3    O1 5399   4.193   4.487  11.737 -0.0689  0.1516  0.0765
  360TMC3    O2 5400   4.414   0.120  11.890 -0.2172 -0.1454 -0.2945
  361MPD2     C 5401   1.782   2.686  16.601 -0.0013 -0.2113 -0.6270
  361MPD2    C1 5402   1.756   2.756  16.724  0.1814 -0.0605 -0.0117
  361MPD2    C2 5403   1.859   2.752  16.822  0.0484 -0.8700  0.2256
  361MPD2    C3 5404   1.979   2.678  16.803 -0.4331 -0.4035  0.2661
  361MPD2    C4 5405   1.995   2.609  16.686  0.2383  0.4666  0.0083
  361MPD2    C5 5406   1.904   2.614  16.588  0.2255 -0.3537  0.3288
  361MPD2     H 5407   1.833   2.801  16.914  0.2580  2.2040 -1.3656
  361MPD2    H1 5408   2.088   2.557  16.664  0.5800  1.6079 -1.2522
  361MPD2    H2 5409   1.724   2.692  16.509  1.4700  0.7168 -1.4847
  361MPD2    H3 5410   1.917   2.549  16.502 -2.1830  1.5269 -1.4935
  361MPD2     N 5411   2.074   2.656  16.909 -0.0354  0.7403 -0.6768
  361MPD2    H5 5412   2.138   2.580  16.889  0.3172  0.6968  0.6134
  361MPD2    N1 5413   1.639   2.834  16.742 -0.4442  0.6810 -0.5825
  361MPD2    H7 5414   1.643   2.904  16.815 -2.2482 -2.5065  2.5960
  362TMC3    C1 5415   1.420   2.911  16.710  0.7164  0.5689 -0.6482
  362TMC3    C2 5416   1.427   2.988  16.822 -0.7942 -0.4091  0.3924
  362TMC3    C3 5417   1.333   3.081  16.851  0.2468  0.1382  0.0751
  362TMC3    C4 5418   1.314   2.929  16.627  0.2030  0.1906  1.0373
  362TMC3    C5 5419   1.219   3.022  16.651 -0.3842  0.1860 -0.8903
  362TMC3    C6 5420   1.237   3.102  16.760  0.0480  0.0442 -0.6216
  362TMC3     C 5421   1.528   2.830  16.658  0.2607  0.6824  0.3043
  362TMC3     O 5422   1.503   2.754  16.565 -0.3308 -0.3577  0.1690
  362TMC3     H 5423   1.501   2.952  16.892 -0.6890 -0.9259  0.0225
  362TMC3    H1 5424   1.309   2.867  16.538 -1.0960 -1.1480  2.0558
  362TMC3    H2 5425   1.162   3.180  16.767 -1.0580 -1.2437  1.7771
  362TMC3    C7 5426   1.154   3.085  16.539 -0.1529 -0.2168  0.1985
  362TMC3    C8 5427   1.378   3.191  16.930 -0.0739  0.0516 -0.5591
  362TMC3    O1 5428   1.141   3.205  16.551 -0.1477 -0.4545 -0.6031
  362TMC3    O2 5429   1.488   3.175  16.971 -0.4110 -0.4402  0.4056
  363TMC3    C1 5430   0.751   0.927   9.462  0.2957 -0.7630  0.1948
  363TMC3    C2 5431   0.649   0.866   9.523 -0.1600  0.3587  0.3609
  363TMC3    C3 5432   0.523   0.903   9.481 -0.4134 -0.6386  0.1521
  363TMC3    C4 5433   0.727   1.024   9.372  0.1921 -0.4415 -0.3390
  363TMC3    C5 5434   0.602   1.071   9.346  0.4643  1.0001 -0.1510
  363TMC3    C6 5435   0.491   1.010   9.405  0.1456 -0.3105  0.1328
  363TMC3     C 5436   0.888   0.874   9.479  0.1075  0.1750  0.4587
  363TMC3     O 5437   0.963   0.884   9.381  0.2478  0.4276 -0.7334
  363TMC3     H 5438   0.665   0.781   9.588 -0.9204 -1.0316 -1.2681
  363TMC3    H1 5439   0.810   1.052   9.308 -0.8158  1.0057 -1.0006
  363TMC3    H2 5440   0.391   1.042   9.380 -0.9892 -1.4573  3.1271
  363TMC3    C7 5441   0.578   1.206   9.291  0.2297  0.2793  0.3615
  363TMC3    C8 5442   0.418   0.804   9.486  0.2271  0.7678  0.4369
  363TMC3    O1 5443   0.463   1.235   9.271 -0.5198  0.5516 -0.2352
  363TMC3    O2 5444   0.309   0.835   9.449 -0.7702 -0.6041 -0.0582
  364MPD2     C 5445   3.511   0.315  10.339  0.1573 -0.3161  0.6117
  364MPD2    C1 5446   3.635   0.257  10.309  0.0956  0.1798 -0.0569
  364MPD2    C2 5447   3.658   0.127  10.350  0.6018 -0.6284 -0.5939
  364MPD2    C3 5448   3.574   0.058  10.439 -0.4087  0.1770 -0.2427
  364MPD2    C4 5449   3.465   0.131  10.484  0.1398  0.1036  0.1889
  364MPD2    C5 5450   3.439   0.253  10.434  0.2332  0.4897 -0.1118
  364MPD2     H 5451   3.750   0.079  10.319  0.1131 -1.3368 -0.9431
  364MPD2    H1 5452   3.384   0.086  10.541 -0.7506  0.8472 -0.5027
  364MPD2    H2 5453   3.477   0.407  10.294  3.9421  1.3287  1.0794
  364MPD2    H3 5454   3.337   0.286  10.452 -1.1082 -2.8669 -1.4259
  364MPD2     N 5455   3.597   4.653  10.492 -0.3974  0.0342 -0.3015
  364MPD2    H5 5456   3.528   4.622  10.560  1.7165 -1.3394  1.1947
  364MPD2    N1 5457   3.743   0.329  10.251  0.2489  0.1769  0.7756
  364MPD2    H7 5458   3.830   0.280  10.236  2.3023  3.5897  1.4769
  365TMC3    C1 5459   3.881   0.514  10.242  0.1213  0.7122  0.5031
  365TMC3    C2 5460   3.980   0.439  10.187 -0.2373  0.1894 -0.3228
  365TMC3    C3 5461   4.111   0.477  10.220 -0.4566  0.1899 -0.2389
  365TMC3    C4 5462   3.902   0.638  10.295 -0.1467  0.2212  0.6794
  365TMC3    C5 5463   4.032   0.674  10.322 -0.4780 -0.6706 -0.5706
  365TMC3    C6 5464   4.144   0.595  10.284 -0.0490 -0.6680 -0.1556
  365TMC3     C 5465   3.743   0.466  10.238 -0.5545 -0.7084 -0.2912
  365TMC3     O 5466   3.651   0.545  10.248 -0.1782 -0.3277  0.4254
  365TMC3     H 5467   3.973   0.345  10.134 -2.4553 -0.2443  0.7075
  365TMC3    H1 5468   3.819   0.699  10.331  0.7480  0.3983  2.4149
  365TMC3    H2 5469   4.245   0.633  10.289 -1.1408  2.1359  0.7913
  365TMC3    C7 5470   4.049   0.798  10.398  0.1721  0.3821  0.6364
  365TMC3    C8 5471   4.236   0.412  10.166 -0.6417  0.1325  0.1870
  365TMC3    O1 5472   4.157   0.859  10.383 -0.0217 -1.0263 -0.5665
  365TMC3    O2 5473   4.345   0.463  10.179 -0.2163  0.1921  0.3906
  366MPD2     C 5474   1.444   0.949  15.386  0.4521  0.3413  0.9170
  366MPD2    C1 5475   1.526   1.034  15.314 -0.0736  0.3387  0.3870
  366MPD2    C2 5476   1.657   0.999  15.285  0.5536  0.5226  0.2946
  366MPD2    C3 5477   1.703   0.868  15.306 -0.8070 -0.1764  0.4790
  366MPD2    C4 5478   1.623   0.782  15.380 -0.5406  0.0068  0.6967
  366MPD2    C5 5479   1.500   0.829  15.422  0.0580  0.0837 -0.0304
  366MPD2     H 5480   1.714   1.068  15.223 -0.6068  1.6767  0.5146
  366MPD2    H1 5481   1.662   0.686  15.409  0.4604  0.1182 -0.2967
  366MPD2    H2 5482   1.345   0.972  15.422 -0.0827 -2.6255  1.3400
  366MPD2    H3 5483   1.437   0.772  15.489 -0.4531 -1.8759 -2.1649
  366MPD2     N 5484   1.837   0.837  15.267 -0.3753 -0.3403  0.4648
  366MPD2    H5 5485   1.888   0.911  15.219  1.7722 -2.4706 -0.5531
  366MPD2    N1 5486   1.500   1.170  15.284  0.0884 -0.1476  0.2332
  366MPD2    H7 5487   1.573   1.225  15.241 -0.8660  1.6948  0.9274
  367TMC3    C1 5488   1.411   1.384  15.326  0.0092 -0.9219 -0.6449
  367TMC3    C2 5489   1.526   1.428  15.385 -0.3037 -0.1400  0.6124
  367TMC3    C3 5490   1.563   1.560  15.364 -0.5456 -0.7778  0.2905
  367TMC3    C4 5491   1.324   1.471  15.266 -0.3209  0.0542  0.0641
  367TMC3    C5 5492   1.369   1.597  15.249  0.2770 -0.2298  0.2058
  367TMC3    C6 5493   1.491   1.647  15.291  0.0811 -0.4987 -0.1623
  367TMC3     C 5494   1.386   1.241  15.320  0.1129  0.0719  0.0272
  367TMC3     O 5495   1.272   1.207  15.343 -0.3958  0.4842  1.0946
  367TMC3     H 5496   1.594   1.357  15.430  1.3575  0.3132 -1.1633
  367TMC3    H1 5497   1.232   1.435  15.220 -0.6684  1.7876 -0.5935
  367TMC3    H2 5498   1.521   1.744  15.253  0.2585  0.1387  1.5919
  367TMC3    C7 5499   1.313   1.666  15.137  0.1151  0.0590 -0.2070
  367TMC3    C8 5500   1.679   1.606  15.433  0.5530  0.2586  0.5177
  367TMC3    O1 5501   1.323   1.786  15.140 -0.2853 -0.2046  0.1814
  367TMC3    O2 5502   1.712   1.539  15.532 -0.3527 -0.0894 -0.2366
  368MPD2     C 5503   2.947   2.861  13.220 -0.1066  0.3329  0.4529
  368MPD2    C1 5504   2.916   2.923  13.103 -0.6956  0.7342 -0.0692
  368MPD2    C2 5505   3.002   2.920  12.997  0.1065 -0.1878  0.2813
  368MPD2    C3 5506   3.129   2.862  13.011  0.6375 -0.6805  0.0218
  368MPD2    C4 5507   3.165   2.807  13.130 -0.8274  0.6631  0.3377
  368MPD2    C5 5508   3.073   2.803  13.227 -0.3118  0.0093 -0.1469
  368MPD2     H 5509   2.968   2.970  12.907  0.6981 -2.6744 -1.3359
  368MPD2    H1 5510   3.264   2.769  13.153  0.3067  1.2926 -3.3652
  368MPD2    H2 5511   2.881   2.868  13.306 -0.5279 -2.1149  0.3361
  368MPD2    H3 5512   3.100   2.742  13.312 -2.3829  0.2435  0.6613
  368MPD2     N 5513   3.232   2.875  12.918  0.3183 -0.1913  0.2172
  368MPD2    H5 5514   3.325   2.848  12.947  0.5909  0.2956 -0.2176
  368MPD2    N1 5515   2.799   2.999  13.084 -0.0440  0.9170  0.2252
  368MPD2    H7 5516   2.803   3.058  13.002 -1.5731  0.2317 -0.3280
  369TMC3    C1 5517   2.604   3.110  13.128  0.2523 -0.3088  0.1998
  369TMC3    C2 5518   2.664   3.216  13.060 -0.3475 -0.2625  0.6164
  369TMC3    C3 5519   2.582   3.319  13.017  0.1629 -0.1601 -0.1139
  369TMC3    C4 5520   2.471   3.106  13.150  0.1308  0.7058 -0.1526
  369TMC3    C5 5521   2.393   3.210  13.108  0.0623 -0.7813  0.3053
  369TMC3    C6 5522   2.449   3.313  13.035 -0.2708 -0.5519  0.7037
  369TMC3     C 5523   2.691   3.004  13.171  0.2104  0.4583 -0.1645
  369TMC3     O 5524   2.646   2.934  13.263 -0.1316 -0.5160 -0.1490
  369TMC3     H 5525   2.771   3.228  13.068 -0.0286 -1.7562 -1.3930
  369TMC3    H1 5526   2.428   3.020  13.200 -1.8086  2.0181  0.4521
  369TMC3    H2 5527   2.375   3.380  12.991 -0.3209  0.8952  2.9636
  369TMC3    C7 5528   2.284   3.249  13.188 -0.1058 -0.1396  0.4308
  369TMC3    C8 5529   2.637   3.428  12.942  0.3673 -0.1560 -0.0865
  369TMC3    O1 5530   2.243   3.367  13.185 -0.1802 -0.1833  0.5877
  369TMC3    O2 5531   2.559   3.509  12.901  0.1036  0.0472 -0.5698
  370TMC3    C1 5532   2.959   3.843  16.340  0.2190 -0.2907 -0.3080
  370TMC3    C2 5533   2.868   3.795  16.433 -0.8770  0.5064  0.1933
  370TMC3    C3 5534   2.776   3.702  16.390 -0.1322 -0.1393 -0.3350
  370TMC3    C4 5535   2.953   3.809  16.209 -0.9811  0.4125  0.6692
  370TMC3    C5 5536   2.858   3.719  16.172 -0.7125  0.4844  0.2360
  370TMC3    C6 5537   2.765   3.665  16.260  0.1280 -0.5127  0.0453
  370TMC3     C 5538   3.063   3.934  16.387  0.0229  0.3903  0.7626
  370TMC3     O 5539   3.089   3.923  16.510  0.0770 -0.0345  0.1086
  370TMC3     H 5540   2.864   3.814  16.539 -1.0656 -2.1844  0.6890
  370TMC3    H1 5541   3.034   3.837  16.143 -0.9119 -3.7179 -1.0113
  370TMC3    H2 5542   2.705   3.578  16.237  0.3695 -0.2147 -1.7130
  370TMC3    C7 5543   2.893   3.637  16.054  0.0982  0.7949  0.0702
  370TMC3    C8 5544   2.698   3.624  16.486  0.0691 -0.1637  0.5285
  370TMC3    O1 5545   3.001   3.638  16.004  0.4356  0.0362 -0.5810
  370TMC3    O2 5546   2.676   3.510  16.446 -0.4890  0.0288 -0.1322
  371TMC3    C1 5547   3.530   1.801  15.447  1.0206  0.3771 -0.4705
  371TMC3    C2 5548   3.469   1.870  15.547 -0.2813 -0.2590 -1.4759
  371TMC3    C3 5549   3.457   2.002  15.541 -0.3002 -0.1421 -0.3286
  371TMC3    C4 5550   3.586   1.869  15.337 -0.0253  0.1321  0.3676
  371TMC3    C5 5551   3.571   2.001  15.335  0.7079  0.2922 -0.9558
  371TMC3    C6 5552   3.516   2.072  15.438 -0.0314  0.0464 -0.4351
  371TMC3     C 5553   3.572   1.665  15.461 -0.2712 -0.2457  1.0951
  371TMC3     O 5554   3.682   1.642  15.410 -1.3675  0.3683 -0.3244
  371TMC3     H 5555   3.432   1.828  15.639  1.8500 -2.4242 -1.6257
  371TMC3    H1 5556   3.630   1.814  15.255  2.6624 -0.9886  2.5513
  371TMC3    H2 5557   3.506   2.180  15.437 -0.4007  0.0038 -1.5800
  371TMC3    C7 5558   3.653   2.080  15.241 -0.0510 -0.7028 -0.9683
  371TMC3    C8 5559   3.487   2.073  15.662  0.2073  0.0538  0.0973
  371TMC3    O1 5560   3.641   2.202  15.244 -0.1582 -0.0152  0.2621
  371TMC3    O2 5561   3.553   2.017  15.740 -0.1942 -0.2829 -1.0030
  372MPD2     C 5562   2.797   3.284  13.355  0.0419  0.1249 -0.3190
  372MPD2    C1 5563   2.886   3.179  13.374 -0.3646  0.2722 -0.1345
  372MPD2    C2 5564   2.849   3.083  13.468  0.9084 -0.1600  0.0485
  372MPD2    C3 5565   2.741   3.083  13.546 -0.5073  1.0619 -0.1995
  372MPD2    C4 5566   2.653   3.190  13.531 -0.0935  0.5756  0.2607
  372MPD2    C5 5567   2.683   3.281  13.431 -0.0478  0.2394 -0.4148
  372MPD2     H 5568   2.915   2.996  13.466  2.3597  0.8967  2.2106
  372MPD2    H1 5569   2.563   3.197  13.590 -1.3463  2.7271 -1.9269
  372MPD2    H2 5570   2.815   3.363  13.283 -2.7276  0.8755 -0.1944
  372MPD2    H3 5571   2.613   3.362  13.416  1.2901  1.9680  2.7249
  372MPD2     N 5572   2.714   2.976  13.640 -0.1252  0.5348 -0.1243
  372MPD2    H5 5573   2.783   2.903  13.623 -1.4373 -0.0313 -3.0871
  372MPD2    N1 5574   3.015   3.176  13.320  0.2495 -0.5879 -0.2524
  372MPD2    H7 5575   3.071   3.116  13.380  0.6235  0.5685  0.5604
  373TMC3    C1 5576   2.610   2.846  13.806  0.0310 -0.2361 -0.4019
  373TMC3    C2 5577   2.588   2.863  13.935  0.5193 -0.1615  0.2155
  373TMC3    C3 5578   2.620   2.757  14.010  0.2551 -0.3812  0.7028
  373TMC3    C4 5579   2.638   2.735  13.740 -0.1131 -0.1684 -0.7739
  373TMC3    C5 5580   2.643   2.616  13.813 -0.0846 -0.6922  0.0330
  373TMC3    C6 5581   2.639   2.630  13.950  0.1464  0.1402  0.0098
  373TMC3     C 5582   2.615   2.972  13.735 -0.0368  0.7848 -0.2276
  373TMC3     O 5583   2.546   3.063  13.776 -0.2352 -0.1581 -0.3781
  373TMC3     H 5584   2.568   2.961  13.977  2.3905 -0.0888  0.9595
  373TMC3    H1 5585   2.621   2.724  13.634 -0.5789  1.9603 -0.9162
  373TMC3    H2 5586   2.634   2.548  14.022  0.9830 -0.7269 -0.9280
  373TMC3    C7 5587   2.721   2.516  13.758 -0.4184  0.6221  0.1634
  373TMC3    C8 5588   2.738   2.784  14.094  0.4270 -0.6641 -0.2031
  373TMC3    O1 5589   2.717   2.507  13.636 -0.2577 -0.0854 -0.1180
  373TMC3    O2 5590   2.812   2.690  14.117  0.3447 -0.4374 -0.0883
  374TMC3    C1 5591   4.019   2.364  10.185 -0.7735  0.0350  0.1646
  374TMC3    C2 5592   4.091   2.482  10.167  0.7547 -0.0602 -0.4697
  374TMC3    C3 5593   4.077   2.546  10.045 -0.5492  0.8248  0.7882
  374TMC3    C4 5594   3.945   2.308  10.089 -0.0612 -0.5191  0.1684
  374TMC3    C5 5595   3.937   2.372   9.964  0.0864  0.0607 -0.1761
  374TMC3    C6 5596   3.999   2.489   9.940  0.7243  0.2493  0.0015
  374TMC3     C 5597   3.985   2.325  10.323  0.6052 -0.2513 -0.6796
  374TMC3     O 5598   4.069   2.345  10.414  0.6964  0.3319 -0.5043
  374TMC3     H 5599   4.142   2.515  10.256 -0.0224 -2.1504  0.7483
  374TMC3    H1 5600   3.909   2.207  10.104 -0.2725 -0.6521 -1.2209
  374TMC3    H2 5601   3.983   2.534   9.843  1.1832 -0.6532 -0.4928
  374TMC3    C7 5602   3.911   2.289   9.849  0.2651  0.1282 -0.2112
  374TMC3    C8 5603   4.140   2.666  10.013 -0.1091  0.1882 -0.1919
  374TMC3    O1 5604   3.970   2.326   9.751 -0.1410 -0.0289  0.2495
  374TMC3    O2 5605   4.153   2.691   9.892 -0.0226  0.4355 -0.6621
  375MPD2     C 5606   4.076   3.471  17.277 -0.5929  0.4252 -0.2725
  375MPD2    C1 5607   4.032   3.561  17.193  0.3273  0.3800 -0.1799
  375MPD2    C2 5608   4.080   3.561  17.062 -0.2624  0.0634 -0.1561
  375MPD2    C3 5609   4.165   3.459  17.019 -0.0720 -0.4985  0.4342
  375MPD2    C4 5610   4.203   3.362  17.105 -0.3087 -0.4064  0.4796
  375MPD2    C5 5611   4.159   3.363  17.234  0.3575 -1.1138  0.2521
  375MPD2     H 5612   4.044   3.635  16.991 -1.3952  0.9684  1.3783
  375MPD2    H1 5613   4.281   3.291  17.081 -0.0234 -0.4389  1.4982
  375MPD2    H2 5614   4.051   3.470  17.383  3.2422  2.6864  0.6631
  375MPD2    H3 5615   4.192   3.290  17.307  1.8080 -1.4576 -0.7557
  375MPD2     N 5616   4.215   3.444  16.889  0.6706 -0.5508 -0.0324
  375MPD2    H5 5617   4.277   3.364  16.879  0.8430 -0.4479  0.1918
  375MPD2    N1 5618   3.944   3.667  17.228 -0.6106  0.5455  0.1818
  375MPD2    H7 5619   3.923   3.733  17.154  0.7879  0.9085  0.0958
  376TMC3    C1 5620   4.252   3.475  16.658  0.3540  0.2171  0.2454
  376TMC3    C2 5621   4.390   3.471  16.652 -0.9611 -0.1389  0.6588
  376TMC3    C3 5622   4.444   3.443  16.531 -0.1423 -0.0263  0.1591
  376TMC3    C4 5623   4.170   3.463  16.551 -0.0204 -0.4373  0.8068
  376TMC3    C5 5624   4.226   3.424  16.429  0.1358 -0.3973  0.2553
  376TMC3    C6 5625   4.365   3.418  16.418  0.3660 -0.3916 -0.1887
  376TMC3     C 5626   4.185   3.518  16.780  0.9859  0.8994 -0.1194
  376TMC3     O 5627   4.122   3.622  16.770  0.3285  0.0740 -0.0194
  376TMC3     H 5628   4.448   3.482  16.742 -1.2811 -1.8488  1.0749
  376TMC3    H1 5629   4.061   3.465  16.554  0.0121  0.4947  1.5045
  376TMC3    H2 5630   4.420   3.394  16.328  1.9245 -0.2738  0.7212
  376TMC3    C7 5631   4.144   3.434  16.309 -0.1203  0.6816  0.2510
  376TMC3    C8 5632   4.577   3.516  16.502 -0.2327  0.6448 -0.3234
  376TMC3    O1 5633   4.050   3.510  16.323  0.5376  0.7496  0.7908
  376TMC3    O2 5634   4.609   3.552  16.388 -0.2018  0.4352  0.0268
  377MPD2     C 5635   1.568   3.808  12.470  0.1097  0.8137  1.2681
  377MPD2    C1 5636   1.692   3.757  12.500  0.1801  0.7483 -0.2093
  377MPD2    C2 5637   1.712   3.724  12.633  0.2138  0.3120  0.8782
  377MPD2    C3 5638   1.624   3.758  12.734  0.0980 -0.3246 -0.2955
  377MPD2    C4 5639   1.509   3.820  12.696  0.1049 -0.0402 -0.6462
  377MPD2    C5 5640   1.477   3.846  12.565  0.4237  0.4322 -1.2353
  377MPD2     H 5641   1.808   3.685  12.665  0.4456  0.2726  0.1397
  377MPD2    H1 5642   1.435   3.845  12.771  0.0271 -1.1383 -0.3621
  377MPD2    H2 5643   1.533   3.833  12.371  0.0451 -2.6905  0.4452
  377MPD2    H3 5644   1.386   3.896  12.536 -0.8267 -0.7465  0.6634
  377MPD2     N 5645   1.650   3.732  12.868 -0.6299 -0.2589  0.1410
  377MPD2    H5 5646   1.591   3.775  12.939  1.1617  1.1529  0.7697
  377MPD2    N1 5647   1.782   3.734  12.393 -0.4597 -0.5964  0.8895
  377MPD2    H7 5648   1.753   3.762  12.300  0.3309 -0.0764  0.8015
  378TMC3    C1 5649   2.040   3.806  12.090 -0.3244 -0.1202  0.1275
  378TMC3    C2 5650   1.941   3.768  12.177  0.7265 -0.8089 -0.2036
  378TMC3    C3 5651   1.996   3.725  12.295  0.3386 -0.3158  1.0396
  378TMC3    C4 5652   2.173   3.800  12.105  0.9047  0.0766  0.1385
  378TMC3    C5 5653   2.216   3.748  12.215 -0.1757  0.5500 -0.7781
  378TMC3    C6 5654   2.131   3.711  12.310 -0.2977  0.2756  0.1283
  378TMC3     C 5655   1.973   3.876  11.978  0.3662  0.6828 -0.5823
  378TMC3     O 5656   1.861   3.930  11.986 -0.1917  0.0388  0.0200
  378TMC3     H 5657   1.836   3.783  12.157  0.7233 -0.1877  0.2655
  378TMC3    H1 5658   2.242   3.847  12.036  0.9864  0.7139  0.6608
  378TMC3    H2 5659   2.170   3.673  12.403  1.4772 -1.7889 -1.4581
  378TMC3    C7 5660   2.354   3.759  12.256  0.1959 -0.4578 -0.5073
  378TMC3    C8 5661   1.915   3.694  12.411  0.0710 -0.0008 -0.8016
  378TMC3    O1 5662   2.371   3.767  12.378  0.2388  0.1309 -1.0985
  378TMC3    O2 5663   1.964   3.646  12.515  0.3622  0.1388 -0.0125
  379MPD2     C 5664   2.803   1.750  15.933 -0.9280 -0.1416  0.2467
  379MPD2    C1 5665   2.726   1.694  16.044 -0.6776 -0.4106 -0.2909
  379MPD2    C2 5666   2.789   1.614  16.144 -0.2826 -0.1945  0.9758
  379MPD2    C3 5667   2.919   1.579  16.121  0.3617  0.1573 -0.7103
  379MPD2    C4 5668   2.987   1.629  16.013  0.3478 -0.2863 -0.0202
  379MPD2    C5 5669   2.935   1.715  15.924  0.3694  1.1184  0.0537
  379MPD2     H 5670   2.736   1.573  16.228 -1.7641  1.3711  0.7980
  379MPD2    H1 5671   3.092   1.604  16.002  0.0392 -1.4382 -0.4086
  379MPD2    H2 5672   2.752   1.805  15.855  0.9210  2.5342  0.9017
  379MPD2    H3 5673   3.002   1.762  15.852 -0.0580  0.3743 -0.8296
  379MPD2     N 5674   2.991   1.478  16.194  0.1061  0.5110 -0.0474
  379MPD2    H5 5675   3.082   1.453  16.158  0.9267  0.9042  1.7949
  379MPD2    N1 5676   2.587   1.722  16.047 -0.0434 -0.3842 -0.2988
  379MPD2    H7 5677   2.551   1.772  15.967  2.4840 -0.4362 -1.4707
  380TMC3    C1 5678   2.356   1.655  16.061 -0.6199  0.3702  0.0570
  380TMC3    C2 5679   2.325   1.525  16.035  0.6303 -0.0984  0.2291
  380TMC3    C3 5680   2.306   1.481  15.906 -0.1260  0.3176 -0.2158
  380TMC3    C4 5681   2.328   1.746  15.956  0.2892 -0.3337 -0.2301
  380TMC3    C5 5682   2.290   1.694  15.837  0.2298 -0.0610  0.0297
  380TMC3    C6 5683   2.277   1.565  15.805 -0.3292  0.0439 -0.2538
  380TMC3     C 5684   2.492   1.657  16.126  0.6891 -0.0613  0.1304
  380TMC3     O 5685   2.513   1.576  16.215 -0.0469  0.3490 -0.4025
  380TMC3     H 5686   2.347   1.456  16.115 -0.1672 -0.5793  0.0350
  380TMC3    H1 5687   2.327   1.854  15.967  2.4012 -0.2613 -0.7314
  380TMC3    H2 5688   2.268   1.539  15.700  2.3742  1.7130 -0.9044
  380TMC3    C7 5689   2.239   1.788  15.742 -0.5745 -0.2669 -0.2074
  380TMC3    C8 5690   2.420   1.398  15.860 -0.1380 -0.3066 -0.0800
  380TMC3    O1 5691   2.294   1.896  15.738  0.6772  0.3788  0.2946
  380TMC3    O2 5692   2.443   1.407  15.738 -0.0888 -0.6167 -0.7097
  381TMC3    C1 5693   2.430   3.157  16.140  0.5134  0.3437 -0.5909
  381TMC3    C2 5694   2.564   3.194  16.132 -0.2897  0.1249  0.5290
  381TMC3    C3 5695   2.628   3.225  16.248  0.4439 -0.9551  0.0712
  381TMC3    C4 5696   2.364   3.171  16.259  0.0521  0.5540 -0.0005
  381TMC3    C5 5697   2.427   3.212  16.375 -0.3729 -0.0201  0.3232
  381TMC3    C6 5698   2.561   3.242  16.370  0.2579  0.4721  0.4680
  381TMC3     C 5699   2.343   3.193  16.026  0.5178 -0.4104 -0.4826
  381TMC3     O 5700   2.227   3.223  16.053 -0.3051 -1.0918 -0.1383
  381TMC3     H 5701   2.623   3.186  16.042  0.3762 -0.9222  1.0499
  381TMC3    H1 5702   2.258   3.149  16.260  0.3469 -0.9088  0.0296
  381TMC3    H2 5703   2.616   3.263  16.460  1.1601 -2.9559  0.6942
  381TMC3    C7 5704   2.386   3.127  16.480 -0.6844  0.4969 -0.2410
  381TMC3    C8 5705   2.771   3.231  16.248  0.2982  0.5095 -0.3430
  381TMC3    O1 5706   2.411   3.005  16.473 -0.4862  0.1247 -0.2257
  381TMC3    O2 5707   2.822   3.170  16.153  0.1229 -0.3318  0.0766
  382MPD2     C 5708   1.514   1.050  17.308 -0.3704  0.3596 -0.4197
  382MPD2    C1 5709   1.626   1.023  17.240  0.0726 -0.3578  1.0322
  382MPD2    C2 5710   1.672   0.892  17.229  0.4770  0.4604 -0.4129
  382MPD2    C3 5711   1.595   0.790  17.279 -0.7086 -0.3945  0.3689
  382MPD2    C4 5712   1.477   0.817  17.339 -0.1186  0.7356 -0.4291
  382MPD2    C5 5713   1.439   0.948  17.353 -0.0631  0.2643 -0.0834
  382MPD2     H 5714   1.764   0.854  17.187  0.2475 -1.8822  1.2087
  382MPD2    H1 5715   1.424   0.732  17.381  1.3319 -0.9784 -2.0527
  382MPD2    H2 5716   1.474   1.149  17.327  2.7107  1.3023  1.0432
  382MPD2    H3 5717   1.340   0.974  17.387 -0.0001 -0.8856  0.9896
  382MPD2     N 5718   1.629   0.657  17.284 -0.1767 -0.2588  0.2401
  382MPD2    H5 5719   1.558   0.592  17.315 -1.4900  0.7278 -0.7007
  382MPD2    N1 5720   1.718   1.124  17.205  0.2554  0.8441 -0.0207
  382MPD2    H7 5721   1.816   1.098  17.198  0.0888  0.6141 -1.4748
  383TMC3    C1 5722   1.756   0.455  17.242 -0.4050 -0.2269  0.9294
  383TMC3    C2 5723   1.644   0.387  17.223 -0.6118  0.5487 -0.7178
  383TMC3    C3 5724   1.647   0.246  17.220  0.0919 -0.7460  0.4605
  383TMC3    C4 5725   1.876   0.387  17.239  0.6498  0.2428 -0.2373
  383TMC3    C5 5726   1.877   0.247  17.242  0.6069 -0.0222  0.6763
  383TMC3    C6 5727   1.762   0.174  17.233 -0.3446 -0.3352 -0.5662
  383TMC3     C 5728   1.751   0.601  17.244  0.5264  0.0954  0.0068
  383TMC3     O 5729   1.864   0.648  17.232 -0.3622  0.5694  0.0378
  383TMC3     H 5730   1.550   0.439  17.204  1.1980  3.0505 -2.9058
  383TMC3    H1 5731   1.972   0.436  17.229  2.2069 -2.4655  1.4106
  383TMC3    H2 5732   1.772   0.066  17.225  0.5154 -0.3819  1.0469
  383TMC3    C7 5733   2.004   0.176  17.253 -0.2997 -0.3527  0.2658
  383TMC3    C8 5734   1.518   0.180  17.178  0.0326  0.5108  0.8943
  383TMC3    O1 5735   2.110   0.240  17.237  0.1084 -0.2766  0.9040
  383TMC3    O2 5736   1.416   0.248  17.172 -0.5730  0.3967 -0.5796
  384MPD2     C 5737   3.545   1.793  12.024  0.5416  0.0972 -0.5220
  384MPD2    C1 5738   3.561   1.707  12.133  0.4046  0.1969  0.4976
  384MPD2    C2 5739   3.633   1.593  12.116 -0.2268 -0.1299 -0.5158
  384MPD2    C3 5740   3.679   1.559  11.993  0.9717 -0.0029 -0.1088
  384MPD2    C4 5741   3.663   1.643  11.882  0.2669 -0.2776  0.0280
  384MPD2    C5 5742   3.599   1.757  11.900 -0.4494  0.2012 -0.4587
  384MPD2     H 5743   3.661   1.534  12.203  0.8110  1.4505  0.2098
  384MPD2    H1 5744   3.697   1.621  11.781 -2.8109  0.6521 -1.1970
  384MPD2    H2 5745   3.482   1.881  12.032 -0.5192 -1.0339  3.6529
  384MPD2    H3 5746   3.586   1.827  11.817  2.1739 -0.7466 -1.6753
  384MPD2     N 5747   3.740   1.435  11.983  0.2471  0.4017 -0.0176
  384MPD2    H5 5748   3.748   1.382  12.069 -0.7593 -1.5802 -1.1388
  384MPD2    N1 5749   3.515   1.731  12.269  0.6342  0.0880  0.8573
  384MPD2    H7 5750   3.570   1.667  12.325  0.2895  0.9135  2.1278
  385TMC3    C1 5751   3.808   1.232  11.904 -0.1833 -0.0637 -0.0175
  385TMC3    C2 5752   3.729   1.139  11.839  0.5904 -0.5161 -0.1924
  385TMC3    C3 5753   3.675   1.039  11.918  0.3078  0.1686  0.0852
  385TMC3    C4 5754   3.847   1.217  12.031  0.6743 -0.0192  0.2834
  385TMC3    C5 5755   3.809   1.112  12.109 -0.9647 -0.0081 -0.2868
  385TMC3    C6 5756   3.729   1.015  12.045 -0.6855 -0.5066  0.3022
  385TMC3     C 5757   3.784   1.369  11.866  0.0801  0.2261 -0.1083
  385TMC3     O 5758   3.788   1.414  11.751 -0.2788  0.0503  0.1638
  385TMC3     H 5759   3.702   1.165  11.738  1.3657  1.2688  0.0520
  385TMC3    H1 5760   3.930   1.280  12.061 -0.3209  2.0103 -1.2751
  385TMC3    H2 5761   3.691   0.933  12.105 -1.2555  0.0481  0.6915
  385TMC3    C7 5762   3.773   1.164  12.237 -0.0305 -0.2722 -0.9560
  385TMC3    C8 5763   3.587   0.938  11.864  0.4699  0.2105 -0.8093
  385TMC3    O1 5764   3.788   1.282  12.241 -0.2191 -0.2493  0.2558
  385TMC3    O2 5765   3.554   0.843  11.935  0.3516  0.5341  0.1005
  386TMC3    C1 5766   3.569   4.002  11.989 -0.1430 -0.7009 -0.0816
  386TMC3    C2 5767   3.558   3.967  11.862 -0.2261 -0.5136  0.6609
  386TMC3    C3 5768   3.450   4.018  11.794 -0.4312  0.2999 -0.1687
  386TMC3    C4 5769   3.487   4.093  12.049 -0.0944  0.3012  0.1276
  386TMC3    C5 5770   3.383   4.149  11.971 -0.2311  0.0287 -0.2305
  386TMC3    C6 5771   3.359   4.108  11.843 -0.9822 -0.4710 -0.3203
  386TMC3     C 5772   3.691   3.973  12.062  0.2444  0.2463 -0.0897
  386TMC3     O 5773   3.722   4.065  12.136  0.2058 -0.7206  0.4362
  386TMC3     H 5774   3.627   3.896  11.817  0.5075  0.3696  0.3756
  386TMC3    H1 5775   3.506   4.134  12.148  0.8198  0.5798 -0.1699
  386TMC3    H2 5776   3.270   4.132  11.787 -0.6427 -0.2274 -0.7552
  386TMC3    C7 5777   3.266   4.199  12.047  0.4361 -0.2831  0.7260
  386TMC3    C8 5778   3.419   3.968  11.662  0.9148  0.4094 -0.5386
  386TMC3    O1 5779   3.262   4.195  12.168 -0.1073  0.2252 -0.4783
  386TMC3    O2 5780   3.358   4.046  11.584 -0.0889 -0.3097  0.3749
  387MPD2     C 5781   1.521   3.775  10.092 -0.5811  0.8200  0.4236
  387MPD2    C1 5782   1.552   3.801   9.960  0.6059  0.0518  0.0918
  387MPD2    C2 5783   1.605   3.702   9.880  0.3537  0.1129 -0.6645
  387MPD2    C3 5784   1.600   3.570   9.920  0.0826  0.0242  0.3708
  387MPD2    C4 5785   1.555   3.540  10.039  0.0998 -0.2790 -0.6370
  387MPD2    C5 5786   1.517   3.641  10.120  0.9404 -0.5082  0.0453
  387MPD2     H 5787   1.635   3.725   9.779  0.0886  2.5732 -0.1772
  387MPD2    H1 5788   1.566   3.438  10.073  3.6829  0.6446  0.9116
  387MPD2    H2 5789   1.482   3.850  10.160  0.1768  1.5582  0.0484
  387MPD2    H3 5790   1.486   3.610  10.219  1.2829 -0.9249  0.0234
  387MPD2     N 5791   1.651   3.471   9.830  0.8038  0.4894 -0.0837
  387MPD2    H5 5792   1.700   3.510   9.749  0.8345 -0.7807 -0.6787
  387MPD2    N1 5793   1.549   3.927   9.908  0.1159 -0.1860 -0.0005
  387MPD2    H7 5794   1.586   3.935   9.814  2.0307  1.1256  0.8529
  388TMC3    C1 5795   1.478   4.149   9.874 -0.2696 -0.1091 -0.3806
  388TMC3    C2 5796   1.384   4.244   9.908  0.4783 -0.3872 -0.0089
  388TMC3    C3 5797   1.304   4.300   9.813  0.2063  0.4013 -0.2123
  388TMC3    C4 5798   1.501   4.123   9.742  0.2017 -0.2219  0.2482
  388TMC3    C5 5799   1.425   4.182   9.642  0.8072  0.0650  0.4836
  388TMC3    C6 5800   1.328   4.269   9.679  0.8418 -0.3499 -0.4598
  388TMC3     C 5801   1.501   4.041   9.965  0.4910 -0.2724 -0.1409
  388TMC3     O 5802   1.457   4.059  10.081  0.5872 -0.1632  0.4240
  388TMC3     H 5803   1.364   4.260  10.013  1.4930 -1.2579  0.3109
  388TMC3    H1 5804   1.585   4.058   9.720  0.3394 -0.3736  1.2240
  388TMC3    H2 5805   1.261   4.299   9.598 -0.1838 -0.9533  0.1584
  388TMC3    C7 5806   1.412   4.106   9.521 -0.1835 -0.7501  0.4437
  388TMC3    C8 5807   1.196   4.396   9.848 -0.5698  0.6121 -0.6692
  388TMC3    O1 5808   1.379   4.163   9.422  0.1100  0.2432  0.7879
  388TMC3    O2 5809   1.150   4.448   9.748  0.7553 -0.4036 -0.3671
  389MPD2     C 5810   0.759   2.314  11.346 -0.0139  0.8695  0.2939
  389MPD2    C1 5811   0.703   2.190  11.296 -1.0559  0.4881  0.7209
  389MPD2    C2 5812   0.626   2.111  11.375 -0.4912  1.4437 -1.2174
  389MPD2    C3 5813   0.608   2.150  11.510 -0.5630  0.1263 -0.2152
  389MPD2    C4 5814   0.672   2.262  11.571 -0.3158  0.6138 -1.0667
  389MPD2    C5 5815   0.742   2.347  11.482 -0.0220 -0.3577 -0.7860
  389MPD2     H 5816   0.586   2.017  11.340 -0.7406  0.8872  0.5789
  389MPD2    H1 5817   0.662   2.291  11.675  0.3600  0.7133 -1.0305
  389MPD2    H2 5818   0.815   2.383  11.285  1.5642 -2.3217 -1.8669
  389MPD2    H3 5819   0.786   2.431  11.533  1.4437 -0.2153 -2.2590
  389MPD2     N 5820   0.512   2.093  11.593  0.0690 -0.5303  0.7854
  389MPD2    H5 5821   0.483   2.150  11.672  0.6860  0.0253  0.6049
  389MPD2    N1 5822   0.730   2.169  11.154  0.1072  0.0809  0.3637
  389MPD2    H7 5823   0.776   2.243  11.102  1.9792 -1.0625  0.4057
  390TMC3    C1 5824   0.342   1.929  11.666  0.0934  0.1520  0.3934
  390TMC3    C2 5825   0.285   1.806  11.635 -0.0910 -0.0179  0.1075
  390TMC3    C3 5826   0.149   1.806  11.647 -0.1737 -1.0738 -0.4976
  390TMC3    C4 5827   0.275   2.029  11.734  0.5328  1.2055 -0.0268
  390TMC3    C5 5828   0.141   2.016  11.754 -0.7398  0.0255  0.0929
  390TMC3    C6 5829   0.078   1.914  11.699 -0.0912  0.3079  0.1781
  390TMC3     C 5830   0.464   1.958  11.587  0.0974  0.1317 -0.0163
  390TMC3     O 5831   0.513   1.870  11.517 -0.4086 -0.4014 -0.2421
  390TMC3     H 5832   0.335   1.733  11.572  1.3576  1.7712 -0.8211
  390TMC3    H1 5833   0.321   2.107  11.793 -0.3426  0.9785  0.9584
  390TMC3    H2 5834   4.693   1.924  11.686 -0.1791 -0.6829  0.1548
  390TMC3    C7 5835   0.068   2.130  11.810 -0.6998 -0.7813 -0.0927
  390TMC3    C8 5836   0.081   1.709  11.561 -0.0026 -0.0379  0.5434
  390TMC3    O1 5837   0.129   2.237  11.811 -0.0414 -0.6070 -0.0273
  390TMC3    O2 5838   0.143   1.613  11.516  0.1185  0.3381  0.2362
  391MPD2     C 5839   4.120   3.416  11.387  0.0937 -0.1317 -0.1730
  391MPD2    C1 5840   4.240   3.472  11.358 -0.3070 -0.0929 -0.1850
  391MPD2    C2 5841   4.284   3.448  11.232 -0.1602  0.8386 -0.5814
  391MPD2    C3 5842   4.213   3.364  11.144 -0.3848  0.3912  0.7920
  391MPD2    C4 5843   4.089   3.308  11.176  0.1225 -0.2405  0.6005
  391MPD2    C5 5844   4.043   3.344  11.301  0.0591  0.4904 -0.1692
  391MPD2     H 5845   4.382   3.490  11.210 -0.0798  0.4303 -1.0141
  391MPD2    H1 5846   4.036   3.240  11.111 -1.0755  0.4686  0.8315
  391MPD2    H2 5847   4.077   3.449  11.481 -0.1443 -1.6919  0.2670
  391MPD2    H3 5848   3.944   3.315  11.335  0.2109  0.1727 -0.0012
  391MPD2     N 5849   4.275   3.339  11.022 -0.3187  0.1724  0.3258
  391MPD2    H5 5850   4.367   3.381  11.009  0.0942 -0.8472 -0.0543
  391MPD2    N1 5851   4.304   3.569  11.449  0.1970 -0.1850  0.1386
  391MPD2    H7 5852   4.267   3.582  11.543 -2.0773 -0.1880 -0.7575
  392TMC3    C1 5853   4.301   3.285  10.785  0.1403  0.8999  0.2213
  392TMC3    C2 5854   4.259   3.216  10.679 -0.1917 -0.1979 -0.1739
  392TMC3    C3 5855   4.326   3.223  10.562  0.2412 -0.6310 -0.0339
  392TMC3    C4 5856   4.413   3.364  10.774 -0.1420 -0.5927  0.3348
  392TMC3    C5 5857   4.463   3.377  10.646 -0.7820  0.9658  1.0249
  392TMC3    C6 5858   4.435   3.294  10.541  0.2677 -0.1848 -0.5798
  392TMC3     C 5859   4.226   3.274  10.909  0.3632 -0.8286 -0.0131
  392TMC3     O 5860   4.125   3.207  10.896  0.7825  0.2090  0.3247
  392TMC3     H 5861   4.169   3.157  10.689  0.4846 -1.4448 -1.3262
  392TMC3    H1 5862   4.450   3.423  10.856 -1.6660 -0.8864  1.2432
  392TMC3    H2 5863   4.493   3.301  10.449  1.5497  0.7016  0.3084
  392TMC3    C7 5864   4.551   3.500  10.628 -0.7402 -0.1726 -0.2366
  392TMC3    C8 5865   4.280   3.132  10.458  0.4572  0.3166 -0.0665
  392TMC3    O1 5866   4.606   3.550  10.725 -0.9500  0.5382  0.1322
  392TMC3    O2 5867   4.183   3.064  10.480  0.2385  0.0320 -0.3413
  393TMC3    C1 5868   3.073   1.520  10.583  0.5149 -0.3569  0.3451
  393TMC3    C2 5869   2.962   1.497  10.656 -0.1771 -0.8324 -0.6534
  393TMC3    C3 5870   2.974   1.456  10.783  0.4930 -0.2564 -0.1839
  393TMC3    C4 5871   3.204   1.516  10.632 -0.0343 -0.2979  0.4292
  393TMC3    C5 5872   3.206   1.482  10.764 -0.0290 -0.4200 -0.4385
  393TMC3    C6 5873   3.102   1.460  10.843  0.1582 -0.6198  0.8797
  393TMC3     C 5874   3.065   1.543  10.436  0.5118  0.2477  0.6392
  393TMC3     O 5875   3.165   1.596  10.384  0.3208  0.4251 -0.2584
  393TMC3     H 5876   2.860   1.498  10.619 -0.6997 -1.8061  0.7806
  393TMC3    H1 5877   3.293   1.522  10.571  0.8519  0.8521  1.8436
  393TMC3    H2 5878   3.113   1.427  10.946 -1.6501  0.6110  1.4751
  393TMC3    C7 5879   3.335   1.497  10.826 -0.7678 -0.7254 -0.4849
  393TMC3    C8 5880   2.856   1.415  10.856 -0.7577  0.0432 -0.7976
  393TMC3    O1 5881   3.348   1.517  10.946  0.5431  0.2180 -0.6703
  393TMC3    O2 5882   2.767   1.367  10.787  0.7107  0.4142  0.1967
  394TMC3    C1 5883   0.676   2.096  10.932 -0.4826 -0.0530 -0.0351
  394TMC3    C2 5884   0.562   2.081  10.857  0.2440 -0.0251  0.7428
  394TMC3    C3 5885   0.574   2.095  10.727 -0.1728  0.8064  0.0073
  394TMC3    C4 5886   0.798   2.123  10.875  0.3647 -0.2345  0.3116
  394TMC3    C5 5887   0.799   2.143  10.736  0.1658 -0.2499  0.4413
  394TMC3    C6 5888   0.683   2.136  10.663 -0.9787 -0.0252  0.7319
  394TMC3     C 5889   0.661   2.080  11.078 -0.1302  0.6419  0.5502
  394TMC3     O 5890   0.574   1.995  11.099  0.1550 -0.1057 -0.0596
  394TMC3     H 5891   0.476   2.032  10.900 -0.2015  0.4818  0.4248
  394TMC3    H1 5892   0.888   2.122  10.937 -0.7488 -1.2617  1.9025
  394TMC3    H2 5893   0.692   2.145  10.556  1.6001 -1.8300  0.7879
  394TMC3    C7 5894   0.923   2.176  10.661  0.4754 -0.0670  0.4663
  394TMC3    C8 5895   0.447   2.094  10.658  0.2632  0.5078 -0.3445
  394TMC3    O1 5896   0.910   2.270  10.583 -0.0847 -0.3094 -0.1587
  394TMC3    O2 5897   0.352   2.108  10.732  0.2898  0.5516 -0.2833
  395TMC3    C1 5898   0.247   3.311  15.244 -0.1016  0.0327 -0.2257
  395TMC3    C2 5899   0.238   3.263  15.119  0.0691  0.4357 -0.1961
  395TMC3    C3 5900   0.322   3.323  15.026 -0.3181  0.1491  0.0509
  395TMC3    C4 5901   0.333   3.415  15.281 -0.8192 -0.2667  0.1488
  395TMC3    C5 5902   0.417   3.466  15.186 -0.3167  0.1426  0.0460
  395TMC3    C6 5903   0.414   3.423  15.059  0.1940  0.5723  0.0941
  395TMC3     C 5904   0.135   3.283  15.321 -0.8504 -0.8744  0.8678
  395TMC3     O 5905   0.147   3.285  15.445 -0.5848  0.1686  0.7276
  395TMC3     H 5906   0.161   3.195  15.086  0.4136  0.5897 -1.3217
  395TMC3    H1 5907   0.348   3.448  15.383  1.2559  2.3548 -1.0426
  395TMC3    H2 5908   0.468   3.473  14.979 -2.5018  0.3012 -1.9146
  395TMC3    C7 5909   0.443   3.612  15.202  0.4153 -0.2486 -0.9873
  395TMC3    C8 5910   0.301   3.297  14.885  0.5078  0.2273  0.2914
  395TMC3    O1 5911   0.456   3.651  15.315 -0.3639  0.3871  0.5592
  395TMC3    O2 5912   0.330   3.388  14.808 -0.1397  0.1456  0.2823
  396MPD2     C 5913   0.799   0.643  17.540 -0.2146 -0.0523 -0.7013
  396MPD2    C1 5914   0.782   0.572  17.429 -0.1504 -0.1065 -0.3343
  396MPD2    C2 5915   0.748   0.637  17.310  0.2484 -0.4531 -0.2091
  396MPD2    C3 5916   0.717   0.771  17.303  0.0224 -0.5002 -0.1027
  396MPD2    C4 5917   0.729   0.846  17.426 -0.5696 -1.0569 -0.2517
  396MPD2    C5 5918   0.775   0.778  17.535  0.0294  1.0513  0.5378
  396MPD2     H 5919   0.737   0.581  17.218 -0.5736  1.3195 -1.1839
  396MPD2    H1 5920   0.717   0.954  17.424 -0.1792 -1.0307 -1.0532
  396MPD2    H2 5921   0.821   0.607  17.640 -1.5038 -0.2764 -0.4919
  396MPD2    H3 5922   0.800   0.832  17.625 -1.9335 -0.3586  1.9180
  396MPD2     N 5923   0.685   0.840  17.187 -0.0938 -0.0367 -0.3902
  396MPD2    H5 5924   0.664   0.939  17.191 -1.3250 -0.2607 -1.4571
  396MPD2    N1 5925   0.794   0.430  17.440  0.6208  0.5113  0.6029
  396MPD2    H7 5926   0.810   0.406  17.537 -0.0221  1.2167  0.8879
  397TMC3    C1 5927   0.811   0.200  17.384 -0.5316  0.1939  0.4847
  397TMC3    C2 5928   0.794   0.130  17.266  0.4915 -0.3585  0.0392
  397TMC3    C3 5929   0.694   0.041  17.257 -0.3986  0.1232 -0.3677
  397TMC3    C4 5930   0.722   0.179  17.483 -0.2667  0.3086 -0.9595
  397TMC3    C5 5931   0.620   0.088  17.467  0.1466  0.1374  0.2462
  397TMC3    C6 5932   0.614   0.012  17.356 -0.0728 -0.7333  0.6089
  397TMC3     C 5933   0.834   0.339  17.343  0.5469  0.0132  0.2881
  397TMC3     O 5934   0.841   0.355  17.225 -0.0587  0.3044  0.3803
  397TMC3     H 5935   0.872   0.123  17.191 -0.1692 -1.0531 -0.5825
  397TMC3    H1 5936   0.724   0.226  17.581  0.2312 -0.0409 -0.8039
  397TMC3    H2 5937   0.531   4.666  17.344  0.1182 -1.1596  1.7999
  397TMC3    C7 5938   0.535   0.036  17.577  0.3018  0.3056 -0.9502
  397TMC3    C8 5939   0.639   0.029  17.122  0.4103  0.1092  0.3308
  397TMC3    O1 5940   0.460   4.664  17.551  0.1820 -0.2266 -0.0235
  397TMC3    O2 5941   0.551   4.667  17.121  1.0072  0.1196 -0.1854
  398MPD2     C 5942   2.959   0.383  17.239  0.4975  0.2396  0.3679
  398MPD2    C1 5943   2.989   0.357  17.372  0.6319  0.9899  0.4008
  398MPD2    C2 5944   3.115   0.379  17.413 -0.2676 -0.3497  0.3681
  398MPD2    C3 5945   3.209   0.434  17.335  0.5273  0.0163  0.5124
  398MPD2    C4 5946   3.180   0.464  17.203  0.6134  0.8033 -0.2317
  398MPD2    C5 5947   3.058   0.425  17.150 -0.3830  0.8835 -0.0821
  398MPD2     H 5948   3.152   0.340  17.508  2.0425 -0.6818 -0.6727
  398MPD2    H1 5949   3.247   0.518  17.137  1.0343 -1.5352 -1.7116
  398MPD2    H2 5950   2.869   0.354  17.187  2.8303  0.7975 -3.9853
  398MPD2    H3 5951   3.027   0.442  17.048 -1.0385  0.5236  0.0519
  398MPD2     N 5952   3.329   0.475  17.407  0.3275  0.1950 -0.0423
  398MPD2    H5 5953   3.339   0.451  17.505  1.5493 -0.0617 -0.2271
  398MPD2    N1 5954   2.891   0.321  17.468 -0.0951 -0.2163  0.2393
  398MPD2    H7 5955   2.920   0.286  17.559 -0.2159 -1.4192 -0.1764
  399TMC3    C1 5956   2.687   0.268  17.560  0.2702 -0.5545  0.1903
  399TMC3    C2 5957   2.748   0.176  17.635  0.8394 -0.2361  0.2106
  399TMC3    C3 5958   2.684   0.123   0.048  0.0133  0.9015  0.3707
  399TMC3    C4 5959   2.559   0.311  17.579  0.0630  0.0006 -0.0452
  399TMC3    C5 5960   2.496   0.251  17.688  0.5729  0.1387  0.8614
  399TMC3    C6 5961   2.554   0.158   0.074  0.0151 -0.0637 -0.0621
  399TMC3     C 5962   2.753   0.323  17.446 -0.5755 -0.1910 -0.1642
  399TMC3     O 5963   2.684   0.387  17.364  0.0603  0.0387  0.3497
  399TMC3     H 5964   2.842   0.131  17.607  0.3632 -1.7171  0.9832
  399TMC3    H1 5965   2.510   0.395  17.532  0.9236  0.1463 -0.6811
  399TMC3    H2 5966   2.499   0.126   0.162  0.6435 -0.0500  0.3350
  399TMC3    C7 5967   2.385   0.324   0.056  0.5395 -0.1038  0.0372
  399TMC3    C8 5968   2.775   0.086   0.160 -0.6231 -0.2523  0.9347
  399TMC3    O1 5969   2.358   0.309   0.173 -0.0971 -0.1215 -0.3711
  399TMC3    O2 5970   2.884   0.137   0.149  0.5540 -0.4777 -0.0382
  400TMC3    C1 5971   1.574   4.378  16.656 -0.3672 -0.5160  0.5778
  400TMC3    C2 5972   1.451   4.356  16.606  0.2056  0.4979  0.1913
  400TMC3    C3 5973   1.373   4.468  16.577  0.1946  0.7793  0.1369
  400TMC3    C4 5974   1.618   4.497  16.698  0.0370 -0.0516  0.0108
  400TMC3    C5 5975   1.525   4.599  16.694  0.2546 -0.1878  0.2057
  400TMC3    C6 5976   1.405   4.583  16.632  0.8109  0.0516 -0.0546
  400TMC3     C 5977   1.650   4.264  16.692 -0.4214  0.3772 -0.7203
  400TMC3     O 5978   1.619   4.157  16.630 -0.1759  0.2001 -0.2120
  400TMC3     H 5979   1.432   4.257  16.567  2.7852 -0.7610  2.1293
  400TMC3    H1 5980   1.716   4.522  16.736  0.1482  1.1485 -1.0604
  400TMC3    H2 5981   1.334   4.665  16.623 -1.4147 -1.9007 -0.1996
  400TMC3    C7 5982   1.568   4.722  16.757  0.3266 -0.0014 -0.7998
  400TMC3    C8 5983   1.233   4.437  16.562 -0.2244  0.0955  0.0574
  400TMC3    O1 5984   1.671   4.708  16.830 -0.2054 -0.2713 -0.2392
  400TMC3    O2 5985   1.146   4.476  16.638  0.2281  0.3073  0.1024
  401MPD2     C 5986   4.530   3.464   1.161  0.4048  0.1619  1.0493
  401MPD2    C1 5987   4.611   3.379   1.082  1.0246 -0.1249 -0.2264
  401MPD2    C2 5988   4.581   3.246   1.078  0.3900 -0.2766 -0.2189
  401MPD2    C3 5989   4.481   3.184   1.149  0.5251  0.2623 -0.2482
  401MPD2    C4 5990   4.416   3.268   1.236  0.3988  0.0757  0.5096
  401MPD2    C5 5991   4.436   3.404   1.243 -0.4820 -0.6185  0.7435
  401MPD2     H 5992   4.628   3.188   0.999 -3.7570 -2.4876 -1.0381
  401MPD2    H1 5993   4.330   3.237   1.295  0.2317 -3.0457 -1.3797
  401MPD2    H2 5994   4.549   3.571   1.170  0.7012  0.1320  0.7710
  401MPD2    H3 5995   4.375   3.468   1.306 -0.3580  1.0585 -0.8800
  401MPD2     N 5996   4.455   3.046   1.139 -0.7889 -0.1269  0.3137
  401MPD2    H5 5997   4.520   2.991   1.084  1.3649  2.2325  0.4844
  401MPD2    N1 5998   4.704   3.426   0.987  0.2071 -0.4275 -0.2385
  401MPD2    H7 5999   0.023   3.354   0.929 -0.2879  0.3225 -1.5264
  402TMC3    C1 6000   4.361   2.830   1.170  0.7084  0.1913  0.4609
  402TMC3    C2 6001   4.416   2.745   1.266 -0.1429  0.4998  0.1686
  402TMC3    C3 6002   4.485   2.637   1.221  0.5672  0.1184  0.5628
  402TMC3    C4 6003   4.369   2.799   1.030  0.4512 -0.0409  0.4876
  402TMC3    C5 6004   4.429   2.681   0.991 -0.0465 -0.7103 -0.2906
  402TMC3    C6 6005   4.494   2.606   1.087  0.0377 -0.0170 -0.6903
  402TMC3     C 6006   4.356   2.976   1.213  0.0272  0.7755  0.4406
  402TMC3     O 6007   4.284   3.020   1.300  0.0775 -0.1058 -0.5418
  402TMC3     H 6008   4.434   2.787   1.364 -1.0147 -0.6775  0.8187
  402TMC3    H1 6009   4.325   2.865   0.956  1.6273  1.2433  0.9278
  402TMC3    H2 6010   4.550   2.516   1.065  0.2293 -0.3282  1.0449
  402TMC3    C7 6011   4.413   2.632   0.857  1.0508 -0.4884 -0.5640
  402TMC3    C8 6012   4.599   2.595   1.306 -1.0682 -1.0628 -0.8886
  402TMC3    O1 6013   4.439   2.513   0.844 -0.1667 -0.5041 -0.4519
  402TMC3    O2 6014   4.702   2.571   1.237  1.0056 -0.1677  0.6474
  403MPD2     C 6015   2.991   1.327  13.247 -0.4234  0.4838  0.2088
  403MPD2    C1 6016   3.061   1.212  13.290 -0.6569 -0.0746 -0.0352
  403MPD2    C2 6017   3.139   1.229  13.399 -0.2578  0.1733 -0.4513
  403MPD2    C3 6018   3.154   1.355  13.456 -0.2625 -0.2218 -0.0538
  403MPD2    C4 6019   3.083   1.466  13.404  0.0105 -0.1994 -0.0386
  403MPD2    C5 6020   3.001   1.450  13.293 -0.6031 -0.1100 -0.0382
  403MPD2     H 6021   3.193   1.145  13.441  0.6582  1.5370  1.0579
  403MPD2    H1 6022   3.093   1.564  13.450 -0.2653 -0.0299 -0.3436
  403MPD2    H2 6023   2.912   1.306  13.175 -0.3780 -0.3921  0.4134
  403MPD2    H3 6024   2.939   1.530  13.254  1.6757  0.8089 -1.7868
  403MPD2     N 6025   3.232   1.362  13.576 -0.0056  0.0442 -0.3675
  403MPD2    H5 6026   3.296   1.287  13.600 -1.0360 -0.5273  0.5947
  403MPD2    N1 6027   3.034   1.089  13.234 -0.3942  0.3500  0.2587
  403MPD2    H7 6028   2.981   1.096  13.148 -2.4443 -1.3630  1.3757
  404TMC3    C1 6029   2.955   0.864  13.221  0.0636  0.5669  0.0159
  404TMC3    C2 6030   2.865   0.807  13.300 -0.1645  1.2180  0.3519
  404TMC3    C3 6031   2.770   0.720  13.254 -0.1141  0.7996  0.1200
  404TMC3    C4 6032   2.969   0.830  13.086 -1.1955 -0.2446  0.3677
  404TMC3    C5 6033   2.876   0.744  13.037  0.2423  0.0871 -0.0501
  404TMC3    C6 6034   2.770   0.696  13.117  0.0133  0.0035 -0.3257
  404TMC3     C 6035   3.042   0.961  13.288 -0.0149  0.2557 -0.8022
  404TMC3     O 6036   3.081   0.927  13.398  0.5970  0.5895  0.2148
  404TMC3     H 6037   2.874   0.837  13.404 -2.1868  2.1842  0.2388
  404TMC3    H1 6038   3.049   0.859  13.019 -0.5125 -0.2632  1.1778
  404TMC3    H2 6039   2.708   0.611  13.089  0.4924 -0.5758  0.3731
  404TMC3    C7 6040   2.883   0.708  12.893 -0.2539  0.4645  0.3676
  404TMC3    C8 6041   2.686   0.661  13.344 -0.0442  0.3093  0.1005
  404TMC3    O1 6042   2.990   0.706  12.841  0.0039  0.0361 -0.3790
  404TMC3    O2 6043   2.631   0.557  13.308 -0.4170  0.4916  0.5406
  405MPD2     C 6044   3.188   1.623  14.884 -0.3760  0.0373 -0.3426
  405MPD2    C1 6045   3.213   1.573  14.759  0.0802  0.0173  0.3653
  405MPD2    C2 6046   3.226   1.669  14.658 -0.3653 -0.1308 -0.2184
  405MPD2    C3 6047   3.210   1.809  14.683  0.6959  0.1639  0.0896
  405MPD2    C4 6048   3.171   1.851  14.807 -0.1924 -0.2286  0.2553
  405MPD2    C5 6049   3.157   1.759  14.901  0.4647 -0.8231 -0.7882
  405MPD2     H 6050   3.241   1.635  14.556  1.3273 -2.1119  0.6982
  405MPD2    H1 6051   3.159   1.957  14.826 -0.2839  0.0404 -1.2850
  405MPD2    H2 6052   3.175   1.554  14.966 -0.4734 -0.2727 -0.6150
  405MPD2    H3 6053   3.131   1.792  15.001  0.3340 -0.6167 -0.8930
  405MPD2     N 6054   3.213   1.892  14.567 -0.0224  0.4408  0.2733
  405MPD2    H5 6055   3.244   1.847  14.481 -1.4453  1.5695 -0.8381
  405MPD2    N1 6056   3.221   1.432  14.736  0.2149  0.4698  0.1530
  405MPD2    H7 6057   3.205   1.373  14.817  1.0500  0.5295  0.3621
  406TMC3    C1 6058   2.940   2.163  14.316  0.4761  0.3463  0.0951
  406TMC3    C2 6059   2.928   2.064  14.221  0.7163  0.4659  0.7726
  406TMC3    C3 6060   3.020   1.956  14.229 -0.1041 -0.2715  0.3820
  406TMC3    C4 6061   3.033   2.162  14.418 -0.5483 -0.3797  0.0713
  406TMC3    C5 6062   3.105   2.042  14.430 -0.0345  0.1714 -0.0600
  406TMC3    C6 6063   3.098   1.945  14.339  0.7373  0.1777 -0.5655
  406TMC3     C 6064   2.850   2.277  14.308 -0.1498 -0.7904  0.3501
  406TMC3     O 6065   2.904   2.387  14.300  0.2027 -0.6929 -0.6810
  406TMC3     H 6066   2.879   2.078  14.125  0.9923  0.9751  0.7054
  406TMC3    H1 6067   3.041   2.247  14.485 -1.3035 -1.0225  0.9964
  406TMC3    H2 6068   3.167   1.862  14.343 -1.9636 -2.1243 -1.6142
  406TMC3    C7 6069   3.176   2.022  14.556  0.2806  0.5375 -0.6514
  406TMC3    C8 6070   3.006   1.843  14.142  0.1047  0.1640  0.0302
  406TMC3    O1 6071   3.162   2.108  14.642  0.1031 -0.3500 -0.0815
  406TMC3    O2 6072   2.947   1.851  14.035 -0.1382  0.0393  0.0168
  407MPD2     C 6073   1.277   3.309   9.600  0.1130 -0.5710 -0.7127
  407MPD2    C1 6074   1.248   3.432   9.555 -0.1305 -0.5724 -0.5212
  407MPD2    C2 6075   1.248   3.544   9.639  1.1975 -0.2575  0.5650
  407MPD2    C3 6076   1.262   3.524   9.779  0.2335 -0.4029 -0.0563
  407MPD2    C4 6077   1.292   3.393   9.820  1.1197  0.0019 -0.7392
  407MPD2    C5 6078   1.288   3.289   9.735 -0.5768  0.1380 -0.4547
  407MPD2     H 6079   1.221   3.641   9.599 -1.5273  0.0385  3.0939
  407MPD2    H1 6080   1.312   3.360   9.921  2.0427 -1.0819 -1.2857
  407MPD2    H2 6081   1.289   3.221   9.538  0.8147 -0.4746 -0.7144
  407MPD2    H3 6082   1.323   3.192   9.768  0.4125  0.9986  0.9918
  407MPD2     N 6083   1.251   3.616   9.881  0.2329  0.0415 -0.0712
  407MPD2    H5 6084   1.252   3.584   9.977 -2.2190 -1.4259 -0.5497
  407MPD2    N1 6085   1.224   3.451   9.416 -0.0223 -0.1265  0.5037
  407MPD2    H7 6086   1.201   3.546   9.388  3.2213  1.0307  1.7626
  408TMC3    C1 6087   1.233   3.437   9.186  0.0429 -0.3377 -0.4912
  408TMC3    C2 6088   1.337   3.416   9.106 -0.0145 -0.3299 -0.1405
  408TMC3    C3 6089   1.343   3.480   8.988  0.9736 -0.5050  0.4436
  408TMC3    C4 6090   1.153   3.546   9.168 -0.0848 -0.3618  0.0834
  408TMC3    C5 6091   1.165   3.620   9.054 -0.4866  0.2619 -0.0076
  408TMC3    C6 6092   1.256   3.584   8.957  0.2591 -0.6076  0.1806
  408TMC3     C 6093   1.249   3.368   9.307  0.5268  0.6011 -0.1235
  408TMC3     O 6094   1.275   3.249   9.304 -0.0329 -0.8221  0.4831
  408TMC3     H 6095   1.411   3.341   9.134  0.4800  0.1613 -0.1452
  408TMC3    H1 6096   1.069   3.564   9.234 -1.5166 -0.1953 -1.7780
  408TMC3    H2 6097   1.266   3.630   8.859  2.3304  1.0597  1.1710
  408TMC3    C7 6098   1.059   3.707   9.020 -0.3227  0.3586  0.2833
  408TMC3    C8 6099   1.463   3.483   8.906 -0.0866  0.5826 -0.2663
  408TMC3    O1 6100   0.953   3.691   9.077  0.4172  0.2090 -0.4181
  408TMC3    O2 6101   1.457   3.509   8.786 -0.1493 -0.2929  0.4585
  409MPD2     C 6102   0.439   4.122  16.710 -0.6468 -0.2725 -0.1902
  409MPD2    C1 6103   0.555   4.149  16.787 -0.1781  0.1563  0.3372
  409MPD2    C2 6104   0.624   4.268  16.778 -0.3358 -0.5401  0.4197
  409MPD2    C3 6105   0.585   4.364  16.687 -0.4484  0.3766 -0.6450
  409MPD2    C4 6106   0.468   4.342  16.618  0.2233 -0.7707 -0.5902
  409MPD2    C5 6107   0.397   4.226  16.626  0.1501 -0.5048 -0.1665
  409MPD2     H 6108   0.710   4.283  16.843 -0.0360 -0.6433  0.0447
  409MPD2    H1 6109   0.439   4.413  16.542 -0.3535  1.4454  1.7058
  409MPD2    H2 6110   0.399   4.021  16.705  1.3260 -0.9087 -3.1385
  409MPD2    H3 6111   0.310   4.207  16.564 -2.3454  0.7577  2.9374
  409MPD2     N 6112   0.658   4.485  16.663  0.6862 -0.1855 -0.5678
  409MPD2    H5 6113   0.626   4.553  16.594  1.8294 -0.6204 -1.5251
  409MPD2    N1 6114   0.608   4.053  16.880 -0.3289  0.0208 -0.4375
  409MPD2    H7 6115   0.686   4.081  16.940 -0.5128 -1.3352  0.4341
  410TMC3    C1 6116   0.836   4.641  16.682 -0.0747  0.0902  0.0379
  410TMC3    C2 6117   0.909   4.696  16.778 -0.4093  0.6389  0.1251
  410TMC3    C3 6118   1.003   0.059  16.738  0.8246 -0.2116  0.0641
  410TMC3    C4 6119   0.840   4.669  16.550 -0.1392 -0.2639  0.3628
  410TMC3    C5 6120   0.922   0.050  16.526  0.5727  0.0265  0.0598
  410TMC3    C6 6121   1.008   0.114  16.617  0.1331  0.3546  0.1503
  410TMC3     C 6122   0.773   4.518  16.728 -0.4950 -0.8057 -0.0953
  410TMC3     O 6123   0.837   4.457  16.815  0.4767  0.1320  0.2588
  410TMC3     H 6124   0.910   4.663  16.881 -1.6791 -1.6795 -0.6128
  410TMC3    H1 6125   0.767   4.636  16.477  0.4140  1.1277 -0.8248
  410TMC3    H2 6126   1.058   0.207  16.590 -0.5339  1.0531  1.3511
  410TMC3    C7 6127   0.909   0.117  16.397 -0.1361  0.1614  0.6435
  410TMC3    C8 6128   1.119   0.070  16.821 -0.2358 -0.5734 -0.1326
  410TMC3    O1 6129   0.908   0.239  16.393  0.2781  0.1224 -0.0964
  410TMC3    O2 6130   1.183   0.175  16.831 -0.1909 -0.1497 -0.1400
  411MPD2     C 6131   0.073   4.548  14.548 -0.2400  0.1861  0.2275
  411MPD2    C1 6132   0.176   4.585  14.469 -0.2751  0.1115  0.0881
  411MPD2    C2 6133   0.183   4.550  14.331 -0.0315  0.4337  0.6569
  411MPD2    C3 6134   0.070   4.477  14.277  0.3488  0.2537 -1.0840
  411MPD2    C4 6135   4.694   4.436  14.363  0.2968  0.2793 -0.4775
  411MPD2    C5 6136   4.698   4.464  14.502 -0.1793 -0.7660  0.0398
  411MPD2     H 6137   0.272   4.563  14.269  0.3323  1.7971  1.4636
  411MPD2    H1 6138   4.621   4.361  14.332  1.3433 -0.5091 -1.0270
  411MPD2    H2 6139   0.075   4.562  14.655 -0.4504  2.7504 -0.1064
  411MPD2    H3 6140   4.630   4.417  14.573 -2.8540  0.9545 -1.3674
  411MPD2     N 6141   0.048   4.455  14.140 -0.6227  0.1125 -0.1077
  411MPD2    H5 6142   4.676   4.434  14.111  0.0223 -1.8173 -0.7996
  411MPD2    N1 6143   0.269   4.674  14.524 -0.7140  0.1920 -0.0448
  411MPD2    H7 6144   0.254   4.711  14.617  0.0487 -0.2835  0.2624
  412TMC3    C1 6145   0.075   4.506  13.911 -0.7552 -0.3564 -0.0037
  412TMC3    C2 6146   4.713   4.612  13.912 -0.1464 -0.1036  0.7963
  412TMC3    C3 6147   4.707   4.680  13.791  0.0455  0.3128 -0.2784
  412TMC3    C4 6148   0.152   4.476  13.800 -0.1155 -0.2898 -0.0358
  412TMC3    C5 6149   0.139   4.541  13.682 -0.6956 -0.3701  0.8156
  412TMC3    C6 6150   0.045   4.638  13.679 -0.3131 -0.2131  0.5946
  412TMC3     C 6151   0.137   4.476  14.042  0.4691  0.1893 -0.0363
  412TMC3     O 6152   0.261   4.476  14.053 -0.1123  0.1432  0.2674
  412TMC3     H 6153   4.669   4.659  14.000 -2.4933  1.1691 -1.0321
  412TMC3    H1 6154   0.241   4.420  13.828  0.5059 -0.2532 -1.9154
  412TMC3    H2 6155   0.031   4.697  13.589 -3.4353 -0.3992  0.9578
  412TMC3    C7 6156   0.259   4.573  13.614 -0.0624 -0.0555  0.7089
  412TMC3    C8 6157   0.005   0.101  13.817 -0.3777 -0.3054  0.3918
  412TMC3    O1 6158   0.270   4.691  13.572  0.2050  0.1184 -0.0340
  412TMC3    O2 6159   4.668   0.143  13.916 -0.0483 -0.3328  0.9937
  413MPD2     C 6160   2.698   3.201  15.313  0.2823 -0.5281  0.2258
  413MPD2    C1 6161   2.584   3.142  15.259  0.0224  0.1265 -0.3909
  413MPD2    C2 6162   2.562   3.011  15.269 -0.5901 -0.2482 -0.1122
  413MPD2    C3 6163   2.653   2.932  15.337 -0.1821 -0.1303  0.2393
  413MPD2    C4 6164   2.763   2.985  15.398  0.0482 -0.0473  0.1657
  413MPD2    C5 6165   2.782   3.116  15.382 -0.2341 -0.0751 -0.3578
  413MPD2     H 6166   2.481   2.968  15.212  0.8701 -0.0317 -2.3421
  413MPD2    H1 6167   2.831   2.930  15.462 -0.6606 -0.1182  0.8544
  413MPD2    H2 6168   2.719   3.304  15.288 -0.6318 -0.5741 -0.7570
  413MPD2    H3 6169   2.866   3.169  15.426 -1.6104  0.5041  1.5715
  413MPD2     N 6170   2.624   2.793  15.338 -0.8046 -0.3521  0.1161
  413MPD2    H5 6171   2.546   2.761  15.281 -0.0561 -2.3725  0.2335
  413MPD2    N1 6172   2.506   3.225  15.178 -0.2635  0.2194 -0.4056
  413MPD2    H7 6173   2.538   3.321  15.172  0.5809  0.0451  1.2119
  414TMC3    C1 6174   2.694   2.563  15.343 -0.5866  0.5170 -0.0528
  414TMC3    C2 6175   2.743   2.459  15.415  0.9496  0.7215 -0.1485
  414TMC3    C3 6176   2.730   2.331  15.361 -0.0581  0.3625 -0.1345
  414TMC3    C4 6177   2.637   2.544  15.219  0.5093 -0.8174  0.9070
  414TMC3    C5 6178   2.625   2.418  15.172  0.6504  0.0714 -0.5347
  414TMC3    C6 6179   2.664   2.308  15.237 -0.1295 -0.0103 -0.5026
  414TMC3     C 6180   2.703   2.701  15.395  0.5534  0.4740 -0.1874
  414TMC3     O 6181   2.769   2.717  15.497 -0.0694  0.6927  0.3399
  414TMC3     H 6182   2.797   2.485  15.505 -0.1696 -0.9154  0.9859
  414TMC3    H1 6183   2.609   2.622  15.149 -0.1874 -2.1590 -0.3030
  414TMC3    H2 6184   2.622   2.212  15.210 -1.9496  1.0314 -1.3867
  414TMC3    C7 6185   2.533   2.410  15.070 -0.6599  0.5788  0.7106
  414TMC3    C8 6186   2.780   2.213  15.436  0.5201 -0.6712 -0.2028
  414TMC3    O1 6187   2.427   2.468  15.085  0.4621  0.0511  0.6703
  414TMC3    O2 6188   2.739   2.099  15.405  0.3650  0.0149  0.3100
  415TMC3    C1 6189   2.019   0.874   9.527 -0.4758 -0.4384  0.5373
  415TMC3    C2 6190   2.154   0.865   9.506  0.2226 -0.7641  0.3739
  415TMC3    C3 6191   2.200   0.823   9.377  0.2712 -0.0533 -0.2107
  415TMC3    C4 6192   1.933   0.827   9.429 -0.3157 -0.7484  0.1623
  415TMC3    C5 6193   1.982   0.784   9.310 -0.1410 -0.3561  0.2651
  415TMC3    C6 6194   2.110   0.788   9.281 -0.0920  0.0330  0.5937
  415TMC3     C 6195   1.971   0.846   9.660  0.1103  1.0496  0.9365
  415TMC3     O 6196   1.893   0.750   9.668  0.4838 -0.2483  1.1594
  415TMC3     H 6197   2.229   0.882   9.583 -0.2509 -0.7514  0.8352
  415TMC3    H1 6198   1.826   0.828   9.450 -0.5903  2.3387 -1.4430
  415TMC3    H2 6199   2.138   0.756   9.181 -0.3653  0.7816  0.2774
  415TMC3    C7 6200   1.891   0.729   9.219 -0.1627  0.0296 -0.4073
  415TMC3    C8 6201   2.338   0.790   9.340  0.6246 -0.6916  0.2441
  415TMC3    O1 6202   1.916   0.736   9.098 -0.2909 -1.0288  0.1153
  415TMC3    O2 6203   2.358   0.744   9.229  0.0152  0.0093 -0.2040
  416MPD2     C 6204   4.570   0.096  11.447 -0.4495  0.2585  0.0234
  416MPD2    C1 6205   4.440   0.050  11.457  0.6136 -0.2402  0.6529
  416MPD2    C2 6206   4.403   4.649  11.400  0.0699 -0.3533  0.0511
  416MPD2    C3 6207   4.495   4.587  11.317  0.0412 -0.1258  0.5943
  416MPD2    C4 6208   4.611   4.641  11.287 -0.1704 -1.0078 -0.1400
  416MPD2    C5 6209   4.650   0.029  11.354  0.0012 -0.1172  0.0424
  416MPD2     H 6210   4.306   4.606  11.421  0.6673 -0.9763  1.5332
  416MPD2    H1 6211   4.686   4.591  11.227  1.0969  0.1889  0.4529
  416MPD2    H2 6212   4.607   0.178  11.508  0.0884 -0.5723  0.8209
  416MPD2    H3 6213   0.030   0.060  11.341 -0.4470  1.5227  0.2850
  416MPD2     N 6214   4.444   4.471  11.256  0.4656  0.9138  0.3207
  416MPD2    H5 6215   4.363   4.427  11.298 -0.5527  2.0854 -0.4185
  416MPD2    N1 6216   4.350   0.131  11.528  0.5207  0.4884 -0.4358
  416MPD2    H7 6217   4.385   0.214  11.576 -0.8221  1.0520 -0.4327
  417TMC3    C1 6218   4.167   0.241  11.607 -0.8034  0.6340  0.0695
  417TMC3    C2 6219   4.253   0.319  11.671  0.0173 -0.2324  0.5332
  417TMC3    C3 6220   4.209   0.446  11.695 -0.1650 -0.7318 -0.7118
  417TMC3    C4 6221   4.043   0.279  11.565 -0.0841 -0.0701  0.2116
  417TMC3    C5 6222   4.001   0.409  11.581 -0.4050 -0.4609  0.3707
  417TMC3    C6 6223   4.089   0.494  11.648  0.4988  0.2202  0.6548
  417TMC3     C 6224   4.218   0.119  11.546 -0.7462 -0.6021 -0.5649
  417TMC3     O 6225   4.138   0.042  11.494 -0.2663  0.5204 -0.4545
  417TMC3     H 6226   4.330   0.275  11.734  0.5076  1.6693  1.2752
  417TMC3    H1 6227   3.990   0.209  11.502 -1.0627  0.0428  0.9088
  417TMC3    H2 6228   4.061   0.598  11.667  2.8829  0.6674  1.6929
  417TMC3    C7 6229   3.948   0.468  11.458  0.2441 -0.3204  0.0226
  417TMC3    C8 6230   4.310   0.529  11.756  0.5818  0.1488 -0.2158
  417TMC3    O1 6231   3.989   0.577  11.423  0.2731 -0.4285 -0.4801
  417TMC3    O2 6232   4.425   0.489  11.754 -0.3649  0.0595  0.3771
  418TMC3    C1 6233   3.676   0.556  17.616 -0.4782 -0.7201 -0.7349
  418TMC3    C2 6234   3.600   0.515  17.504  0.5859  0.0963  0.2356
  418TMC3    C3 6235   3.512   0.604  17.458 -0.2638 -0.2094  0.6735
  418TMC3    C4 6236   3.652   0.677  17.684  0.2793  0.5650  0.1853
  418TMC3    C5 6237   3.548   0.753  17.636 -0.3321 -0.1817  0.1374
  418TMC3    C6 6238   3.483   0.723  17.523 -1.2920  0.0492  0.8003
  418TMC3     C 6239   3.807   0.498  17.627  0.6147 -0.5685  0.5010
  418TMC3     O 6240   3.822   0.383  17.578 -0.2701  0.2512  0.4109
  418TMC3     H 6241   3.632   0.433  17.441 -0.6069 -2.3155  2.7609
  418TMC3    H1 6242   3.705   0.706   0.079  2.8758 -0.3050 -1.0755
  418TMC3    H2 6243   3.397   0.780  17.490 -0.3587 -0.2474 -2.1848
  418TMC3    C7 6244   3.535   0.886  17.687 -1.1613  0.1737  0.9319
  418TMC3    C8 6245   3.418   0.564  17.353  0.0767  0.0608  0.7380
  418TMC3    O1 6246   3.606   0.908   0.091  0.4612 -0.2785  0.2045
  418TMC3    O2 6247   3.397   0.643  17.266  1.0505  0.5143 -0.0310
  419MPD2     C 6248   2.034   4.339  12.994 -0.5709 -0.5578 -0.4337
  419MPD2    C1 6249   2.003   4.460  12.941  0.6385 -0.4488  0.6604
  419MPD2    C2 6250   1.973   4.565  13.025  0.4791  0.3887  0.3513
  419MPD2    C3 6251   1.985   4.559  13.166  0.6994 -0.2947 -0.0964
  419MPD2    C4 6252   2.025   4.435  13.208  1.2845  0.1895 -0.6728
  419MPD2    C5 6253   2.045   4.330  13.127  0.4071 -0.3773  0.3739
  419MPD2     H 6254   1.945   4.659  12.978  0.8447 -0.2589 -1.1721
  419MPD2    H1 6255   2.046   4.419  13.313  0.1300 -1.2293 -0.6680
  419MPD2    H2 6256   2.059   4.251  12.936  2.3595 -0.5890  0.8761
  419MPD2    H3 6257   2.076   4.236  13.173 -0.7786 -1.5379 -1.1800
  419MPD2     N 6258   1.964   4.668  13.254  0.2196 -0.1603  0.5050
  419MPD2    H5 6259   1.938   0.033  13.212  1.2680 -0.4208 -0.6790
  419MPD2    N1 6260   1.981   4.482  12.806 -0.1173 -0.0699  0.3658
  419MPD2    H7 6261   1.952   4.572  12.769 -0.3565 -0.8051 -1.2553
  420TMC3    C1 6262   1.949   0.082  13.442  0.5214  0.4942  0.1708
  420TMC3    C2 6263   1.866   0.176  13.371  0.4288 -0.4450  0.3595
  420TMC3    C3 6264   1.832   0.291  13.437  0.3965  0.3824  0.2703
  420TMC3    C4 6265   2.012   0.111  13.554 -0.1869 -0.1727 -0.3903
  420TMC3    C5 6266   1.975   0.219  13.617 -0.6226 -0.6679  0.4451
  420TMC3    C6 6267   1.882   0.318  13.564 -0.5306 -0.9126 -0.3157
  420TMC3     C 6268   1.990   4.675  13.385  0.4029  0.4594  0.0858
  420TMC3     O 6269   2.030   4.582  13.459  1.2954  0.2851  0.0190
  420TMC3     H 6270   1.815   0.154  13.278 -1.2359  1.3561  0.8471
  420TMC3    H1 6271   2.092   0.047  13.589 -0.0416  0.7781  1.0130
  420TMC3    H2 6272   1.862   0.410  13.616 -0.2517 -0.7169 -0.5543
  420TMC3    C7 6273   2.014   0.231  13.757 -0.5033  0.2314 -0.4469
  420TMC3    C8 6274   1.764   0.396  13.373 -0.0719  0.0988 -0.6838
  420TMC3    O1 6275   2.100   0.152  13.789 -0.3902  0.2595  0.3670
  420TMC3    O2 6276   1.816   0.510  13.384 -0.1442 -0.4522  0.6311
  421TMC3    C1 6277   3.319   1.467  13.773 -0.1506  0.2411  0.5860
  421TMC3    C2 6278   3.343   1.587  13.839 -0.2427 -0.2266 -0.3084
  421TMC3    C3 6279   3.465   1.599  13.896  0.6417 -0.6937 -0.2340
  421TMC3    C4 6280   3.397   1.357  13.785  0.1526  0.0085  0.3911
  421TMC3    C5 6281   3.516   1.373  13.847 -0.1426 -0.7762 -0.0520
  421TMC3    C6 6282   3.555   1.496  13.895 -0.6886  0.4400  0.5284
  421TMC3     C 6283   3.214   1.459  13.672  0.3450  0.6128  0.4440
  421TMC3     O 6284   3.126   1.548  13.679 -0.1463 -0.0610  0.2350
  421TMC3     H 6285   3.276   1.672  13.831  0.9495  0.5189 -2.1350
  421TMC3    H1 6286   3.358   1.257  13.771 -0.2758 -0.0998  2.3674
  421TMC3    H2 6287   3.650   1.491  13.947 -0.3456  2.8807  0.0971
  421TMC3    C7 6288   3.608   1.260  13.869  0.2310 -0.9907 -0.1340
  421TMC3    C8 6289   3.514   1.734  13.908 -0.0678 -0.6535  0.4017
  421TMC3    O1 6290   3.725   1.289  13.891  0.6339  0.0893 -0.1500
  421TMC3    O2 6291   3.437   1.827  13.911 -0.1012 -0.5796 -0.2885
  422TMC3    C1 6292   0.704   3.160  12.746 -1.0414 -0.4623 -0.3331
  422TMC3    C2 6293   0.675   3.219  12.866 -0.8175 -0.7038 -0.6049
  422TMC3    C3 6294   0.609   3.145  12.965 -0.1938  0.0271  0.2546
  422TMC3    C4 6295   0.654   3.036  12.709 -0.8647 -0.6186  0.1846
  422TMC3    C5 6296   0.578   2.979  12.809 -0.4016  0.0081  0.5780
  422TMC3    C6 6297   0.544   3.031  12.934 -0.6334 -0.0836  0.2567
  422TMC3     C 6298   0.776   3.244  12.650 -0.3083  0.0936 -0.0321
  422TMC3     O 6299   0.793   3.361  12.681 -0.2243 -0.2066 -0.2926
  422TMC3     H 6300   0.710   3.318  12.893 -0.1933 -1.5827  1.7228
  422TMC3    H1 6301   0.661   2.985  12.614 -0.7576  0.2227 -0.2644
  422TMC3    H2 6302   0.504   2.961  13.006 -1.7218  2.3603  2.0272
  422TMC3    C7 6303   0.493   2.876  12.758 -0.1038 -0.6154 -0.2206
  422TMC3    C8 6304   0.647   3.172  13.107  0.3852  0.1100 -0.0092
  422TMC3    O1 6305   0.543   2.798  12.672 -0.1386  0.6665 -1.2141
  422TMC3    O2 6306   0.729   3.258  13.131 -0.2657  0.4731  0.6575
  423MPD2     C 6307   2.439   4.092   0.318  0.1633 -0.2546  0.5056
  423MPD2    C1 6308   2.441   4.012   0.432 -0.5709 -0.8213 -0.1873
  423MPD2    C2 6309   2.454   3.875   0.416  0.5161  0.2665 -0.7502
  423MPD2    C3 6310   2.466   3.818   0.292  0.0196 -0.2550  1.0470
  423MPD2    C4 6311   2.460   3.899   0.177 -0.2349 -0.1402  0.4372
  423MPD2    C5 6312   2.442   4.033   0.196 -0.4317  0.8638  0.6872
  423MPD2     H 6313   2.451   3.809   0.502 -0.9210 -2.0459 -2.5829
  423MPD2    H1 6314   2.464   3.871   0.073  0.0181 -1.2815  0.7511
  423MPD2    H2 6315   2.448   4.200   0.321 -0.8448 -0.1498 -0.2815
  423MPD2    H3 6316   2.452   4.096   0.108  1.1951  0.1472  0.3559
  423MPD2     N 6317   2.479   3.674   0.275  0.1987 -0.1892 -0.0505
  423MPD2    H5 6318   2.491   3.650   0.177  0.0784  1.3605 -0.4399
  423MPD2    N1 6319   2.433   4.062   0.565 -0.2016  0.4096 -0.2047
  423MPD2    H7 6320   2.449   3.988   0.633 -0.8969  0.5284  0.0876
  424TMC3    C1 6321   2.397   4.230   0.730  0.2439 -0.4801 -0.3462
  424TMC3    C2 6322   2.457   4.149   0.822  0.2114 -0.4013 -0.3349
  424TMC3    C3 6323   2.475   4.202   0.949  0.2240 -0.1047 -0.7044
  424TMC3    C4 6324   2.371   4.359   0.761  0.4913  1.2830 -0.2380
  424TMC3    C5 6325   2.385   4.404   0.888 -0.3392 -0.4732 -0.6429
  424TMC3    C6 6326   2.439   4.326   0.993 -0.1165  0.4950  0.0466
  424TMC3     C 6327   2.403   4.188   0.592 -0.4477 -0.2646 -0.7117
  424TMC3     O 6328   2.363   4.275   0.520  0.0948 -0.2703  0.3385
  424TMC3     H 6329   2.478   4.044   0.805  0.7119 -0.2650 -0.5661
  424TMC3    H1 6330   2.297   4.410   0.699  0.6412  1.2472 -0.4462
  424TMC3    H2 6331   2.465   4.369   1.089  1.4489  0.0525 -0.1934
  424TMC3    C7 6332   2.375   4.555   0.904  0.4390 -0.5257  0.8621
  424TMC3    C8 6333   2.501   4.113   1.057 -0.7389  0.5351  0.0200
  424TMC3    O1 6334   2.368   4.630   0.810 -0.1122 -0.0707 -0.4004
  424TMC3    O2 6335   2.485   4.159   1.167  0.4844  0.0833 -0.5430
  425MPD2     C 6336   1.358   3.045  17.265 -0.4124 -0.4630  0.0116
  425MPD2    C1 6337   1.271   2.965  17.192  0.4649  0.9201 -0.0282
  425MPD2    C2 6338   1.138   3.012  17.171 -0.5523  1.0468 -0.2677
  425MPD2    C3 6339   1.100   3.141  17.201 -0.3012 -0.0443  0.2631
  425MPD2    C4 6340   1.188   3.221  17.270  0.0756 -0.4279  0.0790
  425MPD2    C5 6341   1.311   3.173  17.299  0.5992  0.3760  0.0226
  425MPD2     H 6342   1.073   2.945  17.116 -1.4738  2.2399 -0.6219
  425MPD2    H1 6343   1.169   3.327  17.284 -1.3363 -0.2462 -3.3020
  425MPD2    H2 6344   1.463   3.026  17.284 -0.6459  0.5541  2.3757
  425MPD2    H3 6345   1.378   3.243  17.348 -0.2658  0.3085  1.2769
  425MPD2     N 6346   0.968   3.187  17.167 -0.3912  0.2589  0.4213
  425MPD2    H5 6347   0.911   3.128  17.107  1.1801 -0.9791  0.1473
  425MPD2    N1 6348   1.325   2.847  17.122 -0.2743 -0.4703  0.0409
  425MPD2    H7 6349   1.424   2.828  17.136 -0.1775 -0.7650 -1.0011
  426TMC3    C1 6350   1.334   2.665  16.969 -0.3722 -0.1720  0.2954
  426TMC3    C2 6351   1.275   2.607  16.856  0.6743 -0.3133  0.1836
  426TMC3    C3 6352   1.362   2.542  16.773  0.0664 -0.1741 -0.0578
  426TMC3    C4 6353   1.465   2.651  16.998 -0.1472 -0.1591 -1.2610
  426TMC3    C5 6354   1.542   2.587  16.905 -0.1537 -0.1953 -0.2362
  426TMC3    C6 6355   1.495   2.521  16.795  0.1897  0.2360  0.3212
  426TMC3     C 6356   1.255   2.760  17.040  0.2054  0.4407  0.5761
  426TMC3     O 6357   1.140   2.769  17.009 -0.3916  0.0875  0.0818
  426TMC3     H 6358   1.170   2.614  16.831  1.1174 -0.1347 -1.5808
  426TMC3    H1 6359   1.507   2.696  17.087  0.9976  0.1186 -1.9415
  426TMC3    H2 6360   1.549   2.451  16.732  1.2832 -0.6990  2.2957
  426TMC3    C7 6361   1.665   2.517  16.952 -0.6355 -0.2779  0.3460
  426TMC3    C8 6362   1.307   2.485  16.650  0.0490 -0.8290  0.5380
  426TMC3    O1 6363   1.680   2.403  16.907  0.5243 -0.3604  0.7979
  426TMC3    O2 6364   1.194   2.437  16.651  0.3685  0.2918 -0.5607
  427MPD2     C 6365   4.552   4.634  14.817  0.2602  0.8879  0.1119
  427MPD2    C1 6366   4.537   4.666  14.953  0.1522  0.2183  0.3197
  427MPD2    C2 6367   4.430   0.019  14.991 -0.2231  0.3429 -0.0319
  427MPD2    C3 6368   4.329   0.061  14.903  0.3061  0.0166  0.0031
  427MPD2    C4 6369   4.340   0.033  14.772  0.3922  0.5665 -0.0073
  427MPD2    C5 6370   4.457   4.696  14.728  0.7612  0.4123 -0.2856
  427MPD2     H 6371   4.411   0.045  15.094  2.7000  1.6156  0.1765
  427MPD2    H1 6372   4.265   0.060  14.699  0.6948 -5.7160 -2.6229
  427MPD2    H2 6373   4.627   4.575  14.767 -0.3495 -0.7051  1.0763
  427MPD2    H3 6374   4.472   4.677  14.623 -1.6993  2.8665 -1.0500
  427MPD2     N 6375   4.211   0.132  14.942  0.4060  0.4285 -0.1646
  427MPD2    H5 6376   4.145   0.158  14.869 -0.4685  0.4698  0.6288
  427MPD2    N1 6377   4.624   4.609  15.046 -0.5835 -0.7604  0.5563
  427MPD2    H7 6378   4.702   4.563  15.003  0.0018 -0.0066  0.8030
  428TMC3    C1 6379   4.695   4.513  15.238  0.3971 -0.0740 -0.7252
  428TMC3    C2 6380   4.664   4.402  15.307 -0.2700 -0.4245  0.3101
  428TMC3    C3 6381   0.033   4.356  15.390 -0.2467 -0.2279  0.1481
  428TMC3    C4 6382   0.096   4.573  15.241  1.5592  0.1928 -0.5429
  428TMC3    C5 6383   0.184   4.516  15.325  0.0044 -0.4577 -0.1393
  428TMC3    C6 6384   0.155   4.412  15.399  0.5356  1.2647  0.0033
  428TMC3     C 6385   4.591   4.579  15.174  0.6103 -0.1156  0.4573
  428TMC3     O 6386   4.493   4.613  15.237 -0.7018 -0.1544  0.1531
  428TMC3     H 6387   4.563   4.363  15.298  0.0139 -0.8105 -1.1981
  428TMC3    H1 6388   0.102   4.672  15.198  1.0769  0.8579  0.9258
  428TMC3    H2 6389   0.235   4.372  15.460 -0.8454  0.0940  1.0664
  428TMC3    C7 6390   0.303   4.591  15.357  0.0748 -0.2360  0.1873
  428TMC3    C8 6391   4.718   4.252  15.487  0.1129  0.7006 -0.1568
  428TMC3    O1 6392   0.338   4.596  15.474 -0.2791 -0.5633  1.0607
  428TMC3    O2 6393   4.668   4.147  15.442 -0.0020 -0.0845  0.2504
  429MPD2     C 6394   1.196   0.475  17.599 -0.4744  0.6309  0.0289
  429MPD2    C1 6395   1.187   0.398  17.487  0.4950  0.9013  0.7109
  429MPD2    C2 6396   1.149   0.449  17.366 -0.5899 -0.0021 -0.1290
  429MPD2    C3 6397   1.131   0.584  17.353 -0.1850 -0.3272  0.6003
  429MPD2    C4 6398   1.132   0.666  17.468  0.2395 -0.1979 -0.3474
  429MPD2    C5 6399   1.150   0.608  17.594  0.8452  0.1556  0.4487
  429MPD2     H 6400   1.140   0.380  17.283  0.8518 -0.4974  0.1197
  429MPD2    H1 6401   1.114   0.773  17.468  0.2719 -0.1855  0.6083
  429MPD2    H2 6402   1.223   0.444   0.005  0.8448 -0.8172 -0.7812
  429MPD2    H3 6403   1.144   0.663  17.687 -1.6205  0.5181  0.0576
  429MPD2     N 6404   1.127   0.632  17.227 -0.1032  0.3016 -0.5241
  429MPD2    H5 6405   1.137   0.563  17.153 -0.6271 -0.5245  0.1801
  429MPD2    N1 6406   1.218   0.260  17.492 -0.1995 -0.2484  0.0970
  429MPD2    H7 6407   1.198   0.211  17.405  1.2971 -4.8243  2.3545
  430TMC3    C1 6408   1.114   0.781  17.048 -0.1656 -0.5109 -0.1593
  430TMC3    C2 6409   1.016   0.849  16.981  0.3706  0.0463  0.5769
  430TMC3    C3 6410   1.010   0.831  16.841  0.3807 -0.0173  0.5396
  430TMC3    C4 6411   1.202   0.703  16.977  0.7193 -0.1030  0.0315
  430TMC3    C5 6412   1.181   0.686  16.845 -0.5918  0.3083  0.3697
  430TMC3    C6 6413   1.081   0.746  16.775 -0.0647 -0.2273  0.4584
  430TMC3     C 6414   1.099   0.763  17.190  0.2714 -0.3167 -0.0617
  430TMC3     O 6415   1.056   0.849  17.267  0.3944 -0.6068 -0.1746
  430TMC3     H 6416   0.934   0.905  17.024  1.3825  0.3779  2.0611
  430TMC3    H1 6417   1.289   0.664  17.029  0.2187  1.6425  2.1913
  430TMC3    H2 6418   1.087   0.729  16.668  1.3053  2.1720  0.1534
  430TMC3    C7 6419   1.254   0.582  16.774  0.6287 -1.0139 -0.1617
  430TMC3    C8 6420   0.919   0.910  16.755  0.4178 -0.1010  0.2781
  430TMC3    O1 6421   1.208   0.531  16.673  0.9208 -0.3295 -0.4643
  430TMC3    O2 6422   0.874   1.006  16.814  0.0049 -0.0097 -0.7650
  431MPD2     C 6423   1.717   0.477  12.576  0.1173  0.2698 -0.9975
  431MPD2    C1 6424   1.818   0.447  12.485 -0.3307  0.1788  0.0034
  431MPD2    C2 6425   1.837   0.316  12.445  0.4389  0.1616  0.0573
  431MPD2    C3 6426   1.767   0.216  12.513 -0.7298  0.2919  0.1057
  431MPD2    C4 6427   1.671   0.244  12.609 -1.0625 -0.1650 -0.3682
  431MPD2    C5 6428   1.647   0.376  12.634 -0.0841  0.6938  0.1343
  431MPD2     H 6429   1.914   0.288  12.375  0.9689  2.4861 -0.3028
  431MPD2    H1 6430   1.610   0.178  12.669  0.4092 -0.4849  0.7714
  431MPD2    H2 6431   1.693   0.580  12.599  1.8599  0.4557 -0.0607
  431MPD2    H3 6432   1.570   0.406  12.704 -2.4448 -0.9198 -1.7841
  431MPD2     N 6433   1.795   0.077  12.497 -0.5312  0.2889  0.1476
  431MPD2    H5 6434   1.749   0.018  12.566 -1.4712  1.6146  0.6352
  431MPD2    N1 6435   1.898   0.545  12.426 -0.2254 -0.2982  0.0359
  431MPD2    H7 6436   1.980   0.497  12.390  0.3313  0.0036  0.8819
  432TMC3    C1 6437   1.895   4.591  12.418 -0.2145 -0.3283  0.0816
  432TMC3    C2 6438   1.926   4.517  12.309 -0.4422  0.2318 -0.7229
  432TMC3    C3 6439   2.000   4.407  12.340  0.2339 -0.4807  0.2214
  432TMC3    C4 6440   1.932   4.568  12.551  0.5381  0.1994 -0.3993
  432TMC3    C5 6441   1.988   4.447  12.581  0.2527  0.6994 -0.1722
  432TMC3    C6 6442   2.005   4.365  12.470  0.2077 -0.3152  0.4269
  432TMC3     C 6443   1.878   0.015  12.400 -0.6783 -0.7168  0.4435
  432TMC3     O 6444   1.901   0.065  12.289  0.5374 -0.1979 -0.2515
  432TMC3     H 6445   1.910   4.548  12.206  0.9866 -1.2813 -1.3890
  432TMC3    H1 6446   1.932   4.649  12.623  2.1290  0.2398 -0.4443
  432TMC3    H2 6447   2.056   4.270  12.483  1.9958  0.7883  1.5194
  432TMC3    C7 6448   2.027   4.401  12.710  0.7576 -0.0458  0.2528
  432TMC3    C8 6449   2.079   4.328  12.242 -0.4375 -0.0511  0.2417
  432TMC3    O1 6450   2.111   4.314  12.723 -0.0580 -0.3402 -0.0714
  432TMC3    O2 6451   2.120   4.221  12.286  0.3566  0.4149 -0.2142
  433MPD2     C 6452   0.717   4.384  10.850 -0.0259  1.1244  0.1025
  433MPD2    C1 6453   0.645   4.292  10.926  0.3016 -0.3800  0.0261
  433MPD2    C2 6454   0.611   4.321  11.056  0.9663  0.3010  0.2291
  433MPD2    C3 6455   0.646   4.446  11.106  0.5065 -0.4760 -0.1066
  433MPD2    C4 6456   0.724   4.534  11.032 -0.9853 -0.0999 -0.4157
  433MPD2    C5 6457   0.741   4.508  10.897  0.1324  1.1308  0.7035
  433MPD2     H 6458   0.576   4.241  11.121 -2.7315  0.2903 -1.8086
  433MPD2    H1 6459   0.757   4.627  11.076 -2.7660  0.1409  0.4205
  433MPD2    H2 6460   0.752   4.366  10.749 -1.6921 -0.0101 -0.2691
  433MPD2    H3 6461   0.797   4.578  10.835 -1.3386  2.6461  1.1080
  433MPD2     N 6462   0.623   4.473  11.246  0.9795  0.5797  0.2175
  433MPD2    H5 6463   0.581   4.399  11.301 -0.9185  1.4033 -0.1308
  433MPD2    N1 6464   0.615   4.172  10.864  0.4642  0.1065 -0.5426
  433MPD2    H7 6465   0.655   4.159  10.772 -0.9995 -0.1401 -1.1407
  434TMC3    C1 6466   0.531   3.952  10.821 -0.4570 -0.1119 -0.2493
  434TMC3    C2 6467   0.483   3.835  10.874  0.4960  0.0336  0.0363
  434TMC3    C3 6468   0.524   3.707  10.829  0.6517  0.5949 -0.3640
  434TMC3    C4 6469   0.609   3.944  10.712 -0.8092  0.4493 -0.7723
  434TMC3    C5 6470   0.645   3.823  10.669 -0.6760 -0.6604 -0.7044
  434TMC3    C6 6471   0.610   3.705  10.724  0.7338 -0.6050  0.0166
  434TMC3     C 6472   0.537   4.068  10.913 -0.4280  0.4441 -0.3329
  434TMC3     O 6473   0.472   4.061  11.020 -0.1688 -0.2136  0.0040
  434TMC3     H 6474   0.420   3.847  10.961  1.0527 -3.0716  0.8716
  434TMC3    H1 6475   0.636   4.033  10.657  3.1018 -1.8539 -2.5721
  434TMC3    H2 6476   0.660   3.611  10.701 -1.5174 -2.1473  1.4065
  434TMC3    C7 6477   0.679   3.828  10.532 -0.1472  0.1501  0.1390
  434TMC3    C8 6478   0.573   3.632  10.937  0.1164  0.1109  0.4059
  434TMC3    O1 6479   0.707   3.927  10.473 -0.0262 -0.2099  0.1866
  434TMC3    O2 6480   0.578   3.695  11.041  0.1933 -0.3002 -0.7108
  435MPD2     C 6481   2.944   3.510  15.336  0.3330  0.2824  0.5830
  435MPD2    C1 6482   2.900   3.496  15.464 -0.4796 -0.3604 -0.4069
  435MPD2    C2 6483   2.983   3.429  15.551  0.2157  0.0371  0.2067
  435MPD2    C3 6484   3.099   3.363  15.517 -0.1018  0.3047  0.1133
  435MPD2    C4 6485   3.150   3.401  15.387  0.3671 -0.2053 -0.0335
  435MPD2    C5 6486   3.067   3.467  15.300  0.3223 -0.0141 -0.1700
  435MPD2     H 6487   2.949   3.416  15.653  2.0001  4.0033  1.3006
  435MPD2    H1 6488   3.248   3.377  15.347  0.1067 -0.6784 -0.3778
  435MPD2    H2 6489   2.898   3.572  15.260  1.3330 -0.2770 -0.4739
  435MPD2    H3 6490   3.092   3.465  15.195 -1.3364 -0.8264 -0.5355
  435MPD2     N 6491   3.168   3.281  15.601 -0.4077  0.0445  0.3514
  435MPD2    H5 6492   3.119   3.252  15.685 -1.3574  1.2832  0.2143
  435MPD2    N1 6493   2.775   3.541  15.512  0.0466 -0.0863  0.1944
  435MPD2    H7 6494   2.753   3.524  15.610  1.1308  1.1107  0.6404
  436TMC3    C1 6495   2.564   3.824  15.707  0.5440  0.4434 -0.1333
  436TMC3    C2 6496   2.638   3.739  15.637 -0.0451  0.4714 -0.0751
  436TMC3    C3 6497   2.599   3.694  15.514  0.4981 -0.5309 -0.5178
  436TMC3    C4 6498   2.464   3.894  15.647  0.6165 -0.0990 -0.2972
  436TMC3    C5 6499   2.438   3.861  15.517 -0.3893 -0.1434  0.9297
  436TMC3    C6 6500   2.495   3.753  15.457  0.4639  0.7971  0.5297
  436TMC3     C 6501   2.607   3.861  15.839  0.5212  1.4900 -0.3720
  436TMC3     O 6502   2.729   3.856  15.856 -0.0715  0.1740  0.5011
  436TMC3     H 6503   2.719   3.696  15.695 -0.4337  1.2484  1.0630
  436TMC3    H1 6504   2.405   3.971  15.695 -1.5662 -1.9084 -0.1048
  436TMC3    H2 6505   2.450   3.706  15.370  1.5726  0.3619  0.1847
  436TMC3    C7 6506   2.316   3.913  15.463  0.1179 -0.5904  0.0629
  436TMC3    C8 6507   2.682   3.606  15.435  0.6325 -0.9159 -0.2264
  436TMC3    O1 6508   2.236   3.934  15.554 -0.1945 -0.0528  0.0726
  436TMC3    O2 6509   2.665   3.606  15.313 -0.1012 -0.3566 -0.3699
  437TMC3    C1 6510   1.410   1.720  12.373  0.4243 -0.1137  0.4713
  437TMC3    C2 6511   1.372   1.799  12.277  0.2975 -0.3129 -0.2757
  437TMC3    C3 6512   1.456   1.825  12.177  0.1546  0.2630 -0.2507
  437TMC3    C4 6513   1.528   1.662  12.375  0.0286 -0.5190  0.5116
  437TMC3    C5 6514   1.622   1.703  12.282  0.1922  0.2251 -0.1559
  437TMC3    C6 6515   1.586   1.790  12.184  0.5626  0.0807 -0.5780
  437TMC3     C 6516   1.319   1.682  12.479 -0.3140 -0.6114  0.2641
  437TMC3     O 6517   1.361   1.627  12.576  0.0195 -0.3060 -0.1245
  437TMC3     H 6518   1.280   1.856  12.264  0.0342 -0.3184  1.6544
  437TMC3    H1 6519   1.555   1.601  12.460 -2.3803 -0.8255  1.0624
  437TMC3    H2 6520   1.641   1.814  12.094 -0.6079 -0.1224 -1.3429
  437TMC3    C7 6521   1.720   1.605  12.247 -0.5835  0.8532 -0.1521
  437TMC3    C8 6522   1.430   1.932  12.074  0.6306  0.6050 -0.0113
  437TMC3    O1 6523   1.772   1.610  12.135 -0.0714 -0.7592 -0.0713
  437TMC3    O2 6524   1.528   2.006  12.056  0.0022  0.1038 -0.7305
  438MPD2     C 6525   3.442   1.587  16.271  0.0545  0.7639 -1.0596
  438MPD2    C1 6526   3.533   1.534  16.349  0.1976  0.7108 -0.8692
  438MPD2    C2 6527   3.506   1.467  16.467  0.8597  0.6421 -0.6530
  438MPD2    C3 6528   3.378   1.463  16.512  0.4264 -0.0862  0.2216
  438MPD2    C4 6529   3.282   1.527  16.444  0.0588 -0.1624 -0.0889
  438MPD2    C5 6530   3.313   1.587  16.320 -0.0282 -0.1856  0.2914
  438MPD2     H 6531   3.589   1.423  16.520  0.2703 -0.8333 -0.9356
  438MPD2    H1 6532   3.179   1.528  16.479 -0.9044  1.2514 -2.9794
  438MPD2    H2 6533   3.458   1.642  16.179  3.2957  1.5916  0.0070
  438MPD2    H3 6534   3.236   1.637  16.262  1.2685 -0.7835 -1.9401
  438MPD2     N 6535   3.341   1.391  16.630  0.2025 -0.5601  0.5245
  438MPD2    H5 6536   3.244   1.388  16.660 -0.6003  0.3600 -2.0101
  438MPD2    N1 6537   3.671   1.550  16.324  0.6446 -0.6890  0.1873
  438MPD2    H7 6538   3.739   1.519  16.393 -0.9774 -3.2709  0.6465
  439TMC3    C1 6539   3.867   1.639  16.251 -0.1086  0.1162 -0.2347
  439TMC3    C2 6540   3.946   1.595  16.153  0.0837  0.8663  0.1297
  439TMC3    C3 6541   4.071   1.568  16.180  0.5177  0.2111  0.0536
  439TMC3    C4 6542   3.913   1.646  16.386  0.1584  0.1972  0.4167
  439TMC3    C5 6543   4.048   1.618  16.410 -0.4979 -0.2366 -0.0198
  439TMC3    C6 6544   4.125   1.589  16.301 -0.0920  0.0587  0.2410
  439TMC3     C 6545   3.726   1.623  16.223 -0.5641  0.5865  0.3664
  439TMC3     O 6546   3.684   1.670  16.121 -0.1110  0.2850 -0.6537
  439TMC3     H 6547   3.899   1.569  16.059 -0.4069  0.9223  0.3582
  439TMC3    H1 6548   3.856   1.694  16.464  1.2381  0.2566  1.1783
  439TMC3    H2 6549   4.229   1.561  16.306 -0.0817  0.2710  1.2748
  439TMC3    C7 6550   4.107   1.634  16.540 -0.2537 -0.2279  0.2834
  439TMC3    C8 6551   4.127   1.448  16.129 -0.0324 -0.8774  0.1991
  439TMC3    O1 6552   4.227   1.643  16.540 -0.0034 -0.6684 -0.4575
  439TMC3    O2 6553   4.166   1.366  16.216 -0.5925  0.4872 -0.1234
  440MPD2     C 6554   2.544   1.617  14.874 -0.0591  0.4025  0.0199
  440MPD2    C1 6555   2.560   1.704  14.984  0.3891  0.1618  0.3978
  440MPD2    C2 6556   2.653   1.662  15.076 -0.1889  0.3009 -0.0954
  440MPD2    C3 6557   2.737   1.551  15.051 -0.0043 -0.1241 -0.5364
  440MPD2    C4 6558   2.714   1.469  14.942  0.3269 -0.8129 -0.1653
  440MPD2    C5 6559   2.611   1.499  14.860 -0.4728 -0.0248 -0.4593
  440MPD2     H 6560   2.670   1.707  15.173  0.7358 -2.6642  1.0978
  440MPD2    H1 6561   2.767   1.375  14.937 -1.4641 -1.7697 -1.0701
  440MPD2    H2 6562   2.471   1.640  14.798 -1.3376  1.5950  1.6058
  440MPD2    H3 6563   2.585   1.436  14.775  2.3997 -0.3364 -1.1312
  440MPD2     N 6564   2.841   1.507  15.139  0.3489  0.2417 -0.4580
  440MPD2    H5 6565   2.880   1.415  15.120 -1.7950 -0.9694  0.9963
  440MPD2    N1 6566   2.493   1.827  15.007  0.0019 -0.5534 -0.0078
  440MPD2    H7 6567   2.517   1.881  15.090  1.1370 -0.9826 -0.0583
  441TMC3    C1 6568   2.998   1.536  15.317  0.1118 -0.1913 -0.0441
  441TMC3    C2 6569   3.075   1.632  15.372  0.2729  0.5957  0.4783
  441TMC3    C3 6570   3.124   1.603  15.500 -0.0835 -0.0190 -0.1664
  441TMC3    C4 6571   2.955   1.425  15.389  0.0151  0.3283 -0.5212
  441TMC3    C5 6572   2.993   1.411  15.519 -0.2676  0.2135 -0.4545
  441TMC3    C6 6573   3.082   1.498  15.575  0.5152  0.7309  0.5803
  441TMC3     C 6574   2.907   1.592  15.222  0.0663  0.2578 -0.5291
  441TMC3     O 6575   2.907   1.713  15.210 -0.1245 -0.4674  0.7738
  441TMC3     H 6576   3.108   1.720  15.318  3.1886  0.7834  2.5419
  441TMC3    H1 6577   2.886   1.350  15.351 -0.1634  0.7005 -0.9305
  441TMC3    H2 6578   3.112   1.486  15.678  4.2234 -0.9850 -0.7100
  441TMC3    C7 6579   2.886   1.366  15.600  0.2487 -1.1231 -0.5411
  441TMC3    C8 6580   3.148   1.710  15.595 -0.4660 -0.3151 -0.8883
  441TMC3    O1 6581   2.776   1.354  15.550  0.3243  0.0083  0.1701
  441TMC3    O2 6582   3.232   1.698  15.684 -0.3250 -0.6242  0.2090
  442MPD2     C 6583   1.096   2.544  16.265  0.1369  0.0203  0.1883
  442MPD2    C1 6584   1.002   2.473  16.337 -0.0529  0.3741  0.2867
  442MPD2    C2 6585   0.936   2.364  16.278 -0.1638 -0.3569  0.4295
  442MPD2    C3 6586   0.960   2.319  16.149  0.6237  0.4228 -0.1169
  442MPD2    C4 6587   1.050   2.396  16.077  0.9988 -0.0903  0.6573
  442MPD2    C5 6588   1.119   2.502  16.131  0.7428 -0.2242  0.2096
  442MPD2     H 6589   0.861   2.317  16.341 -1.2353  0.6213 -0.1186
  442MPD2    H1 6590   1.054   2.364  15.974 -3.5553 -0.6629  0.6520
  442MPD2    H2 6591   1.159   2.624  16.301  2.1776 -1.0925 -0.9011
  442MPD2    H3 6592   1.193   2.554  16.072  1.2385 -1.5327 -0.3282
  442MPD2     N 6593   0.887   2.215  16.084 -0.2518  0.4989  0.2681
  442MPD2    H5 6594   0.921   2.182  15.994  2.1512 -0.3375  1.4997
  442MPD2    N1 6595   0.971   2.523  16.466 -0.3753 -0.2384  0.2161
  442MPD2    H7 6596   0.896   2.473  16.513  1.0290 -1.9972  0.5981
  443TMC3    C1 6597   0.957   2.656  16.661  0.3484 -0.5694 -0.5001
  443TMC3    C2 6598   0.940   2.783  16.705 -0.0398 -0.2241 -0.1578
  443TMC3    C3 6599   0.841   2.823  16.787 -0.1275 -0.9335  0.4742
  443TMC3    C4 6600   0.872   2.567  16.712  0.5659 -0.1351 -0.1333
  443TMC3    C5 6601   0.792   2.596  16.817  0.2371  0.0077  0.2924
  443TMC3    C6 6602   0.777   2.726  16.864  0.0967  1.1273 -0.1853
  443TMC3     C 6603   1.016   2.635  16.531  0.0853  0.1460  0.0979
  443TMC3     O 6604   1.073   2.734  16.487  0.3178  0.3765 -0.0601
  443TMC3     H 6605   1.002   2.861  16.663 -2.7686  1.4775 -0.9896
  443TMC3    H1 6606   0.889   2.460  16.708 -1.0631 -0.3921 -0.1488
  443TMC3    H2 6607   0.719   2.758  16.949  0.2366  0.1849  0.2676
  443TMC3    C7 6608   0.675   2.508  16.842 -0.9026  0.5930  0.0452
  443TMC3    C8 6609   0.835   2.958  16.844 -0.1041  0.2301  0.0998
  443TMC3    O1 6610   0.676   2.389  16.810  0.0599  0.4914 -0.3709
  443TMC3    O2 6611   0.866   2.980  16.956  0.1380  0.1456  0.1404
  444MPD2     C 6612   1.006   2.415  17.168 -0.4833 -0.2827  0.2758
  444MPD2    C1 6613   0.917   2.338  17.098  0.0290  0.2043 -0.5138
  444MPD2    C2 6614   0.959   2.262  16.997 -0.6471  0.9604 -0.4368
  444MPD2    C3 6615   1.095   2.252  16.960 -0.1157  0.3502 -0.6164
  444MPD2    C4 6616   1.183   2.331  17.027 -0.0020  0.0201  0.0440
  444MPD2    C5 6617   1.136   2.409  17.140  0.3353 -0.3900 -0.2844
  444MPD2     H 6618   0.881   2.210  16.944  1.3246 -2.2910 -0.1489
  444MPD2    H1 6619   1.287   2.337  16.997  0.7712 -0.6576  2.6258
  444MPD2    H2 6620   0.978   2.491  17.240  0.7946 -0.6000  1.0997
  444MPD2    H3 6621   1.204   2.482  17.183  2.2146 -2.5007  0.3804
  444MPD2     N 6622   1.120   2.163  16.849 -0.1969  0.2404  0.3781
  444MPD2    H5 6623   1.039   2.114  16.814  0.6320 -0.8079 -0.0499
  444MPD2    N1 6624   0.786   2.324  17.138  0.1119 -0.3930 -0.4523
  444MPD2    H7 6625   0.729   2.265  17.078 -0.5912  0.6740 -0.8472
  445TMC3    C1 6626   1.242   2.014  16.730 -0.7071  0.5042 -0.4212
  445TMC3    C2 6627   1.118   1.961  16.706 -0.0236  0.1403 -0.5183
  445TMC3    C3 6628   1.118   1.824  16.689  0.1108 -0.3181 -0.6942
  445TMC3    C4 6629   1.355   1.939  16.746 -0.2987 -0.5496 -0.0643
  445TMC3    C5 6630   1.339   1.806  16.741  0.1429 -0.8620  0.2651
  445TMC3    C6 6631   1.226   1.748  16.707 -0.1549 -0.1576 -0.3185
  445TMC3     C 6632   1.247   2.138  16.800  0.0114 -0.2442  0.4189
  445TMC3     O 6633   1.353   2.191  16.830 -0.3049  0.2136 -0.1269
  445TMC3     H 6634   1.032   2.022  16.684 -0.1728 -0.2176 -0.9045
  445TMC3    H1 6635   1.448   1.985  16.780 -0.7053 -0.4694  0.9471
  445TMC3    H2 6636   1.220   1.643  16.683  1.4307  0.0228 -1.4944
  445TMC3    C7 6637   1.455   1.731  16.711 -0.4827  0.3438 -0.0270
  445TMC3    C8 6638   0.992   1.755  16.661 -0.3638  0.2168  0.4419
  445TMC3    O1 6639   1.556   1.785  16.669 -0.3350  0.1934 -0.5702
  445TMC3    O2 6640   0.989   1.634  16.673  0.0362 -0.6036 -0.7025
  446MPD2     C 6641   0.467   3.444  11.518 -0.3615 -0.3878 -0.3500
  446MPD2    C1 6642   0.439   3.445  11.382 -0.2869  0.1935  0.3868
  446MPD2    C2 6643   0.481   3.559  11.312  0.1455  0.5743  0.3702
  446MPD2    C3 6644   0.547   3.663  11.375  0.1744  0.0254  0.1599
  446MPD2    C4 6645   0.562   3.663  11.513 -0.6343 -0.4102  0.0168
  446MPD2    C5 6646   0.527   3.547  11.581 -0.0497  0.0786 -0.4962
  446MPD2     H 6647   0.473   3.550  11.204  0.2155 -2.9831  0.6699
  446MPD2    H1 6648   0.606   3.737  11.579  1.2333 -0.0038 -1.6813
  446MPD2    H2 6649   0.428   3.363  11.579  0.4800 -0.0948  0.5829
  446MPD2    H3 6650   0.530   3.544  11.689  2.0723  0.6842 -0.5387
  446MPD2     N 6651   0.607   3.761  11.295  0.5273  0.3424 -0.7683
  446MPD2    H5 6652   0.591   3.753  11.195 -4.1295  1.9750 -0.1583
  446MPD2    N1 6653   0.376   3.337  11.308 -0.2265 -0.2300 -0.1415
  446MPD2    H7 6654   0.343   3.366  11.217  2.8791  2.3367 -0.4444
  447TMC3    C1 6655   0.756   3.950  11.244 -0.0511 -0.2140  0.5332
  447TMC3    C2 6656   0.777   3.910  11.115  0.1542 -0.2154 -0.0129
  447TMC3    C3 6657   0.846   4.008  11.041 -0.0434  0.4351 -0.1846
  447TMC3    C4 6658   0.802   4.069  11.290 -0.2332  0.1649 -0.4266
  447TMC3    C5 6659   0.886   4.145  11.216 -0.3644  0.2741 -0.7385
  447TMC3    C6 6660   0.907   4.118  11.087  0.3192 -0.7715 -0.0811
  447TMC3     C 6661   0.698   3.858  11.340  0.2629  0.7818 -0.0393
  447TMC3     O 6662   0.726   3.884  11.460  0.7844  0.1323 -0.2090
  447TMC3     H 6663   0.748   3.808  11.089 -0.7537  1.1725 -4.4126
  447TMC3    H1 6664   0.783   4.080  11.397  0.6963  1.8190 -0.4364
  447TMC3    H2 6665   0.971   4.180  11.024 -1.0833  0.5749 -0.1625
  447TMC3    C7 6666   1.011   4.187  11.274 -1.0518 -0.2024 -0.6219
  447TMC3    C8 6667   0.898   3.974  10.907  0.1344  0.2326  0.5192
  447TMC3    O1 6668   1.110   4.185  11.200 -0.2233  0.3532  0.2309
  447TMC3    O2 6669   0.908   4.066  10.825  0.7600  0.3579  0.8138
  448TMC3    C1 6670   3.807   3.653  16.735 -0.4529  0.5298 -0.7489
  448TMC3    C2 6671   3.810   3.522  16.687  0.0136 -0.3670 -0.3886
  448TMC3    C3 6672   3.767   3.417  16.760 -0.0685 -0.4054 -0.5149
  448TMC3    C4 6673   3.766   3.675  16.869  0.0169 -0.6472 -0.5072
  448TMC3    C5 6674   3.719   3.565  16.941 -0.3479  0.3052 -0.2486
  448TMC3    C6 6675   3.713   3.437  16.885  0.0676 -0.6297  0.0280
  448TMC3     C 6676   3.818   3.760  16.645 -0.0772  0.8032  0.4224
  448TMC3     O 6677   3.814   3.727  16.528  0.7176  0.0914  0.5315
  448TMC3     H 6678   3.874   3.511  16.600  1.6211  2.1619  0.4580
  448TMC3    H1 6679   3.766   3.774  16.912  0.1546 -1.1449  0.6267
  448TMC3    H2 6680   3.671   3.357  16.944 -1.3301 -0.5741 -0.8972
  448TMC3    C7 6681   3.636   3.601  17.053  0.7670  0.1105  0.2900
  448TMC3    C8 6682   3.738   3.294  16.699  0.6008 -0.3194 -0.4148
  448TMC3    O1 6683   3.588   3.715  17.050 -0.1080 -0.6067  0.2528
  448TMC3    O2 6684   3.732   3.196  16.773  0.0211 -0.1461 -0.3780
  449MPD2     C 6685   0.835   2.209  14.235 -0.4714  0.0618  0.3227
  449MPD2    C1 6686   0.812   2.133  14.128 -0.7930  0.0461  0.3737
  449MPD2    C2 6687   0.794   1.994  14.148 -0.3342 -0.5174 -0.3494
  449MPD2    C3 6688   0.797   1.934  14.274 -0.4930 -0.7423  0.1140
  449MPD2    C4 6689   0.820   2.019  14.385  0.1826 -0.0269 -0.2982
  449MPD2    C5 6690   0.849   2.155  14.359 -0.4241 -0.1139 -0.0169
  449MPD2     H 6691   0.765   1.930  14.065  3.7085 -0.4399 -1.8033
  449MPD2    H1 6692   0.818   1.980  14.487 -3.4134 -1.0621 -0.7824
  449MPD2    H2 6693   0.842   2.316  14.222 -1.0975  0.0094 -0.4740
  449MPD2    H3 6694   0.870   2.220  14.442 -0.0366 -0.9325  0.5243
  449MPD2     N 6695   0.777   1.793  14.274  0.5093 -0.0139  0.4516
  449MPD2    H5 6696   0.777   1.745  14.185  0.9401  0.4450  0.2038
  449MPD2    N1 6697   0.774   2.175  14.003 -0.4023  0.5910 -0.7709
  449MPD2    H7 6698   0.734   2.106  13.940 -3.8969 -0.7851  3.0243
  450TMC3    C1 6699   0.700   2.301  13.827  0.3921 -0.7457 -0.6072
  450TMC3    C2 6700   0.767   2.335  13.716  0.0356 -0.4127  0.7391
  450TMC3    C3 6701   0.736   2.272  13.597 -0.4420 -0.3640 -0.0751
  450TMC3    C4 6702   0.603   2.205  13.813 -0.7923 -0.1109 -0.4979
  450TMC3    C5 6703   0.576   2.140  13.693 -0.1094  0.4465 -0.3573
  450TMC3    C6 6704   0.647   2.170  13.583 -0.5786 -0.3389  0.1653
  450TMC3     C 6705   0.767   2.301  13.959 -0.1199 -0.2593  0.5307
  450TMC3     O 6706   0.813   2.403  14.004  0.0084  0.2601 -0.4010
  450TMC3     H 6707   0.847   2.409  13.716  0.1928 -0.6038  2.7855
  450TMC3    H1 6708   0.541   2.179  13.897 -0.8498  1.5612 -0.0196
  450TMC3    H2 6709   0.639   2.112  13.493  0.5083 -0.7338  0.3248
  450TMC3    C7 6710   0.602   2.007  13.729  0.6034 -0.1464 -0.0140
  450TMC3    C8 6711   0.813   2.316  13.484 -0.1719  0.2722  0.3252
  450TMC3    O1 6712   0.671   1.991  13.825  0.2099 -0.1225  0.2177
  450TMC3    O2 6713   0.871   2.427  13.491  0.1325 -0.3280  0.7059
  451MPD2     C 6714   1.652   1.618   1.952  0.4028 -0.0199  0.3358
  451MPD2    C1 6715   1.639   1.616   1.814  0.4470  1.1162 -0.1030
  451MPD2    C2 6716   1.718   1.522   1.747  0.3773 -0.5191  0.2187
  451MPD2    C3 6717   1.799   1.433   1.808 -0.9435  0.1061 -1.0684
  451MPD2    C4 6718   1.812   1.433   1.945 -0.1182  0.4561  0.1433
  451MPD2    C5 6719   1.736   1.523   2.018  0.1805  0.6922 -0.5963
  451MPD2     H 6720   1.714   1.509   1.639  0.3127 -1.9585  0.3865
  451MPD2    H1 6721   1.884   1.365   1.990 -0.4502  1.3386  2.0019
  451MPD2    H2 6722   1.597   1.691   2.011  0.6843 -0.3328  0.9906
  451MPD2    H3 6723   1.756   1.538   2.123 -1.7134 -1.4717  0.0531
  451MPD2     N 6724   1.891   1.345   1.738 -0.4521 -0.1733 -0.3644
  451MPD2    H5 6725   1.969   1.307   1.791 -0.0916  0.4365 -0.4555
  451MPD2    N1 6726   1.559   1.717   1.747 -0.2842  0.4088 -0.2881
  451MPD2    H7 6727   1.491   1.763   1.806 -0.4876  0.0392 -0.2302
  452TMC3    C1 6728   2.014   1.253   1.564 -0.2477 -0.8422  0.1241
  452TMC3    C2 6729   2.128   1.267   1.643  0.7586 -0.1675  0.8462
  452TMC3    C3 6730   2.231   1.183   1.600  0.4738  0.1117  0.2663
  452TMC3    C4 6731   2.005   1.177   1.456 -0.4443  0.1700  0.0718
  452TMC3    C5 6732   2.101   1.086   1.437 -0.4036  0.3062 -0.2575
  452TMC3    C6 6733   2.223   1.094   1.501 -1.1782  0.7162  0.0274
  452TMC3     C 6734   1.894   1.321   1.605  0.4676 -0.1106 -0.6024
  452TMC3     O 6735   1.814   1.336   1.514 -0.3782 -0.0810  0.4187
  452TMC3     H 6736   2.140   1.333   1.728  0.7791  0.7911  0.1041
  452TMC3    H1 6737   1.909   1.164   1.408  0.4624 -1.7670 -1.1880
  452TMC3    H2 6738   2.302   1.024   1.476 -0.2842  1.4531  0.7445
  452TMC3    C7 6739   2.075   0.999   1.326  0.3641 -0.0710 -0.0233
  452TMC3    C8 6740   2.358   1.201   1.672  0.1427 -0.2560 -0.2458
  452TMC3    O1 6741   1.994   1.038   1.247 -0.0096  0.1887  0.0634
  452TMC3    O2 6742   2.432   1.103   1.685  0.5983 -0.0522 -0.3838
  453TMC3    C1 6743   2.978   2.515  11.933 -0.2383 -1.0338  0.3364
  453TMC3    C2 6744   2.860   2.478  11.992  0.3756  0.3952 -0.3108
  453TMC3    C3 6745   2.778   2.391  11.928 -0.0091  0.0909 -0.6492
  453TMC3    C4 6746   3.015   2.467  11.808 -0.2211 -1.1622 -0.1721
  453TMC3    C5 6747   2.925   2.394  11.743  0.1168  0.7482 -0.6760
  453TMC3    C6 6748   2.804   2.361  11.799 -0.1948 -0.3976  0.1123
  453TMC3     C 6749   3.056   2.629  11.980 -0.6094  0.4345  0.1017
  453TMC3     O 6750   3.139   2.674  11.905 -0.5880  0.3086  0.7135
  453TMC3     H 6751   2.821   2.514  12.086  3.4693 -2.6764  2.1639
  453TMC3    H1 6752   3.113   2.485  11.765 -0.4991 -0.3372 -0.4559
  453TMC3    H2 6753   2.740   2.300  11.735 -0.5024  0.8332 -0.7452
  453TMC3    C7 6754   2.951   2.352  11.603  1.1129  0.2345  0.8561
  453TMC3    C8 6755   2.692   2.304  12.008  0.6606 -0.4588 -0.5605
  453TMC3    O1 6756   2.908   2.243  11.574 -0.2377  0.2740 -0.1652
  453TMC3    O2 6757   2.653   2.349  12.115 -0.1746  0.9313 -0.3123
  454MPD2     C 6758   1.666   1.227  16.138  0.6275  0.5957 -0.5397
  454MPD2    C1 6759   1.655   1.349  16.077 -0.6107 -1.2787  1.0010
  454MPD2    C2 6760   1.596   1.450  16.152  0.4990 -0.4199  0.6606
  454MPD2    C3 6761   1.547   1.430  16.276 -0.2550  0.0587  0.1261
  454MPD2    C4 6762   1.570   1.312  16.339 -0.8042  0.0419  0.0196
  454MPD2    C5 6763   1.620   1.207  16.262  0.7077  0.1250 -0.1624
  454MPD2     H 6764   1.589   1.550  16.109  1.2987 -1.0236 -0.8713
  454MPD2    H1 6765   1.542   1.282  16.439 -1.2433 -0.4351 -0.2459
  454MPD2    H2 6766   1.700   1.135  16.092 -1.2409 -2.1478  3.5513
  454MPD2    H3 6767   1.627   1.115  16.319 -1.6042  0.6311  0.9246
  454MPD2     N 6768   1.464   1.524  16.349  0.0371  0.1390  0.3206
  454MPD2    H5 6769   1.411   1.488  16.427 -0.8603  0.0739 -0.3230
  454MPD2    N1 6770   1.667   1.365  15.936 -0.3429 -0.1474  0.9149
  454MPD2    H7 6771   1.638   1.446  15.882  0.3575 -0.5000  0.0160
  455TMC3    C1 6772   1.313   1.714  16.356 -1.0975  0.3430  0.2700
  455TMC3    C2 6773   1.311   1.846  16.357  0.3967  0.5432 -0.0491
  455TMC3    C3 6774   1.190   1.906  16.350 -0.5462  0.6758  0.2149
  455TMC3    C4 6775   1.198   1.635  16.346  0.0158 -0.2637 -0.0348
  455TMC3    C5 6776   1.080   1.698  16.352  0.1053  0.0647  0.2040
  455TMC3    C6 6777   1.074   1.832  16.351 -0.1539 -0.1447  1.0627
  455TMC3     C 6778   1.440   1.658  16.309 -0.8603  0.0442 -0.6173
  455TMC3     O 6779   1.517   1.726  16.242  0.3458  0.6260 -0.0609
  455TMC3     H 6780   1.399   1.907  16.373 -0.7456  2.3883 -0.7672
  455TMC3    H1 6781   1.205   1.528  16.327 -2.6649 -0.7672  1.7014
  455TMC3    H2 6782   0.976   1.879  16.352 -0.1057 -0.0574  1.9316
  455TMC3    C7 6783   0.972   1.634  16.285  0.2172 -0.1104 -1.0047
  455TMC3    C8 6784   1.189   2.047  16.368  0.0388 -0.9049  0.5722
  455TMC3    O1 6785   0.900   1.700  16.210 -0.2286  0.1379 -0.3512
  455TMC3    O2 6786   1.097   2.101  16.431 -0.7109 -0.7139  0.3130
  456MPD2     C 6787   3.837   1.965  16.004  0.0057  0.3607  0.1072
  456MPD2    C1 6788   3.960   2.003  16.044  0.4253 -0.2605  0.3145
  456MPD2    C2 6789   3.972   2.126  16.110 -0.5420  0.0670  0.2235
  456MPD2    C3 6790   3.862   2.194  16.150 -0.1208  0.6050  0.4082
  456MPD2    C4 6791   3.740   2.157  16.103 -0.4195 -0.3902  0.8377
  456MPD2    C5 6792   3.729   2.046  16.022  0.0157 -0.1207 -0.1843
  456MPD2     H 6793   4.074   2.155  16.131 -0.7063  1.6540 -1.1637
  456MPD2    H1 6794   3.652   2.213  16.133 -0.7859 -0.8732  0.6621
  456MPD2    H2 6795   3.828   1.867  15.958  0.7135  0.3340  0.0319
  456MPD2    H3 6796   3.635   1.999  15.995 -0.4865  1.4414 -1.1072
  456MPD2     N 6797   3.890   2.298  16.241 -0.3434 -0.0480  0.4459
  456MPD2    H5 6798   3.986   2.315  16.269  0.0836  0.4075 -1.3051
  456MPD2    N1 6799   4.067   1.916  16.022  0.2788  0.3342  0.4621
  456MPD2    H7 6800   4.050   1.833  15.965 -1.4200  0.5727  0.6155
  457TMC3    C1 6801   3.856   2.473  16.397 -0.6033  0.1551 -0.3904
  457TMC3    C2 6802   3.777   2.583  16.421  0.0705  0.2714  0.2270
  457TMC3    C3 6803   3.814   2.649  16.534 -0.1000  0.1279  1.0343
  457TMC3    C4 6804   3.970   2.432  16.464  0.2284  0.3563  0.0068
  457TMC3    C5 6805   4.003   2.513  16.569 -0.0274  0.4676  0.0723
  457TMC3    C6 6806   3.916   2.611  16.612  0.1680  0.2279 -0.0014
  457TMC3     C 6807   3.797   2.381  16.301 -0.0063 -0.0722 -0.5642
  457TMC3     O 6808   3.685   2.404  16.263  0.0063 -0.1274  0.1934
  457TMC3     H 6809   3.687   2.601  16.364 -0.6971  0.8910  1.6407
  457TMC3    H1 6810   4.032   2.346  16.444  1.0105  1.1027 -0.7487
  457TMC3    H2 6811   3.954   2.668  16.696  0.3610 -0.8418  0.6362
  457TMC3    C7 6812   4.117   2.482  16.652  0.1604  0.8382  1.4085
  457TMC3    C8 6813   3.755   2.777  16.554  0.3970  0.1313 -0.3974
  457TMC3    O1 6814   4.109   2.506  16.768 -0.0282 -0.2996  0.0910
  457TMC3    O2 6815   3.767   2.826  16.665 -0.5188  0.1436 -0.3364
  458MPD2     C 6816   2.064   1.251  12.363  0.6064  0.4955  0.5221
  458MPD2    C1 6817   2.050   1.337  12.472 -0.0899 -0.7823 -0.6813
  458MPD2    C2 6818   1.949   1.437  12.470 -0.1148  0.0871 -0.6537
  458MPD2    C3 6819   1.867   1.446  12.357  0.3806  0.1632 -0.0501
  458MPD2    C4 6820   1.878   1.353  12.255  0.0423 -0.7210  0.1413
  458MPD2    C5 6821   1.976   1.259  12.254 -0.3754 -0.1467 -0.2255
  458MPD2     H 6822   1.937   1.508  12.552  0.4156  0.4060 -0.8521
  458MPD2    H1 6823   1.812   1.362  12.170  1.2089 -0.7608 -0.7746
  458MPD2    H2 6824   2.137   1.171  12.358  1.1096  1.1253 -2.2430
  458MPD2    H3 6825   1.989   1.191  12.171  0.4267  0.0886 -0.2932
  458MPD2     N 6826   1.767   1.540  12.358  0.4857 -0.2110  0.1205
  458MPD2    H5 6827   1.737   1.575  12.448 -0.9728  3.9189 -1.9508
  458MPD2    N1 6828   2.150   1.329  12.570 -1.0197  0.1961 -0.6458
  458MPD2    H7 6829   2.220   1.256  12.560 -0.9924  0.3132 -1.3101
  459TMC3    C1 6830   2.258   1.387  12.779 -0.3520  0.3732 -0.5473
  459TMC3    C2 6831   2.369   1.453  12.727 -1.0040 -0.6686 -0.0829
  459TMC3    C3 6832   2.482   1.449  12.808  0.1943  0.4516 -0.1031
  459TMC3    C4 6833   2.253   1.332  12.910  0.6877  0.3104 -0.3149
  459TMC3    C5 6834   2.365   1.353  12.989 -0.3547  0.4733 -0.2389
  459TMC3    C6 6835   2.486   1.394  12.931 -0.3602 -0.3019  0.0320
  459TMC3     C 6836   2.138   1.386  12.698  0.1529 -0.4051 -0.0466
  459TMC3     O 6837   2.036   1.411  12.760  0.0492  0.3789  0.0339
  459TMC3     H 6838   2.354   1.491  12.627 -1.1921  2.5916  1.1825
  459TMC3    H1 6839   2.164   1.278  12.939  1.3675  1.1273  3.2788
  459TMC3    H2 6840   2.579   1.394  12.986 -0.3689  1.9695  0.0200
  459TMC3    C7 6841   2.363   1.268  13.112 -0.0065  0.9090 -0.5899
  459TMC3    C8 6842   2.601   1.515  12.750  0.1367  0.3209 -0.5854
  459TMC3    O1 6843   2.268   1.198  13.128  0.4169  0.6189 -0.3489
  459TMC3    O2 6844   2.712   1.504  12.808 -0.0432  0.3565  0.2100
  460MPD2     C 6845   1.008   3.644  10.827 -0.4721 -0.2719 -0.3345
  460MPD2    C1 6846   0.989   3.775  10.800 -0.2669 -0.0389  0.3184
  460MPD2    C2 6847   1.006   3.827  10.670 -0.4994 -0.0212  0.7384
  460MPD2    C3 6848   1.033   3.742  10.565 -0.2256 -0.4437  0.1872
  460MPD2    C4 6849   1.061   3.610  10.594  0.8939  0.1633 -0.0920
  460MPD2    C5 6850   1.053   3.565  10.725 -0.1273 -0.2409  0.6866
  460MPD2     H 6851   1.006   3.935  10.660  0.0522  0.0092  1.0605
  460MPD2    H1 6852   1.088   3.532  10.524 -0.7507 -1.0692  0.6431
  460MPD2    H2 6853   1.000   3.597  10.924  1.8195  0.8510  0.3856
  460MPD2    H3 6854   1.083   3.462  10.742 -0.5977 -0.5487 -0.3484
  460MPD2     N 6855   1.037   3.796  10.431  0.8248  0.3505 -0.4477
  460MPD2    H5 6856   0.998   3.889  10.421  1.5251  0.9739  2.6888
  460MPD2    N1 6857   0.941   3.842  10.912  0.4001 -0.2872  0.4502
  460MPD2    H7 6858   0.930   3.795  11.001  4.2046 -2.6499 -0.3100
  461TMC3    C1 6859   1.087   3.813  10.198  0.3809  0.1533 -0.6190
  461TMC3    C2 6860   1.174   3.769  10.101 -0.3139 -0.2122  0.3409
  461TMC3    C3 6861   1.164   3.819   9.980  0.5997  0.0198 -0.2364
  461TMC3    C4 6862   0.989   3.907  10.176 -0.2056 -0.1151  0.0796
  461TMC3    C5 6863   0.989   3.962  10.049 -0.2487  0.4586 -0.2124
  461TMC3    C6 6864   1.072   3.917   9.950  0.4488  0.4304 -0.1799
  461TMC3     C 6865   1.087   3.731  10.321 -0.2157 -0.4444 -0.1643
  461TMC3     O 6866   1.151   3.629  10.312  0.3539  0.6525  0.1466
  461TMC3     H 6867   1.251   3.697  10.128 -0.5715  0.3306  2.5738
  461TMC3    H1 6868   0.924   3.938  10.257  0.7461  1.9399  0.0837
  461TMC3    H2 6869   1.065   3.962   9.852  0.4307 -3.2518 -1.8958
  461TMC3    C7 6870   0.895   4.054  10.002  0.4690  0.3490 -0.1067
  461TMC3    C8 6871   1.229   3.749   9.862  1.0842 -0.1486  0.3760
  461TMC3    O1 6872   0.877   4.056   9.883  0.4321 -0.3596  0.4028
  461TMC3    O2 6873   1.244   3.808   9.760 -0.1448  0.0314  0.2744
  462TMC3    C1 6874   1.762   3.827   0.200  0.0518  0.2469  0.3614
  462TMC3    C2 6875   1.772   3.711   0.134 -0.3799  0.5841 -0.0342
  462TMC3    C3 6876   1.749   3.725  17.690  0.3987 -0.7335  0.3956
  462TMC3    C4 6877   1.727   3.949   0.146  0.0062  0.1541 -0.2162
  462TMC3    C5 6878   1.687   3.950   0.014 -0.0386 -0.5999 -0.3420
  462TMC3    C6 6879   1.710   3.843  17.627 -0.7582  0.0537 -0.7031
  462TMC3     C 6880   1.780   3.827   0.341 -0.2203  0.2340 -0.4752
  462TMC3     O 6881   1.808   3.930   0.395  0.0072 -0.0404  0.0061
  462TMC3     H 6882   1.840   3.634   0.169  0.7465  1.7362  0.3210
  462TMC3    H1 6883   1.705   4.029   0.216 -1.9379 -1.9619  1.6009
  462TMC3    H2 6884   1.659   3.843  17.532 -6.1084  0.6667  2.1770
  462TMC3    C7 6885   1.570   4.030  17.672  0.0124  0.1961 -0.0869
  462TMC3    C8 6886   1.725   3.598  17.615  0.7148  0.1576 -0.5328
  462TMC3    O1 6887   1.485   3.978  17.601  0.3753  0.6292  0.2960
  462TMC3    O2 6888   1.730   3.499  17.686  0.1072 -0.4140 -0.2194
  463MPD2     C 6889   1.766   3.976   1.892  0.0646  0.1107  0.4916
  463MPD2    C1 6890   1.866   4.020   1.807  0.4570  0.8984  0.0421
  463MPD2    C2 6891   1.989   4.055   1.859 -0.0074 -0.0644 -0.3157
  463MPD2    C3 6892   2.022   4.031   1.989 -0.2779  0.3826 -0.0983
  463MPD2    C4 6893   1.923   3.995   2.075 -0.5116  0.6741 -0.3515
  463MPD2    C5 6894   1.792   3.967   2.027 -0.2481 -0.0300  0.8886
  463MPD2     H 6895   2.062   4.096   1.790  1.4848 -2.5332 -0.2070
  463MPD2    H1 6896   1.942   3.981   2.181 -2.5982 -0.9650 -0.1844
  463MPD2    H2 6897   1.663   3.958   1.864  1.1493 -0.8394 -2.8777
  463MPD2    H3 6898   1.716   3.925   2.091  0.4632 -1.1526  0.9899
  463MPD2     N 6899   2.149   4.071   2.048 -0.1408  1.0729  0.0393
  463MPD2    H5 6900   2.152   4.062   2.149 -0.1058 -0.8646 -0.1378
  463MPD2    N1 6901   1.842   4.045   1.670  0.4530 -0.4305 -0.0634
  463MPD2    H7 6902   1.911   4.097   1.616  0.4323  0.2527  0.5791
  464TMC3    C1 6903   1.759   4.034   1.455 -0.1505  0.4424 -0.3456
  464TMC3    C2 6904   1.812   4.147   1.412  0.4134  0.2909 -0.2043
  464TMC3    C3 6905   1.792   4.193   1.286 -0.0376 -0.1605  0.4088
  464TMC3    C4 6906   1.687   3.957   1.369  0.0770  0.6916 -0.3830
  464TMC3    C5 6907   1.656   4.009   1.250 -0.1633 -0.4769  0.4825
  464TMC3    C6 6908   1.711   4.120   1.198  0.3746 -0.0347  0.3065
  464TMC3     C 6909   1.732   4.010   1.596  0.0566 -0.2907 -0.2446
  464TMC3     O 6910   1.640   3.940   1.636 -0.2818  0.1084  0.7438
  464TMC3     H 6911   1.852   4.224   1.478 -0.4174  1.2615 -0.8377
  464TMC3    H1 6912   1.627   3.876   1.409 -1.2527  0.9784 -1.7996
  464TMC3    H2 6913   1.686   4.157   1.099  1.1793  0.0899  0.1538
  464TMC3    C7 6914   1.571   3.932   1.151 -0.1459 -0.1745  0.5720
  464TMC3    C8 6915   1.861   4.305   1.229  0.1200 -0.9841 -0.4737
  464TMC3    O1 6916   1.503   3.999   1.079 -0.4594  0.7269 -0.5546
  464TMC3    O2 6917   1.855   4.306   1.108 -0.3396  0.3312  0.0734
  465MPD2     C 6918   3.603   1.901  16.465  0.0989  0.0274  0.3828
  465MPD2    C1 6919   3.487   1.856  16.516 -0.2777  0.3382  0.1733
  465MPD2    C2 6920   3.365   1.877  16.453  0.4917 -0.0038  0.1586
  465MPD2    C3 6921   3.357   1.941  16.333 -0.9195  0.2816  0.4589
  465MPD2    C4 6922   3.477   1.983  16.277 -0.8489  0.3493  0.4504
  465MPD2    C5 6923   3.595   1.954  16.339  0.2888  0.0974  0.1650
  465MPD2     H 6924   3.273   1.831  16.488  0.0526  0.7507 -0.0053
  465MPD2    H1 6925   3.492   2.038  16.184  1.0129  0.2590  0.6812
  465MPD2    H2 6926   3.701   1.892  16.511  0.7339  2.4624 -0.4698
  465MPD2    H3 6927   3.689   1.989  16.297 -0.4141  0.2693 -1.2847
  465MPD2     N 6928   3.230   1.966  16.277  0.3894  0.4612  0.0415
  465MPD2    H5 6929   3.150   1.931  16.329  1.2324  0.1233  1.1357
  465MPD2    N1 6930   3.484   1.785  16.637  0.0741 -0.5035  0.4399
  465MPD2    H7 6931   3.394   1.757  16.674 -0.6235  1.1486 -0.0117
  466TMC3    C1 6932   2.870   1.988  16.208  0.9825  0.2850  0.3122
  466TMC3    C2 6933   2.823   2.112  16.181 -0.4407  0.9794  0.1642
  466TMC3    C3 6934   2.906   2.202  16.123  0.5002 -0.0063  0.4412
  466TMC3    C4 6935   2.997   1.953  16.196 -0.3369  0.0330  0.1110
  466TMC3    C5 6936   3.071   2.041  16.126  0.2799  0.2581 -0.0058
  466TMC3    C6 6937   3.029   2.161  16.089 -0.1871 -0.7574  0.6110
  466TMC3     C 6938   2.805   1.930  16.320 -0.1447  0.2479  0.4456
  466TMC3     O 6939   2.877   1.895  16.409  0.2285  0.3504 -0.3534
  466TMC3     H 6940   2.727   2.153  16.210 -1.1908 -0.3799 -0.4101
  466TMC3    H1 6941   3.024   1.850  16.217  1.4058  1.2524  3.9043
  466TMC3    H2 6942   3.096   2.232  16.042 -2.1331  0.5695 -0.1312
  466TMC3    C7 6943   3.216   2.035  16.156  0.6567 -0.2280  0.0561
  466TMC3    C8 6944   2.861   2.339  16.088  1.0157 -0.7064  0.5238
  466TMC3    O1 6945   3.292   2.105  16.091  0.0745 -0.2802  0.1063
  466TMC3    O2 6946   2.873   2.388  15.975 -0.6550 -0.2875  0.2937
  467TMC3    C1 6947   4.010   0.528  13.891  0.8765  1.0675 -0.1173
  467TMC3    C2 6948   3.962   0.621  13.810  0.5026  0.2330 -0.8192
  467TMC3    C3 6949   3.836   0.616  13.756 -0.0646 -0.0679 -0.3112
  467TMC3    C4 6950   3.929   0.423  13.924 -0.2005  0.1502 -0.4386
  467TMC3    C5 6951   3.798   0.419  13.878  0.0451  0.2999 -0.2622
  467TMC3    C6 6952   3.747   0.510  13.786 -0.0611 -0.2313 -0.1384
  467TMC3     C 6953   4.153   0.512  13.888 -0.6020  0.1611 -0.3873
  467TMC3     O 6954   4.218   0.612  13.915 -0.0887  0.1027  0.5565
  467TMC3     H 6955   4.027   0.704  13.783  2.5358 -2.0946 -3.0035
  467TMC3    H1 6956   3.942   0.350  14.004 -1.2952  2.8572  2.2423
  467TMC3    H2 6957   3.643   0.506  13.756  0.1339 -1.9893 -0.6057
  467TMC3    C7 6958   3.712   0.313  13.918 -0.4417  0.2825 -0.7474
  467TMC3    C8 6959   3.803   0.729  13.667  0.3793  0.4410 -0.2098
  467TMC3    O1 6960   3.724   0.265  14.028 -0.6997  0.7644 -0.1286
  467TMC3    O2 6961   3.901   0.787  13.622  0.0281  0.1883 -0.0023
  468MPD2     C 6962   2.607   3.395  10.753 -0.1716  0.6433  0.4413
  468MPD2    C1 6963   2.736   3.384  10.799  0.2568 -0.6101 -0.1381
  468MPD2    C2 6964   2.793   3.263  10.793 -0.1334  0.0718 -0.2322
  468MPD2    C3 6965   2.720   3.150  10.753 -0.0428 -0.2041 -0.2639
  468MPD2    C4 6966   2.592   3.166  10.704 -0.4895  0.6115  0.1040
  468MPD2    C5 6967   2.540   3.288  10.709 -0.0642 -0.3527  0.1065
  468MPD2     H 6968   2.894   3.246  10.831  0.4648  1.9147 -0.9988
  468MPD2    H1 6969   2.531   3.085  10.666  0.6224 -0.8885  1.5231
  468MPD2    H2 6970   2.561   3.492  10.737  1.7828  1.0867 -2.6288
  468MPD2    H3 6971   2.443   3.308  10.665  0.0138  0.1373  0.1526
  468MPD2     N 6972   2.757   3.017  10.760 -0.3561 -0.0768  0.1908
  468MPD2    H5 6973   2.686   2.950  10.735 -0.9860  1.1123 -1.2255
  468MPD2    N1 6974   2.812   3.486  10.856  0.1226 -0.2757  0.1191
  468MPD2    H7 6975   2.905   3.455  10.883 -0.9207 -0.6666  3.3258
  469TMC3    C1 6976   2.874   3.705  10.921  0.7023  0.6342  0.2574
  469TMC3    C2 6977   2.970   3.649  11.005  0.0351 -0.7648 -0.2572
  469TMC3    C3 6978   3.050   3.737  11.071  0.1550  0.1651 -0.3081
  469TMC3    C4 6979   2.847   3.840  10.923  0.3853 -0.4161 -0.4631
  469TMC3    C5 6980   2.924   3.922  10.996  0.1080 -0.0794  0.2891
  469TMC3    C6 6981   3.033   3.877  11.066  0.5878  0.2116 -0.2893
  469TMC3     C 6982   2.773   3.619  10.872  0.1167  0.5344 -0.0164
  469TMC3     O 6983   2.664   3.669  10.852 -0.4119  0.9056 -0.4238
  469TMC3     H 6984   2.965   3.542  11.020  1.4028 -1.1460 -2.5713
  469TMC3    H1 6985   2.774   3.880  10.855 -1.6265 -1.8870  0.8063
  469TMC3    H2 6986   3.104   3.941  11.117  0.4331  0.0344  0.1424
  469TMC3    C7 6987   2.875   4.057  11.014  0.2008 -0.3925 -0.1471
  469TMC3    C8 6988   3.159   3.662  11.141 -0.2773 -0.2597 -0.5542
  469TMC3    O1 6989   2.802   4.108  10.929  0.1632 -0.1588  0.0142
  469TMC3    O2 6990   3.194   3.560  11.089  0.0413  0.0475  0.9898
  470TMC3    C1 6991   0.813   0.975   0.792  0.0227  0.3133  0.2459
  470TMC3    C2 6992   0.781   1.083   0.720 -0.0159  0.1604  0.4163
  470TMC3    C3 6993   0.834   1.202   0.769 -0.0692  0.0745  0.2292
  470TMC3    C4 6994   0.894   0.980   0.903 -0.1171  0.0684  0.3423
  470TMC3    C5 6995   0.951   1.097   0.946 -0.2470  0.0660 -0.0157
  470TMC3    C6 6996   0.930   1.209   0.871  0.3385 -0.7960  0.1647
  470TMC3     C 6997   0.776   0.847   0.735 -0.1037  0.3030  0.6641
  470TMC3     O 6998   0.771   0.831   0.616 -0.0462 -0.0456 -0.1672
  470TMC3     H 6999   0.723   1.081   0.629 -0.5603  2.0178  0.7278
  470TMC3    H1 7000   0.925   0.886   0.947 -1.5491  0.2530  1.7408
  470TMC3    H2 7001   0.966   1.307   0.900 -1.4227  0.2142 -1.0917
  470TMC3    C7 7002   1.013   1.114   1.078 -0.6149  0.6180 -0.7592
  470TMC3    C8 7003   0.749   1.319   0.767 -0.1556  0.5451 -0.4123
  470TMC3    O1 7004   0.992   1.027   1.163 -0.5333  0.0748 -0.3362
  470TMC3    O2 7005   0.776   1.399   0.852 -0.1792  0.3223  0.1069
  471MPD2     C 7006   0.598   1.024  16.373  0.0248 -0.1987 -0.7688
  471MPD2    C1 7007   0.660   0.904  16.355 -0.2799  0.7504  0.1181
  471MPD2    C2 7008   0.741   0.840  16.453  0.5123  0.9066 -0.6993
  471MPD2    C3 7009   0.779   0.919  16.559 -0.1896  0.0449  0.5617
  471MPD2    C4 7010   0.720   1.045  16.579  0.1674 -0.6823 -0.1951
  471MPD2    C5 7011   0.619   1.090  16.489  0.7633  0.9617 -0.6584
  471MPD2     H 7012   0.770   0.736  16.444 -1.4375  0.5423 -2.7242
  471MPD2    H1 7013   0.759   1.110  16.658  3.7826 -0.6400 -2.0032
  471MPD2    H2 7014   0.531   1.073  16.303 -1.7495  0.9108  1.6669
  471MPD2    H3 7015   0.580   1.190  16.499  0.1605  0.8245 -1.6622
  471MPD2     N 7016   0.878   0.862  16.638  0.4675  0.7323 -0.0504
  471MPD2    H5 7017   0.908   0.770  16.609  1.6479  0.3759  2.3099
  471MPD2    N1 7018   0.650   0.839  16.224 -0.3926  0.0816  0.2082
  471MPD2    H7 7019   0.713   0.761  16.210 -1.4270 -1.2935  3.0376
  472TMC3    C1 7020   0.573   0.760  16.021  0.4117 -0.3843 -0.4236
  472TMC3    C2 7021   0.459   0.725  15.950  0.6708 -0.0856  0.8822
  472TMC3    C3 7022   0.461   0.605  15.888  0.0930  0.2404 -0.5272
  472TMC3    C4 7023   0.686   0.677  16.009  0.1748 -0.4911 -0.7899
  472TMC3    C5 7024   0.684   0.563  15.941 -0.1823  0.2089 -0.6244
  472TMC3    C6 7025   0.569   0.516  15.879 -0.0970 -0.8063 -0.3150
  472TMC3     C 7026   0.568   0.864  16.120 -0.0963  0.3213 -0.0645
  472TMC3     O 7027   0.491   0.956  16.105  0.4391  0.2362  0.1806
  472TMC3     H 7028   0.366   0.771  15.978 -0.0353 -2.2553  2.1196
  472TMC3    H1 7029   0.777   0.714  16.055  0.3583 -1.0989 -0.6570
  472TMC3    H2 7030   0.559   0.415  15.840  0.9489 -0.3440 -1.7668
  472TMC3    C7 7031   0.768   0.455  16.003  0.8100 -0.3732  0.2597
  472TMC3    C8 7032   0.321   0.553  15.861 -0.5902  0.9872 -1.0205
  472TMC3    O1 7033   0.794   0.473  16.125  0.0025  0.0743 -0.1049
  472TMC3    O2 7034   0.232   0.643  15.850 -0.0781  0.1462  0.7065
  473MPD2     C 7035   0.340   2.808  13.824  0.3304 -0.2698 -0.6226
  473MPD2    C1 7036   0.350   2.937  13.786  0.4308 -0.5785  0.0729
  473MPD2    C2 7037   0.427   3.024  13.860 -0.4547 -0.5600 -0.2623
  473MPD2    C3 7038   0.504   2.980  13.962  0.0687 -0.4970 -0.7697
  473MPD2    C4 7039   0.499   2.846  13.998 -0.1270 -0.1834  0.6716
  473MPD2    C5 7040   0.421   2.762  13.929 -0.1806  0.1715 -0.1797
  473MPD2     H 7041   0.443   3.125  13.824  0.0416 -0.6647 -0.3321
  473MPD2    H1 7042   0.564   2.805  14.074  1.5060  0.3206 -0.4617
  473MPD2    H2 7043   0.272   2.736  13.779 -0.0785 -0.8933  1.0084
  473MPD2    H3 7044   0.416   2.657  13.954  2.5275  0.1650  0.4153
  473MPD2     N 7045   0.579   3.056  14.052 -0.2187 -0.0737 -0.4083
  473MPD2    H5 7046   0.628   3.008  14.126 -1.4903 -1.3869 -0.3982
  473MPD2    N1 7047   0.276   2.990  13.675 -0.4566 -0.6822 -0.1319
  473MPD2    H7 7048   0.290   3.089  13.662 -1.4045 -0.4466  0.6586
  474TMC3    C1 7049   0.668   3.221  14.188 -0.1764 -0.3692  0.3389
  474TMC3    C2 7050   0.651   3.352  14.235  0.4546 -0.1851  0.2987
  474TMC3    C3 7051   0.728   3.391  14.345  0.0598 -0.4607 -0.1913
  474TMC3    C4 7052   0.763   3.139  14.236  0.5101  0.0385  0.9410
  474TMC3    C5 7053   0.841   3.182  14.337  0.2729  0.7426  0.1811
  474TMC3    C6 7054   0.833   3.315  14.385 -0.9973 -0.0995 -0.2900
  474TMC3     C 7055   0.585   3.190  14.069 -0.3319 -0.0952  0.4778
  474TMC3     O 7056   0.526   3.269  14.001 -0.9496  0.1938 -0.4980
  474TMC3     H 7057   0.580   3.419  14.188  0.5829 -0.4845 -0.3178
  474TMC3    H1 7058   0.792   3.042  14.196 -1.8583 -0.0892 -0.4972
  474TMC3    H2 7059   0.894   3.355  14.465 -1.1748  1.6818 -1.0585
  474TMC3    C7 7060   0.944   3.097  14.400  0.1459  0.3897 -0.0162
  474TMC3    C8 7061   0.733   3.533  14.377 -0.0564  0.1589 -0.4906
  474TMC3    O1 7062   0.926   2.977  14.397  0.0056 -0.3017 -0.5374
  474TMC3    O2 7063   0.843   3.575  14.411 -0.0181 -0.5526 -0.2150
  475MPD2     C 7064   3.843   1.543  10.775 -0.4503 -0.1707  0.1475
  475MPD2    C1 7065   3.804   1.473  10.665 -0.2312  0.0381 -0.2370
  475MPD2    C2 7066   3.667   1.451  10.658  0.1457 -0.5234 -0.2198
  475MPD2    C3 7067   3.578   1.491  10.756  0.0731  0.2701 -0.0918
  475MPD2    C4 7068   3.624   1.567  10.862 -0.1664 -0.5855 -0.2696
  475MPD2    C5 7069   3.755   1.590  10.867 -0.4298  0.0792  0.4160
  475MPD2     H 7070   3.624   1.398  10.574  0.5116  1.1622 -1.4754
  475MPD2    H1 7071   3.565   1.601  10.946  1.3497 -0.7755  0.8717
  475MPD2    H2 7072   3.947   1.565  10.796 -0.7598  1.5028 -0.1187
  475MPD2    H3 7073   3.806   1.635  10.951 -0.2195  1.5187 -0.4866
  475MPD2     N 7074   3.436   1.462  10.742 -0.1806  0.6331  0.2321
  475MPD2    H5 7075   3.404   1.412  10.659 -1.8067  1.0905  0.5811
  475MPD2    N1 7076   3.907   1.425  10.584 -0.1087  0.4106  0.0848
  475MPD2    H7 7077   3.999   1.448  10.619  0.2190 -1.5147  0.5248
  476TMC3    C1 7078   4.015   1.315  10.402  1.0127 -0.3646  0.2956
  476TMC3    C2 7079   4.014   1.203  10.323 -0.1024 -0.6350  0.6952
  476TMC3    C3 7080   4.122   1.200  10.230  0.5678  0.0141  0.0359
  476TMC3    C4 7081   4.119   1.405  10.403  1.0928 -0.3899 -0.6642
  476TMC3    C5 7082   4.230   1.373  10.328  0.1167 -0.0032  0.5942
  476TMC3    C6 7083   4.227   1.279  10.234 -0.0239  0.6234  0.5207
  476TMC3     C 7084   3.887   1.350  10.469 -0.4522 -0.2603  0.0702
  476TMC3     O 7085   3.784   1.299  10.421  0.2398  0.3482 -0.3028
  476TMC3     H 7086   3.928   1.137  10.328  0.5176 -1.4946 -0.0441
  476TMC3    H1 7087   4.108   1.496  10.459  2.0384 -0.6185 -0.1101
  476TMC3    H2 7088   4.312   1.255  10.171  0.5887  0.9543  1.2171
  476TMC3    C7 7089   4.353   1.441  10.354 -0.3535 -0.4907  0.3972
  476TMC3    C8 7090   4.126   1.093  10.140  0.1623  0.3412  0.0545
  476TMC3    O1 7091   4.438   1.423  10.264 -0.1169 -0.4033 -0.2227
  476TMC3    O2 7092   4.231   1.062  10.085 -0.3201 -0.8897 -0.3029
  477MPD2     C 7093   1.133   2.930  11.835 -0.1467  0.2336 -0.4548
  477MPD2    C1 7094   1.179   3.058  11.852  0.1062 -0.7981  0.6503
  477MPD2    C2 7095   1.293   3.071  11.925 -0.5176  0.1253  0.6796
  477MPD2    C3 7096   1.364   2.962  11.974  0.1200 -0.1110  0.5110
  477MPD2    C4 7097   1.322   2.832  11.940 -0.2793 -0.3425  0.1596
  477MPD2    C5 7098   1.199   2.816  11.876 -0.2154  0.2781  0.1931
  477MPD2     H 7099   1.345   3.164  11.943  2.4055 -1.3644 -0.1007
  477MPD2    H1 7100   1.369   2.735  11.952  0.0879 -0.2052 -0.1951
  477MPD2    H2 7101   1.041   2.916  11.779 -0.6897 -0.3012  0.5647
  477MPD2    H3 7102   1.158   2.719  11.850 -0.1989  0.1770  0.5493
  477MPD2     N 7103   1.494   2.974  12.038  0.2385  0.2246  0.2503
  477MPD2    H5 7104   1.525   3.069  12.058 -1.5800  0.7001  0.7937
  477MPD2    N1 7105   1.116   3.178  11.801  0.0290  0.2538  0.4727
  477MPD2    H7 7106   1.028   3.161  11.752  0.4235 -1.2011  0.2498
  478TMC3    C1 7107   1.075   3.387  11.731 -0.7565  0.3239 -0.9500
  478TMC3    C2 7108   1.026   3.502  11.790  0.2474 -0.0977  0.1141
  478TMC3    C3 7109   0.942   3.573  11.711  0.3283 -0.4191  0.8263
  478TMC3    C4 7110   1.059   3.361  11.597 -0.0255 -0.8628  0.2087
  478TMC3    C5 7111   0.977   3.437  11.524 -0.6496  0.1673  0.4318
  478TMC3    C6 7112   0.904   3.538  11.581 -0.5248 -0.1014  0.1469
  478TMC3     C 7113   1.157   3.305  11.814 -0.9066 -0.4531 -0.2874
  478TMC3     O 7114   1.232   3.357  11.899  0.0326  0.3286 -0.5539
  478TMC3     H 7115   1.058   3.534  11.889  0.9613 -0.1975 -0.0879
  478TMC3    H1 7116   1.124   3.289  11.549  1.9898  1.9300 -1.2600
  478TMC3    H2 7117   0.818   3.576  11.528 -0.4272 -2.3927 -1.6634
  478TMC3    C7 7118   0.923   3.356  11.410  0.4955 -0.6022  0.3113
  478TMC3    C8 7119   0.842   3.641  11.797 -0.3748 -0.0280  0.0548
  478TMC3    O1 7120   0.946   3.234  11.416 -1.0206  0.3638  0.0417
  478TMC3    O2 7121   0.825   3.594  11.909 -0.3879  0.4138 -0.1418
  479MPD2     C 7122   0.530   0.014  15.110 -0.1825 -0.0745 -0.1120
  479MPD2    C1 7123   0.479   0.003  15.240 -0.3354 -0.5455  0.2322
  479MPD2    C2 7124   0.520   0.081  15.348 -0.2304 -0.6009  0.0594
  479MPD2    C3 7125   0.618   0.178  15.326  0.4687 -0.5626 -0.0889
  479MPD2    C4 7126   0.674   0.189  15.199  0.2947 -0.1232  0.4411
  479MPD2    C5 7127   0.641   0.095  15.099 -0.3601 -0.2260 -0.5539
  479MPD2     H 7128   0.492   0.040  15.444 -2.4613  0.7085 -0.0277
  479MPD2    H1 7129   0.749   0.265  15.179 -0.9331  1.7173  2.8690
  479MPD2    H2 7130   0.493   4.675  15.029  1.3591  0.4318 -1.2066
  479MPD2    H3 7131   0.693   0.114  15.006 -1.1542  2.1602 -0.4933
  479MPD2     N 7132   0.670   0.260  15.429  0.1454 -0.1515  0.3214
  479MPD2    H5 7133   0.744   0.327  15.409  1.4431 -1.8010 -0.3551
  479MPD2    N1 7134   0.366   4.639  15.248 -0.2814 -0.2314 -0.0789
  479MPD2    H7 7135   0.327   4.626  15.156  1.1222 -2.3007 -0.3840
  480TMC3    C1 7136   0.355   0.139  15.772 -0.1357 -0.1130 -0.4035
  480TMC3    C2 7137   0.251   0.184  15.702 -0.6935 -0.6002 -0.9628
  480TMC3    C3 7138   0.276   0.255  15.583 -0.2382  0.1009  0.0774
  480TMC3    C4 7139   0.482   0.161  15.724 -0.6687 -0.5339 -0.0483
  480TMC3    C5 7140   0.502   0.233  15.609 -0.5634 -0.6329 -0.3018
  480TMC3    C6 7141   0.397   0.283  15.535  0.3110  0.2370  0.2228
  480TMC3     C 7142   0.337   0.033  15.881  0.2121 -0.2714  0.4553
  480TMC3     O 7143   0.443   0.012  15.937  0.0786  0.2518  0.3741
  480TMC3     H 7144   0.148   0.152  15.714 -0.8785  0.1668 -0.5118
  480TMC3    H1 7145   0.574   0.127  15.770 -0.0861  0.1166 -0.7406
  480TMC3    H2 7146   0.432   0.349  15.456 -2.6560  3.2636  1.4711
  480TMC3    C7 7147   0.637   0.258  15.565  1.1139  0.4710  0.8798
  480TMC3    C8 7148   0.174   0.245  15.482 -0.1216 -0.0616  0.1598
  480TMC3    O1 7149   0.708   0.298  15.657  0.6214 -0.8353  1.0321
  480TMC3    O2 7150   0.064   0.208  15.510 -0.0433  0.1371 -0.0987
  481MPD2     C 7151   2.636   0.015  15.044 -0.5994  0.5844 -0.0854
  481MPD2    C1 7152   2.515   0.018  14.981 -0.4434  0.5569 -0.3845
  481MPD2    C2 7153   2.405   4.707  15.057  0.8938 -0.7254 -0.3086
  481MPD2    C3 7154   2.415   4.671  15.185 -0.9414  0.6315  0.9439
  481MPD2    C4 7155   2.538   4.664  15.249  0.5150  0.3915  0.3862
  481MPD2    C5 7156   2.645   4.695  15.173  0.4458 -0.0274  0.1838
  481MPD2     H 7157   2.307   4.711  15.011 -0.0478 -0.7709  1.6991
  481MPD2    H1 7158   2.554   4.632  15.351 -0.0907  0.2254  0.4259
  481MPD2    H2 7159   2.729   0.044  14.996 -0.2245  0.1563  0.3817
  481MPD2    H3 7160   2.743   4.677  15.216  0.4333  1.2890  0.7565
  481MPD2     N 7161   2.301   4.635  15.258 -0.4408 -0.0205  0.4493
  481MPD2    H5 7162   2.313   4.621  15.357  0.9876 -0.6946  0.1810
  481MPD2    N1 7163   2.504   0.059  14.847  0.5174  0.0983 -0.0558
  481MPD2    H7 7164   2.593   0.095  14.814  1.1023 -0.3037  1.0864
  482TMC3    C1 7165   2.398   0.124  14.637  0.0767 -0.2712  0.1532
  482TMC3    C2 7166   2.483   0.050  14.564  0.3260 -0.5138 -0.5269
  482TMC3    C3 7167   2.458   0.051  14.429  0.2388  0.3413  0.2527
  482TMC3    C4 7168   2.296   0.190  14.586 -0.8662  0.2868  0.1833
  482TMC3    C5 7169   2.278   0.197  14.450 -0.1824  0.0990  0.5876
  482TMC3    C6 7170   2.354   0.111  14.369 -0.4840  0.0053 -0.2867
  482TMC3     C 7171   2.387   0.080  14.778 -0.2702  0.3227  0.6001
  482TMC3     O 7172   2.266   0.066  14.803 -0.5448  0.8126 -0.6198
  482TMC3     H 7173   2.559   4.711  14.609 -0.5738 -0.6293  0.8327
  482TMC3    H1 7174   2.236   0.242  14.660 -0.5400  1.0116 -0.0565
  482TMC3    H2 7175   2.354   0.115  14.261  1.6529  0.3954 -0.2737
  482TMC3    C7 7176   2.165   0.261  14.397  0.5321 -0.3144  0.3141
  482TMC3    C8 7177   2.533   4.675  14.354  0.1825 -0.4176  0.5730
  482TMC3    O1 7178   2.115   0.331  14.485  0.1935  0.2162  0.0017
  482TMC3    O2 7179   2.643   4.645  14.407 -0.3039 -0.3400 -0.2061
  483TMC3    C1 7180   0.136   3.567   0.884  0.5755  0.3172 -0.8636
  483TMC3    C2 7181   0.160   3.681   0.816 -0.4942 -0.1587  0.1136
  483TMC3    C3 7182   0.270   3.676   0.732  0.4967  0.1801 -0.9784
  483TMC3    C4 7183   0.220   3.459   0.888  0.2147  0.4083 -0.6423
  483TMC3    C5 7184   0.317   3.459   0.792  0.8493 -0.6226  0.1368
  483TMC3    C6 7185   0.345   3.566   0.714  0.1825 -0.3713  0.4609
  483TMC3     C 7186   0.017   3.557   0.968  0.3250 -0.3986  0.8683
  483TMC3     O 7187   4.692   3.665   1.001 -0.0788 -0.3509 -0.4447
  483TMC3     H 7188   0.089   3.762   0.806  1.1909  1.5581  2.1202
  483TMC3    H1 7189   0.208   3.380   0.961  0.6751  0.1755 -0.8230
  483TMC3    H2 7190   0.430   3.572   0.647  0.5042  0.6016  0.9536
  483TMC3    C7 7191   0.422   3.357   0.802  0.8772 -0.5908 -0.2306
  483TMC3    C8 7192   0.294   3.784   0.641 -0.1343 -1.1441 -0.0528
  483TMC3    O1 7193   0.428   3.284   0.904  0.5707 -0.1621 -0.0268
  483TMC3    O2 7194   0.346   3.750   0.536  0.1067  0.2641  0.4045
  484MPD2     C 7195   2.590   1.658  12.415 -0.5534 -0.0051  0.2097
  484MPD2    C1 7196   2.656   1.632  12.531 -0.3996 -0.3730 -0.2455
  484MPD2    C2 7197   2.790   1.648  12.542 -0.5619 -0.2644  0.3572
  484MPD2    C3 7198   2.865   1.698  12.438 -0.0520 -0.5318  0.1664
  484MPD2    C4 7199   2.803   1.739  12.326  0.6003  0.6540 -1.0457
  484MPD2    C5 7200   2.669   1.720  12.319  0.2452 -0.6810  0.3130
  484MPD2     H 7201   2.836   1.623  12.637 -1.7658  0.3209  1.0877
  484MPD2    H1 7202   2.841   1.792  12.239  1.3145 -0.8828 -1.6700
  484MPD2    H2 7203   2.483   1.654  12.405 -0.2405 -0.2876 -3.2838
  484MPD2    H3 7204   2.620   1.751  12.227  0.0512 -0.8913  0.3440
  484MPD2     N 7205   3.003   1.715  12.450 -0.6539 -0.3117 -0.0300
  484MPD2    H5 7206   3.056   1.744  12.369 -2.5344 -1.4411 -1.6834
  484MPD2    N1 7207   2.570   1.587  12.638 -0.0058  0.4345  0.8037
  484MPD2    H7 7208   2.471   1.588  12.617 -0.0874 -0.3616  1.1571
  485TMC3    C1 7209   3.228   1.700  12.536 -0.5951  0.4462  0.1334
  485TMC3    C2 7210   3.306   1.613  12.598 -0.1871 -1.2421  0.1721
  485TMC3    C3 7211   3.438   1.630  12.585 -0.8611  0.5405  0.2510
  485TMC3    C4 7212   3.270   1.804  12.462 -0.2525  0.5435  0.4255
  485TMC3    C5 7213   3.405   1.824  12.455  0.2355 -0.1423  0.3335
  485TMC3    C6 7214   3.489   1.740  12.522 -1.1834 -0.1600  0.1153
  485TMC3     C 7215   3.082   1.679  12.559  0.7319  0.0468 -0.3302
  485TMC3     O 7216   3.046   1.609  12.653  0.2070  0.0328  0.2434
  485TMC3     H 7217   3.259   1.524  12.639  1.0654 -3.1063 -2.4391
  485TMC3    H1 7218   3.205   1.882  12.425  0.6391  0.2616 -1.7172
  485TMC3    H2 7219   3.593   1.763  12.507 -1.1419  0.8541  1.9178
  485TMC3    C7 7220   3.440   1.839  12.314 -1.2388  1.0752 -0.4511
  485TMC3    C8 7221   3.501   1.516  12.535 -0.0497  0.4383 -0.3531
  485TMC3    O1 7222   3.371   1.918  12.244 -1.3442 -0.4071 -0.8132
  485TMC3    O2 7223   3.601   1.543  12.465  0.1205  0.0227 -0.5173
  486MPD2     C 7224   0.383   0.936  12.216  0.4342 -0.3189 -0.1078
  486MPD2    C1 7225   0.256   0.892  12.252 -0.1625  0.4721 -0.0945
  486MPD2    C2 7226   0.150   0.978  12.245  0.0732 -0.4417 -0.1232
  486MPD2    C3 7227   0.164   1.111  12.210  0.2931  1.0729 -0.4649
  486MPD2    C4 7228   0.286   1.157  12.164 -0.5894 -0.1122  0.7288
  486MPD2    C5 7229   0.393   1.067  12.172 -0.4681 -0.3016 -0.2536
  486MPD2     H 7230   0.050   0.944  12.268 -0.2613 -0.0448 -0.9758
  486MPD2    H1 7231   0.307   1.255  12.124  0.0626 -0.6993 -0.3845
  486MPD2    H2 7232   0.469   0.871  12.218 -0.7504 -1.8828 -0.0247
  486MPD2    H3 7233   0.491   1.104  12.144 -1.0765  0.4716 -1.3661
  486MPD2     N 7234   0.046   1.194  12.208  0.3936  0.2226 -0.1681
  486MPD2    H5 7235   4.683   1.145  12.230 -0.2361  1.6430  0.5744
  486MPD2    N1 7236   0.240   0.754  12.301  0.1045  0.4559  0.0297
  486MPD2    H7 7237   0.326   0.703  12.318  0.0681  0.8151  1.3029
  487TMC3    C1 7238   0.153   0.551  12.383 -0.3423  0.1585  0.0842
  487TMC3    C2 7239   0.039   0.481  12.404 -0.2078  0.7137 -0.1622
  487TMC3    C3 7240   0.055   0.365  12.474  0.6300 -0.2076  0.5492
  487TMC3    C4 7241   0.274   0.512  12.434  0.3755  0.0012 -0.6679
  487TMC3    C5 7242   0.286   0.393  12.508 -0.2866 -0.5465 -0.2500
  487TMC3    C6 7243   0.173   0.314  12.517 -1.2277  0.3019 -0.0985
  487TMC3     C 7244   0.122   0.691  12.336 -0.4810 -0.4381 -0.0231
  487TMC3     O 7245   0.008   0.734  12.330 -0.6638  0.4530  0.4516
  487TMC3     H 7246   4.673   0.517  12.355 -0.0342  1.0079 -0.2582
  487TMC3    H1 7247   0.358   0.581  12.437  0.0988  0.2407  1.2320
  487TMC3    H2 7248   0.188   0.227  12.579 -0.5655  0.5944  0.1523
  487TMC3    C7 7249   0.366   0.390  12.631 -0.1492 -0.6681  0.2087
  487TMC3    C8 7250   4.655   0.303  12.517  0.6182 -0.1098  0.0602
  487TMC3    O1 7251   0.318   0.335  12.727 -0.2844  1.2732 -0.3316
  487TMC3    O2 7252   4.552   0.365  12.535  0.1173  0.1936  0.0063
  488MPD2     C 7253   0.281   2.097  16.149  0.0934  0.3041 -0.2242
  488MPD2    C1 7254   0.326   2.181  16.251 -0.5021  0.6406 -0.2593
  488MPD2    C2 7255   0.285   2.151  16.381  0.8027  0.6187  0.0278
  488MPD2    C3 7256   0.199   2.045  16.399  0.2158  0.4104  0.3233
  488MPD2    C4 7257   0.149   1.971  16.294  1.1356  0.3450 -0.2791
  488MPD2    C5 7258   0.192   1.996  16.168  0.6198  0.0766  0.4803
  488MPD2     H 7259   0.323   2.214  16.462  0.4270  0.5986  0.2199
  488MPD2    H1 7260   0.102   1.874  16.308 -0.0704  1.0037  0.1710
  488MPD2    H2 7261   0.305   2.111  16.044  1.6665  2.0186  0.3670
  488MPD2    H3 7262   0.161   1.927  16.091 -0.4003  0.9157  0.1412
  488MPD2     N 7263   0.167   2.017  16.533 -0.3444 -0.2175 -0.3729
  488MPD2    H5 7264   0.211   2.074  16.604 -0.0861  0.6252 -1.2068
  488MPD2    N1 7265   0.412   2.291  16.241  0.0736 -0.1018 -0.2114
  488MPD2    H7 7266   0.432   2.333  16.331  0.2296  0.3625 -0.4598
  489TMC3    C1 7267   0.091   1.922  16.720 -0.5183 -1.0304 -0.3162
  489TMC3    C2 7268   0.202   1.970  16.774 -0.6976  0.2547  0.4871
  489TMC3    C3 7269   0.207   2.007  16.906 -0.4912 -0.2491 -0.5978
  489TMC3    C4 7270   4.695   1.906  16.790  0.1298  0.0911  0.1232
  489TMC3    C5 7271   4.707   1.940  16.922 -0.4509 -0.1018  0.6689
  489TMC3    C6 7272   0.094   1.993  16.983 -0.1953  0.5848 -1.0789
  489TMC3     C 7273   0.081   1.914  16.576 -0.3988  0.1350  0.2219
  489TMC3     O 7274   4.716   1.851  16.517 -0.0932  0.6890 -0.6145
  489TMC3     H 7275   0.300   1.964  16.727 -0.4626 -0.7861  1.1002
  489TMC3    H1 7276   4.601   1.880  16.742  0.7076  0.3258 -1.1311
  489TMC3    H2 7277   0.105   2.023  17.086 -0.8191 -0.3134 -0.7577
  489TMC3    C7 7278   4.598   1.920  17.009  0.2703  0.7020 -0.1891
  489TMC3    C8 7279   0.299   2.118  16.924 -0.1098  0.2806  0.0840
  489TMC3    O1 7280   4.639   1.913  17.124  0.7807 -0.1554  0.1673
  489TMC3    O2 7281   0.417   2.098  16.898  0.4549  0.3807  0.4922
  490MPD2     C 7282   0.872   2.167  17.555  0.7806  0.0877  0.3773
  490MPD2    C1 7283   0.989   2.174  17.482 -0.0520 -0.7597 -0.3295
  490MPD2    C2 7284   1.097   2.236  17.543  0.1294 -0.4200  1.2877
  490MPD2    C3 7285   1.102   2.297  17.669 -0.0270  0.5796  0.1959
  490MPD2    C4 7286   0.982   2.293   0.043  0.3651  0.5781 -0.3158
  490MPD2    C5 7287   0.869   2.229  17.678  0.0138  0.1029 -0.6585
  490MPD2     H 7288   1.188   2.232  17.486 -0.5728 -1.6604  0.2621
  490MPD2    H1 7289   0.969   2.355   0.131  0.2433  1.6465 -1.0864
  490MPD2    H2 7290   0.783   2.125  17.509  1.1246  2.1824 -2.2401
  490MPD2    H3 7291   0.773   2.232   0.035  0.2045 -0.1793 -0.2731
  490MPD2     N 7292   1.207   2.366   0.019 -0.5232  0.4605  0.0032
  490MPD2    H5 7293   1.198   2.403   0.113  0.6973 -0.5175  0.4989
  490MPD2    N1 7294   1.005   2.118  17.355  0.4039  0.5491  0.3558
  490MPD2    H7 7295   1.094   2.134  17.309  0.5387  0.0048  0.4239
  491TMC3    C1 7296   0.985   1.986  17.164 -1.0695  0.2031  0.3852
  491TMC3    C2 7297   1.118   1.953  17.170 -0.3416  0.5468 -0.2623
  491TMC3    C3 7298   1.158   1.836  17.119  0.5827 -0.4521  0.2482
  491TMC3    C4 7299   0.895   1.905  17.097  0.0184  0.1653 -0.2245
  491TMC3    C5 7300   0.949   1.797  17.023  0.3781  0.1950  0.2337
  491TMC3    C6 7301   1.081   1.757  17.043  0.1116  0.1185  0.3975
  491TMC3     C 7302   0.917   2.045  17.280 -0.5778  0.3208 -0.4569
  491TMC3     O 7303   0.802   2.009  17.304 -0.6673 -0.0666  0.0780
  491TMC3     H 7304   1.182   2.015  17.233 -0.7500 -0.8024  1.4950
  491TMC3    H1 7305   0.791   1.935  17.095 -0.1177 -0.3430 -1.1604
  491TMC3    H2 7306   1.121   1.660  17.017 -0.6447 -0.8995  3.0089
  491TMC3    C7 7307   0.846   1.697  16.991  0.2406  0.3530  0.1280
  491TMC3    C8 7308   1.293   1.786  17.154  0.4228 -0.2168 -0.9769
  491TMC3    O1 7309   0.878   1.581  17.004  0.1842 -0.3445  0.0109
  491TMC3    O2 7310   1.343   1.719  17.062  0.4214  0.2509 -0.2559
  492MPD2     C 7311   0.906   1.041  10.832  0.6897 -0.0720 -0.3435
  492MPD2    C1 7312   0.980   1.150  10.874  1.0870 -0.7092  0.4295
  492MPD2    C2 7313   0.975   1.187  11.005  0.8687 -0.0313  0.8983
  492MPD2    C3 7314   0.904   1.107  11.098  0.7885  0.4288  0.0674
  492MPD2    C4 7315   0.835   0.997  11.051  0.0882 -0.1227  0.3557
  492MPD2    C5 7316   0.833   0.967  10.918  0.2474 -0.3609  0.2747
  492MPD2     H 7317   1.028   1.275  11.040 -0.6207  0.9001  0.8300
  492MPD2    H1 7318   0.779   0.941  11.125 -3.3673  2.4111 -0.3725
  492MPD2    H2 7319   0.902   1.010  10.728 -0.0168  2.3724 -1.0411
  492MPD2    H3 7320   0.775   0.881  10.887  3.5958 -1.7551 -2.2118
  492MPD2     N 7321   0.900   1.131  11.240  0.0272 -0.5202 -0.0166
  492MPD2    H5 7322   0.845   1.071  11.300  0.7435 -1.8656 -0.7032
  492MPD2    N1 7323   1.056   1.221  10.775 -0.8323  0.5276  0.1000
  492MPD2    H7 7324   1.046   1.182  10.682  2.5480  0.2627 -0.1441
  493TMC3    C1 7325   1.211   1.385  10.676  0.0207  0.3899 -0.2527
  493TMC3    C2 7326   1.322   1.460  10.699 -0.3541  0.5085  0.1651
  493TMC3    C3 7327   1.380   1.532  10.595  0.3396  0.1455 -0.3551
  493TMC3    C4 7328   1.152   1.381  10.552  0.1524  0.5188 -0.3526
  493TMC3    C5 7329   1.214   1.447  10.444 -0.2515  0.6177 -0.6449
  493TMC3    C6 7330   1.335   1.511  10.464  0.9271 -0.2624  0.5423
  493TMC3     C 7331   1.144   1.325  10.791  0.0488  0.1074 -0.1235
  493TMC3     O 7332   1.161   1.389  10.895  0.1675  0.3006 -0.3509
  493TMC3     H 7333   1.364   1.457  10.799 -2.8402  1.0601  1.2151
  493TMC3    H1 7334   1.065   1.321  10.530  0.1081  1.1032 -1.7539
  493TMC3    H2 7335   1.381   1.556  10.377  1.5841 -0.4768  0.7823
  493TMC3    C7 7336   1.130   1.463  10.324  0.4940 -0.0865  0.8344
  493TMC3    C8 7337   1.495   1.615  10.630 -0.1394 -0.1126  1.5105
  493TMC3    O1 7338   1.031   1.395  10.324  0.4908  0.7594 -0.2038
  493TMC3    O2 7339   1.530   1.586  10.741 -0.1193 -0.6411  0.3226
  494TMC3    C1 7340   2.076   3.990   0.601  0.2248  0.1671  0.4414
  494TMC3    C2 7341   2.118   3.947   0.725  0.5431 -0.6306  0.0494
  494TMC3    C3 7342   2.165   3.820   0.728  0.4359 -0.9528 -0.0451
  494TMC3    C4 7343   2.093   3.918   0.490 -0.4214 -0.0457  0.4703
  494TMC3    C5 7344   2.135   3.784   0.501 -0.4516  0.6552 -0.5064
  494TMC3    C6 7345   2.176   3.736   0.620 -0.3890 -0.1708 -0.3019
  494TMC3     C 7346   2.026   4.126   0.598 -0.1486 -0.6561 -0.7166
  494TMC3     O 7347   2.065   4.200   0.687 -0.3164  0.1874  0.6946
  494TMC3     H 7348   2.107   4.010   0.812 -0.3609  1.1060 -1.3163
  494TMC3    H1 7349   2.074   3.953   0.389 -1.8713 -0.0513  0.7333
  494TMC3    H2 7350   2.225   3.640   0.626  1.6492  0.9182  0.3823
  494TMC3    C7 7351   2.104   3.705   0.387  0.0354 -0.6949 -0.1334
  494TMC3    C8 7352   2.226   3.780   0.851 -0.3438 -0.4221  0.5329
  494TMC3    O1 7353   2.105   3.764   0.282 -0.2969  0.1905 -0.2574
  494TMC3    O2 7354   2.320   3.699   0.846 -0.2158  0.1634 -0.2370
  495TMC3    C1 7355   0.456   0.088  14.554  0.1062  0.4255 -0.2635
  495TMC3    C2 7356   0.560   0.153  14.494  0.5885 -1.2429  0.1269
  495TMC3    C3 7357   0.604   0.267  14.554 -0.5909 -0.1873 -0.4272
  495TMC3    C4 7358   0.406   0.121  14.677  0.5926 -0.3289 -0.1560
  495TMC3    C5 7359   0.460   0.223  14.744  0.6540 -0.8517 -0.0283
  495TMC3    C6 7360   0.550   0.301  14.685 -0.8345  0.2417  0.3733
  495TMC3     C 7361   0.388   4.711  14.465 -0.1354 -0.0677 -0.0378
  495TMC3     O 7362   0.442   4.683  14.358  0.6121  0.0610  0.3165
  495TMC3     H 7363   0.591   0.118  14.397  0.0756  0.0190 -0.4940
  495TMC3    H1 7364   0.345   0.049  14.731  0.9126  0.0781  0.7482
  495TMC3    H2 7365   0.612   0.381  14.723 -1.7911  0.5089  1.3710
  495TMC3    C7 7366   0.420   0.246  14.880  0.6339 -0.5860 -0.6234
  495TMC3    C8 7367   0.616   0.380  14.460  0.3624 -0.7519 -0.9305
  495TMC3    O1 7368   0.488   0.319  14.950 -0.0434  0.2041  0.0244
  495TMC3    O2 7369   0.661   0.362  14.347 -0.2259  0.0809  0.0245
  496MPD2     C 7370   2.337   0.299  15.179  0.1980  0.0629 -0.3772
  496MPD2    C1 7371   2.375   0.286  15.308  0.2953  0.5486  0.2762
  496MPD2    C2 7372   2.288   0.334  15.400 -0.3502  0.5948 -0.2766
  496MPD2    C3 7373   2.167   0.393  15.368  0.7312  0.4540  0.2464
  496MPD2    C4 7374   2.130   0.394  15.238 -0.0144  0.1219  0.1552
  496MPD2    C5 7375   2.213   0.345  15.146  0.6101  0.0809 -0.2656
  496MPD2     H 7376   2.322   0.336  15.503  1.0261 -2.2359 -0.6665
  496MPD2    H1 7377   2.034   0.435  15.207  1.2356  3.0489  0.1327
  496MPD2    H2 7378   2.396   0.253  15.101 -1.0342  0.3654 -1.4986
  496MPD2    H3 7379   2.176   0.336  15.045  1.1207  1.2230 -0.5517
  496MPD2     N 7380   2.079   0.449  15.466 -0.1000 -0.6390  0.3057
  496MPD2    H5 7381   1.994   0.493  15.432  0.9357  0.5480 -0.7374
  496MPD2    N1 7382   2.502   0.239  15.339 -0.5500  0.2637  0.5320
  496MPD2    H7 7383   2.553   0.212  15.255 -0.0856  0.4845  0.7424
  497TMC3    C1 7384   2.004   0.545  15.664 -0.2460 -0.0271  0.3489
  497TMC3    C2 7385   1.872   0.515  15.631  0.1444 -0.2947  0.0887
  497TMC3    C3 7386   1.773   0.549  15.726 -0.3729 -0.3202 -0.0882
  497TMC3    C4 7387   2.043   0.597  15.785  0.7204  0.0353 -0.7294
  497TMC3    C5 7388   1.944   0.623  15.874 -0.1398 -0.0597 -0.5505
  497TMC3    C6 7389   1.808   0.596  15.855  0.3466 -0.4762  0.2198
  497TMC3     C 7390   2.110   0.472  15.596 -0.5729 -0.1885 -0.2692
  497TMC3     O 7391   2.216   0.486  15.652  0.0108  0.2531 -0.5521
  497TMC3     H 7392   1.846   0.448  15.550 -1.9045 -1.7436  1.9582
  497TMC3    H1 7393   2.148   0.623  15.788  0.5926  0.8753 -3.4424
  497TMC3    H2 7394   1.729   0.634  15.918  0.4366  0.5550 -0.2989
  497TMC3    C7 7395   1.980   0.601  16.010  0.3693  0.3586 -0.0038
  497TMC3    C8 7396   1.635   0.517  15.694 -0.0813  0.3786 -0.7735
  497TMC3    O1 7397   1.890   0.568  16.090  0.0514  0.3485 -0.4295
  497TMC3    O2 7398   1.617   0.516  15.574 -0.4105 -0.4355 -0.1267
  498MPD2     C 7399   2.856   0.787   9.414  0.3695  0.0112  0.2275
  498MPD2    C1 7400   2.794   0.852   9.515  0.3718 -0.4666 -0.6081
  498MPD2    C2 7401   2.657   0.866   9.516  0.7180 -0.7732  0.0025
  498MPD2    C3 7402   2.576   0.809   9.419 -0.2412  0.8168 -0.1900
  498MPD2    C4 7403   2.643   0.731   9.319 -0.5023  0.5244  0.2176
  498MPD2    C5 7404   2.778   0.729   9.318  0.0157  0.1048 -0.4380
  498MPD2     H 7405   2.620   0.934   9.592  2.3182 -1.7539  1.6735
  498MPD2    H1 7406   2.588   0.690   9.235  0.2683  1.3778 -0.6998
  498MPD2    H2 7407   2.963   0.771   9.405  0.3168 -0.5589  0.5825
  498MPD2    H3 7408   2.832   0.677   9.240  1.8725  0.3917  0.6764
  498MPD2     N 7409   2.436   0.835   9.430 -0.6652 -0.2686 -0.6354
  498MPD2    H5 7410   2.406   0.895   9.506  0.1521  0.4304 -0.8756
  498MPD2    N1 7411   2.873   0.927   9.613 -1.0384  0.2355 -0.2991
  498MPD2    H7 7412   2.813   0.973   9.682 -0.4398  1.4604 -0.5934
  499TMC3    C1 7413   3.065   1.014   9.729 -0.4908  0.0746  0.3516
  499TMC3    C2 7414   2.998   1.022   9.850  0.3525 -0.5418  0.5632
  499TMC3    C3 7415   3.059   1.080   9.952  0.0964  0.0288 -0.4803
  499TMC3    C4 7416   3.197   1.052   9.722 -0.4469 -0.1511  0.7578
  499TMC3    C5 7417   3.258   1.106   9.835  1.1424 -0.0736 -0.2514
  499TMC3    C6 7418   3.185   1.129   9.950 -0.1968 -0.1308  0.2201
  499TMC3     C 7419   3.010   0.947   9.615 -0.0327  0.1192 -0.3533
  499TMC3     O 7420   3.084   0.919   9.525 -0.1261 -0.1875 -0.3027
  499TMC3     H 7421   2.900   0.979   9.866  0.5670 -0.6861  1.4567
  499TMC3    H1 7422   3.253   1.042   9.630  0.0736  0.9632  0.9533
  499TMC3    H2 7423   3.241   1.173  10.032 -2.4965  1.2353  1.0688
  499TMC3    C7 7424   3.404   1.124   9.847 -0.1712  0.3418  0.5286
  499TMC3    C8 7425   2.975   1.124  10.068  0.0936  0.1225  0.0437
  499TMC3    O1 7426   3.447   1.172   9.953  0.2262  0.1188 -0.1535
  499TMC3    O2 7427   2.852   1.124  10.061 -0.0102 -0.0891  0.6523
  500MPD2     C 7428   0.709   2.804   9.665  0.7559  0.3522 -0.6219
  500MPD2    C1 7429   0.703   2.790   9.802 -0.0921  0.2567  0.3165
  500MPD2    C2 7430   0.600   2.716   9.856  0.2366 -0.4325 -0.4513
  500MPD2    C3 7431   0.500   2.649   9.781 -0.2715 -0.9233  0.5746
  500MPD2    C4 7432   0.521   2.656   9.647 -0.3031 -0.4046 -0.2382
  500MPD2    C5 7433   0.622   2.729   9.591 -0.4115 -0.1281 -0.2878
  500MPD2     H 7434   0.592   2.727   9.964  0.4248 -2.6127 -0.2144
  500MPD2    H1 7435   0.454   2.607   9.576  0.4801  0.1745 -1.3785
  500MPD2    H2 7436   0.794   2.851   9.617 -0.4224  1.7864 -1.2980
  500MPD2    H3 7437   0.638   2.720   9.484 -0.4518 -0.2632 -0.2823
  500MPD2     N 7438   0.378   2.594   9.819  0.4540 -0.5302  0.0886
  500MPD2    H5 7439   0.318   2.551   9.749  0.7004  0.5425 -0.7810
  500MPD2    N1 7440   0.804   2.854   9.876  0.3584 -0.4249 -0.0052
  500MPD2    H7 7441   0.851   2.926   9.821 -1.0316  0.2052 -0.3620
  501TMC3    C1 7442   0.907   2.936  10.080  0.1692  0.2262  0.5642
  501TMC3    C2 7443   0.905   3.059  10.035  0.9168  0.0382  0.4488
  501TMC3    C3 7444   0.958   3.154  10.117 -0.2656 -0.0184  0.1240
  501TMC3    C4 7445   0.988   2.888  10.179 -0.0390  0.2100 -0.4146
  501TMC3    C5 7446   1.054   2.986  10.247  0.0236  0.2423  0.3350
  501TMC3    C6 7447   1.041   3.117  10.226  0.3038  0.3092  0.1504
  501TMC3     C 7448   0.820   2.837  10.014  0.2667 -0.8619  0.3957
  501TMC3     O 7449   0.775   2.755  10.091  0.1369 -0.1894  0.2305
  501TMC3     H 7450   0.836   3.079   9.955 -1.5183  0.0887  2.5512
  501TMC3    H1 7451   1.002   2.785  10.210 -2.7370  0.2629  0.9292
  501TMC3    H2 7452   1.087   3.199  10.280  2.6223 -1.7082  1.2787
  501TMC3    C7 7453   1.137   2.938  10.361  0.3889 -0.0626 -0.2273
  501TMC3    C8 7454   0.920   3.284  10.087  0.4807 -0.6213 -0.2907
  501TMC3    O1 7455   1.143   2.822  10.392  0.2057  0.4805 -0.3438
  501TMC3    O2 7456   0.941   3.325   9.974 -0.4426  0.1086 -0.5604
  502TMC3    C1 7457   4.553   1.013  15.124 -0.0294 -0.1949  0.2616
  502TMC3    C2 7458   4.583   1.148  15.091 -0.1984  0.4862  0.7235
  502TMC3    C3 7459   4.550   1.190  14.969 -0.5036  0.4329 -0.4541
  502TMC3    C4 7460   4.474   0.933  15.045 -0.1648  0.2195  0.0438
  502TMC3    C5 7461   4.432   0.994  14.931 -0.5154 -0.1005 -0.0429
  502TMC3    C6 7462   4.476   1.115  14.883  0.6487  0.9450  0.1498
  502TMC3     C 7463   4.595   0.955  15.253  0.0992  0.3583  0.1557
  502TMC3     O 7464   4.537   0.857  15.293  0.3702 -0.1883  0.2526
  502TMC3     H 7465   4.625   1.212  15.168 -0.8630 -1.4160  2.6921
  502TMC3    H1 7466   4.432   0.836  15.071  1.0227 -0.6324 -1.1970
  502TMC3    H2 7467   4.428   1.159  14.796  1.1645  2.1946  0.4943
  502TMC3    C7 7468   4.295   0.965  14.888  0.0202  0.2464 -0.5069
  502TMC3    C8 7469   4.584   1.329  14.940 -0.5028  0.3077 -0.1987
  502TMC3    O1 7470   4.270   0.991  14.771  0.0614  0.0720 -0.4957
  502TMC3    O2 7471   4.539   1.366  14.832 -0.3298 -0.1556 -0.2487
  503MPD2     C 7472   2.045   1.987  17.122 -0.6210 -0.8182 -0.6995
  503MPD2    C1 7473   2.172   2.022  17.173  0.5296 -0.5487  0.5151
  503MPD2    C2 7474   2.253   1.923  17.220  0.2189 -0.2321 -0.0058
  503MPD2    C3 7475   2.219   1.791  17.192  0.0282 -0.4079  0.0530
  503MPD2    C4 7476   2.103   1.753  17.131  0.1259 -0.0738  0.0468
  503MPD2    C5 7477   2.014   1.852  17.099  0.3243 -0.1656 -0.0124
  503MPD2     H 7478   2.356   1.931  17.253 -0.5428  1.3832  1.9891
  503MPD2    H1 7479   2.072   1.651  17.113  1.5219 -0.1229 -2.1058
  503MPD2    H2 7480   1.972   2.063  17.098  0.5966  1.2993  2.3522
  503MPD2    H3 7481   1.917   1.831  17.058 -0.1664 -1.4334  1.7942
  503MPD2     N 7482   2.318   1.693  17.221  0.2152 -0.4725  0.1703
  503MPD2    H5 7483   2.395   1.732  17.275  0.4436  1.5862 -1.6856
  503MPD2    N1 7484   2.221   2.149  17.194 -0.0730 -0.0765  0.3244
  503MPD2    H7 7485   2.299   2.164  17.257  0.3146 -1.4346  0.1582
  504TMC3    C1 7486   2.409   1.499  17.283  0.0679  0.3042 -0.1332
  504TMC3    C2 7487   2.405   1.412  17.394  0.8419 -0.3758  0.0282
  504TMC3    C3 7488   2.519   1.362  17.440 -0.2426  0.6079 -0.5465
  504TMC3    C4 7489   2.527   1.516  17.217 -0.0880 -0.2982  0.1671
  504TMC3    C5 7490   2.637   1.454  17.266  0.6957 -1.0722 -0.6566
  504TMC3    C6 7491   2.632   1.376  17.375 -0.4038  0.4380 -0.8472
  504TMC3     C 7492   2.291   1.560  17.237 -0.6514  0.5322  0.4376
  504TMC3     O 7493   2.186   1.501  17.246  0.1127  0.8328 -0.0629
  504TMC3     H 7494   2.310   1.396  17.443  1.2702 -3.3675 -0.1311
  504TMC3    H1 7495   2.518   1.575  17.126 -1.9510 -0.1590  0.4387
  504TMC3    H2 7496   2.725   1.338  17.416  0.6072  1.3437 -2.3089
  504TMC3    C7 7497   2.719   1.400  17.154 -0.8634  0.6038  0.0658
  504TMC3    C8 7498   2.525   1.315  17.582 -0.2789  0.0930  0.7050
  504TMC3    O1 7499   2.725   1.469  17.055 -0.3104  0.7125 -0.1434
  504TMC3    O2 7500   2.627   1.337  17.648  0.3144 -0.0197 -0.2283
  505MPD2     C 7501   1.038   0.376   9.770 -0.7131 -0.6250 -0.1242
  505MPD2    C1 7502   1.134   0.282   9.791 -0.1809  0.2140 -0.2273
  505MPD2    C2 7503   1.230   0.304   9.891  0.1735 -0.0047 -0.4849
  505MPD2    C3 7504   1.231   0.420   9.963  0.8986 -0.7291  0.3440
  505MPD2    C4 7505   1.143   0.520   9.941  0.2241 -0.0640  0.0550
  505MPD2    C5 7506   1.044   0.496   9.843 -0.1412 -0.0797  0.6238
  505MPD2     H 7507   1.314   0.236   9.894 -0.6022 -0.8858  1.7631
  505MPD2    H1 7508   1.147   0.616   9.991  2.5493 -0.0508 -0.1696
  505MPD2    H2 7509   0.961   0.371   9.693  0.0811 -0.1478 -0.9525
  505MPD2    H3 7510   0.963   0.567   9.836  1.8007  2.1287  0.3243
  505MPD2     N 7511   1.323   0.442  10.065  0.4265  0.0398  0.3258
  505MPD2    H5 7512   1.345   0.535  10.098  1.7845 -0.1718  0.0422
  505MPD2    N1 7513   1.118   0.167   9.698  0.2293  0.3414 -0.4609
  505MPD2    H7 7514   1.045   0.161   9.628  0.2863  1.3413 -0.6087
  506TMC3    C1 7515   1.237   0.003   9.570 -1.0005  0.0752  0.6242
  506TMC3    C2 7516   1.241   0.096   9.464  0.2681  0.4385  0.4514
  506TMC3    C3 7517   1.354   0.113   9.385 -0.1145  0.0135 -0.1314
  506TMC3    C4 7518   1.348   4.643   9.583 -0.9450  0.2595 -0.7855
  506TMC3    C5 7519   1.458   4.657   9.499  0.0146  0.0939 -0.2013
  506TMC3    C6 7520   1.462   0.034   9.408 -0.8731  0.5096  0.1376
  506TMC3     C 7521   1.205   0.060   9.700 -0.9328 -0.2064  0.6907
  506TMC3     O 7522   1.287   0.029   9.787  0.0050 -0.0339 -0.3826
  506TMC3     H 7523   1.158   0.163   9.447 -0.1283  0.1244  1.1485
  506TMC3    H1 7524   1.350   4.575   9.667 -0.2710  0.0890 -0.9363
  506TMC3    H2 7525   1.552   0.051   9.350 -1.5810 -1.2221 -1.4744
  506TMC3    C7 7526   1.581   4.618   9.557 -0.0222  0.8311  0.0322
  506TMC3    C8 7527   1.364   0.223   9.296 -0.2434 -0.4651 -0.2439
  506TMC3    O1 7528   1.691   4.608   9.508 -0.3876 -0.3208 -0.0677
  506TMC3    O2 7529   1.271   0.248   9.219  0.3205  0.4738 -0.4227
  507TMC3    C1 7530   2.973   1.125  14.649 -0.9063 -0.1128 -0.0179
  507TMC3    C2 7531   2.982   1.071  14.525 -0.2083 -0.5131 -0.4353
  507TMC3    C3 7532   3.095   1.090  14.457 -0.1579 -0.2357 -0.4223
  507TMC3    C4 7533   3.079   1.202  14.702 -0.7347 -0.5017  0.9546
  507TMC3    C5 7534   3.192   1.227  14.629  0.2627 -0.7134  0.1143
  507TMC3    C6 7535   3.188   1.174  14.507  0.3727  0.4918  0.1892
  507TMC3     C 7536   2.840   1.173  14.671 -0.3228  0.3164  0.4019
  507TMC3     O 7537   2.820   1.291  14.662 -0.1296  0.5638  0.0276
  507TMC3     H 7538   2.890   1.036  14.479 -0.4788  1.8802 -1.6879
  507TMC3    H1 7539   3.053   1.253  14.794 -1.2450  0.4044  0.3070
  507TMC3    H2 7540   3.273   1.190  14.441 -0.5877 -0.4347 -1.2597
  507TMC3    C7 7541   3.238   1.366  14.619  0.0223  0.2039  0.1638
  507TMC3    C8 7542   3.064   1.127  14.322  0.5970 -0.4009  0.0071
  507TMC3    O1 7543   3.268   1.412  14.507  1.0280 -0.2130  0.1754
  507TMC3    O2 7544   3.058   1.044  14.237 -0.4287 -0.0644  0.1459
  508MPD2     C 7545   4.142   3.241  15.994  0.0660  0.3451 -0.7723
  508MPD2    C1 7546   4.133   3.358  16.075 -0.6360  0.5674  0.0367
  508MPD2    C2 7547   4.075   3.475  16.031  0.0971 -0.8349  0.8464
  508MPD2    C3 7548   4.044   3.489  15.903  0.3341 -0.2590 -0.7680
  508MPD2    C4 7549   4.050   3.380  15.821  0.0464  0.2948 -0.0338
  508MPD2    C5 7550   4.093   3.253  15.860  0.2532  0.2723 -0.0506
  508MPD2     H 7551   4.081   3.565  16.092 -0.5994 -0.8206  0.8949
  508MPD2    H1 7552   4.004   3.387  15.723  0.2479 -0.2022 -0.1658
  508MPD2    H2 7553   4.171   3.142  16.027 -2.2662  0.1358  0.6787
  508MPD2    H3 7554   4.088   3.166  15.796  0.5338 -1.0681  1.7466
  508MPD2     N 7555   3.982   3.615  15.871 -0.8303  0.2522  0.0348
  508MPD2    H5 7556   3.975   3.684  15.945 -1.3191 -1.2037  1.3573
  508MPD2    N1 7557   4.186   3.357  16.208  0.1715  0.1025 -0.2742
  508MPD2    H7 7558   4.255   3.288  16.236  2.3441  3.0732  1.6934
  509TMC3    C1 7559   3.821   3.956  15.607  0.3260 -0.1023 -0.2393
  509TMC3    C2 7560   3.899   4.053  15.667 -0.2598  0.7425 -0.3214
  509TMC3    C3 7561   3.984   3.999  15.764  0.3250  0.1847  0.0760
  509TMC3    C4 7562   3.821   3.824  15.631 -0.2130 -0.3624 -0.0085
  509TMC3    C5 7563   3.895   3.780  15.734 -0.1952  0.2636  0.4849
  509TMC3    C6 7564   3.988   3.871  15.794  0.3199 -0.2067 -0.5111
  509TMC3     C 7565   3.753   3.986  15.482  0.1721  0.1121 -0.0823
  509TMC3     O 7566   3.672   3.905  15.434 -0.8719  0.0473 -0.6069
  509TMC3     H 7567   3.904   4.158  15.640  1.8538  0.5716 -0.5865
  509TMC3    H1 7568   3.750   3.754  15.589  0.4050  0.6409 -2.6990
  509TMC3    H2 7569   4.045   3.850  15.884 -1.2714  0.4244  0.6501
  509TMC3    C7 7570   3.912   3.640  15.758 -0.7990  0.5656 -0.0442
  509TMC3    C8 7571   4.086   4.083  15.819 -0.1483 -0.4238 -0.8296
  509TMC3    O1 7572   3.868   3.566  15.677  0.0473  0.2395  0.2968
  509TMC3    O2 7573   4.182   4.023  15.864  0.0096  0.1484 -0.3097
  510MPD2     C 7574   1.914   1.155  14.538 -0.1061  0.2277 -0.2273
  510MPD2    C1 7575   1.960   1.038  14.590 -0.2572  0.6594 -0.6131
  510MPD2    C2 7576   2.064   0.963  14.538 -0.2779  0.2449 -0.0304
  510MPD2    C3 7577   2.145   1.026  14.444 -0.0030  0.6437  0.0587
  510MPD2    C4 7578   2.100   1.142  14.382 -0.7810  0.2662  0.4850
  510MPD2    C5 7579   1.980   1.194  14.421  0.2252 -0.5095 -0.5703
  510MPD2     H 7580   2.085   0.862  14.570 -1.1270  0.7143  1.9917
  510MPD2    H1 7581   2.135   1.176  14.285  1.3749  0.2129  1.2452
  510MPD2    H2 7582   1.828   1.220  14.553 -0.7474 -0.8944  0.9006
  510MPD2    H3 7583   1.928   1.262  14.355  1.5114  1.0439  0.0195
  510MPD2     N 7584   2.263   0.960  14.398  0.2530  0.6575 -0.0063
  510MPD2    H5 7585   2.286   0.892  14.470  0.0183 -0.2690 -0.8106
  510MPD2    N1 7586   1.874   0.987  14.691  0.0496 -0.3058  0.1311
  510MPD2    H7 7587   1.779   1.022  14.693  0.5976  1.2783 -1.3302
  511TMC3    C1 7588   1.799   0.821  14.847  0.0604 -0.3292 -0.0370
  511TMC3    C2 7589   1.686   0.890  14.866 -0.0668  0.3872  0.8617
  511TMC3    C3 7590   1.577   0.818  14.912  0.3159 -0.2034  0.0539
  511TMC3    C4 7591   1.803   0.684  14.845 -0.7229 -0.6228  0.8010
  511TMC3    C5 7592   1.687   0.616  14.881  0.3959  0.2277 -0.5028
  511TMC3    C6 7593   1.581   0.685  14.934  0.2897  0.0443  0.4283
  511TMC3     C 7594   1.908   0.879  14.775  0.1425  0.6234 -0.3641
  511TMC3     O 7595   2.013   0.815  14.781  0.1745  0.2233 -0.2208
  511TMC3     H 7596   1.688   0.998  14.859 -1.0896  0.1813 -2.4879
  511TMC3    H1 7597   1.878   0.625  14.792 -0.8507  0.1494 -0.2478
  511TMC3    H2 7598   1.504   0.614  14.960  0.0558  0.5898  1.2238
  511TMC3    C7 7599   1.670   0.478  14.832  0.6726  0.0262  0.1763
  511TMC3    C8 7600   1.461   0.889  14.956 -0.2268  0.2394 -0.0635
  511TMC3    O1 7601   1.718   0.455  14.721  0.1715 -0.4405  0.1810
  511TMC3    O2 7602   1.475   1.006  14.984  0.2135 -0.0511 -0.4421
  512TMC3    C1 7603   0.711   4.428  12.993 -0.3920  0.6144 -0.4570
  512TMC3    C2 7604   0.804   4.506  13.050  0.1951 -0.0144 -0.2088
  512TMC3    C3 7605   0.935   4.462  13.069 -0.5280  0.2507 -0.7421
  512TMC3    C4 7606   0.728   4.292  12.970 -0.6511  0.1310 -0.2198
  512TMC3    C5 7607   0.853   4.248  13.006  0.1862  0.9203  0.4930
  512TMC3    C6 7608   0.959   4.321  13.055  0.1214 -0.4238 -0.3097
  512TMC3     C 7609   0.576   4.486  12.992 -0.6969 -0.3607  0.4413
  512TMC3     O 7610   0.538   4.543  13.091 -0.3496  0.1650  0.6304
  512TMC3     H 7611   0.766   4.601  13.085  1.0560  0.3318 -0.2327
  512TMC3    H1 7612   0.655   4.219  12.936  0.6936 -1.1030 -0.4591
  512TMC3    H2 7613   1.056   4.282  13.082  0.8864  1.3768 -0.4482
  512TMC3    C7 7614   0.861   4.105  12.979 -0.0176 -0.0422  0.9468
  512TMC3    C8 7615   1.011   4.516  13.181 -0.2457  0.6913 -0.2504
  512TMC3    O1 7616   0.795   4.061  12.885  0.2568 -0.0954  0.0816
  512TMC3    O2 7617   1.051   4.441  13.271  0.0979  0.0659  0.1395
  513MPD2     C 7618   2.324   4.591  12.884  0.1035 -0.3180  0.0327
  513MPD2    C1 7619   2.377   4.711  12.863  0.5100 -0.2425 -0.1901
  513MPD2    C2 7620   2.447   0.044  12.959  0.4473 -0.4140 -0.2030
  513MPD2    C3 7621   2.463   4.709  13.082 -0.7172 -0.2840 -0.0759
  513MPD2    C4 7622   2.408   4.588  13.115  0.3627 -0.0540 -0.2797
  513MPD2    C5 7623   2.330   4.531  13.010  0.3408 -0.6812  0.6426
  513MPD2     H 7624   2.493   0.140  12.943 -1.9678  0.4540 -1.8149
  513MPD2    H1 7625   2.424   4.527  13.202  2.9708  2.1994  0.8006
  513MPD2    H2 7626   2.263   4.543  12.808 -1.7396  1.3126  0.4725
  513MPD2    H3 7627   2.288   4.432  13.027 -1.9561  0.2906  0.5345
  513MPD2     N 7628   2.542   0.061  13.171  0.4842 -0.9098  0.0604
  513MPD2    H5 7629   2.581   0.145  13.129 -0.2614 -0.5490  0.0849
  513MPD2    N1 7630   2.371   0.054  12.740  0.1317 -0.1280 -0.1978
  513MPD2    H7 7631   2.421   0.140  12.720 -1.0896  0.9256  1.2691
  514TMC3    C1 7632   2.359   0.058  12.510 -0.4796 -0.2329  0.8180
  514TMC3    C2 7633   2.260   0.138  12.462  0.2929 -0.2359  0.2126
  514TMC3    C3 7634   2.300   0.259  12.411 -0.3565  0.6009  0.1328
  514TMC3    C4 7635   2.487   0.095  12.522  0.3109 -0.7302 -0.4460
  514TMC3    C5 7636   2.530   0.220  12.470 -0.1139  0.6392  0.0772
  514TMC3    C6 7637   2.431   0.303  12.413 -0.6338  0.2835  0.8394
  514TMC3     C 7638   2.305   0.002  12.629  0.9224  0.8287  0.8509
  514TMC3     O 7639   2.194   4.668  12.627 -0.4605 -0.7448 -0.2839
  514TMC3     H 7640   2.154   0.118  12.449  0.0823  0.1405  1.3723
  514TMC3    H1 7641   2.560   0.030  12.570  2.1393  0.3485 -1.7684
  514TMC3    H2 7642   2.462   0.395  12.366 -0.4484 -1.0573 -1.6811
  514TMC3    C7 7643   2.609   0.283  12.576 -0.7152  0.2312  0.0052
  514TMC3    C8 7644   2.210   0.311  12.317 -0.7056 -0.2218 -0.0394
  514TMC3    O1 7645   2.545   0.298  12.676 -0.2826 -0.2387 -0.5810
  514TMC3    O2 7646   2.139   0.406  12.353 -0.6168  0.1349  0.4950
  515MPD2     C 7647   0.565   1.983  15.118  0.2340 -0.5191  0.2984
  515MPD2    C1 7648   0.541   1.982  14.986  0.1448 -0.3412 -0.5233
  515MPD2    C2 7649   0.628   2.056  14.909  0.2902 -0.1705  0.1640
  515MPD2    C3 7650   0.738   2.119  14.959  0.2165 -0.0727 -0.6634
  515MPD2    C4 7651   0.770   2.099  15.095 -0.6192  0.1724  0.5414
  515MPD2    C5 7652   0.674   2.045  15.170  0.1918 -0.0345 -0.3817
  515MPD2     H 7653   0.619   2.053  14.801 -1.8719 -0.0652  0.3402
  515MPD2    H1 7654   0.855   2.143  15.144 -0.5886  0.1760  0.4846
  515MPD2    H2 7655   0.502   1.935  15.193  1.1080 -0.5210  1.0305
  515MPD2    H3 7656   0.699   2.023  15.273 -1.9066 -0.0501  0.1286
  515MPD2     N 7657   0.843   2.183  14.892 -0.1958  0.3883 -0.9304
  515MPD2    H5 7658   0.914   2.228  14.949  0.6779 -0.6804 -1.1749
  515MPD2    N1 7659   0.454   1.886  14.922  0.5113  1.2355 -0.3303
  515MPD2    H7 7660   0.464   1.876  14.822  1.6769  1.9852 -0.2886
  516TMC3    C1 7661   0.325   1.690  14.892 -0.2063 -0.2161  0.5944
  516TMC3    C2 7662   0.280   1.746  14.772 -0.5245 -0.9742 -0.3469
  516TMC3    C3 7663   0.241   1.644  14.685  0.0610 -0.4661 -0.0943
  516TMC3    C4 7664   0.313   1.555  14.930 -0.3451  0.5177 -0.5279
  516TMC3    C5 7665   0.257   1.461  14.844  0.2093  0.3507 -0.4289
  516TMC3    C6 7666   0.222   1.511  14.718  1.2980 -0.7520  0.7096
  516TMC3     C 7667   0.388   1.781  14.984 -0.7458 -1.0610 -0.4069
  516TMC3     O 7668   0.389   1.749  15.102  0.0922 -0.5583 -0.1394
  516TMC3     H 7669   0.261   1.851  14.755  2.1998 -0.5421 -0.6661
  516TMC3    H1 7670   0.357   1.524  15.024  1.4140 -0.5444 -1.7145
  516TMC3    H2 7671   0.187   1.444  14.641  0.5510 -0.1001  0.4797
  516TMC3    C7 7672   0.256   1.322  14.875  0.8204  0.1884  0.5242
  516TMC3    C8 7673   0.239   1.669  14.542 -0.2469 -1.1522  0.6728
  516TMC3    O1 7674   0.292   1.304  14.987  0.0434  0.2077 -0.5456
  516TMC3    O2 7675   0.174   1.604  14.461  0.1277  0.1136  0.3275
  517MPD2     C 7676   0.358   3.761  17.331 -0.2117  0.2074 -0.1048
  517MPD2    C1 7677   0.488   3.726  17.356 -0.3500  0.1056  0.1539
  517MPD2    C2 7678   0.566   3.806  17.435  0.1415  0.0804 -0.8421
  517MPD2    C3 7679   0.516   3.919  17.486 -0.2492  0.5322 -0.2670
  517MPD2    C4 7680   0.386   3.953  17.465  0.5644 -0.5664  1.3400
  517MPD2    C5 7681   0.304   3.868  17.387  0.4396  0.2963  0.2120
  517MPD2     H 7682   0.672   3.786  17.448  0.0577  0.9111  1.1076
  517MPD2    H1 7683   0.352   4.041  17.518  1.7062  0.3649  0.5399
  517MPD2    H2 7684   0.292   3.703  17.268 -0.0031  0.9310 -0.9892
  517MPD2    H3 7685   0.196   3.879  17.389  0.5989  2.4553 -3.1306
  517MPD2     N 7686   0.589   3.997  17.585  1.3574 -0.0058  0.3107
  517MPD2    H5 7687   0.530   4.074  17.616  0.6542 -0.4866  0.1738
  517MPD2    N1 7688   0.550   3.618  17.291 -0.2950 -0.3992  0.2587
  517MPD2    H7 7689   0.648   3.605  17.314 -0.7912  1.5951  3.4314
  518TMC3    C1 7690   0.562   3.407  17.208 -0.0364  0.0367 -0.0817
  518TMC3    C2 7691   0.492   3.292  17.198 -0.1911 -0.2610 -0.2370
  518TMC3    C3 7692   0.558   3.182  17.162  0.7095 -0.4118  1.0921
  518TMC3    C4 7693   0.696   3.415  17.195 -0.5300 -0.2183  0.0445
  518TMC3    C5 7694   0.767   3.302  17.163  0.5392 -0.1199 -0.3434
  518TMC3    C6 7695   0.699   3.187  17.150  0.1641 -0.0106 -0.0456
  518TMC3     C 7696   0.481   3.525  17.221 -0.4146 -0.5975 -0.5402
  518TMC3     O 7697   0.366   3.512  17.175  0.1316 -0.5055  0.5537
  518TMC3     H 7698   0.389   3.281  17.231  0.1996 -1.5925  0.5422
  518TMC3    H1 7699   0.757   3.503  17.210  1.3500 -1.4190 -0.4927
  518TMC3    H2 7700   0.756   3.095  17.149  0.5974  0.2599  0.0675
  518TMC3    C7 7701   0.900   3.298  17.213  0.3068 -0.4164  0.4192
  518TMC3    C8 7702   0.501   3.051  17.173  0.0130 -0.3840 -0.3073
  518TMC3    O1 7703   0.931   3.374  17.303 -0.0658  0.1554  0.1280
  518TMC3    O2 7704   0.575   2.953  17.176 -0.0394 -0.0709 -0.1945
  519MPD2     C 7705   2.266   1.607  14.554 -0.2515 -0.2922 -0.4119
  519MPD2    C1 7706   2.174   1.565  14.464  0.7441  0.4631 -0.2629
  519MPD2    C2 7707   2.215   1.484  14.364  0.6520 -0.3862 -0.1202
  519MPD2    C3 7708   2.351   1.460  14.342  0.3466  0.8750 -0.6445
  519MPD2    C4 7709   2.444   1.505  14.434 -1.0205  0.3998 -0.1148
  519MPD2    C5 7710   2.397   1.573  14.540  0.2167  0.1702  0.3372
  519MPD2     H 7711   2.146   1.442  14.291  0.2492  1.2276 -0.6624
  519MPD2    H1 7712   2.551   1.495  14.420 -0.9076  2.1606 -0.4848
  519MPD2    H2 7713   2.252   1.666  14.644  1.2404 -2.1531  1.0461
  519MPD2    H3 7714   2.470   1.629  14.596  1.4695 -1.6872  0.5352
  519MPD2     N 7715   2.396   1.391  14.222 -0.2971 -0.0060  0.6370
  519MPD2    H5 7716   2.496   1.373  14.213 -0.1090  1.4077 -0.1465
  519MPD2    N1 7717   2.040   1.605  14.473 -0.0971 -0.6619  0.0391
  519MPD2    H7 7718   2.010   1.668  14.547  1.0533 -2.0925  1.7335
  520TMC3    C1 7719   2.402   1.330  13.993 -0.0236 -1.0181 -0.4038
  520TMC3    C2 7720   2.371   1.385  13.871  0.3323  0.7537 -0.6739
  520TMC3    C3 7721   2.450   1.348  13.770  0.1265 -0.9562  0.6040
  520TMC3    C4 7722   2.512   1.258  14.015 -0.0032 -0.1099  0.0970
  520TMC3    C5 7723   2.602   1.243  13.916 -0.3027 -0.8290  0.3453
  520TMC3    C6 7724   2.572   1.286  13.792 -0.1202 -0.0064  0.4655
  520TMC3     C 7725   2.320   1.360  14.110  0.0419  0.2313 -0.1819
  520TMC3     O 7726   2.209   1.398  14.075  0.7976 -0.3276  0.0685
  520TMC3     H 7727   2.292   1.457  13.854  0.7657  0.8163 -2.3811
  520TMC3    H1 7728   2.527   1.208  14.110 -1.4609 -0.4489  0.1622
  520TMC3    H2 7729   2.638   1.285  13.706  1.3463 -2.3805  1.6415
  520TMC3    C7 7730   2.712   1.149  13.937 -0.3118 -0.0692 -0.2633
  520TMC3    C8 7731   2.417   1.405  13.637 -0.6704  0.4119 -0.1874
  520TMC3    O1 7732   2.719   1.096  14.044 -0.9367 -0.0455  0.3984
  520TMC3    O2 7733   2.511   1.456  13.577  0.1536 -0.0923 -0.1985
  521MPD2     C 7734   3.234   4.273   0.129 -0.1541 -0.1001  0.4976
  521MPD2    C1 7735   3.205   4.281  17.691  1.0542 -0.0967  0.4531
  521MPD2    C2 7736   3.298   4.243  17.598  1.1017 -0.1814  0.3622
  521MPD2    C3 7737   3.406   4.173  17.639  0.4596 -0.2465  0.0008
  521MPD2    C4 7738   3.429   4.148   0.079  0.8710 -0.4348 -0.9011
  521MPD2    C5 7739   3.341   4.194   0.168  0.2837 -0.5164  0.4529
  521MPD2     H 7740   3.282   4.257  17.492  0.4725  1.3455  0.6568
  521MPD2    H1 7741   3.520   4.096   0.107 -0.1076 -1.4612  0.3385
  521MPD2    H2 7742   3.166   4.305   0.207  1.2597  2.0282  0.8650
  521MPD2    H3 7743   3.354   4.171   0.273  1.7052 -0.9627  0.1811
  521MPD2     N 7744   3.488   4.118  17.534  0.3275  0.1196  0.0694
  521MPD2    H5 7745   3.460   4.138  17.438  0.9070  1.0447  0.0928
  521MPD2    N1 7746   3.078   4.338  17.653  0.3333  0.0125  0.4149
  521MPD2    H7 7747   3.023   4.391   0.026 -0.8154  1.8831 -1.9685
  522TMC3    C1 7748   3.650   3.972  17.437  0.0553  0.3562  0.2536
  522TMC3    C2 7749   3.706   3.848  17.438  0.0146 -0.5427  0.0737
  522TMC3    C3 7750   3.804   3.819  17.345  0.1479 -0.3905 -0.2462
  522TMC3    C4 7751   3.660   4.059  17.334 -0.3447  0.4106  0.2335
  522TMC3    C5 7752   3.741   4.019  17.233  0.1731 -0.2424  0.7639
  522TMC3    C6 7753   3.820   3.908  17.234  0.9256  0.4322  0.5842
  522TMC3     C 7754   3.586   4.018  17.561 -0.4575  0.1837  0.3040
  522TMC3     O 7755   3.608   3.955  17.664  0.4650  0.9763  0.0968
  522TMC3     H 7756   3.687   3.781  17.522  0.9097 -1.9302 -0.8267
  522TMC3    H1 7757   3.623   4.161  17.342 -3.3295 -0.6797  0.4356
  522TMC3    H2 7758   3.884   3.882  17.151 -2.5477 -3.5663 -0.8573
  522TMC3    C7 7759   3.748   4.114  17.115 -0.7566 -0.2178 -0.0966
  522TMC3    C8 7760   3.871   3.686  17.341 -0.8771 -0.6184 -0.6783
  522TMC3    O1 7761   3.864   4.121  17.070 -0.2278  0.3189 -0.8101
  522TMC3    O2 7762   3.850   3.612  17.439  0.3633 -0.4972 -0.4581
  523MPD2     C 7763   0.687   4.252  10.223  0.1200 -0.5030 -0.2478
  523MPD2    C1 7764   0.741   4.212  10.102 -0.0223 -0.2488  0.3853
  523MPD2    C2 7765   0.691   4.260   9.983  0.0472  0.3135  0.2163
  523MPD2    C3 7766   0.592   4.355   9.975  0.4011  0.8725  0.6430
  523MPD2    C4 7767   0.557   4.405  10.097  0.4869 -0.3584  0.6567
  523MPD2    C5 7768   0.594   4.347  10.218 -0.4282  0.2814  0.8536
  523MPD2     H 7769   0.735   4.234   9.888  0.1608 -0.2692  0.4281
  523MPD2    H1 7770   0.476   4.478  10.093  0.9345  0.2045  1.9330
  523MPD2    H2 7771   0.715   4.220  10.322 -0.6382 -0.6699 -0.0879
  523MPD2    H3 7772   0.538   4.391  10.300  1.2761  0.8307  1.7429
  523MPD2     N 7773   0.538   4.421   9.861 -0.0175 -0.6967  0.1924
  523MPD2    H5 7774   0.492   4.510   9.878  0.7868  0.0204 -1.4145
  523MPD2    N1 7775   0.851   4.124  10.107  0.1692 -0.0691 -0.2705
  523MPD2    H7 7776   0.897   4.110  10.196 -0.9539 -1.8804  0.0254
  524TMC3    C1 7777   0.535   4.475   9.629  0.3130  0.2830 -0.0884
  524TMC3    C2 7778   0.636   4.488   9.536 -0.1571  0.2274  0.0225
  524TMC3    C3 7779   0.640   4.607   9.466  0.2199 -0.1987  0.3403
  524TMC3    C4 7780   0.440   4.573   9.643  0.9779 -0.5043 -0.1883
  524TMC3    C5 7781   0.456   4.692   9.574 -0.1824  0.1217 -0.3295
  524TMC3    C6 7782   0.552   4.711   9.483 -0.1969  0.6852  0.3914
  524TMC3     C 7783   0.556   4.373   9.733  0.3154 -0.3370  0.2133
  524TMC3     O 7784   0.614   4.271   9.688 -0.1271 -0.2756  0.9025
  524TMC3     H 7785   0.702   4.406   9.512  1.4309  0.8743  2.1602
  524TMC3    H1 7786   0.364   4.562   9.720 -3.0930  2.0070 -3.8372
  524TMC3    H2 7787   0.569   0.085   9.439  2.1408 -0.4625 -1.2878
  524TMC3    C7 7788   0.363   0.077   9.570 -0.0495  0.2990 -1.0311
  524TMC3    C8 7789   0.766   4.636   9.397  0.1537  0.1785 -0.0727
  524TMC3    O1 7790   0.242   0.051   9.551  0.4097  0.3679  0.4263
  524TMC3    O2 7791   0.765   0.016   9.330 -0.8078  0.5047  0.2666
  525MPD2     C 7792   3.516   0.786  14.499 -0.1079  0.2660 -0.5747
  525MPD2    C1 7793   3.539   0.840  14.626 -0.6180 -0.2261 -1.0619
  525MPD2    C2 7794   3.573   0.975  14.635  0.3937 -0.4296 -0.2626
  525MPD2    C3 7795   3.567   1.046  14.518 -0.7226 -0.3325 -0.2523
  525MPD2    C4 7796   3.537   0.992  14.398  0.4291  0.3872 -0.1760
  525MPD2    C5 7797   3.521   0.857  14.387 -0.1444 -0.0609 -0.1363
  525MPD2     H 7798   3.590   1.018  14.732 -3.8993  0.0785  0.2375
  525MPD2    H1 7799   3.545   1.045  14.304  1.8598  3.0142  1.4196
  525MPD2    H2 7800   3.499   0.678  14.498  2.2594 -0.1365  2.1343
  525MPD2    H3 7801   3.501   0.815  14.289  2.5618 -0.6855 -0.4179
  525MPD2     N 7802   3.601   1.179  14.519  0.3417  0.0097 -0.2725
  525MPD2    H5 7803   3.623   1.220  14.610  1.7797 -2.1742  0.3690
  525MPD2    N1 7804   3.537   0.764  14.743  0.0151  0.1363 -0.3843
  525MPD2    H7 7805   3.563   0.802  14.834 -2.1563 -1.1838  0.8082
  526TMC3    C1 7806   3.524   0.581  14.888 -0.0503  0.5230  0.7671
  526TMC3    C2 7807   3.429   0.505  14.955  0.1681  0.4841 -1.1798
  526TMC3    C3 7808   3.457   0.451  15.079 -0.0141 -0.2673 -0.4113
  526TMC3    C4 7809   3.647   0.609  14.937  0.5821 -0.1081 -0.6542
  526TMC3    C5 7810   3.671   0.558  15.056 -0.0000 -0.1311  0.9111
  526TMC3    C6 7811   3.582   0.482  15.128 -0.5318 -0.3491  0.1830
  526TMC3     C 7812   3.482   0.639  14.760  0.3622  0.0548 -0.5849
  526TMC3     O 7813   3.432   0.564  14.677 -0.3049 -0.4938 -0.0434
  526TMC3     H 7814   3.329   0.496  14.915  0.3074 -1.1435 -1.1626
  526TMC3    H1 7815   3.719   0.667  14.880  1.0274  0.6401  0.6617
  526TMC3    H2 7816   3.614   0.455  15.228 -0.7989 -0.6529  0.1881
  526TMC3    C7 7817   3.807   0.559  15.105  0.2525 -0.9958 -0.5097
  526TMC3    C8 7818   3.355   0.449  15.176  0.2772  0.0061 -0.1048
  526TMC3    O1 7819   3.824   0.539  15.225 -0.0028  0.1359  0.3976
  526TMC3    O2 7820   3.393   0.439  15.291  0.0105 -0.0040 -0.4546
  527MPD2     C 7821   2.350   0.228   1.237  0.3660 -0.7509  0.7602
  527MPD2    C1 7822   2.372   0.113   1.309 -0.6078 -0.0088 -0.1522
  527MPD2    C2 7823   2.380   4.721   1.238 -0.1168  0.2754 -0.3583
  527MPD2    C3 7824   2.371   4.715   1.099  0.0332  0.2989 -0.2132
  527MPD2    C4 7825   2.360   0.107   1.024 -0.6729 -0.2832  0.1071
  527MPD2    C5 7826   2.349   0.225   1.097 -0.2541  0.5272 -0.4236
  527MPD2     H 7827   2.394   4.629   1.294 -2.4042  0.7104  0.9114
  527MPD2    H1 7828   2.346   0.114   0.917  0.6743 -0.5790 -0.0831
  527MPD2    H2 7829   2.342   0.325   1.284 -1.1693  0.0074 -1.0813
  527MPD2    H3 7830   2.334   0.324   1.055 -2.8688  0.1473 -0.3812
  527MPD2     N 7831   2.376   4.585   1.037  0.1046  0.0273  0.6751
  527MPD2    H5 7832   2.371   4.515   1.111 -3.2834 -1.2713 -0.7697
  527MPD2    N1 7833   2.399   0.102   1.449  0.3544  0.0765 -0.3814
  527MPD2    H7 7834   2.408   0.009   1.489  0.3739  0.1559 -0.2003
  528TMC3    C1 7835   2.434   0.170   1.658  0.5032 -0.2850  0.8082
  528TMC3    C2 7836   2.496   0.262   1.735  0.2370  0.4109  0.5099
  528TMC3    C3 7837   2.491   0.254   1.874  0.7051  0.3270 -0.5006
  528TMC3    C4 7838   2.363   0.066   1.715 -0.0330  0.3243  0.2065
  528TMC3    C5 7839   2.359   0.064   1.851  0.5473  0.4414 -0.6051
  528TMC3    C6 7840   2.411   0.164   1.935 -0.3562  0.1448 -0.7725
  528TMC3     C 7841   2.407   0.210   1.530  0.6683  0.5400  0.4112
  528TMC3     O 7842   2.398   0.329   1.502  0.0262  0.1014  0.2457
  528TMC3     H 7843   2.562   0.332   1.684 -0.9392  0.3100 -1.1589
  528TMC3    H1 7844   2.299   0.002   1.656  1.5820 -0.0935 -1.0638
  528TMC3    H2 7845   2.383   0.155   2.039  1.9765  1.1204 -0.0817
  528TMC3    C7 7846   2.282   4.676   1.910 -0.3089 -0.0760 -1.1202
  528TMC3    C8 7847   2.572   0.348   1.943 -0.0181 -0.0035  0.8462
  528TMC3    O1 7848   2.206   4.616   1.831  0.6674  0.1725 -0.7204
  528TMC3    O2 7849   2.615   0.443   1.881 -0.3733  0.3375  0.1618
  529MPD2     C 7850   3.854   3.057   0.753  0.1562  0.1423 -0.4455
  529MPD2    C1 7851   3.836   2.935   0.689 -0.3588  0.0970 -0.4981
  529MPD2    C2 7852   3.763   2.925   0.571 -0.6773 -0.2056  0.3283
  529MPD2    C3 7853   3.691   3.033   0.531  0.2987 -0.0423 -0.8192
  529MPD2    C4 7854   3.705   3.154   0.593  0.0742  0.0542 -0.5437
  529MPD2    C5 7855   3.790   3.165   0.699 -0.4579 -0.8779  0.3484
  529MPD2     H 7856   3.766   2.827   0.524 -1.3496 -0.1127  0.0900
  529MPD2    H1 7857   3.659   3.247   0.562  0.1794  0.0751 -0.6385
  529MPD2    H2 7858   3.899   3.077   0.849 -0.5062  0.7798 -0.2735
  529MPD2    H3 7859   3.808   3.252   0.761 -0.8040 -1.6632  1.5628
  529MPD2     N 7860   3.610   3.037   0.418  0.2769  0.2015 -0.2461
  529MPD2    H5 7861   3.566   3.129   0.407 -0.8746 -0.2218  0.8595
  529MPD2    N1 7862   3.891   2.814   0.737 -0.5027 -0.3022 -0.9846
  529MPD2    H7 7863   3.899   2.737   0.672 -1.1743  0.8064 -2.3719
  530TMC3    C1 7864   3.991   2.667   0.899  0.2305  0.6418  0.9681
  530TMC3    C2 7865   4.020   2.639   1.030 -0.3988 -0.4661 -0.2621
  530TMC3    C3 7866   4.040   2.508   1.065  0.3642 -0.1786 -0.1938
  530TMC3    C4 7867   3.982   2.563   0.810  0.1659  0.0386  0.0574
  530TMC3    C5 7868   4.003   2.430   0.847 -0.4499 -0.1835 -0.3702
  530TMC3    C6 7869   4.025   2.400   0.979  0.4976  0.9989  0.3461
  530TMC3     C 7870   3.950   2.802   0.860  0.0761 -0.0926 -0.1455
  530TMC3     O 7871   3.971   2.878   0.951  0.0385  0.0427  0.1565
  530TMC3     H 7872   4.026   2.719   1.103 -0.8890 -0.6185 -0.0550
  530TMC3    H1 7873   3.968   2.583   0.705 -3.6121 -1.4761  0.2910
  530TMC3    H2 7874   4.051   2.297   1.000 -0.1675  0.7322 -0.1527
  530TMC3    C7 7875   3.921   2.334   0.779  0.2837 -0.4683 -0.5970
  530TMC3    C8 7876   4.098   2.488   1.199  0.3180 -0.0522 -0.5115
  530TMC3    O1 7877   3.921   2.345   0.657  0.5356  0.1057 -0.4592
  530TMC3    O2 7878   4.096   2.585   1.272 -0.3201 -0.3042  0.3234
  531MPD2     C 7879   3.041   0.332  12.847 -0.4344  0.5079 -0.7153
  531MPD2    C1 7880   2.911   0.337  12.888 -0.0204  0.1847 -0.4577
  531MPD2    C2 7881   2.809   0.321  12.793 -0.4679  0.4702  0.1198
  531MPD2    C3 7882   2.839   0.308  12.659  0.2572  0.3923  0.3903
  531MPD2    C4 7883   2.971   0.314  12.620 -0.3063 -0.0149 -0.4770
  531MPD2    C5 7884   3.067   0.328  12.714  0.2903 -0.7799 -0.9242
  531MPD2     H 7885   2.706   0.339  12.823 -0.3150  1.0428  0.3130
  531MPD2    H1 7886   3.001   0.315  12.516  0.1853  0.3112 -0.3289
  531MPD2    H2 7887   3.120   0.351  12.918 -0.6063  0.3087 -0.4688
  531MPD2    H3 7888   3.173   0.323  12.691  1.1763 -0.7503  3.2074
  531MPD2     N 7889   2.745   0.288  12.556 -0.2950 -0.2833 -0.3539
  531MPD2    H5 7890   2.775   0.270  12.461  2.9901  1.4070  0.3803
  531MPD2    N1 7891   2.894   0.345  13.030 -0.7988 -0.3287 -0.5238
  531MPD2    H7 7892   2.982   0.354  13.079 -0.2742 -1.2242 -1.2950
  532TMC3    C1 7893   2.785   0.295  13.236 -0.7888  0.2481 -0.4920
  532TMC3    C2 7894   2.664   0.246  13.279  0.3825  0.0931 -0.1412
  532TMC3    C3 7895   2.656   0.129  13.357  0.0290 -0.1647  0.9292
  532TMC3    C4 7896   2.900   0.232  13.282  0.2312 -0.1978 -0.1163
  532TMC3    C5 7897   2.886   0.130  13.372 -0.2232 -0.6640  0.1924
  532TMC3    C6 7898   2.769   0.071  13.406  0.3053  0.5045  0.5876
  532TMC3     C 7899   2.773   0.323  13.095 -0.1907 -0.0711 -0.2087
  532TMC3     O 7900   2.657   0.312  13.047  0.5648 -0.0824 -0.0071
  532TMC3     H 7901   2.572   0.297  13.252  0.9704  1.4371  0.4004
  532TMC3    H1 7902   2.992   0.285  13.260 -1.2099  2.3227 -0.1296
  532TMC3    H2 7903   2.762   4.701  13.462 -0.9805  0.1725 -0.1210
  532TMC3    C7 7904   3.005   0.042  13.393 -0.6745  0.3932  0.1833
  532TMC3    C8 7905   2.560   0.038  13.306 -0.2083  0.0597  0.2391
  532TMC3    O1 7906   3.002   4.683  13.480  0.1421 -0.1413 -0.0190
  532TMC3    O2 7907   2.544   4.656  13.370 -0.1877 -0.3530 -0.3802
  533TMC3    C1 7908   3.679   1.389  14.467 -0.1157  0.0689 -1.0441
  533TMC3    C2 7909   3.811   1.425  14.447  0.2633 -0.2468 -0.1817
  533TMC3    C3 7910   3.873   1.490  14.547 -0.2638 -0.3326 -0.5095
  533TMC3    C4 7911   3.609   1.414  14.582  0.2252 -0.5601  1.1072
  533TMC3    C5 7912   3.683   1.468  14.684  0.2586 -0.1698 -1.0064
  533TMC3    C6 7913   3.813   1.498  14.670 -0.2624  0.4987  0.1108
  533TMC3     C 7914   3.639   1.260  14.414  0.7783 -0.2070 -0.7293
  533TMC3     O 7915   3.645   1.240  14.295  1.4796  0.2689 -0.4464
  533TMC3     H 7916   3.868   1.405  14.357  1.7194 -0.8349  0.8780
  533TMC3    H1 7917   3.505   1.386  14.588 -0.2325  0.6474 -1.2928
  533TMC3    H2 7918   3.863   1.539  14.757  0.0389  0.7925 -0.2059
  533TMC3    C7 7919   3.640   1.415  14.812 -0.2367 -0.3226 -0.3743
  533TMC3    C8 7920   3.992   1.566  14.523  0.5471 -0.2794 -0.1184
  533TMC3    O1 7921   3.581   1.308  14.816  0.4211 -0.2085  0.1678
  533TMC3    O2 7922   4.052   1.592  14.625 -0.2857 -0.1930  0.2089
  534MPD2     C 7923   1.444   3.723   0.987 -0.4963  0.3170  0.2395
  534MPD2    C1 7924   1.544   3.702   1.077  0.0694  0.2117 -0.1718
  534MPD2    C2 7925   1.588   3.573   1.109 -0.3580 -0.2116  0.0071
  534MPD2    C3 7926   1.537   3.470   1.028  0.0195 -0.0836 -0.0575
  534MPD2    C4 7927   1.441   3.497   0.931  0.4208 -0.3419  0.2196
  534MPD2    C5 7928   1.399   3.621   0.903 -0.0702 -0.0002 -0.4866
  534MPD2     H 7929   1.653   3.554   1.194 -1.2085 -3.6003 -0.1092
  534MPD2    H1 7930   1.402   3.423   0.862  1.9720 -1.5062  0.5862
  534MPD2    H2 7931   1.410   3.821   0.953  0.0320  0.8847  1.3366
  534MPD2    H3 7932   1.337   3.642   0.817 -0.5417 -0.5423 -0.2752
  534MPD2     N 7933   1.563   3.333   1.048  0.0849  0.2049  0.2962
  534MPD2    H5 7934   1.498   3.267   1.007  0.6001  0.2402 -0.5882
  534MPD2    N1 7935   1.598   3.801   1.154  0.1800 -0.1497  0.6819
  534MPD2    H7 7936   1.668   3.774   1.223  0.8831  1.2183  0.5223
  535TMC3    C1 7937   1.668   3.154   1.162  0.3524  0.5957 -0.2728
  535TMC3    C2 7938   1.539   3.114   1.191 -0.6533 -0.8833  0.1281
  535TMC3    C3 7939   1.533   2.986   1.228  0.0778 -0.1608  0.1313
  535TMC3    C4 7940   1.780   3.078   1.165  0.2471 -0.1830  0.6096
  535TMC3    C5 7941   1.761   2.953   1.201 -0.2718  0.2231  0.5071
  535TMC3    C6 7942   1.641   2.906   1.235  0.2001  0.3392  0.0466
  535TMC3     C 7943   1.678   3.292   1.120 -0.3558  0.2477  0.2861
  535TMC3     O 7944   1.777   3.353   1.152  0.2828 -0.2136 -0.2239
  535TMC3     H 7945   1.456   3.182   1.203  0.7085  0.7302  0.5305
  535TMC3    H1 7946   1.874   3.127   1.148 -0.1840  0.5923  0.4760
  535TMC3    H2 7947   1.630   2.810   1.285  2.9376  0.7131  1.3739
  535TMC3    C7 7948   1.859   2.847   1.157 -0.7572  1.3238 -0.5352
  535TMC3    C8 7949   1.417   2.948   1.305  0.2647 -0.0178  0.0545
  535TMC3    O1 7950   1.818   2.730   1.178  0.0178  0.1588 -0.2518
  535TMC3    O2 7951   1.407   2.830   1.316  0.0286 -0.1458 -0.2067
  536MPD2     C 7952   0.390   0.573  16.485  0.2544 -0.5331 -0.4424
  536MPD2    C1 7953   0.352   0.704  16.503  0.5973  0.6670 -0.0623
  536MPD2    C2 7954   0.263   0.765  16.406  0.3384 -0.0418  0.3215
  536MPD2    C3 7955   0.228   0.693  16.293 -0.4719 -0.5258 -1.0109
  536MPD2    C4 7956   0.277   0.563  16.282  0.0142  0.3300 -1.0619
  536MPD2    C5 7957   0.348   0.501  16.375  0.1597  0.0777 -0.9550
  536MPD2     H 7958   0.234   0.868  16.421 -0.6356 -0.2730  0.0286
  536MPD2    H1 7959   0.266   0.507  16.190  3.1572 -2.0343  0.0270
  536MPD2    H2 7960   0.462   0.511  16.537  1.4900  1.5744  0.3260
  536MPD2    H3 7961   0.384   0.400  16.361 -1.2897 -0.4382 -0.8804
  536MPD2     N 7962   0.138   0.739  16.196  0.2291 -0.3750  0.5104
  536MPD2    H5 7963   0.117   0.677  16.118  0.2817 -0.9765  0.9764
  536MPD2    N1 7964   0.416   0.749  16.628  0.0459 -0.0687  0.0457
  536MPD2    H7 7965   0.477   0.685  16.676 -1.4919 -0.3889  1.5662
  537TMC3    C1 7966   0.445   0.918  16.803  0.2756 -0.2201  0.8258
  537TMC3    C2 7967   0.461   1.053  16.808  0.4373 -0.5471  0.2386
  537TMC3    C3 7968   0.548   1.095  16.903  0.8663  0.1443 -0.3009
  537TMC3    C4 7969   0.510   0.829  16.883  1.3395 -0.2004  0.3238
  537TMC3    C5 7970   0.597   0.881  16.979  0.2239 -0.0402 -0.3195
  537TMC3    C6 7971   0.620   1.016  16.990  0.4068 -0.3720 -0.9362
  537TMC3     C 7972   0.388   0.880  16.680 -0.0671  0.1201 -0.1666
  537TMC3     O 7973   0.318   0.963  16.628  0.5436 -0.1246  0.0673
  537TMC3     H 7974   0.411   1.112  16.733  2.1826  0.7455  0.0868
  537TMC3    H1 7975   0.502   0.721  16.877  1.5425 -0.0481 -2.9918
  537TMC3    H2 7976   0.689   1.063  17.060  1.0238 -1.0073 -1.1256
  537TMC3    C7 7977   0.668   0.787  17.061  0.5071 -0.7426  0.3306
  537TMC3    C8 7978   0.573   1.234  16.921 -0.3152  0.8383 -0.0455
  537TMC3    O1 7979   0.666   0.669  17.031 -0.0396  0.2929 -0.6668
  537TMC3    O2 7980   0.680   1.255  16.980  0.3562 -0.5987 -0.6400
  538TMC3    C1 7981   1.117   4.434  10.845 -0.7206 -0.4033 -0.2424
  538TMC3    C2 7982   1.157   4.300  10.858  0.3433  0.4473  0.1378
  538TMC3    C3 7983   1.168   4.231  10.743 -0.0811 -1.0146 -0.0952
  538TMC3    C4 7984   1.079   4.487  10.720 -0.2720 -0.4383  0.2131
  538TMC3    C5 7985   1.075   4.398  10.609  0.4406 -0.3120 -0.2217
  538TMC3    C6 7986   1.126   4.276  10.620 -0.0190  0.1919 -0.0690
  538TMC3     C 7987   1.081   4.515  10.958 -0.4330  0.6668  0.3852
  538TMC3     O 7988   1.035   4.626  10.943  0.7987  0.0599  0.0748
  538TMC3     H 7989   1.175   4.249  10.952  2.1896 -1.2291 -1.1426
  538TMC3    H1 7990   1.035   4.586  10.721  0.1804 -0.2346 -0.0321
  538TMC3    H2 7991   1.111   4.213  10.533 -2.9207 -1.1063  1.3811
  538TMC3    C7 7992   0.949   4.403  10.539 -0.2466 -0.1928 -0.6290
  538TMC3    C8 7993   1.239   4.111  10.737  0.6447  0.0406  0.9099
  538TMC3    O1 7994   0.888   4.296  10.538  0.4254 -0.0978  0.2491
  538TMC3    O2 7995   1.256   4.039  10.836 -0.5173 -0.7338 -0.5650
  539MPD2     C 7996   0.686   3.851  11.943 -0.4213  0.0982 -0.2624
  539MPD2    C1 7997   0.748   3.874  11.822  0.7498  0.5275  0.6719
  539MPD2    C2 7998   0.744   4.004  11.770 -0.2745  1.0490 -0.1786
  539MPD2    C3 7999   0.678   4.110  11.826 -0.3119 -0.4671 -0.2743
  539MPD2    C4 8000   0.627   4.084  11.950 -0.0055 -0.3612  0.4159
  539MPD2    C5 8001   0.629   3.958  12.008 -1.5927 -0.2168 -0.3655
  539MPD2     H 8002   0.794   4.012  11.674  0.9301 -0.8097  0.2875
  539MPD2    H1 8003   0.587   4.165  12.010 -0.4481 -0.0845 -0.2495
  539MPD2    H2 8004   0.682   3.757  11.996  0.8979  0.0229 -0.2966
  539MPD2    H3 8005   0.592   3.941  12.108 -0.4887 -0.8045 -0.0512
  539MPD2     N 8006   0.665   4.238  11.779 -0.0643 -0.3827  0.4481
  539MPD2    H5 8007   0.614   4.304  11.837 -3.3033 -2.3186 -0.1678
  539MPD2    N1 8008   0.816   3.772  11.749 -0.4000  0.0432  0.3692
  539MPD2    H7 8009   0.852   3.794  11.657 -0.2856  0.3314  0.4836
  540TMC3    C1 8010   0.677   4.423  11.629  0.1354 -0.5476 -0.5671
  540TMC3    C2 8011   0.714   4.475  11.508  0.2448 -0.0396 -0.1780
  540TMC3    C3 8012   0.639   4.575  11.455 -0.5000 -0.4490  0.2319
  540TMC3    C4 8013   0.564   4.463  11.691 -0.2832 -0.6086 -0.6646
  540TMC3    C5 8014   0.484   4.559  11.621 -0.2469  0.4508 -0.0259
  540TMC3    C6 8015   0.515   4.614  11.502  0.1540  0.1280 -0.5009
  540TMC3     C 8016   0.707   4.281  11.649 -0.2647  0.4695  0.5610
  540TMC3     O 8017   0.781   4.230  11.565 -0.4021 -0.1275 -0.2095
  540TMC3     H 8018   0.797   4.430  11.454  1.7071  1.6523  0.6766
  540TMC3    H1 8019   0.527   4.421  11.784  2.6700 -1.2825  0.1844
  540TMC3    H2 8020   0.458   4.691  11.452  1.2538  1.4987  0.3742
  540TMC3    C7 8021   0.356   4.590  11.681  0.3518 -0.1967  1.1106
  540TMC3    C8 8022   0.655   4.591  11.314 -0.6796 -1.1689 -0.2566
  540TMC3    O1 8023   0.315   4.516  11.772 -0.0304 -0.5388 -0.3565
  540TMC3    O2 8024   0.635   4.702  11.267  0.5050 -0.2598 -0.0218
  541MPD2     C 8025   4.094   0.750  13.186  0.0112  0.8484 -0.1402
  541MPD2    C1 8026   4.101   0.662  13.084  0.0614  0.6719 -0.0801
  541MPD2    C2 8027   4.103   0.714  12.955 -0.0995  0.3344  0.2280
  541MPD2    C3 8028   4.104   0.851  12.936 -0.2459 -0.0802 -0.0039
  541MPD2    C4 8029   4.120   0.935  13.046 -0.1602 -0.1815 -0.5478
  541MPD2    C5 8030   4.097   0.884  13.168 -0.2746  1.3638 -0.7053
  541MPD2     H 8031   4.111   0.650  12.868 -0.1991  0.1282  0.3687
  541MPD2    H1 8032   4.128   1.043  13.036 -1.3154 -0.0181  0.3002
  541MPD2    H2 8033   4.080   0.716  13.288  2.6885 -1.2905 -0.4815
  541MPD2    H3 8034   4.078   0.943  13.257  0.9396  1.1802 -0.3242
  541MPD2     N 8035   4.116   0.919  12.817  0.5920 -0.3529 -0.6962
  541MPD2    H5 8036   4.136   1.017  12.834  2.6870 -0.4705 -2.4322
  541MPD2    N1 8037   4.123   0.517  13.103 -0.1194  0.6941 -0.1455
  541MPD2    H7 8038   4.126   0.459  13.020  1.1258 -0.8371  0.9526
  542TMC3    C1 8039   4.118   0.973  12.591 -0.1565 -0.0601 -0.3260
  542TMC3    C2 8040   4.073   0.947  12.462 -0.0760  0.0211  0.1810
  542TMC3    C3 8041   4.121   1.016  12.352 -0.2793  0.4232  0.4454
  542TMC3    C4 8042   4.195   1.083  12.620  0.6790 -0.2018  0.0194
  542TMC3    C5 8043   4.241   1.151  12.507  1.1315 -0.0242 -0.0815
  542TMC3    C6 8044   4.204   1.120  12.378  0.2568  0.2740  0.7152
  542TMC3     C 8045   4.101   0.865  12.693  0.1743  0.1579  0.1323
  542TMC3     O 8046   4.058   0.757  12.655 -0.7139  0.8161  0.4884
  542TMC3     H 8047   4.025   0.852  12.441 -2.2116  1.9294 -3.5367
  542TMC3    H1 8048   4.206   1.119  12.722 -3.2903  2.1085 -0.3844
  542TMC3    H2 8049   4.230   1.194  12.302  1.0746 -0.4162  0.3306
  542TMC3    C7 8050   4.305   1.281  12.529 -1.0031 -0.5308 -0.6194
  542TMC3    C8 8051   4.151   0.945  12.228  0.2311 -0.5470 -0.1252
  542TMC3    O1 8052   4.274   1.375  12.455  0.4889  0.2822  0.1732
  542TMC3    O2 8053   4.068   0.872  12.181 -0.0232 -0.1285 -0.0443
  543TMC3    C1 8054   3.379   1.237  16.808  0.2384 -0.6726  0.2683
  543TMC3    C2 8055   3.442   1.120  16.841  0.6523  1.0284 -0.1973
  543TMC3    C3 8056   3.444   1.076  16.974 -0.0455 -0.0699  0.7476
  543TMC3    C4 8057   3.318   1.307  16.907  0.1918 -0.3442 -0.4816
  543TMC3    C5 8058   3.304   1.256  17.032 -0.0630  0.1156 -0.2466
  543TMC3    C6 8059   3.374   1.143  17.073  0.6185  0.1291  0.4601
  543TMC3     C 8060   3.431   1.300  16.697  0.2769  0.0080 -0.2859
  543TMC3     O 8061   3.541   1.263  16.663 -0.0870 -0.4737  0.2791
  543TMC3     H 8062   3.502   1.063  16.771 -0.6775 -1.4751  0.6973
  543TMC3    H1 8063   3.251   1.392  16.895 -1.9147 -1.6961  1.5793
  543TMC3    H2 8064   3.365   1.107  17.175 -0.5454 -0.9600 -0.0328
  543TMC3    C7 8065   3.245   1.339  17.137  0.0233 -0.3403 -0.1766
  543TMC3    C8 8066   3.560   0.991  17.010 -0.3131 -0.3568 -0.1044
  543TMC3    O1 8067   3.220   1.457  17.107 -0.4531 -0.6698  0.0569
  543TMC3    O2 8068   3.614   0.921  16.926  0.4350 -0.4196 -0.6786
  544MPD2     C 8069   3.866   0.783  17.379 -0.9012  0.7140 -0.5870
  544MPD2    C1 8070   3.853   0.756  17.245 -0.3742 -0.2154 -0.0159
  544MPD2    C2 8071   3.760   0.820  17.164 -0.6741  0.5733 -0.2397
  544MPD2    C3 8072   3.688   0.927  17.215  0.4168 -0.1331  0.2183
  544MPD2    C4 8073   3.713   0.966  17.346 -1.6093  0.5163  0.1282
  544MPD2    C5 8074   3.804   0.897  17.423  0.5324 -0.2931 -0.0754
  544MPD2     H 8075   3.748   0.795  17.059 -1.7765 -1.7088  0.4503
  544MPD2    H1 8076   3.673   1.055  17.392 -1.6122 -0.0443  1.2126
  544MPD2    H2 8077   3.932   0.725  17.442 -1.5281 -0.3083 -0.8729
  544MPD2    H3 8078   3.831   0.931  17.522  2.3379 -0.1436 -0.6248
  544MPD2     N 8079   3.602   1.007  17.140  0.7768  0.0757 -0.1246
  544MPD2    H5 8080   3.546   1.073  17.193 -0.7597 -0.3542 -1.2390
  544MPD2    N1 8081   3.918   0.638  17.201 -0.0919 -0.3155 -0.5733
  544MPD2    H7 8082   3.987   0.592  17.260 -0.4944  1.4400  1.2533
  545TMC3    C1 8083   4.007   0.486  17.055 -0.2421 -0.3415  0.1303
  545TMC3    C2 8084   4.122   0.516  16.982 -0.1627  0.0220 -0.3782
  545TMC3    C3 8085   4.237   0.447  17.016  0.3063  0.5014 -0.2067
  545TMC3    C4 8086   4.002   0.387  17.151  0.0328 -0.0113  0.2268
  545TMC3    C5 8087   4.122   0.329  17.179 -0.1564 -0.4520 -0.7143
  545TMC3    C6 8088   4.242   0.360  17.120 -0.8222 -0.0456  0.3529
  545TMC3     C 8089   3.919   0.597  17.070 -0.7556  0.1563 -1.3571
  545TMC3     O 8090   3.901   0.669  16.976 -0.0337  0.0997 -0.3499
  545TMC3     H 8091   4.118   0.600  16.915 -1.1743  1.3762  1.3834
  545TMC3    H1 8092   3.913   0.370  17.210 -0.8126 -0.3390 -1.1563
  545TMC3    H2 8093   4.332   0.303  17.138 -0.9775  0.6119  3.3196
  545TMC3    C7 8094   4.130   0.252  17.299  0.4095 -0.2279  0.5859
  545TMC3    C8 8095   4.365   0.515  16.971 -0.2782 -0.6090  0.3193
  545TMC3    O1 8096   4.027   0.208  17.333  0.0284  0.5686 -0.2639
  545TMC3    O2 8097   4.355   0.582  16.870  0.7954 -0.0287  0.6724
  546MPD2     C 8098   0.517   1.528  17.209 -0.7648 -0.3001 -0.2842
  546MPD2    C1 8099   0.406   1.605  17.173  0.7874  0.4204  0.1935
  546MPD2    C2 8100   0.402   1.739  17.198  0.0160 -0.2543  0.5174
  546MPD2    C3 8101   0.511   1.805  17.253  0.4570 -0.1343  0.4091
  546MPD2    C4 8102   0.622   1.730  17.283  0.1081  0.3924 -0.3840
  546MPD2    C5 8103   0.623   1.591  17.268 -0.3594 -0.3169 -0.3942
  546MPD2     H 8104   0.320   1.793  17.152  0.8214  0.0563 -0.5703
  546MPD2    H1 8105   0.713   1.778  17.317  0.9014 -0.4135 -1.3799
  546MPD2    H2 8106   0.511   1.420  17.209 -3.6096 -0.1313 -0.3115
  546MPD2    H3 8107   0.705   1.532  17.306  0.1504  1.4488  1.2274
  546MPD2     N 8108   0.515   1.939  17.271  0.4933 -0.1076 -0.1290
  546MPD2    H5 8109   0.607   1.975  17.291  0.2131  1.6220 -2.0122
  546MPD2    N1 8110   0.293   1.540  17.112 -0.1234 -0.0902  0.2014
  546MPD2    H7 8111   0.306   1.440  17.098  0.7723  0.1057 -0.3723
  547TMC3    C1 8112   0.075   1.495  17.042 -0.4997 -0.2672  0.2445
  547TMC3    C2 8113   4.693   1.549  16.973 -0.0355  0.7237 -0.1965
  547TMC3    C3 8114   4.563   1.510  17.010 -0.2395  0.7521 -0.0566
  547TMC3    C4 8115   0.059   1.398  17.139  0.4517 -0.0041  0.7432
  547TMC3    C5 8116   4.658   1.366  17.176  0.2823  0.5213  0.1444
  547TMC3    C6 8117   4.543   1.419  17.110 -0.2996 -0.4636 -0.8440
  547TMC3     C 8118   0.169   1.592  17.082  0.1470  0.1016  0.0879
  547TMC3     O 8119   0.132   1.705  17.059 -0.4763  0.4542  0.3083
  547TMC3     H 8120   4.722   1.626  16.902 -0.5880  0.9511 -0.1826
  547TMC3    H1 8121   0.149   1.370  17.194  0.5221  1.6548  1.4491
  547TMC3    H2 8122   4.446   1.391  17.150 -0.1585 -2.6097 -2.0438
  547TMC3    C7 8123   4.636   1.314  17.314  0.6826 -0.2762  0.9065
  547TMC3    C8 8124   4.451   1.568  16.938  0.0441  0.4487 -0.1789
  547TMC3    O1 8125   4.717   1.350  17.399  0.2818 -0.5232  0.4021
  547TMC3    O2 8126   4.470   1.639  16.841  0.2516 -0.0559 -0.3457
  548MPD2     C 8127   0.138   2.718  12.041 -0.8465  0.4124 -1.0394
  548MPD2    C1 8128   0.104   2.594  12.103  0.7760  0.6193 -0.2265
  548MPD2    C2 8129   0.194   2.486  12.107  0.3230 -0.0405  0.0019
  548MPD2    C3 8130   0.323   2.501  12.074  0.2401  0.1570 -0.0932
  548MPD2    C4 8131   0.362   2.630  12.024 -0.4680  0.1342  0.4073
  548MPD2    C5 8132   0.263   2.734  11.998  0.0684  0.4759 -0.1080
  548MPD2     H 8133   0.162   2.383  12.125 -0.9410  0.5714  1.2976
  548MPD2    H1 8134   0.464   2.644  11.989 -1.2648 -0.5659 -2.1718
  548MPD2    H2 8135   0.066   2.800  12.042  0.0739  1.2393 -1.9490
  548MPD2    H3 8136   0.293   2.835  11.970  0.4677  0.0599 -1.1711
  548MPD2     N 8137   0.412   2.389  12.089 -0.4728 -0.0199 -0.6781
  548MPD2    H5 8138   0.359   2.308  12.120 -0.1230  0.5911  1.5106
  548MPD2    N1 8139   4.701   2.590  12.170  1.0510 -0.0074 -0.6097
  548MPD2    H7 8140   4.645   2.674  12.175  1.5124  0.2054  1.0298
  549TMC3    C1 8141   4.529   2.498  12.306 -0.4874  0.1468  0.4671
  549TMC3    C2 8142   4.470   2.622  12.297  0.6496 -1.0190 -0.3176
  549TMC3    C3 8143   4.335   2.626  12.320  0.5638 -0.3327  0.0585
  549TMC3    C4 8144   4.455   2.383  12.322  0.2457  1.1673  0.1750
  549TMC3    C5 8145   4.325   2.397  12.345 -0.1869  0.0738 -0.4395
  549TMC3    C6 8146   4.259   2.517  12.343 -0.0706 -0.0410 -0.2239
  549TMC3     C 8147   4.667   2.482  12.257 -0.5148 -0.4603 -0.5045
  549TMC3     O 8148   0.008   2.393  12.303 -0.2313  0.0167  0.0235
  549TMC3     H 8149   4.518   2.711  12.259  0.4977 -1.1321 -0.7770
  549TMC3    H1 8150   4.511   2.291  12.316  0.5184  1.2460  1.3457
  549TMC3    H2 8151   4.153   2.515  12.363 -0.2307  1.4266 -0.9207
  549TMC3    C7 8152   4.253   2.290  12.406  0.3264  0.5545 -0.0920
  549TMC3    C8 8153   4.256   2.734  12.277  0.0545 -0.0713 -0.6688
  549TMC3    O1 8154   4.154   2.322  12.469  0.7388  0.6754 -0.7656
  549TMC3    O2 8155   4.144   2.707  12.233 -0.4853 -0.3054  0.2832
  550TMC3    C1 8156   3.298   4.634  11.884  0.9058 -0.3542 -0.3533
  550TMC3    C2 8157   3.294   4.653  12.017  0.0902 -0.0523 -1.1601
  550TMC3    C3 8158   3.204   0.019  12.057  0.8101  0.3906 -0.2461
  550TMC3    C4 8159   3.211   4.695  11.797 -0.3551  0.5426 -0.1519
  550TMC3    C5 8160   3.113   0.043  11.850  0.0717 -0.1855  0.1021
  550TMC3    C6 8161   3.111   0.083  11.980  0.0029 -0.5555  0.1409
  550TMC3     C 8162   3.402   4.555  11.821  0.1642 -0.0737 -0.0551
  550TMC3     O 8163   3.440   4.455  11.875 -0.1010  0.5840  0.0502
  550TMC3     H 8164   3.369   4.618  12.088 -1.2968 -0.9449 -0.1391
  550TMC3    H1 8165   3.201   4.656  11.696 -0.3204 -0.1679  0.1181
  550TMC3    H2 8166   3.040   0.151  12.026  0.2690 -0.6616  0.7017
  550TMC3    C7 8167   3.005   0.079  11.774  0.0670  0.1197  0.4807
  550TMC3    C8 8168   3.213   0.090  12.191 -0.2008  0.1109 -0.5660
  550TMC3    O1 8169   2.902   0.082  11.841 -0.7980 -0.2586  0.5386
  550TMC3    O2 8170   3.117   0.165  12.223  0.0856  0.5194  0.3696
  551TMC3    C1 8171   0.970   2.852  13.337  0.3181  0.9748 -0.2626
  551TMC3    C2 8172   1.094   2.857  13.284  0.7720  0.1780 -0.1337
  551TMC3    C3 8173   1.194   2.920  13.349  0.6953  0.2981  0.3826
  551TMC3    C4 8174   0.949   2.884  13.467  0.2910  0.3240  0.4729
  551TMC3    C5 8175   1.054   2.945  13.535 -0.4387  0.4306  0.8072
  551TMC3    C6 8176   1.181   2.963  13.478 -0.0239 -0.6860 -0.2923
  551TMC3     C 8177   0.883   2.777  13.253  0.7141  0.3839 -0.4921
  551TMC3     O 8178   0.911   2.750  13.137 -0.3810  0.1223 -0.5639
  551TMC3     H 8179   1.113   2.821  13.184 -0.8579 -0.1214 -0.3383
  551TMC3    H1 8180   0.849   2.890  13.508 -0.1188 -0.9922 -0.3233
  551TMC3    H2 8181   1.266   2.983  13.542 -2.3937  0.8410  2.3765
  551TMC3    C7 8182   1.044   2.974  13.672  0.0185  0.1041  0.1009
  551TMC3    C8 8183   1.327   2.895  13.303  0.4896 -0.6583  0.3464
  551TMC3    O1 8184   1.120   3.061  13.710  0.2978  0.0802  0.5154
  551TMC3    O2 8185   1.345   2.795  13.238  0.1869 -0.1883  0.5448
  552MPD2     C 8186   3.109   4.448  13.918  0.4415  0.2104 -0.3580
  552MPD2    C1 8187   3.232   4.401  13.865 -0.7743  0.5149 -0.3608
  552MPD2    C2 8188   3.346   4.419  13.939  0.2531 -0.4901  0.2396
  552MPD2    C3 8189   3.347   4.462  14.069 -0.1186  0.2512 -0.3053
  552MPD2    C4 8190   3.218   4.498  14.123  0.0791  0.4302 -0.0386
  552MPD2    C5 8191   3.104   4.485  14.050  0.9443  0.4394 -0.1252
  552MPD2     H 8192   3.443   4.397  13.898 -0.0267 -2.2498  0.5423
  552MPD2    H1 8193   3.215   4.532  14.226 -0.0453  0.6980 -0.1325
  552MPD2    H2 8194   3.017   4.424  13.867  0.4563  1.4571 -0.9692
  552MPD2    H3 8195   3.010   4.522  14.091  1.0623 -0.6176  1.0970
  552MPD2     N 8196   3.459   4.480  14.150 -0.6589  0.1622 -0.3955
  552MPD2    H5 8197   3.452   4.505  14.248 -0.6841 -0.0694 -0.3403
  552MPD2    N1 8198   3.251   4.349  13.738  0.6137  0.3138  0.0558
  552MPD2    H7 8199   3.344   4.312  13.723  1.0946  1.1463  1.0610
  553TMC3    C1 8200   3.215   4.303  13.513  0.0544 -0.1833 -0.7044
  553TMC3    C2 8201   3.132   4.337  13.400  0.3293 -0.7058  0.9283
  553TMC3    C3 8202   3.163   4.279  13.276  0.1353 -0.3096 -0.2578
  553TMC3    C4 8203   3.294   4.195  13.516 -0.0817 -0.5943  0.7669
  553TMC3    C5 8204   3.308   4.135  13.398 -0.2830  0.1540 -0.3385
  553TMC3    C6 8205   3.255   4.182  13.277 -0.2980  0.2975 -0.2137
  553TMC3     C 8206   3.163   4.349  13.631 -0.6214 -0.8330 -0.3640
  553TMC3     O 8207   3.043   4.380  13.634  0.0474  0.1172 -0.1185
  553TMC3     H 8208   3.071   4.427  13.404  0.0214 -0.8578 -0.3882
  553TMC3    H1 8209   3.332   4.159  13.611 -4.0960 -2.2975  1.7263
  553TMC3    H2 8210   3.298   4.135  13.190 -0.0814  1.0265 -0.5011
  553TMC3    C7 8211   3.414   4.032  13.384 -0.0606  0.1150  0.2050
  553TMC3    C8 8212   3.146   4.355  13.157 -0.6652 -0.1906  0.4253
  553TMC3    O1 8213   3.406   3.952  13.291  0.3596 -0.4666  0.3200
  553TMC3    O2 8214   3.245   4.368  13.083  0.1009 -0.5065 -0.3683
  554TMC3    C1 8215   4.541   3.746  11.743 -0.7928  0.2557 -0.1424
  554TMC3    C2 8216   4.478   3.675  11.647 -0.1195 -0.1632  0.4890
  554TMC3    C3 8217   4.451   3.744  11.531  0.0195  0.6143 -0.4484
  554TMC3    C4 8218   4.581   3.875  11.720  0.0307  0.1702 -0.4344
  554TMC3    C5 8219   4.552   3.937  11.604  0.0357  0.1635  0.8105
  554TMC3    C6 8220   4.492   3.866  11.501  0.3575  0.3480  0.7301
  554TMC3     C 8221   4.534   3.689  11.869 -0.0870 -0.3356  0.4229
  554TMC3     O 8222   4.437   3.621  11.891  0.3430 -0.0422 -0.2866
  554TMC3     H 8223   4.440   3.575  11.660 -1.3800  0.2370 -0.1484
  554TMC3    H1 8224   4.650   3.927  11.786  0.4401 -0.0975 -0.6513
  554TMC3    H2 8225   4.466   3.909  11.405  1.9840 -2.0319 -0.7572
  554TMC3    C7 8226   4.620   4.057  11.583 -0.1523  0.1165 -0.8222
  554TMC3    C8 8227   4.407   3.663  11.419  0.5647  0.4544 -0.3031
  554TMC3    O1 8228   4.638   4.134  11.674  0.4660  0.0997 -0.2635
  554TMC3    O2 8229   4.439   3.696  11.305  0.1729 -0.7358 -0.4310
  555TMC3    C1 8230   3.881   2.596  14.434 -0.4054 -0.5430  0.2436
  555TMC3    C2 8231   3.869   2.704  14.512  0.0817  0.6514 -0.2422
  555TMC3    C3 8232   3.868   2.684  14.650  0.3087  0.3664 -0.7255
  555TMC3    C4 8233   3.895   2.468  14.487  0.3882  1.1158 -0.1728
  555TMC3    C5 8234   3.884   2.454  14.617  0.2132  0.2141  0.0949
  555TMC3    C6 8235   3.872   2.557  14.704 -0.0869 -0.7985  0.4959
  555TMC3     C 8236   3.888   2.612  14.292  0.1057 -0.2149 -0.9348
  555TMC3     O 8237   3.943   2.526  14.226 -0.0554  0.4113  0.1958
  555TMC3     H 8238   3.876   2.803  14.468  2.4949  0.8086  0.4888
  555TMC3    H1 8239   3.895   2.394  14.407  1.9780  0.9943 -0.0428
  555TMC3    H2 8240   3.854   2.534  14.809  0.5721 -1.0557  0.5504
  555TMC3    C7 8241   3.914   2.318  14.666  0.1420 -0.0928  0.5089
  555TMC3    C8 8242   3.836   2.805  14.730  0.3012  0.4143 -0.0177
  555TMC3    O1 8243   3.965   2.255  14.573  0.2574 -0.1931 -0.3095
  555TMC3    O2 8244   3.791   2.898  14.669 -0.1765  0.3208  0.2825
  556MPD2     C 8245   2.335   0.006  10.347  0.8707 -0.4641 -0.0663
  556MPD2    C1 8246   2.276   4.655  10.447  0.0426 -0.2299  0.0425
  556MPD2    C2 8247   2.198   4.546  10.408 -0.4121 -0.4102 -0.3077
  556MPD2    C3 8248   2.182   4.512  10.273  0.2332 -0.2667 -0.6416
  556MPD2    C4 8249   2.238   4.598  10.176 -0.2468 -0.0292 -0.0436
  556MPD2    C5 8250   2.324   4.701  10.212 -0.1182  0.7127 -0.0973
  556MPD2     H 8251   2.150   4.480  10.479  1.2202 -2.6233 -1.2191
  556MPD2    H1 8252   2.216   4.586  10.071  1.3955  0.6865 -0.4700
  556MPD2    H2 8253   2.396   0.091  10.374 -0.0724  0.1710  0.0820
  556MPD2    H3 8254   2.375   0.046  10.145  0.5676  0.6994  0.4175
  556MPD2     N 8255   2.100   4.402  10.252 -0.2117  0.1149  0.4129
  556MPD2    H5 8256   2.061   4.355  10.333 -0.5461 -0.4603 -0.0816
  556MPD2    N1 8257   2.298   4.683  10.584  0.3546 -0.6244 -0.1379
  556MPD2    H7 8258   2.226   4.637  10.639  0.5759 -1.9112 -0.9310
  557TMC3    C1 8259   1.991   4.227  10.137  0.0445  0.2024 -0.5114
  557TMC3    C2 8260   2.027   4.128  10.045 -0.0667 -0.0724 -0.6712
  557TMC3    C3 8261   1.949   4.016  10.051 -0.0567 -0.2098  0.4816
  557TMC3    C4 8262   1.877   4.223  10.205 -0.0831  0.5760 -0.3413
  557TMC3    C5 8263   1.794   4.110  10.198  0.0846  0.4772  0.4743
  557TMC3    C6 8264   1.841   3.996  10.132  0.3283  0.6654 -0.4170
  557TMC3     C 8265   2.085   4.340  10.136 -0.6568 -0.4120 -0.1342
  557TMC3     O 8266   2.137   4.361  10.022  0.3748 -0.0124  0.0822
  557TMC3     H 8267   2.120   4.116   9.990  0.6696  0.1537  0.5232
  557TMC3    H1 8268   1.853   4.315  10.258 -0.3623  0.7741 -0.8071
  557TMC3    H2 8269   1.777   3.909  10.122  0.4260  0.4627  0.7550
  557TMC3    C7 8270   1.707   4.092  10.312 -0.5936 -0.0462  0.5766
  557TMC3    C8 8271   1.993   3.911   9.967  0.6092 -0.3862  0.3135
  557TMC3    O1 8272   1.709   4.181  10.399 -0.1727 -0.0618  0.0100
  557TMC3    O2 8273   2.026   3.931   9.852 -0.1212  0.0361 -0.3165
  558TMC3    C1 8274   0.195   2.552   9.961  0.4420  0.0760 -0.4395
  558TMC3    C2 8275   0.119   2.587  10.066 -0.0579 -0.0110  0.7817
  558TMC3    C3 8276   0.015   2.513  10.081 -0.2456  0.4691 -0.3625
  558TMC3    C4 8277   0.182   2.434   9.899  0.7121 -0.5848 -0.1084
  558TMC3    C5 8278   0.083   2.350   9.938 -0.8965  0.7624  0.3640
  558TMC3    C6 8279   4.715   2.390  10.027 -0.3586  0.2981 -0.1768
  558TMC3     C 8280   0.325   2.612   9.945  0.7282 -0.4770  0.1288
  558TMC3     O 8281   0.359   2.676  10.044 -0.1552  0.2154  0.3832
  558TMC3     H 8282   0.140   2.682  10.115 -0.0549  0.3036  0.1800
  558TMC3    H1 8283   0.269   2.394   9.848  1.4472 -2.2733  2.4616
  558TMC3    H2 8284   4.614   2.351  10.032 -0.8217  1.3479 -1.2988
  558TMC3    C7 8285   0.049   2.243   9.847 -0.3310 -0.1011 -0.2545
  558TMC3    C8 8286   4.632   2.578  10.157 -0.1074  0.5496 -0.4275
  558TMC3    O1 8287   0.091   2.255   9.732  0.5243 -0.2783 -0.2115
  558TMC3    O2 8288   4.626   2.699  10.142  0.1912  0.0970  1.0124
  559MPD2     C 8289   4.372   2.926  10.722 -0.3088  0.0027  0.1036
  559MPD2    C1 8290   4.324   2.907  10.848  0.1736  0.2417  0.3557
  559MPD2    C2 8291   4.398   2.940  10.960  0.0306 -0.3824  0.3315
  559MPD2    C3 8292   4.516   3.011  10.944  0.4895 -0.4063 -0.7793
  559MPD2    C4 8293   4.566   3.027  10.820 -0.3066 -0.4681 -0.2149
  559MPD2    C5 8294   4.489   2.987  10.713  0.0180  0.0630  0.0802
  559MPD2     H 8295   4.358   2.927  11.059  0.5829 -1.3623  0.4222
  559MPD2    H1 8296   4.657   3.081  10.794 -0.3117 -0.3911 -0.0721
  559MPD2    H2 8297   4.317   2.891  10.636 -0.1796 -2.9108  1.2064
  559MPD2    H3 8298   4.540   3.008  10.620  1.1302  0.9289  0.8711
  559MPD2     N 8299   4.582   3.061  11.061 -0.1951  0.0008 -0.4470
  559MPD2    H5 8300   4.556   3.019  11.150 -0.3771  1.1524  0.0327
  559MPD2    N1 8301   4.187   2.862  10.861 -0.1200 -0.1318  0.0768
  559MPD2    H7 8302   4.143   2.824  10.778  2.2957 -1.6335 -0.5148
  560TMC3    C1 8303   0.064   3.096  11.161 -0.3085  0.1304  0.4718
  560TMC3    C2 8304   0.079   2.964  11.164 -0.1018 -0.5025  0.7829
  560TMC3    C3 8305   0.181   2.914  11.241 -0.1748  0.3483 -0.2176
  560TMC3    C4 8306   0.166   3.181  11.200  0.1421 -0.2683 -0.3926
  560TMC3    C5 8307   0.265   3.127  11.281 -0.2901 -0.0337 -1.0068
  560TMC3    C6 8308   0.275   2.992  11.306 -0.5908 -0.2707 -0.3452
  560TMC3     C 8309   4.697   3.135  11.054 -0.1032 -0.2915 -1.1724
  560TMC3     O 8310   0.018   3.203  10.965 -0.7191  0.0676  0.4018
  560TMC3     H 8311   0.032   2.901  11.089  2.3992  1.0783 -2.1588
  560TMC3    H1 8312   0.155   3.284  11.168 -0.1329  0.3343  1.6334
  560TMC3    H2 8313   0.346   2.941  11.371 -0.2218  0.7073  0.0246
  560TMC3    C7 8314   0.347   3.211  11.360  0.1378  0.8101  0.0256
  560TMC3    C8 8315   0.172   2.777  11.265  0.2603  0.9978 -0.2500
  560TMC3    O1 8316   0.385   3.159  11.465 -0.0110 -0.0792 -0.0972
  560TMC3    O2 8317   0.052   2.735  11.276 -0.2986  0.3198 -0.3827
  561TMC3    C1 8318   2.312   2.006  11.582 -1.0161  0.1712 -0.8176
  561TMC3    C2 8319   2.257   2.006  11.708 -0.9145  0.5281  0.9670
  561TMC3    C3 8320   2.262   2.122  11.775 -0.7120 -0.6439  0.6806
  561TMC3    C4 8321   2.400   2.108  11.537  0.2019  0.2392  0.2284
  561TMC3    C5 8322   2.398   2.223  11.614  0.0892  0.4704 -0.0852
  561TMC3    C6 8323   2.337   2.233  11.729 -0.1127 -0.4178 -0.1776
  561TMC3     C 8324   2.295   1.886  11.499 -0.0686 -0.1754  0.4700
  561TMC3     O 8325   2.219   1.804  11.543  0.2257  0.5089  0.1741
  561TMC3     H 8326   2.200   1.920  11.743 -1.5991  0.3558 -0.5508
  561TMC3    H1 8327   2.463   2.109  11.449 -0.0285 -1.1540  0.0445
  561TMC3    H2 8328   2.336   2.323  11.789 -1.1357 -0.2292 -0.4887
  561TMC3    C7 8329   2.480   2.337  11.578 -0.2382  0.5181 -0.4493
  561TMC3    C8 8330   2.178   2.129  11.895  0.7277  0.0768 -1.0333
  561TMC3    O1 8331   2.499   2.406  11.677 -0.1397 -0.5641 -0.2269
  561TMC3    O2 8332   2.142   2.024  11.946  0.8431 -0.0908 -0.7213
  562TMC3    C1 8333   3.836   3.056  15.907  0.3387 -0.0181  0.3120
  562TMC3    C2 8334   3.775   3.182  15.935 -0.2231 -0.0051 -0.1523
  562TMC3    C3 8335   3.734   3.257  15.830  0.0651 -0.1557  0.0587
  562TMC3    C4 8336   3.844   3.012  15.777 -0.2466  0.2515  0.7604
  562TMC3    C5 8337   3.791   3.085  15.677  0.0248  0.5113  0.3273
  562TMC3    C6 8338   3.745   3.214  15.696  0.3009 -0.4808  0.2748
  562TMC3     C 8339   3.898   2.988  16.014  0.2408  0.2232 -0.4679
  562TMC3     O 8340   3.948   2.883  15.983  0.2157 -0.1016 -0.0639
  562TMC3     H 8341   3.761   3.217  16.036 -0.0355 -0.8275  0.1592
  562TMC3    H1 8342   3.901   2.923  15.752  0.5541  1.3590 -1.3357
  562TMC3    H2 8343   3.698   3.264  15.612  0.8730 -2.6607 -1.3407
  562TMC3    C7 8344   3.763   3.028  15.545 -0.4296  0.4177 -0.5983
  562TMC3    C8 8345   3.634   3.356  15.865  0.3358  0.3720  0.4242
  562TMC3    O1 8346   3.680   3.092  15.484 -0.2967 -0.2496  0.1003
  562TMC3    O2 8347   3.552   3.314  15.948 -0.1031  0.5680  0.1664
  563MPD2     C 8348   1.834   0.154  15.709  0.1130 -0.8689  0.0735
  563MPD2    C1 8349   1.777   0.171  15.836 -0.3496 -0.1091  0.7791
  563MPD2    C2 8350   1.860   0.193  15.939 -0.5131  0.0813  0.2194
  563MPD2    C3 8351   2.000   0.209  15.915 -0.8775 -0.7076  0.7719
  563MPD2    C4 8352   2.055   0.190  15.796 -1.0252 -0.2491 -0.0660
  563MPD2    C5 8353   1.971   0.163  15.695 -0.2898 -0.0031 -0.4820
  563MPD2     H 8354   1.832   0.218  16.041  0.3795 -1.0713  0.7458
  563MPD2    H1 8355   2.158   0.205  15.765 -0.0549 -3.9980  1.4217
  563MPD2    H2 8356   1.781   0.118  15.621 -1.1712 -1.5673  1.1290
  563MPD2    H3 8357   2.008   0.150  15.594 -0.8712 -0.4053 -0.6418
  563MPD2     N 8358   2.075   0.251  16.029  0.4843  0.2050  0.2089
  563MPD2    H5 8359   2.021   0.263  16.114 -0.0187 -0.3284 -0.0328
  563MPD2    N1 8360   1.644   0.165  15.866 -0.4424 -0.2926 -0.3708
  563MPD2    H7 8361   1.612   0.160  15.962 -1.5865 -1.3287 -0.8164
  564TMC3    C1 8362   1.442   0.074  15.856  0.2381  0.2064  0.1417
  564TMC3    C2 8363   1.400   4.678  15.812 -0.4845 -0.2393 -0.0052
  564TMC3    C3 8364   1.351   4.599  15.917  0.0131 -0.2043 -0.0822
  564TMC3    C4 8365   1.431   0.118  15.983  0.3918 -0.5809  0.1367
  564TMC3    C5 8366   1.389   0.033  16.078 -0.0317  0.6399  0.1700
  564TMC3    C6 8367   1.356   4.628  16.049 -0.3223 -0.2135  0.4116
  564TMC3     C 8368   1.554   0.118  15.780 -0.3099 -0.0330 -0.2761
  564TMC3     O 8369   1.556   0.109  15.659 -0.1031  0.5113  0.0134
  564TMC3     H 8370   1.417   4.644  15.710  0.4048  1.3825 -0.4133
  564TMC3    H1 8371   1.470   0.215  16.010 -1.6663  0.0523  0.7994
  564TMC3    H2 8372   1.320   4.569  16.132 -1.6479  1.1367  0.8034
  564TMC3    C7 8373   1.444   0.067  16.209 -0.4803 -0.5482 -0.6463
  564TMC3    C8 8374   1.305   4.462  15.878  0.0054 -0.2510 -0.4792
  564TMC3    O1 8375   1.463   0.190  16.235 -0.2297 -0.1513  0.7083
  564TMC3    O2 8376   1.285   4.386  15.971  0.2003  0.3956 -0.0260
  565TMC3    C1 8377   1.799   1.174   9.972 -0.0690 -0.1593 -0.0803
  565TMC3    C2 8378   1.758   1.091  10.073 -0.3417 -0.5580  0.2255
  565TMC3    C3 8379   1.665   1.001  10.027  0.3204  0.0234  1.3002
  565TMC3    C4 8380   1.773   1.171   9.843  0.5543  0.1244 -0.0019
  565TMC3    C5 8381   1.678   1.079   9.806  0.2975  1.0218  0.6769
  565TMC3    C6 8382   1.621   0.990   9.893 -0.3732 -0.3079 -0.5944
  565TMC3     C 8383   1.880   1.289  10.007  0.2602 -0.6616  0.5443
  565TMC3     O 8384   1.968   1.321   9.929  0.4435  0.4795 -0.0749
  565TMC3     H 8385   1.789   1.094  10.177  1.8871 -2.2686 -0.3901
  565TMC3    H1 8386   1.828   1.225   9.766  0.9394  2.3815  1.8434
  565TMC3    H2 8387   1.559   0.913   9.850 -1.3548  2.3092 -3.8210
  565TMC3    C7 8388   1.651   1.079   9.661  0.5023 -0.3993  0.3432
  565TMC3    C8 8389   1.593   0.910  10.110  0.4728 -0.7849 -0.2882
  565TMC3    O1 8390   1.703   1.169   9.598 -0.1126  0.1421 -0.0879
  565TMC3    O2 8391   1.512   0.835  10.054  0.5404  0.2187 -0.2085
  566MPD2     C 8392   3.089   3.112  14.283  0.1188 -0.6120 -0.1789
  566MPD2    C1 8393   3.097   2.978  14.246  0.4997 -0.5341 -0.5187
  566MPD2    C2 8394   2.983   2.915  14.200 -0.2551  0.5697  0.0130
  566MPD2    C3 8395   2.863   2.979  14.201  0.1512 -0.2339  0.3518
  566MPD2    C4 8396   2.860   3.108  14.240 -0.2780 -0.0957 -0.2164
  566MPD2    C5 8397   2.967   3.173  14.285 -0.4468  0.4313  0.5229
  566MPD2     H 8398   2.992   2.816  14.158 -1.9308 -0.0964  1.2181
  566MPD2    H1 8399   2.765   3.159  14.240 -0.8262 -1.1142 -0.6877
  566MPD2    H2 8400   3.177   3.166  14.315  0.6779 -1.4663 -0.2811
  566MPD2    H3 8401   2.953   3.278  14.308  0.7984  1.2041 -2.1849
  566MPD2     N 8402   2.750   2.914  14.140 -0.5173  0.1654  0.2027
  566MPD2    H5 8403   2.667   2.972  14.132  0.2617  0.9286 -2.3946
  566MPD2    N1 8404   3.219   2.918  14.241 -0.0062 -0.2800  0.3873
  566MPD2    H7 8405   3.299   2.978  14.255 -1.0736  1.8030 -2.4826
  567TMC3    C1 8406   3.373   2.751  14.205 -0.0834 -0.3084  0.4072
  567TMC3    C2 8407   3.422   2.812  14.091  0.6326  0.2703  0.1071
  567TMC3    C3 8408   3.505   2.742  14.009  0.2914 -0.0988  0.3728
  567TMC3    C4 8409   3.421   2.630  14.242 -0.7840  0.3267 -0.0735
  567TMC3    C5 8410   3.514   2.569  14.161  0.0309 -0.7334 -0.4677
  567TMC3    C6 8411   3.563   2.620  14.045 -0.0226 -0.0188  0.7327
  567TMC3     C 8412   3.239   2.781  14.241  0.1900 -0.9093  0.2251
  567TMC3     O 8413   3.166   2.688  14.280  0.1963 -0.3670  0.7523
  567TMC3     H 8414   3.382   2.906  14.055 -2.8910 -1.7487 -1.2448
  567TMC3    H1 8415   3.380   2.581  14.330 -1.4677 -1.1146 -1.1811
  567TMC3    H2 8416   3.638   2.576  13.981 -1.3259  1.2633 -1.6476
  567TMC3    C7 8417   3.584   2.449  14.202 -0.1025 -0.5896 -0.9292
  567TMC3    C8 8418   3.498   2.786  13.871 -0.2786  0.4152  0.5350
  567TMC3    O1 8419   3.647   2.385  14.117  0.0679 -0.4379 -0.5477
  567TMC3    O2 8420   3.454   2.899  13.850  0.1097  0.2537  0.3156
  568MPD2     C 8421   1.051   2.958  16.213  0.3164 -0.0210  0.4219
  568MPD2    C1 8422   1.084   3.052  16.311  0.0562 -0.0527 -0.7671
  568MPD2    C2 8423   1.069   3.181  16.272 -0.1656  0.0412  0.1069
  568MPD2    C3 8424   1.033   3.225  16.148 -0.1681 -0.1465  0.0260
  568MPD2    C4 8425   0.999   3.131  16.059 -1.1713 -0.4468 -0.0509
  568MPD2    C5 8426   1.000   2.997  16.096 -0.1890  0.6148  0.6527
  568MPD2     H 8427   1.095   3.255  16.347 -2.0674  1.3846 -0.5395
  568MPD2    H1 8428   0.958   3.165  15.964  1.2274  0.1111 -0.8751
  568MPD2    H2 8429   1.059   2.851  16.229  0.5164 -0.2066 -0.9364
  568MPD2    H3 8430   0.988   2.921  16.019 -0.6159  0.1650  1.1659
  568MPD2     N 8431   1.042   3.363  16.120  0.5971 -0.3333  0.9880
  568MPD2    H5 8432   1.080   3.422  16.193  2.2903 -1.8194  1.2961
  568MPD2    N1 8433   1.121   3.003  16.439  0.2800  0.5410  0.8921
  568MPD2    H7 8434   1.128   2.904  16.459  3.2863  0.1093 -2.2746
  569TMC3    C1 8435   1.030   3.577  16.009  0.2890 -0.2869 -0.0941
  569TMC3    C2 8436   1.005   3.647  16.124  0.6938 -0.3098  0.6718
  569TMC3    C3 8437   1.003   3.778  16.110 -0.4172  0.7363 -0.7121
  569TMC3    C4 8438   1.049   3.646  15.891  0.2653  0.2465  0.2089
  569TMC3    C5 8439   1.051   3.780  15.889 -0.0900  0.4210 -0.1222
  569TMC3    C6 8440   1.021   3.855  15.998  0.0501  0.0511 -0.1603
  569TMC3     C 8441   1.027   3.430  16.000  0.4747  0.0096  0.3562
  569TMC3     O 8442   1.034   3.386  15.888  0.2714 -0.0156 -0.6919
  569TMC3     H 8443   0.992   3.593  16.217 -1.8508 -0.8105  0.0261
  569TMC3    H1 8444   1.069   3.596  15.797  1.8986  2.0420 -0.3990
  569TMC3    H2 8445   0.979   3.953  15.981 -2.5185 -0.9929  0.1547
  569TMC3    C7 8446   1.072   3.849  15.762 -0.0506 -0.3581 -0.0410
  569TMC3    C8 8447   0.972   3.848  16.230 -0.6016 -0.1122 -0.3397
  569TMC3    O1 8448   1.048   3.791  15.663 -0.3353 -0.1794  0.3258
  569TMC3    O2 8449   0.892   3.802  16.309  0.1450 -0.1315  0.7854
  570TMC3    C1 8450   0.568   2.441  16.124  0.2694  0.1529  0.3743
  570TMC3    C2 8451   0.644   2.456  16.009 -0.1881  0.3549 -0.6112
  570TMC3    C3 8452   0.736   2.554  16.006 -0.0847  0.2613 -0.1782
  570TMC3    C4 8453   0.590   2.527  16.231 -0.0258  0.4675  0.6305
  570TMC3    C5 8454   0.682   2.627  16.218 -0.4095 -0.6793  1.0234
  570TMC3    C6 8455   0.765   2.637  16.110 -0.4361 -0.2603 -0.0225
  570TMC3     C 8456   0.468   2.335  16.119 -0.3730  0.2658 -0.2768
  570TMC3     O 8457   0.458   2.274  16.014 -0.5051 -0.1246  0.3949
  570TMC3     H 8458   0.649   2.371  15.942 -0.8427  0.6780 -1.0635
  570TMC3    H1 8459   0.523   2.514  16.315  0.5051  0.6108  1.0730
  570TMC3    H2 8460   0.823   2.725  16.083  0.0029 -0.5904 -0.1481
  570TMC3    C7 8461   0.685   2.715  16.330 -0.2147  0.0032 -0.0488
  570TMC3    C8 8462   0.826   2.562  15.890 -0.3320 -0.0298 -0.2045
  570TMC3    O1 8463   0.634   2.685  16.441 -0.3431  0.1721 -0.0906
  570TMC3    O2 8464   0.929   2.623  15.887 -0.5058  0.1387  0.0114
  571MPD2     C 8465   2.822   3.877  17.501  0.3927 -0.2220 -0.1933
  571MPD2    C1 8466   2.840   3.811  17.622  0.0074 -0.0561  0.4854
  571MPD2    C2 8467   2.813   3.883   0.044 -0.2408  0.1214  0.2089
  571MPD2    C3 8468   2.778   4.016   0.036 -1.1424 -0.0823 -0.3440
  571MPD2    C4 8469   2.762   4.075  17.608  0.6977 -0.2139 -0.0825
  571MPD2    C5 8470   2.781   4.005  17.489 -0.3508 -0.0580 -0.0657
  571MPD2     H 8471   2.833   3.849   0.145 -3.6755 -1.1244  0.4566
  571MPD2    H1 8472   2.724   4.176  17.595  1.5811  0.2013  0.5247
  571MPD2    H2 8473   2.837   3.816  17.413 -0.7192  1.1426 -1.3297
  571MPD2    H3 8474   2.767   4.054  17.393 -0.9867 -0.2565 -0.0773
  571MPD2     N 8475   2.776   4.112   0.141 -0.8007 -0.0424  0.4243
  571MPD2    H5 8476   2.751   4.205   0.110  2.3752  0.1855 -1.3736
  571MPD2    N1 8477   2.878   3.677  17.624 -0.2167 -0.2086  0.3193
  571MPD2    H7 8478   2.888   3.633  17.533 -3.6859  2.9098 -1.5310
  572TMC3    C1 8479   2.765   4.202   0.356  0.3615 -0.0122 -0.1973
  572TMC3    C2 8480   2.752   4.176   0.487 -0.8101  0.8164  0.1478
  572TMC3    C3 8481   2.811   4.258   0.578 -0.0003  0.1143 -0.1846
  572TMC3    C4 8482   2.827   4.312   0.312 -0.2075  0.0510  0.7748
  572TMC3    C5 8483   2.877   4.396   0.400  0.0778 -0.3908 -0.1635
  572TMC3    C6 8484   2.875   4.374   0.531 -0.2361 -1.4741  0.3088
  572TMC3     C 8485   2.791   4.087   0.277  0.2543 -0.5792 -0.9540
  572TMC3     O 8486   2.803   3.977   0.330  0.4144 -1.0353  0.1329
  572TMC3     H 8487   2.732   4.076   0.523 -1.3297  1.8911  2.8006
  572TMC3    H1 8488   2.839   4.325   0.205  2.5571  0.1889  1.0962
  572TMC3    H2 8489   2.921   4.445   0.600 -0.8320  0.1724 -0.9869
  572TMC3    C7 8490   2.974   4.491   0.350  0.4075 -0.1476 -0.5273
  572TMC3    C8 8491   2.830   4.211   0.713  0.4775  0.2087  0.2235
  572TMC3    O1 8492   2.959   4.520   0.230 -0.3457  0.0692  0.5445
  572TMC3    O2 8493   2.831   4.090   0.743 -0.5473 -0.1468 -0.0547
  573MPD2     C 8494   4.714   0.370   0.831  0.4159  0.3316 -0.1045
  573MPD2    C1 8495   4.715   0.454   0.729 -0.2791 -0.0759 -0.0122
  573MPD2    C2 8496   0.030   0.419   0.599  0.0103  0.1418  0.0795
  573MPD2    C3 8497   0.056   0.285   0.579 -0.9928  0.5908  0.0106
  573MPD2    C4 8498   0.057   0.195   0.685  0.4399  0.0214  0.1909
  573MPD2    C5 8499   0.024   0.240   0.815 -0.6705  0.9087 -0.0361
  573MPD2     H 8500   0.035   0.490   0.518  0.4357 -0.3990 -0.3659
  573MPD2    H1 8501   0.091   0.093   0.673  2.4757  0.7923 -0.6911
  573MPD2    H2 8502   4.676   0.400   0.928 -1.8041 -0.4809 -0.7189
  573MPD2    H3 8503   0.008   0.170   0.897 -1.7693  0.9279 -0.2352
  573MPD2     N 8504   0.099   0.230   0.449 -0.4675 -0.5085  0.6603
  573MPD2    H5 8505   0.102   0.129   0.438  0.3842 -0.5958  1.6954
  573MPD2    N1 8506   4.688   0.587   0.756  0.2334  0.6522  0.5511
  573MPD2    H7 8507   4.680   0.611   0.854 -1.2034 -0.2517  0.6522
  574TMC3    C1 8508   0.144   0.230   0.214 -0.2499  0.7243  0.3383
  574TMC3    C2 8509   0.070   0.123   0.202  0.1071 -0.3085 -0.4471
  574TMC3    C3 8510   0.059   0.070   0.078  0.0055  1.0706 -0.2448
  574TMC3    C4 8511   0.204   0.293   0.109 -0.0235 -0.0544  0.5650
  574TMC3    C5 8512   0.193   0.231  17.680 -0.5475  0.2852  0.2132
  574TMC3    C6 8513   0.118   0.120  17.661  0.4549  0.1831  0.6743
  574TMC3     C 8514   0.131   0.307   0.338 -0.4484 -0.0604 -0.1579
  574TMC3     O 8515   0.167   0.424   0.339 -0.0888  0.4843 -0.2821
  574TMC3     H 8516   0.012   0.075   0.280 -1.0561  1.0749 -0.4665
  574TMC3    H1 8517   0.247   0.392   0.124  2.2088 -0.8860 -0.3049
  574TMC3    H2 8518   0.104   0.075  17.563  3.6702 -0.4241  0.5097
  574TMC3    C7 8519   0.264   0.288  17.576  0.1059  0.2639  0.4502
  574TMC3    C8 8520   4.650   0.012   0.056 -0.1649 -0.2034  0.4889
  574TMC3    O1 8521   0.340   0.376  17.606  0.4474 -0.2052  0.0059
  574TMC3    O2 8522   4.611   4.651   0.138 -0.2396 -0.2848 -0.1933
  575TMC3    C1 8523   1.121   0.242  10.418 -0.3830 -0.2919 -0.1224
  575TMC3    C2 8524   1.013   0.233  10.332 -0.6477  0.5647  0.0594
  575TMC3    C3 8525   0.977   0.351  10.273  0.0595 -0.7333  0.3350
  575TMC3    C4 8526   1.200   0.357  10.435  0.4726 -0.3502  0.1216
  575TMC3    C5 8527   1.149   0.469  10.375 -0.5794 -0.9790 -0.0475
  575TMC3    C6 8528   1.046   0.469  10.292  0.6900 -0.9927 -0.1607
  575TMC3     C 8529   1.157   0.121  10.497  0.6112  0.4321  0.2945
  575TMC3     O 8530   1.107   0.016  10.459  0.3816  0.3346 -0.2146
  575TMC3     H 8531   0.963   0.138  10.319 -1.5124  1.2299 -1.5081
  575TMC3    H1 8532   1.293   0.360  10.490 -0.6187 -0.2421  1.9715
  575TMC3    H2 8533   1.005   0.565  10.263  1.7490 -0.1914  0.9833
  575TMC3    C7 8534   1.237   0.587  10.369 -0.7115  0.2355  0.0352
  575TMC3    C8 8535   0.856   0.346  10.193  0.2171 -0.2364  0.0617
  575TMC3    O1 8536   1.207   0.669  10.284  0.0012  0.0358  0.2899
  575TMC3    O2 8537   0.791   0.240  10.193  0.9529 -0.3795  0.6309
  576MPD2     C 8538   1.548   2.825  12.779  0.0821 -0.0726 -1.1058
  576MPD2    C1 8539   1.576   2.939  12.712  0.7411  0.2585  0.2037
  576MPD2    C2 8540   1.567   3.064  12.774  0.0570 -0.3519 -0.6410
  576MPD2    C3 8541   1.497   3.067  12.894  0.4355  0.3057  0.0068
  576MPD2    C4 8542   1.462   2.950  12.954  0.7023 -0.1694  0.7627
  576MPD2    C5 8543   1.497   2.824  12.905  0.1505 -0.5878  0.8243
  576MPD2     H 8544   1.603   3.157  12.734 -0.1746 -0.8199 -1.9176
  576MPD2    H1 8545   1.407   2.945  13.047  0.6451 -1.2659  0.6717
  576MPD2    H2 8546   1.577   2.730  12.735  1.1286 -0.1700 -0.1999
  576MPD2    H3 8547   1.474   2.729  12.950  1.5412 -1.2031  0.2215
  576MPD2     N 8548   1.442   3.182  12.961 -0.5884  0.0938  0.0711
  576MPD2    H5 8549   1.370   3.163  13.030 -0.7789 -1.7964 -0.6386
  576MPD2    N1 8550   1.639   2.913  12.589  0.3960 -0.9575  0.6008
  576MPD2    H7 8551   1.645   2.818  12.556 -1.1553 -0.3817 -1.3007
  577TMC3    C1 8552   1.714   2.961  12.382 -0.0371  0.2835  0.0659
  577TMC3    C2 8553   1.819   2.872  12.398 -0.0858 -0.4705 -0.4779
  577TMC3    C3 8554   1.866   2.808  12.292  0.1221  0.0011 -0.5862
  577TMC3    C4 8555   1.643   2.985  12.265  0.2204  0.7125  0.4482
  577TMC3    C5 8556   1.695   2.916  12.156 -0.5048  0.2391 -0.3785
  577TMC3    C6 8557   1.804   2.828  12.168 -0.0576  0.1147 -1.1548
  577TMC3     C 8558   1.661   3.015  12.500  0.3081 -0.2905 -0.6208
  577TMC3     O 8559   1.641   3.137  12.502  0.3098  0.1096  0.2548
  577TMC3     H 8560   1.859   2.843  12.495  1.0502  0.3373 -0.7026
  577TMC3    H1 8561   1.561   3.056  12.262 -1.7542 -1.6379 -1.0200
  577TMC3    H2 8562   1.814   2.763  12.082  0.5397  0.4282 -1.3191
  577TMC3    C7 8563   1.584   2.874  12.063  0.0566 -0.5451 -0.3280
  577TMC3    C8 8564   1.907   2.668  12.327 -0.2406 -0.4537  0.1370
  577TMC3    O1 8565   1.584   2.757  12.025 -0.0394 -0.3476  0.0825
  577TMC3    O2 8566   1.898   2.629  12.442 -0.0700  0.5669  0.0100
  578MPD2     C 8567   4.637   2.598   1.664 -0.1510  0.0340  0.2260
  578MPD2    C1 8568   4.676   2.583   1.532  0.4489 -0.0756  0.5658
  578MPD2    C2 8569   0.082   2.550   1.509  0.0267 -0.4624  0.0397
  578MPD2    C3 8570   0.175   2.560   1.612  0.4833  0.2690  0.2017
  578MPD2    C4 8571   0.130   2.571   1.743 -0.4100  0.2112 -0.2329
  578MPD2    C5 8572   0.001   2.589   1.768 -0.3743 -0.3558 -0.1721
  578MPD2     H 8573   0.103   2.518   1.408 -0.4539 -0.2897 -0.1162
  578MPD2    H1 8574   0.201   2.565   1.824  0.5111 -0.2005 -1.0620
  578MPD2    H2 8575   4.532   2.613   1.687 -0.0658 -0.4947  0.9812
  578MPD2    H3 8576   4.671   2.599   1.863 -1.8047  1.0697 -1.1296
  578MPD2     N 8577   0.313   2.558   1.576 -0.1732  0.1582 -0.3677
  578MPD2    H5 8578   0.328   2.550   1.476  0.1277  0.3301 -0.3376
  578MPD2    N1 8579   4.580   2.604   1.437  0.3094  0.1905 -0.7403
  578MPD2    H7 8580   4.491   2.640   1.469  1.0551 -1.1702  2.8482
  579TMC3    C1 8581   0.550   2.593   1.583 -0.4239 -0.3436  0.0342
  579TMC3    C2 8582   0.652   2.659   1.644  0.4277  0.3461 -0.1601
  579TMC3    C3 8583   0.766   2.682   1.571 -0.3251 -0.5890 -0.5169
  579TMC3    C4 8584   0.549   2.559   1.452 -0.2407 -0.0895  0.1137
  579TMC3    C5 8585   0.668   2.576   1.386  0.0020  0.4867  0.6573
  579TMC3    C6 8586   0.779   2.637   1.442 -0.4196 -0.1368 -0.4314
  579TMC3     C 8587   0.426   2.590   1.655  0.1337 -0.0793  0.3973
  579TMC3     O 8588   0.426   2.618   1.771  0.3750 -0.3207 -0.2944
  579TMC3     H 8589   0.654   2.705   1.742 -1.0592  0.7706 -0.3349
  579TMC3    H1 8590   0.470   2.507   1.400  0.1342  0.9494 -1.5016
  579TMC3    H2 8591   0.871   2.637   1.384  0.0718  3.8250  0.3793
  579TMC3    C7 8592   0.698   2.478   1.284  0.6553  0.4792 -0.0595
  579TMC3    C8 8593   0.880   2.761   1.630  0.1616 -0.2919 -0.4801
  579TMC3    O1 8594   0.807   2.432   1.270 -0.2509  0.0552 -0.1692
  579TMC3    O2 8595   0.875   2.797   1.750 -0.1863 -0.0174  0.1808
  580TMC3    C1 8596   3.848   2.132  11.909 -0.2104  0.2434  0.1397
  580TMC3    C2 8597   3.905   2.219  12.000 -0.3410 -0.0713  0.7432
  580TMC3    C3 8598   4.011   2.180  12.075 -0.1477 -0.2005 -0.0090
  580TMC3    C4 8599   3.874   1.999  11.910 -0.1534 -0.0690  0.0243
  580TMC3    C5 8600   3.963   1.953  12.005 -0.0212 -0.0289  0.0584
  580TMC3    C6 8601   4.037   2.046  12.080  0.2258  0.1340 -0.0800
  580TMC3     C 8602   3.714   2.176  11.863  0.9619  0.1468 -0.3268
  580TMC3     O 8603   3.631   2.084  11.841 -0.0807 -0.3284 -0.0890
  580TMC3     H 8604   3.858   2.315  12.021 -0.5135  0.0582 -0.2224
  580TMC3    H1 8605   3.803   1.939  11.855 -1.7323  3.0268 -1.3225
  580TMC3    H2 8606   4.119   2.021  12.146  0.7584 -1.0098 -1.1763
  580TMC3    C7 8607   4.008   1.819  12.001  0.1638  0.3204  0.0187
  580TMC3    C8 8608   4.115   2.267  12.041  0.2975 -0.1391  0.0469
  580TMC3    O1 8609   4.064   1.784  12.106  0.3842  0.4943  0.4842
  580TMC3    O2 8610   4.085   2.384  12.049 -0.6658  0.2919 -0.0755
  581MPD2     C 8611   2.230   1.335  14.938 -0.8025 -0.2235 -0.6859
  581MPD2    C1 8612   2.113   1.254  14.959 -0.2692 -0.5166 -0.2625
  581MPD2    C2 8613   1.983   1.288  14.907  0.0765  0.2964 -0.3113
  581MPD2    C3 8614   1.976   1.415  14.852  0.0616  0.7324 -0.3555
  581MPD2    C4 8615   2.088   1.495  14.842  0.0592  0.1075  0.4890
  581MPD2    C5 8616   2.215   1.452  14.874  0.4569 -0.0541  0.2327
  581MPD2     H 8617   1.895   1.225  14.911 -0.3035  0.8489  0.1443
  581MPD2    H1 8618   2.081   1.596  14.803 -3.2007  0.2569  1.3921
  581MPD2    H2 8619   2.332   1.307  14.962 -1.1950 -0.2088  0.9838
  581MPD2    H3 8620   2.300   1.516  14.857  0.4640 -0.2431 -0.4618
  581MPD2     N 8621   1.861   1.470  14.795  0.2272  0.3136  0.2085
  581MPD2    H5 8622   1.881   1.557  14.747  0.8630 -1.6643 -3.1388
  581MPD2    N1 8623   2.134   1.141  15.036  0.7095 -0.1208 -0.7961
  581MPD2    H7 8624   2.229   1.126  15.067 -0.0616  1.4276  2.2813
  582TMC3    C1 8625   2.118   0.930  15.141  0.9082  0.2672  0.3219
  582TMC3    C2 8626   2.185   0.966  15.256  0.1144 -0.3622  1.1409
  582TMC3    C3 8627   2.172   0.884  15.370  0.1472  0.1669  0.0439
  582TMC3    C4 8628   2.050   0.815  15.147 -0.6430  0.0772  0.1745
  582TMC3    C5 8629   2.033   0.732  15.256  0.3828 -0.3846  0.5076
  582TMC3    C6 8630   2.108   0.767  15.368 -0.1264  0.7594  0.0267
  582TMC3     C 8631   2.056   1.034  15.065  0.1718  0.4187  0.0461
  582TMC3     O 8632   1.936   1.021  15.039 -0.3971  0.3161  0.4350
  582TMC3     H 8633   2.230   1.065  15.256 -0.0782 -0.2766  1.2740
  582TMC3    H1 8634   1.983   0.785  15.067 -1.7289 -0.0335  1.1361
  582TMC3    H2 8635   2.107   0.711  15.461  1.2333 -1.3531 -1.2262
  582TMC3    C7 8636   1.899   0.713  15.291  0.1591 -0.3412  0.0380
  582TMC3    C8 8637   2.185   0.955  15.496 -0.0886 -0.2474 -0.9365
  582TMC3    O1 8638   1.860   0.603  15.330 -0.4727 -0.1040  0.0050
  582TMC3    O2 8639   2.144   1.067  15.506 -0.3807  0.0083  0.7061
  583MPD2     C 8640   2.282   3.018  16.742  0.0652  0.6673 -0.1475
  583MPD2    C1 8641   2.288   3.154  16.706  0.3646  0.3574 -0.4716
  583MPD2    C2 8642   2.243   3.247  16.800  0.0029  0.0981 -0.3472
  583MPD2    C3 8643   2.199   3.204  16.928  0.9736 -0.0021  0.1200
  583MPD2    C4 8644   2.189   3.069  16.953  0.1259 -0.0804  0.7108
  583MPD2    C5 8645   2.224   2.978  16.857  0.5133  0.0567  0.5060
  583MPD2     H 8646   2.222   3.351  16.775  1.9104  0.0799 -1.9533
  583MPD2    H1 8647   2.159   3.030  17.049 -0.5940  0.7209  0.8093
  583MPD2    H2 8648   2.312   2.940  16.673 -2.0354 -0.6633  0.4437
  583MPD2    H3 8649   2.224   2.873  16.881  0.5575  0.0609  0.5245
  583MPD2     N 8650   2.172   3.299  17.021  0.0289  0.2494 -0.2595
  583MPD2    H5 8651   2.178   3.396  16.993  1.5330  0.9306  2.4800
  583MPD2    N1 8652   2.339   3.204  16.583  0.1365 -0.1461  0.1234
  583MPD2    H7 8653   2.346   3.303  16.563  0.3889  0.0881  1.3744
  584TMC3    C1 8654   2.143   3.413  17.222  0.3737  0.1374  0.9502
  584TMC3    C2 8655   2.161   3.529  17.157 -0.1553 -0.2649  0.2755
  584TMC3    C3 8656   2.194   3.639  17.231 -0.0693 -0.1765 -0.6851
  584TMC3    C4 8657   2.145   3.409  17.356  0.3468 -0.3782  0.3820
  584TMC3    C5 8658   2.162   3.522  17.427  0.2757 -0.1183 -0.2195
  584TMC3    C6 8659   2.193   3.644  17.369  0.0486  0.4401 -0.0796
  584TMC3     C 8660   2.144   3.281  17.153  0.0585  1.2015 -0.0174
  584TMC3     O 8661   2.154   3.179  17.215  0.1647 -0.1441  0.4814
  584TMC3     H 8662   2.181   3.530  17.051 -1.5125  1.5764  0.0392
  584TMC3    H1 8663   2.135   3.311  17.401 -1.0397 -0.6533 -0.5037
  584TMC3    H2 8664   2.201   3.740  17.419  0.7599  1.4162 -2.0720
  584TMC3    C7 8665   2.158   3.529  17.576 -0.8174 -0.3464 -0.6389
  584TMC3    C8 8666   2.246   3.746  17.146 -0.1802  0.7844 -0.7650
  584TMC3    O1 8667   2.223   3.623  17.619 -0.1159  0.0645  0.1238
  584TMC3    O2 8668   2.218   3.737  17.027  0.5046  0.1913 -0.3356
  585MPD2     C 8669   1.655   2.310   0.809 -0.4651 -0.1766 -0.7936
  585MPD2    C1 8670   1.753   2.268   0.718  0.0455 -0.3500  0.6367
  585MPD2    C2 8671   1.714   2.268   0.583 -0.5420  0.2890  0.0753
  585MPD2    C3 8672   1.593   2.314   0.538  0.2288 -0.0198  0.0276
  585MPD2    C4 8673   1.496   2.347   0.627 -0.3058 -0.4872 -0.4449
  585MPD2    C5 8674   1.528   2.350   0.759 -0.5604 -0.3995  0.2574
  585MPD2     H 8675   1.792   2.246   0.511 -0.7310  2.2683 -0.7562
  585MPD2    H1 8676   1.395   2.375   0.597 -0.6726 -1.9366 -0.5536
  585MPD2    H2 8677   1.665   2.318   0.916 -0.8621 -1.8850 -0.6226
  585MPD2    H3 8678   1.448   2.378   0.827 -0.6483 -2.2176  0.9038
  585MPD2     N 8679   1.560   2.321   0.401 -0.9548 -0.6744 -0.4464
  585MPD2    H5 8680   1.462   2.349   0.392 -0.8156  0.6254  2.0842
  585MPD2    N1 8681   1.870   2.223   0.777 -0.1860 -0.2645 -0.4506
  585MPD2    H7 8682   1.874   2.246   0.876 -0.3664 -1.8267 -0.0782
  586TMC3    C1 8683   1.585   2.296   0.161 -0.2891 -0.4528  0.0422
  586TMC3    C2 8684   1.688   2.300   0.068 -0.1961  0.2806  0.6881
  586TMC3    C3 8685   1.659   2.337  17.636  0.3774 -0.9979  0.3189
  586TMC3    C4 8686   1.458   2.337   0.130  0.9442 -1.0004  0.1164
  586TMC3    C5 8687   1.441   2.405   0.012  0.5873  0.0316  0.2587
  586TMC3    C6 8688   1.545   2.403  17.608  0.1879  0.3314  0.0990
  586TMC3     C 8689   1.639   2.281   0.299 -0.2430 -0.5043  0.2242
  586TMC3     O 8690   1.756   2.249   0.296 -0.1864 -0.6055 -0.3121
  586TMC3     H 8691   1.791   2.275   0.091  0.6424 -0.1983 -3.5526
  586TMC3    H1 8692   1.392   2.342   0.216  0.8573 -1.4450  0.0779
  586TMC3    H2 8693   1.545   2.468  17.522 -1.5160  0.3887  0.1379
  586TMC3    C7 8694   1.321   2.383  17.636  0.0576 -0.5408 -0.3197
  586TMC3    C8 8695   1.687   2.226  17.552  0.1781  0.5285 -0.6033
  586TMC3    O1 8696   1.340   2.395  17.517  0.1723  0.2131 -0.7414
  586TMC3    O2 8697   1.770   2.144  17.592 -0.4950 -0.3908  0.0748
  587TMC3    C1 8698   3.937   0.570  16.320 -0.1430 -0.1900  0.2815
  587TMC3    C2 8699   3.899   0.695  16.277 -0.8068 -0.7591 -0.0118
  587TMC3    C3 8700   3.994   0.762  16.199  0.5778 -0.5689 -0.2840
  587TMC3    C4 8701   4.057   0.517  16.295 -0.5237  0.0607  0.3646
  587TMC3    C5 8702   4.143   0.585  16.220 -0.0781  0.7919  0.5484
  587TMC3    C6 8703   4.118   0.709  16.173 -0.3383  0.2724  0.0941
  587TMC3     C 8704   3.841   0.486  16.385  0.8346 -0.3162  0.0258
  587TMC3     O 8705   3.874   0.393  16.456  0.0452 -0.2118  0.5663
  587TMC3     H 8706   3.808   0.741  16.313 -0.2565  0.8490 -0.6626
  587TMC3    H1 8707   4.076   0.416  16.326  1.2357  0.6628  1.2470
  587TMC3    H2 8708   4.183   0.764  16.106 -0.7075  0.6192  0.0230
  587TMC3    C7 8709   4.286   0.564  16.236  0.0433  0.3008 -0.3106
  587TMC3    C8 8710   3.960   0.893  16.135 -0.4026  0.1493  0.0672
  587TMC3    O1 8711   4.350   0.599  16.141 -0.2352  0.2835 -0.1872
  587TMC3    O2 8712   4.047   0.957  16.081 -0.8225 -0.0058  0.3696
  588TMC3    C1 8713   1.667   3.253   9.729 -0.0359  0.3164 -1.2994
  588TMC3    C2 8714   1.612   3.128   9.723  0.2343 -0.3471  0.0672
  588TMC3    C3 8715   1.584   3.079   9.596  1.0990  0.0074 -0.2462
  588TMC3    C4 8716   1.679   3.330   9.615  0.2013 -0.2139 -1.1088
  588TMC3    C5 8717   1.621   3.291   9.500  0.5154 -0.2935  0.5350
  588TMC3    C6 8718   1.574   3.160   9.484  0.4031 -0.6993 -0.0984
  588TMC3     C 8719   1.633   3.334   9.844  0.4487  0.6536 -0.0755
  588TMC3     O 8720   1.552   3.282   9.918 -0.1338 -0.2013  0.2005
  588TMC3     H 8721   1.587   3.068   9.810  1.8377 -0.4203  0.4804
  588TMC3    H1 8722   1.738   3.420   9.625  2.0497 -1.2427 -2.9255
  588TMC3    H2 8723   1.526   3.132   9.391 -0.8428 -0.4916  0.4877
  588TMC3    C7 8724   1.596   3.398   9.402 -0.2905  0.0158  0.2426
  588TMC3    C8 8725   1.532   2.945   9.587 -0.1557 -1.0028 -0.5937
  588TMC3    O1 8726   1.590   3.369   9.284 -0.0398  0.0647  0.3711
  588TMC3    O2 8727   1.464   2.917   9.493  0.3069  0.3705  0.4432
  589TMC3    C1 8728   0.109   1.766   1.215  0.2012 -0.2137 -0.5447
  589TMC3    C2 8729   0.172   1.798   1.337  0.4366 -0.3727 -0.4762
  589TMC3    C3 8730   0.310   1.779   1.347 -0.1036 -0.6992  0.5253
  589TMC3    C4 8731   0.181   1.724   1.105 -0.7824 -0.6187 -0.0126
  589TMC3    C5 8732   0.314   1.694   1.129 -0.3697  0.6449 -0.2374
  589TMC3    C6 8733   0.379   1.727   1.244  0.5546  0.0791 -0.6558
  589TMC3     C 8734   4.688   1.782   1.192  0.2381  0.0132  0.2773
  589TMC3     O 8735   4.637   1.746   1.086  0.1512 -0.5592 -0.0695
  589TMC3     H 8736   0.120   1.828   1.427  0.1169 -1.3498 -0.3310
  589TMC3    H1 8737   0.131   1.697   1.013  0.7736  0.7510 -1.2563
  589TMC3    H2 8738   0.484   1.701   1.245  0.7680  1.1428  2.3056
  589TMC3    C7 8739   0.397   1.633   1.022 -0.8426  0.7098 -0.4484
  589TMC3    C8 8740   0.379   1.818   1.471 -0.1623  0.4278 -0.2397
  589TMC3    O1 8741   0.511   1.600   1.060  0.0460 -0.0392  0.2158
  589TMC3    O2 8742   0.309   1.887   1.549  0.3025 -0.1778 -0.2602
  590MPD2     C 8743   0.145   3.505  16.714 -0.2520 -0.3178 -0.0200
  590MPD2    C1 8744   0.068   3.554  16.615 -0.5164  0.0997  0.3666
  590MPD2    C2 8745   0.121   3.646  16.525  1.3997 -0.6963  0.8423
  590MPD2    C3 8746   0.252   3.689  16.539 -0.4588 -0.8495 -0.6432
  590MPD2    C4 8747   0.335   3.635  16.630 -0.4584 -1.2382 -0.0010
  590MPD2    C5 8748   0.281   3.547  16.725 -0.0023  0.3724  0.0088
  590MPD2     H 8749   0.056   3.689  16.449  1.7518  0.4364  1.1837
  590MPD2    H1 8750   0.437   3.667  16.651 -0.4510 -0.8508 -0.6163
  590MPD2    H2 8751   0.101   3.432  16.780  0.8704 -0.4779  0.5647
  590MPD2    H3 8752   0.341   3.520  16.811  2.8200  2.3270 -1.3647
  590MPD2     N 8753   0.298   3.792  16.448 -0.0436  0.0814 -0.0085
  590MPD2    H5 8754   0.225   3.840  16.396 -1.1502  0.1982  1.6392
  590MPD2    N1 8755   4.659   3.500  16.609  0.1792 -0.0232  0.3696
  590MPD2    H7 8756   4.627   3.446  16.689 -0.2091  0.0145  0.2368
  591TMC3    C1 8757   0.455   3.950  16.366  0.5274  0.5375  0.0581
  591TMC3    C2 8758   0.568   3.955  16.278 -0.2337  0.0714 -0.8574
  591TMC3    C3 8759   0.583   4.069  16.211  0.0072 -0.2422  0.2547
  591TMC3    C4 8760   0.359   4.041  16.375  0.5613 -0.3201  0.4425
  591TMC3    C5 8761   0.376   4.152  16.295  0.0087  0.1281  0.2549
  591TMC3    C6 8762   0.487   4.167  16.211  0.4755  0.4748  0.3427
  591TMC3     C 8763   0.433   3.819  16.425 -0.5692 -0.0771  0.1666
  591TMC3     O 8764   0.536   3.758  16.450  0.3107  0.3578 -1.0762
  591TMC3     H 8765   0.652   3.886  16.283 -0.7076 -0.4688 -0.3756
  591TMC3    H1 8766   0.287   4.036  16.456  0.6830 -1.6366  0.4674
  591TMC3    H2 8767   0.500   4.245  16.137  3.4937  0.5358  0.9418
  591TMC3    C7 8768   0.272   4.255  16.290 -0.8606 -0.1578  0.1299
  591TMC3    C8 8769   0.664   4.052  16.095  0.2732  0.4876  0.2172
  591TMC3    O1 8770   0.174   4.234  16.363 -0.0284  0.4789 -0.0528
  591TMC3    O2 8771   0.670   3.941  16.045 -0.6712  0.8957 -0.4331
  592MPD2     C 8772   0.676   1.445  11.309 -0.6248  0.7258  0.0622
  592MPD2    C1 8773   0.659   1.508  11.428 -0.1822  0.1224 -0.4773
  592MPD2    C2 8774   0.555   1.476  11.510  0.0093  0.0299  0.2895
  592MPD2    C3 8775   0.457   1.386  11.465 -0.1185  0.0442  0.0394
  592MPD2    C4 8776   0.467   1.328  11.342  0.2562  0.2326 -0.1292
  592MPD2    C5 8777   0.572   1.363  11.261  0.3815  0.5067  0.3209
  592MPD2     H 8778   0.526   1.530  11.600  2.7936  1.7285  0.1868
  592MPD2    H1 8779   0.394   1.259  11.299  1.3719 -0.6503 -0.6064
  592MPD2    H2 8780   0.762   1.468  11.248  0.9678  0.1675  2.0944
  592MPD2    H3 8781   0.578   1.325  11.160  2.0940  2.4594 -0.2982
  592MPD2     N 8782   0.352   1.340  11.553  0.2048  0.4176 -0.2349
  592MPD2    H5 8783   0.347   1.366  11.651 -2.2438  0.9078 -0.4927
  592MPD2    N1 8784   0.757   1.605  11.459  0.2774  0.7254 -0.5988
  592MPD2    H7 8785   0.828   1.625  11.389 -0.3098  1.4854 -0.9835
  593TMC3    C1 8786   0.843   1.804  11.552  0.8636  0.0672 -0.1621
  593TMC3    C2 8787   0.851   1.893  11.659 -0.2239  0.1158  0.3972
  593TMC3    C3 8788   0.916   2.016  11.640 -0.1302  0.6488  0.5240
  593TMC3    C4 8789   0.896   1.836  11.431 -0.0922 -0.2746 -0.4713
  593TMC3    C5 8790   0.962   1.958  11.420  0.1825  0.0239  0.2100
  593TMC3    C6 8791   0.968   2.050  11.521  0.5484  0.5219 -0.0507
  593TMC3     C 8792   0.758   1.684  11.570  0.4532 -0.0923 -0.2843
  593TMC3     O 8793   0.704   1.672  11.680 -0.1150 -0.0265 -0.1618
  593TMC3     H 8794   0.792   1.875  11.748 -1.5466  0.9394 -0.3262
  593TMC3    H1 8795   0.862   1.795  11.337 -3.2210  2.3252 -0.4782
  593TMC3    H2 8796   1.010   2.149  11.504  1.3904  0.1289 -0.2209
  593TMC3    C7 8797   1.033   1.990  11.298  0.5770  0.4446 -0.5634
  593TMC3    C8 8798   0.912   2.115  11.748  0.2088 -0.2802  1.1990
  593TMC3    O1 8799   1.043   2.111  11.270 -0.0079 -0.8674 -0.7963
  593TMC3    O2 8800   0.832   2.096  11.834 -0.2274  0.3344 -0.2497
  594MPD2     C 8801   4.215   4.709  14.051  0.0971 -0.1183 -0.0340
  594MPD2    C1 8802   4.144   0.028  14.158  0.3255  0.4697  1.2323
  594MPD2    C2 8803   4.168   0.149  14.220 -0.6834 -0.4528 -0.3535
  594MPD2    C3 8804   4.276   0.224  14.172 -0.2133 -0.1418  0.6687
  594MPD2    C4 8805   4.355   0.178  14.075 -0.3778 -1.1512 -0.6126
  594MPD2    C5 8806   4.327   0.058  14.022 -0.0963 -0.0651 -0.6053
  594MPD2     H 8807   4.104   0.183  14.300  0.3449 -0.9771  0.6898
  594MPD2    H1 8808   4.439   0.231  14.032  0.9971 -3.0470 -0.2802
  594MPD2    H2 8809   4.201   4.612  14.005  0.5817 -0.6277  0.8793
  594MPD2    H3 8810   4.389   0.014  13.945  1.6233 -0.4358  1.0018
  594MPD2     N 8811   4.310   0.336  14.251 -0.1933  0.0948  0.2560
  594MPD2    H5 8812   4.244   0.352  14.326 -0.4953 -0.3369  0.0793
  594MPD2    N1 8813   4.036   4.672  14.196  0.4973  0.6670  0.2217
  594MPD2    H7 8814   4.002   4.599  14.134  2.9500 -1.3532  1.2274
  595TMC3    C1 8815   4.602   0.619  14.472 -0.2133 -1.1788  0.3272
  595TMC3    C2 8816   4.568   0.555  14.357 -0.3285 -0.2298  0.2101
  595TMC3    C3 8817   4.438   0.516  14.338 -0.2002 -0.2225 -0.5670
  595TMC3    C4 8818   4.524   0.612  14.588  0.3244  0.3888 -0.3069
  595TMC3    C5 8819   4.403   0.551  14.574  0.2896 -0.1820  0.0159
  595TMC3    C6 8820   4.361   0.517  14.446  0.1300 -0.2511  0.6488
  595TMC3     C 8821   0.023   0.631  14.488  0.1370  0.0023 -0.1091
  595TMC3     O 8822   0.068   0.622  14.603 -0.9983 -0.4582  0.7900
  595TMC3     H 8823   4.644   0.535  14.282 -0.6197  0.5169 -0.2875
  595TMC3    H1 8824   4.555   0.655  14.682 -0.2038 -0.2945  0.1800
  595TMC3    H2 8825   4.260   0.478  14.438  0.7731 -2.3112  2.4806
  595TMC3    C7 8826   4.301   0.545  14.678 -0.3873  0.3422 -0.2681
  595TMC3    C8 8827   4.413   0.426  14.230 -0.5091  0.2823 -0.1133
  595TMC3    O1 8828   4.186   0.531  14.643 -0.0844 -1.0085  0.2099
  595TMC3    O2 8829   4.505   0.399  14.156  0.7957  0.1979 -0.1942
  596MPD2     C 8830   3.036   2.664  16.709 -0.0446  0.0166  0.1549
  596MPD2    C1 8831   3.034   2.786  16.644 -0.0706  0.0475  0.1267
  596MPD2    C2 8832   3.030   2.797  16.508  0.2586  0.0775 -0.2531
  596MPD2    C3 8833   3.015   2.684  16.432  1.2928 -0.4689 -0.4244
  596MPD2    C4 8834   3.013   2.563  16.499  0.4572 -0.6407  0.0944
  596MPD2    C5 8835   3.036   2.550  16.636  0.3397  0.6404 -0.1648
  596MPD2     H 8836   3.035   2.896  16.464 -2.6499  0.6952  0.8273
  596MPD2    H1 8837   3.001   2.474  16.439  0.1618 -0.7974  0.3878
  596MPD2    H2 8838   3.035   2.644  16.816  0.6425  2.1775  0.5710
  596MPD2    H3 8839   3.040   2.455  16.687  0.0373  0.8728  0.2881
  596MPD2     N 8840   2.995   2.686  16.295  0.5513  0.3098 -0.1911
  596MPD2    H5 8841   3.001   2.597  16.246  0.0920 -1.0722  2.2293
  596MPD2    N1 8842   3.055   2.911  16.714 -0.2716 -0.4736  0.4861
  596MPD2    H7 8843   3.063   2.995  16.658 -0.9591 -1.3879 -0.9643
  597TMC3    C1 8844   3.058   3.069  16.888  0.5281 -0.6395 -0.5371
  597TMC3    C2 8845   3.153   3.148  16.818  0.9378 -0.3917 -0.1214
  597TMC3    C3 8846   3.145   3.275  16.843 -0.5770  0.3540 -0.2959
  597TMC3    C4 8847   2.974   3.114  16.990 -0.1560  0.1035 -0.5920
  597TMC3    C5 8848   2.982   3.252  17.012  0.0554  0.2412 -0.2025
  597TMC3    C6 8849   3.063   3.334  16.936  0.3931  0.4303 -0.8397
  597TMC3     C 8850   3.043   2.931  16.851  1.1332  0.2464  0.6689
  597TMC3     O 8851   3.026   2.851  16.943 -0.1171 -0.0008  0.0206
  597TMC3     H 8852   3.211   3.098  16.741  3.8950  0.2912  1.6273
  597TMC3    H1 8853   2.902   3.047  17.036  0.3839 -0.9453 -1.2604
  597TMC3    H2 8854   3.070   3.438  16.966  2.0891  0.4102 -1.1803
  597TMC3    C7 8855   2.897   3.299  17.126 -0.1412  0.1139 -0.4594
  597TMC3    C8 8856   3.235   3.361  16.763 -0.4623  0.6329  0.0989
  597TMC3    O1 8857   2.839   3.203  17.185  0.1408  0.0035 -0.4961
  597TMC3    O2 8858   3.277   3.306  16.659 -0.2675  0.2463 -0.0753
  598TMC3    C1 8859   1.513   4.412  15.408  0.2672 -0.0449  0.3634
  598TMC3    C2 8860   1.484   4.281  15.396  1.0932 -0.0143  0.0198
  598TMC3    C3 8861   1.424   4.241  15.279  0.4638  0.3888 -0.1281
  598TMC3    C4 8862   1.469   4.509  15.321 -0.8357 -0.3044  0.0284
  598TMC3    C5 8863   1.398   4.476  15.210  0.1681  0.1216  0.6034
  598TMC3    C6 8864   1.380   4.338  15.183  0.3265 -0.3362 -0.3712
  598TMC3     C 8865   1.576   4.457  15.531 -0.4233  0.4180 -0.8664
  598TMC3     O 8866   1.650   4.554  15.519 -0.1434  0.1771 -0.2051
  598TMC3     H 8867   1.520   4.201  15.460  1.7281  1.6077  1.7080
  598TMC3    H1 8868   1.500   4.612  15.331  0.1639 -0.6846  0.8924
  598TMC3    H2 8869   1.344   4.312  15.085  3.9319  0.2991 -1.8599
  598TMC3    C7 8870   1.402   4.571  15.093 -1.0299 -0.0276  0.1652
  598TMC3    C8 8871   1.387   4.103  15.263  0.0279 -0.9036  0.0513
  598TMC3    O1 8872   1.359   4.520  14.990  0.1522 -0.2880  0.1690
  598TMC3    O2 8873   1.444   4.018  15.338  0.1053 -0.1759 -0.0741
  599MPD2     C 8874   1.372   1.801  15.603 -0.3086  0.1763 -0.2558
  599MPD2    C1 8875   1.308   1.699  15.666 -0.3523  0.1693  0.4311
  599MPD2    C2 8876   1.180   1.718  15.723  0.5431 -0.9653 -0.2260
  599MPD2    C3 8877   1.129   1.847  15.727 -0.0723  0.4119  0.3183
  599MPD2    C4 8878   1.200   1.953  15.670 -0.3726  0.0935 -0.0215
  599MPD2    C5 8879   1.316   1.925  15.601  0.1027 -0.3013  0.3271
  599MPD2     H 8880   1.130   1.638  15.777 -0.3893  1.5981  2.7186
  599MPD2    H1 8881   1.151   2.049  15.657  1.5357  1.0000 -0.4401
  599MPD2    H2 8882   1.471   1.788  15.560 -0.1152 -0.2172  0.3063
  599MPD2    H3 8883   1.367   2.004  15.546  0.7875  0.8730  2.6757
  599MPD2     N 8884   1.011   1.878  15.801 -0.1910 -0.4646  0.5564
  599MPD2    H5 8885   0.991   1.977  15.809  0.3174 -0.3861  0.8065
  599MPD2    N1 8886   1.371   1.566  15.668  0.0385 -0.1281  0.1932
  599MPD2    H7 8887   1.466   1.566  15.633 -0.3705  1.5471 -0.9096
  600TMC3    C1 8888   0.814   1.847  15.926  0.2908 -0.1814 -0.5507
  600TMC3    C2 8889   0.689   1.794  15.937  0.0868  0.1982  0.2379
  600TMC3    C3 8890   0.602   1.850  16.023  0.0296  0.4326  0.1249
  600TMC3    C4 8891   0.843   1.958  15.995  0.1522 -0.5546 -0.3002
  600TMC3    C5 8892   0.748   2.018  16.068  0.5205  0.8278 -0.2703
  600TMC3    C6 8893   0.625   1.972  16.086  0.7293  0.1440 -0.1487
  600TMC3     C 8894   0.922   1.785  15.857  0.0387  0.0480 -0.4390
  600TMC3     O 8895   0.900   1.667  15.826 -0.1326 -0.4454  0.0021
  600TMC3     H 8896   0.669   1.700  15.887 -2.3278  1.5337 -1.3054
  600TMC3    H1 8897   0.945   1.995  15.996 -0.7466  1.8954  1.0086
  600TMC3    H2 8898   0.559   2.021  16.157  0.3542 -0.8919  0.2103
  600TMC3    C7 8899   0.786   2.141  16.140  0.0966  0.0058  0.7332
  600TMC3    C8 8900   0.461   1.801  16.016 -0.0329 -0.1547 -0.1169
  600TMC3    O1 8901   0.728   2.155  16.245  0.1224 -0.0902 -0.2055
  600TMC3    O2 8902   0.389   1.853  15.937  0.6404 -0.2833  0.0994
  601MPD2     C 8903   3.478   4.573   0.272  0.9768  0.9148 -0.4864
  601MPD2    C1 8904   3.366   4.600   0.198 -0.1813  0.0913 -0.4955
  601MPD2    C2 8905   3.240   4.583   0.252  0.1808 -0.5592  0.1872
  601MPD2    C3 8906   3.227   4.527   0.372 -0.3485  0.3111  0.2852
  601MPD2    C4 8907   3.337   4.502   0.455 -0.6298 -0.5922  0.0916
  601MPD2    C5 8908   3.464   4.512   0.397 -0.7198  0.0349  0.0234
  601MPD2     H 8909   3.156   4.621   0.195  0.4277 -0.0788  0.1360
  601MPD2    H1 8910   3.326   4.471   0.558 -2.4541 -1.9917 -0.5222
  601MPD2    H2 8911   3.575   4.579   0.223  0.9671 -0.6012 -0.6932
  601MPD2    H3 8912   3.556   4.498   0.452 -0.1968 -3.3874 -1.7351
  601MPD2     N 8913   3.101   4.478   0.415 -0.1812 -0.0619 -0.0573
  601MPD2    H5 8914   3.106   4.419   0.498 -0.3026 -0.1798 -0.1350
  601MPD2    N1 8915   3.366   4.664   0.075 -0.0374  0.2572 -0.5043
  601MPD2    H7 8916   3.277   4.699   0.041  0.1235  1.8700  0.7845
  602TMC3    C1 8917   3.435   4.707  17.556 -0.1543  0.0035  0.4052
  602TMC3    C2 8918   3.323   4.643  17.510 -0.3833  0.4072  0.3620
  602TMC3    C3 8919   3.270   4.700  17.394 -0.4669 -0.1443  0.3019
  602TMC3    C4 8920   3.510   0.071  17.486  0.1333  0.1690 -0.3222
  602TMC3    C5 8921   3.463   0.111  17.362 -0.3611  0.1084 -0.1171
  602TMC3    C6 8922   3.340   0.067  17.324  0.2021 -0.2705  0.5744
  602TMC3     C 8923   3.477   4.693  17.687  0.5240 -1.2307 -0.2271
  602TMC3     O 8924   3.596   4.688   0.017  0.5951  0.2032  0.3778
  602TMC3     H 8925   3.265   4.565  17.557 -1.6248  0.7379 -0.6132
  602TMC3    H1 8926   3.599   0.117  17.528 -0.7034  1.9213 -0.4657
  602TMC3    H2 8927   3.283   0.123  17.251  1.4893  1.3972  0.8404
  602TMC3    C7 8928   3.542   0.196  17.274  0.1259  0.9797  0.4172
  602TMC3    C8 8929   3.128   4.679  17.369 -0.1382 -0.3093 -0.0953
  602TMC3    O1 8930   3.641   0.251  17.319 -0.4495 -0.6897 -0.4548
  602TMC3    O2 8931   3.057   4.661  17.467  0.0588 -0.3947 -0.0523
  603TMC3    C1 8932   1.232   0.859  10.739 -0.2530 -0.6319  0.3048
  603TMC3    C2 8933   1.308   0.831  10.853  0.1342 -0.1514 -0.4579
  603TMC3    C3 8934   1.416   0.907  10.877 -0.5564 -0.1943  0.7809
  603TMC3    C4 8935   1.261   0.952  10.645 -0.1309  0.1210 -0.2133
  603TMC3    C5 8936   1.381   1.020  10.666  0.2771 -0.2960 -0.5786
  603TMC3    C6 8937   1.457   1.004  10.780 -0.8284 -0.4064 -0.0284
  603TMC3     C 8938   1.132   0.762  10.710 -0.2849  0.4779 -0.0825
  603TMC3     O 8939   1.136   0.653  10.761 -0.2739 -0.3375 -0.0153
  603TMC3     H 8940   1.274   0.756  10.923 -1.5984  1.6326  0.6165
  603TMC3    H1 8941   1.192   0.969  10.563 -0.5848  0.5794  0.2661
  603TMC3    H2 8942   1.558   1.042  10.771 -1.6552  1.1846 -2.4511
  603TMC3    C7 8943   1.422   1.123  10.568 -0.0453 -0.1578 -0.1248
  603TMC3    C8 8944   1.518   0.866  10.972  0.3619  0.2252 -0.4257
  603TMC3    O1 8945   1.506   1.201  10.612  0.1429 -0.4131  0.4699
  603TMC3    O2 8946   1.516   0.745  11.006 -0.0575 -0.4387 -0.3009
  604MPD2     C 8947   2.535   4.040  16.309 -0.4775  0.9188  0.3720
  604MPD2    C1 8948   2.416   4.001  16.254  0.2497 -0.0944  0.3956
  604MPD2    C2 8949   2.416   3.956  16.123 -0.0029  0.4875  0.0685
  604MPD2    C3 8950   2.527   3.952  16.050 -0.3561 -0.0153  0.2549
  604MPD2    C4 8951   2.646   3.992  16.102 -0.4054 -0.6337 -0.1934
  604MPD2    C5 8952   2.649   4.034  16.233  0.1183 -0.6383  0.1244
  604MPD2     H 8953   2.330   3.911  16.074  0.2226 -1.4243  1.4084
  604MPD2    H1 8954   2.737   3.990  16.045 -2.2417 -0.4082 -3.1104
  604MPD2    H2 8955   2.536   4.071  16.413 -0.6023 -0.5743  0.8230
  604MPD2    H3 8956   2.739   4.078  16.275  0.7939 -0.2441 -1.7109
  604MPD2     N 8957   2.507   3.910  15.919  0.8208 -0.2787 -0.4721
  604MPD2    H5 8958   2.412   3.901  15.883  0.8813 -1.4877 -0.3352
  604MPD2    N1 8959   2.297   3.992  16.333  0.1053 -0.4795  0.5557
  604MPD2    H7 8960   2.310   4.026  16.428  1.1982  0.5587  0.0328
  605TMC3    C1 8961   2.072   4.002  16.395  0.6568 -0.6065  0.7715
  605TMC3    C2 8962   2.128   4.004  16.516  0.1536  0.0360 -0.1870
  605TMC3    C3 8963   2.127   4.122  16.587 -0.0479  0.3370  0.8655
  605TMC3    C4 8964   1.990   4.104  16.353  0.6834 -0.3423  0.5122
  605TMC3    C5 8965   1.976   4.215  16.434 -0.0690  0.5429  0.2123
  605TMC3    C6 8966   2.056   4.232  16.546 -0.2850  0.9019 -0.2249
  605TMC3     C 8967   2.170   3.965  16.294  0.2658  0.5601 -0.7548
  605TMC3     O 8968   2.123   3.940  16.184  0.3477  0.1414 -0.4280
  605TMC3     H 8969   2.166   3.913  16.562 -0.2647  0.9987  2.0548
  605TMC3    H1 8970   1.936   4.096  16.260  1.5570 -1.7370  0.1346
  605TMC3    H2 8971   2.057   4.322  16.607  1.6357  0.2174  0.7583
  605TMC3    C7 8972   1.868   4.303  16.404  0.0777  0.5933  0.0377
  605TMC3    C8 8973   2.264   4.158  16.625  0.4328  0.1975  0.1807
  605TMC3    O1 8974   1.806   4.276  16.304 -0.2611 -0.3633  0.0936
  605TMC3    O2 8975   2.352   4.075  16.600 -0.1116 -0.4500  0.0239
  606TMC3    C1 8976   3.749   2.400  16.873  0.2608  0.1804 -0.5564
  606TMC3    C2 8977   3.719   2.433  17.001  0.7118 -0.6007  0.2361
  606TMC3    C3 8978   3.595   2.486  17.022  0.7608  0.3481 -0.6431
  606TMC3    C4 8979   3.665   2.429  16.767 -0.5985  0.4299  0.6482
  606TMC3    C5 8980   3.539   2.473  16.805 -0.0280 -0.6613 -0.1951
  606TMC3    C6 8981   3.498   2.503  16.931 -1.0824 -0.2786 -0.3268
  606TMC3     C 8982   3.861   2.310  16.853  0.2869  0.0940  0.2673
  606TMC3     O 8983   3.942   2.291  16.942  0.0624  0.1208  0.1162
  606TMC3     H 8984   3.788   2.425  17.085 -0.1314 -1.6295  0.8249
  606TMC3    H1 8985   3.676   2.408  16.661 -0.2268 -1.2206  1.0070
  606TMC3    H2 8986   3.410   2.561  16.959 -1.0253  0.1140 -0.9798
  606TMC3    C7 8987   3.432   2.426  16.719  0.6180 -0.4378 -0.8311
  606TMC3    C8 8988   3.559   2.507  17.161 -0.0176 -0.2793  0.0266
  606TMC3    O1 8989   3.461   2.422  16.601 -0.7871  0.5192  0.6435
  606TMC3    O2 8990   3.471   2.587  17.183  0.0857 -0.1859 -0.2650
  607MPD2     C 8991   0.668   0.955  11.945 -0.5987  0.0177  0.9761
  607MPD2    C1 8992   0.752   1.065  11.948 -0.2774  0.5570 -0.4486
  607MPD2    C2 8993   0.815   1.084  12.063 -0.7847 -0.3694  0.1030
  607MPD2    C3 8994   0.819   0.995  12.166 -0.1605 -0.6077 -0.4632
  607MPD2    C4 8995   0.741   0.882  12.156 -0.2398  0.5754  0.2240
  607MPD2    C5 8996   0.649   0.869  12.053  0.8746  0.4595 -0.4225
  607MPD2     H 8997   0.875   1.174  12.076 -0.7904 -0.2387 -0.7439
  607MPD2    H1 8998   0.744   0.809  12.236 -0.3884 -1.9215 -2.0911
  607MPD2    H2 8999   0.610   0.938  11.855 -1.0193  1.4463  0.9792
  607MPD2    H3 9000   0.585   0.782  12.041 -0.7287  1.7775 -1.4260
  607MPD2     N 9001   0.903   1.019  12.275  0.4626  0.1209 -0.3760
  607MPD2    H5 9002   0.954   1.107  12.275 -3.1983  2.2396 -0.3918
  607MPD2    N1 9003   0.780   1.149  11.842 -0.3067  0.0834 -0.2243
  607MPD2    H7 9004   0.829   1.235  11.865 -0.7778 -0.1560  1.6827
  608TMC3    C1 9005   0.807   1.231  11.626 -0.2046  0.4954  0.2616
  608TMC3    C2 9006   0.879   1.332  11.685  0.2808  0.6979  0.2838
  608TMC3    C3 9007   0.980   1.386  11.623  0.5943  0.5050  0.1171
  608TMC3    C4 9008   0.842   1.191  11.499 -1.0092  0.6473 -0.4737
  608TMC3    C5 9009   0.944   1.250  11.440  0.2450 -0.0023 -0.1399
  608TMC3    C6 9010   1.022   1.341  11.497 -0.1510 -0.4513  0.1992
  608TMC3     C 9011   0.747   1.129  11.711  0.5831 -0.2433 -0.4862
  608TMC3     O 9012   0.708   1.029  11.656  0.0673  0.2554 -0.0187
  608TMC3     H 9013   0.838   1.375  11.775  1.9303 -1.0414  1.8485
  608TMC3    H1 9014   0.787   1.109  11.455 -0.8204  0.4443 -0.3303
  608TMC3    H2 9015   1.096   1.398  11.442  0.8727  0.4517  2.5406
  608TMC3    C7 9016   0.967   1.238  11.296 -0.0985 -0.7250  0.3165
  608TMC3    C8 9017   1.070   1.477  11.690 -0.3401  0.5854  0.3237
  608TMC3    O1 9018   1.033   1.331  11.246 -0.2340 -0.0735  0.5506
  608TMC3    O2 9019   1.146   1.542  11.620  0.1958 -0.3662 -0.0582
  609TMC3    C1 9020   4.508   3.376   9.408 -0.4660 -0.2764  0.1777
  609TMC3    C2 9021   4.470   3.256   9.352 -0.3397  0.2103  0.1134
  609TMC3    C3 9022   4.573   3.163   9.332 -0.6922 -0.1333 -0.1040
  609TMC3    C4 9023   4.630   3.400   9.458  0.6113 -0.0840 -0.4721
  609TMC3    C5 9024   0.002   3.297   9.453 -0.5489  0.0358 -0.0343
  609TMC3    C6 9025   4.699   3.181   9.385  0.6038  0.0365  0.0188
  609TMC3     C 9026   4.402   3.459   9.463 -0.3706 -0.7948 -0.5084
  609TMC3     O 9027   4.292   3.404   9.468  0.4545  0.3629  0.2236
  609TMC3     H 9028   4.371   3.241   9.311 -1.8568  0.2857  3.8312
  609TMC3    H1 9029   4.643   3.486   9.523  0.6227 -2.1234  2.2705
  609TMC3    H2 9030   0.053   3.105   9.387  1.1189  0.6480  2.5587
  609TMC3    C7 9031   0.114   3.310   9.541 -0.3810  0.1441  0.1934
  609TMC3    C8 9032   4.531   3.034   9.287 -0.1975 -0.1608  0.0036
  609TMC3    O1 9033   0.125   3.417   9.602 -0.4770  0.3518  0.0276
  609TMC3    O2 9034   4.411   3.026   9.261  0.0708  0.9983  0.6144
  610TMC3    C1 9035   1.781   1.011  12.711 -0.3110  0.5379 -0.0842
  610TMC3    C2 9036   1.912   1.042  12.685 -0.2367 -0.3719 -0.3318
  610TMC3    C3 9037   2.003   0.954  12.737 -0.7450  0.1261 -0.1447
  610TMC3    C4 9038   1.749   0.905  12.792 -0.0050 -0.3249  0.1676
  610TMC3    C5 9039   1.841   0.828  12.850  0.0898  0.0375  0.3167
  610TMC3    C6 9040   1.970   0.857  12.825 -0.9487  0.2776 -0.0376
  610TMC3     C 9041   1.676   1.103  12.670 -0.6682 -0.2620  0.2404
  610TMC3     O 9042   1.707   1.202  12.608 -0.3946 -0.6106 -0.2274
  610TMC3     H 9043   1.942   1.126  12.624 -0.0510  1.0580  1.7150
  610TMC3    H1 9044   1.649   0.901  12.832  0.4774  2.1543  1.6182
  610TMC3    H2 9045   2.039   0.799  12.885  0.9997  2.5834 -0.0581
  610TMC3    C7 9046   1.810   0.719  12.944 -0.3430  0.5587 -0.4587
  610TMC3    C8 9047   2.147   0.987  12.702 -0.2346  0.2173 -0.4733
  610TMC3    O1 9048   1.902   0.675  13.010  0.3675  0.5176  0.5241
  610TMC3    O2 9049   2.171   1.012  12.584 -0.1603 -0.3850 -0.0360
  611MPD2     C 9050   0.387   1.379   9.697  0.1932  0.7161 -0.2163
  611MPD2    C1 9051   0.433   1.259   9.735  0.7819 -0.1922 -0.1032
  611MPD2    C2 9052   0.567   1.224   9.712  0.2124 -0.5943 -0.0417
  611MPD2    C3 9053   0.655   1.316   9.644  0.1086  0.6015  0.0696
  611MPD2    C4 9054   0.594   1.428   9.598  0.5769 -0.0830  0.3612
  611MPD2    C5 9055   0.466   1.459   9.623  0.7599 -0.1133 -0.0674
  611MPD2     H 9056   0.604   1.126   9.741 -2.5988 -0.7891  2.9605
  611MPD2    H1 9057   0.638   1.513   9.547 -1.1204  2.3600  3.0304
  611MPD2    H2 9058   0.295   1.423   9.732  0.4861  1.9382 -0.9672
  611MPD2    H3 9059   0.430   1.560   9.606 -1.5906 -0.6651  1.5295
  611MPD2     N 9060   0.789   1.299   9.636  0.1815  0.3891 -0.4175
  611MPD2    H5 9061   0.832   1.382   9.595 -0.9658  1.0555 -0.2630
  611MPD2    N1 9062   0.335   1.183   9.795  0.0523 -0.5047 -0.3490
  611MPD2    H7 9063   0.244   1.223   9.817 -1.2390 -3.3531 -0.5079
  612TMC3    C1 9064   1.012   1.239   9.677  0.1296  0.0362  0.1557
  612TMC3    C2 9065   1.089   1.235   9.784  0.2884  0.2143  0.6303
  612TMC3    C3 9066   1.221   1.233   9.758  0.0035 -0.1335 -0.6421
  612TMC3    C4 9067   1.048   1.232   9.548  0.7479  0.1283 -0.2108
  612TMC3    C5 9068   1.183   1.242   9.527  0.2842 -0.4638 -0.2064
  612TMC3    C6 9069   1.270   1.250   9.632 -0.1758 -0.3940 -0.1321
  612TMC3     C 9070   0.864   1.216   9.707 -0.1135 -0.5162 -0.3470
  612TMC3     O 9071   0.833   1.126   9.782  0.5571  0.2258  0.1217
  612TMC3     H 9072   1.044   1.252   9.882  0.2998  3.1442  0.1157
  612TMC3    H1 9073   0.967   1.244   9.477 -0.1766 -1.8315  0.5081
  612TMC3    H2 9074   1.377   1.244   9.612  0.2493 -0.0461  2.0917
  612TMC3    C7 9075   1.212   1.288   9.397  0.1465  0.0932  0.2385
  612TMC3    C8 9076   1.331   1.232   9.860 -0.3337  0.1087 -0.0782
  612TMC3    O1 9077   1.130   1.262   9.310  0.7357 -0.3850  0.4380
  612TMC3    O2 9078   1.438   1.276   9.817  0.3252  0.1861  0.3840
  613MPD2     C 9079   4.614   2.586  15.671  0.0099  0.2614 -0.4419
  613MPD2    C1 9080   4.486   2.638  15.653 -0.3297 -0.3938  1.1106
  613MPD2    C2 9081   4.380   2.555  15.614  0.0673  0.0160 -0.5200
  613MPD2    C3 9082   4.411   2.423  15.582 -0.1919  0.0339  0.0105
  613MPD2    C4 9083   4.538   2.374  15.598  0.3102 -0.0724  0.7539
  613MPD2    C5 9084   4.641   2.453  15.654  0.1244  0.0027 -0.5004
  613MPD2     H 9085   4.275   2.579  15.605 -0.8258 -3.6622  0.3287
  613MPD2    H1 9086   4.570   2.275  15.567  0.2408  0.5367 -1.2784
  613MPD2    H2 9087   4.706   2.636  15.698 -1.0831  2.0781 -0.0439
  613MPD2    H3 9088   0.019   2.414  15.649  0.5763  0.8201  2.1314
  613MPD2     N 9089   4.319   2.336  15.516 -0.1670 -0.1124 -0.1730
  613MPD2    H5 9090   4.349   2.240  15.500 -1.5838 -0.8962  1.8017
  613MPD2    N1 9091   4.470   2.780  15.660 -0.0503  0.1128  0.1595
  613MPD2    H7 9092   4.551   2.842  15.653  1.4345 -2.1168 -2.2775
  614TMC3    C1 9093   4.357   2.983  15.620 -0.7882 -0.3919 -0.2030
  614TMC3    C2 9094   4.472   3.004  15.556  0.5430  0.4766 -0.4895
  614TMC3    C3 9095   4.473   3.002  15.417  0.1100  0.5211 -0.0531
  614TMC3    C4 9096   4.239   3.007  15.557 -0.4506  1.1826 -0.3840
  614TMC3    C5 9097   4.239   3.010  15.422  0.5225  0.0970  0.4669
  614TMC3    C6 9098   4.349   2.995  15.346 -0.1726 -0.0069  0.1053
  614TMC3     C 9099   4.351   2.842  15.670 -0.3271 -0.0155 -0.2251
  614TMC3     O 9100   4.244   2.796  15.701  0.0153 -0.3793  0.5911
  614TMC3     H 9101   4.567   3.016  15.606 -0.6278  0.6535  1.6896
  614TMC3    H1 9102   4.141   3.016  15.604 -0.9159 -2.1710 -0.7218
  614TMC3    H2 9103   4.348   3.005  15.238 -0.9700 -0.3893  0.0838
  614TMC3    C7 9104   4.117   3.055  15.355 -0.1327 -0.1094 -0.5643
  614TMC3    C8 9105   4.568   2.899  15.377  0.0506 -0.0355  0.3013
  614TMC3    O1 9106   4.041   3.133  15.408 -0.0424 -0.6730  0.4089
  614TMC3    O2 9107   4.684   2.907  15.419  0.5955 -0.4200 -0.2565
  615MPD2     C 9108   3.836   3.739  16.123  0.1573 -0.1655  0.2818
  615MPD2    C1 9109   3.842   3.871  16.079  0.4550 -0.2086 -0.4312
  615MPD2    C2 9110   3.733   3.919  16.011  0.0069  1.0935  0.5320
  615MPD2    C3 9111   3.622   3.844  15.988  0.1112  0.1613 -0.0497
  615MPD2    C4 9112   3.621   3.711  16.027  0.0182  0.2355  0.9001
  615MPD2    C5 9113   3.730   3.661  16.093 -0.4818 -0.2398  0.5800
  615MPD2     H 9114   3.736   4.022  15.977 -1.8313  1.5501  1.7612
  615MPD2    H1 9115   3.531   3.652  16.013 -0.2934  1.1287 -0.8289
  615MPD2    H2 9116   3.916   3.699  16.185 -0.5880 -1.5731  0.3157
  615MPD2    H3 9117   3.735   3.560  16.131  0.7937 -0.6547 -0.6894
  615MPD2     N 9118   3.507   3.895  15.932  0.6127 -0.1137 -0.4843
  615MPD2    H5 9119   3.421   3.846  15.956  0.2460  0.9097  0.3252
  615MPD2    N1 9120   3.956   3.961  16.102  0.7566 -0.5571 -0.2530
  615MPD2    H7 9121   3.943   4.061  16.088 -0.0776 -0.9376 -2.1902
  616TMC3    C1 9122   4.159   4.036  16.188 -0.0758  0.4135  0.7092
  616TMC3    C2 9123   4.118   4.160  16.224  0.0848  0.2606  0.1225
  616TMC3    C3 9124   4.212   4.245  16.290 -0.4477  0.0702  0.6165
  616TMC3    C4 9125   4.283   3.992  16.219 -0.1850  0.3319 -0.7757
  616TMC3    C5 9126   4.368   4.077  16.289 -0.1203  0.5428 -0.2148
  616TMC3    C6 9127   4.341   4.214  16.325 -0.2047 -0.4826  0.1592
  616TMC3     C 9128   4.078   3.916  16.155  0.3171 -0.1097  0.1753
  616TMC3     O 9129   4.116   3.803  16.170 -0.0856 -0.2430  0.3168
  616TMC3     H 9130   4.021   4.204  16.202 -0.1080 -0.2856 -0.1192
  616TMC3    H1 9131   4.320   3.896  16.186  2.5711  1.1842 -0.1334
  616TMC3    H2 9132   4.414   4.276  16.374  0.0747 -0.6269 -0.0737
  616TMC3    C7 9133   4.475   4.020  16.362  0.1931 -0.6070  0.5441
  616TMC3    C8 9134   4.153   4.374  16.332 -0.2857  0.3230 -0.3304
  616TMC3    O1 9135   4.581   4.074  16.371 -0.1328 -0.2307 -0.2088
  616TMC3    O2 9136   4.045   4.412  16.282  0.2350  0.7828 -0.2271
  617MPD2     C 9137   1.592   2.951  13.790  0.2683 -1.0743 -0.2281
  617MPD2    C1 9138   1.618   2.881  13.907 -0.6858  0.6168 -0.2031
  617MPD2    C2 9139   1.518   2.794  13.949  0.2474 -0.4586 -0.6284
  617MPD2    C3 9140   1.401   2.776  13.886  0.2435  0.4480  0.3707
  617MPD2    C4 9141   1.381   2.835  13.763 -0.2566 -0.3135 -0.5668
  617MPD2    C5 9142   1.478   2.924  13.716  0.4308  0.1711 -1.1262
  617MPD2     H 9143   1.530   2.750  14.047 -0.6417  1.5256  0.3901
  617MPD2    H1 9144   1.294   2.809  13.704  1.0197 -0.3326 -2.4282
  617MPD2    H2 9145   1.657   3.027  13.748  0.8130 -1.0237  0.7181
  617MPD2    H3 9146   1.449   2.978  13.627 -0.8110  0.7535 -0.3677
  617MPD2     N 9147   1.295   2.692  13.921 -0.2364 -0.1109  0.2533
  617MPD2    H5 9148   1.222   2.692  13.851 -1.9049  1.3130  1.9995
  617MPD2    N1 9149   1.732   2.886  13.990 -0.1240  0.4590 -0.2846
  617MPD2    H7 9150   1.756   2.809  14.051 -1.6954  1.6791  1.8814
  618TMC3    C1 9151   1.958   2.919  14.032 -0.1122  0.0841  0.0975
  618TMC3    C2 9152   1.955   2.831  14.138 -0.7405  0.5182  0.3860
  618TMC3    C3 9153   2.066   2.765  14.168  0.4164  0.1673 -0.3762
  618TMC3    C4 9154   2.073   2.950  13.961  0.1570  0.1956  0.0057
  618TMC3    C5 9155   2.182   2.877  13.996 -0.2969 -0.3691 -0.1089
  618TMC3    C6 9156   2.186   2.803  14.112  0.0050  0.6280  0.1664
  618TMC3     C 9157   1.835   2.976  13.979 -0.6535 -0.8915 -0.1684
  618TMC3     O 9158   1.832   3.077  13.911 -0.1334 -0.2063  0.2062
  618TMC3     H 9159   1.863   2.804  14.189 -0.3767 -2.9750 -0.8250
  618TMC3    H1 9160   2.067   3.008  13.870  0.7760  1.1801  0.5952
  618TMC3    H2 9161   2.267   2.741  14.148  0.2501  0.3676 -0.8124
  618TMC3    C7 9162   2.246   2.810  13.891  0.3738 -0.1659  0.6546
  618TMC3    C8 9163   2.037   2.622  14.177  0.5873 -1.2076  0.5896
  618TMC3    O1 9164   2.290   2.703  13.926  0.4572 -0.0997 -0.2624
  618TMC3    O2 9165   1.922   2.589  14.208 -0.3106 -0.1372  0.1436
  619MPD2     C 9166   3.540   4.111  12.823  0.1192 -0.1653  0.2116
  619MPD2    C1 9167   3.426   4.183  12.789 -0.3040 -0.3230  0.7203
  619MPD2    C2 9168   3.301   4.142  12.828 -0.0623  0.1031 -0.0551
  619MPD2    C3 9169   3.279   4.031  12.899 -0.2207 -0.5088  0.5633
  619MPD2    C4 9170   3.390   3.953  12.934  0.1061  0.0917 -0.0897
  619MPD2    C5 9171   3.517   3.994  12.891  0.3482 -0.1453  0.1502
  619MPD2     H 9172   3.225   4.217  12.811 -0.3930 -0.2641 -0.1707
  619MPD2    H1 9173   3.383   3.862  12.992  1.4403 -0.6971 -1.1831
  619MPD2    H2 9174   3.641   4.137  12.796 -0.0381  0.8434  0.6024
  619MPD2    H3 9175   3.607   3.940  12.919 -0.3839 -0.7596  1.2945
  619MPD2     N 9176   3.152   4.003  12.955  0.5235 -0.0804  0.9759
  619MPD2    H5 9177   3.157   3.947  13.039  1.7929 -1.6486 -0.1603
  619MPD2    N1 9178   3.437   4.320  12.745  0.1511  0.2791  0.4233
  619MPD2    H7 9179   3.348   4.368  12.744  0.3506  0.5833 -2.4138
  620TMC3    C1 9180   3.503   4.519  12.687  0.4953 -0.3993  0.0971
  620TMC3    C2 9181   3.391   4.526  12.612  0.2669  0.4892  1.3491
  620TMC3    C3 9182   3.301   4.626  12.634  0.8321  0.2965 -0.0467
  620TMC3    C4 9183   3.540   4.613  12.771  0.3129  0.0971 -0.6248
  620TMC3    C5 9184   3.457   4.721  12.791 -0.1543 -0.5969  0.3764
  620TMC3    C6 9185   3.339   0.010  12.722  0.6342 -0.6862 -0.5039
  620TMC3     C 9186   3.547   4.388  12.710 -0.2290  0.4564  0.5853
  620TMC3     O 9187   3.661   4.359  12.743 -0.2267 -0.1283  0.6959
  620TMC3     H 9188   3.371   4.450  12.537 -1.0681  0.2483  1.9464
  620TMC3    H1 9189   3.636   4.610  12.821  0.3682 -1.5329 -0.8227
  620TMC3    H2 9190   3.278   0.099  12.731 -0.9791 -1.8178 -0.3197
  620TMC3    C7 9191   3.441   0.044  12.927 -0.4866 -0.5964  0.2520
  620TMC3    C8 9192   3.180   4.572  12.680  0.1034 -0.2167  0.1246
  620TMC3    O1 9193   3.381   0.147  12.936  0.6411  0.1800 -0.6602
  620TMC3    O2 9194   3.198   4.456  12.700 -0.2165 -0.0503  0.2180
  621MPD2     C 9195   3.609   3.838  10.282  0.4449  0.3274 -0.1552
  621MPD2    C1 9196   3.740   3.810  10.293 -0.2714  0.1295  0.0914
  621MPD2    C2 9197   3.826   3.883  10.228  0.4408 -0.2896 -0.0512
  621MPD2    C3 9198   3.794   3.992  10.158 -0.7231 -0.7776 -0.0069
  621MPD2    C4 9199   3.663   4.031  10.155 -0.1920 -0.8767  0.4687
  621MPD2    C5 9200   3.572   3.943  10.209 -0.4649  0.5682 -0.0590
  621MPD2     H 9201   3.932   3.859  10.237  0.4206 -1.0252 -1.7666
  621MPD2    H1 9202   3.632   4.118  10.099 -0.9799 -1.4227  0.0590
  621MPD2    H2 9203   3.532   3.777  10.329 -2.1877  2.6469 -1.4661
  621MPD2    H3 9204   3.466   3.958  10.195 -0.1802  2.3961 -0.2768
  621MPD2     N 9205   3.893   4.044  10.071  0.6289  0.1164 -0.2654
  621MPD2    H5 9206   3.982   3.997  10.085  0.3029 -0.5878 -0.4967
  621MPD2    N1 9207   3.795   3.696  10.352 -0.1496 -0.1514  0.5320
  621MPD2    H7 9208   3.887   3.664  10.326  0.0788  0.0503  1.1047
  622TMC3    C1 9209   3.803   3.501  10.476 -0.1917 -0.5769 -0.5468
  622TMC3    C2 9210   3.752   3.414  10.571 -0.4108  0.2134 -0.3001
  622TMC3    C3 9211   3.816   3.290  10.588  0.1525  0.4061  0.2596
  622TMC3    C4 9212   3.898   3.453  10.393 -0.2185 -0.6161  0.0046
  622TMC3    C5 9213   3.957   3.332  10.421  0.0386 -0.0104 -0.0198
  622TMC3    C6 9214   3.923   3.246  10.520 -0.2305  0.5734 -0.6390
  622TMC3     C 9215   3.716   3.609  10.429 -0.4426  0.6110 -0.1022
  622TMC3     O 9216   3.600   3.618  10.464  0.6967  0.1744  0.1182
  622TMC3     H 9217   3.689   3.471  10.639  0.0364 -0.1155  0.3997
  622TMC3    H1 9218   3.943   3.514  10.316  3.0688  0.5079  2.7835
  622TMC3    H2 9219   3.962   3.146  10.538  1.0253  1.4925  1.7408
  622TMC3    C7 9220   3.978   3.266  10.294 -1.1428 -0.1287 -0.4875
  622TMC3    C8 9221   3.719   3.186  10.600  0.4363 -0.3067  0.1375
  622TMC3    O1 9222   4.041   3.329  10.210  0.4010  0.3160  0.0919
  622TMC3    O2 9223   3.762   3.074  10.573 -0.0660 -0.0712 -0.0131
  623MPD2     C 9224   2.889   0.141  16.040 -0.2312 -1.2843  0.3390
  623MPD2    C1 9225   2.821   0.110  16.156 -0.5223  0.1490  0.3850
  623MPD2    C2 9226   2.870   0.013  16.239 -0.3467  0.4545  0.2135
  623MPD2    C3 9227   2.986   4.663  16.213  0.1067 -0.4784  0.0785
  623MPD2    C4 9228   3.059   4.701  16.100 -0.1196 -0.2763  0.2493
  623MPD2    C5 9229   3.006   0.072  16.012  0.1614 -0.0379  0.3408
  623MPD2     H 9230   2.813   4.701  16.324 -0.4547 -0.1285 -0.0966
  623MPD2    H1 9231   3.150   4.650  16.069 -0.5535 -0.2938 -0.9969
  623MPD2    H2 9232   2.864   0.212  15.962  1.7810 -0.9457  0.0121
  623MPD2    H3 9233   3.061   0.103  15.924 -0.4474  0.6076  0.1926
  623MPD2     N 9234   3.007   4.550  16.284  0.3565  0.2758 -0.3670
  623MPD2    H5 9235   2.935   4.528  16.353  1.3594 -0.6468  0.3874
  623MPD2    N1 9236   2.688   0.149  16.171 -0.3546  1.0972  0.2590
  623MPD2    H7 9237   2.644   0.189  16.089  2.1620  0.4782 -1.3863
  624TMC3    C1 9238   3.147   4.354  16.614  0.2481  0.5127  0.1238
  624TMC3    C2 9239   3.019   4.332  16.641  0.5683  0.8102 -0.2764
  624TMC3    C3 9240   2.939   4.317  16.533  0.4080  0.6956  0.3230
  624TMC3    C4 9241   3.200   4.368  16.484  0.4013  0.1818 -0.4003
  624TMC3    C5 9242   3.104   4.366  16.377  0.0760 -0.0281  0.2198
  624TMC3    C6 9243   2.973   4.334  16.405 -0.6335  0.1734  0.1812
  624TMC3     C 9244   3.243   4.331  16.720 -0.2432  0.2202 -0.1403
  624TMC3     O 9245   3.207   4.275  16.824  0.2729  0.1481 -1.1356
  624TMC3     H 9246   2.992   4.318  16.745 -0.7444  3.1683 -0.3096
  624TMC3    H1 9247   3.304   4.393  16.469  0.8259 -1.0484  0.5478
  624TMC3    H2 9248   2.900   4.324  16.326  0.2726 -0.8238 -0.5337
  624TMC3    C7 9249   3.126   4.480  16.293 -0.1716 -0.7886 -0.2686
  624TMC3    C8 9250   2.795   4.293  16.576 -0.4428 -0.0610 -0.0948
  624TMC3    O1 9251   3.238   4.522  16.267  0.1793  0.1541  0.4168
  624TMC3    O2 9252   2.736   4.217  16.505  0.1905 -0.5224 -0.2700
  625MPD2     C 9253   3.139   1.100   0.900  0.0739 -0.0994 -0.2250
  625MPD2    C1 9254   3.091   1.152   0.784 -0.6966  0.1816  0.0941
  625MPD2    C2 9255   3.189   1.220   0.708 -0.2838 -0.6085 -0.3595
  625MPD2    C3 9256   3.322   1.228   0.739 -0.1721  0.1339  0.3367
  625MPD2    C4 9257   3.363   1.158   0.847  0.4281  1.4539  0.0906
  625MPD2    C5 9258   3.271   1.100   0.925 -1.1061  0.0819  0.0009
  625MPD2     H 9259   3.150   1.287   0.632  2.8301  3.4927  1.7064
  625MPD2    H1 9260   3.466   1.151   0.879  0.0417 -1.6693  0.6036
  625MPD2    H2 9261   3.080   1.052   0.977 -1.8678  0.4585 -1.3777
  625MPD2    H3 9262   3.303   1.061   1.021  0.5083  0.0183 -0.5633
  625MPD2     N 9263   3.407   1.312   0.668 -0.0042 -0.4668 -0.2699
  625MPD2    H5 9264   3.361   1.364   0.594  0.4752 -1.2276 -1.1072
  625MPD2    N1 9265   2.957   1.162   0.752  0.5210  0.3751 -0.0735
  625MPD2    H7 9266   2.930   1.216   0.670  2.2121  4.5584  2.1411
  626TMC3    C1 9267   2.727   1.142   0.763  0.1742 -0.1116  0.2228
  626TMC3    C2 9268   2.727   1.176   0.632  0.5038  0.1375  0.2853
  626TMC3    C3 9269   2.632   1.254   0.579 -0.8379 -0.0707 -0.4464
  626TMC3    C4 9270   2.633   1.186   0.847 -0.6181 -0.1370  0.0005
  626TMC3    C5 9271   2.552   1.282   0.794  0.5338  0.3592  0.1551
  626TMC3    C6 9272   2.545   1.318   0.661 -0.7594 -0.3035 -0.1273
  626TMC3     C 9273   2.856   1.118   0.832  0.4379  0.2400  0.3586
  626TMC3     O 9274   2.853   1.077   0.949  0.3551  0.4294  0.5793
  626TMC3     H 9275   2.802   1.131   0.568 -0.5432  0.2830 -1.0415
  626TMC3    H1 9276   2.629   1.172   0.955 -1.2025  0.1796  0.0164
  626TMC3    H2 9277   2.494   1.408   0.629  2.3935  0.6922 -2.3898
  626TMC3    C7 9278   2.534   1.387   0.894  0.5020 -0.7937  0.2298
  626TMC3    C8 9279   2.596   1.242   0.439 -0.6614  0.0742 -0.2978
  626TMC3    O1 9280   2.618   1.401   0.983  0.2568  0.0579  0.2659
  626TMC3    O2 9281   2.679   1.221   0.350  0.3773 -0.3680 -0.5077
  627MPD2     C 9282   1.153   1.351  14.316 -0.1248  0.0471  0.0003
  627MPD2    C1 9283   1.180   1.311  14.444  0.5519 -0.3876 -0.4507
  627MPD2    C2 9284   1.110   1.211  14.508 -0.2731  0.0924 -0.2336
  627MPD2    C3 9285   1.016   1.139  14.441 -0.4667  0.4141 -0.1053
  627MPD2    C4 9286   0.999   1.178  14.307 -0.5786  0.2255  0.0443
  627MPD2    C5 9287   1.059   1.285  14.242  0.2289 -0.5374 -0.4715
  627MPD2     H 9288   1.129   1.187  14.612  2.6515 -0.4912 -0.9079
  627MPD2    H1 9289   0.934   1.117  14.245  0.9222  1.0970 -2.4079
  627MPD2    H2 9290   1.215   1.425  14.266 -1.2075 -0.2596 -1.8036
  627MPD2    H3 9291   1.032   1.310  14.139  0.0012  1.6717  0.1172
  627MPD2     N 9292   0.958   1.028  14.507  0.2881  0.3618 -0.0241
  627MPD2    H5 9293   0.984   1.008  14.604  2.3849 -2.2520 -1.0994
  627MPD2    N1 9294   1.288   1.367  14.516 -0.2169  0.0608  0.0170
  627MPD2    H7 9295   1.305   1.336  14.611 -0.5466  0.6315  0.2630
  628TMC3    C1 9296   1.441   1.510  14.582  0.1327  0.5443 -0.8459
  628TMC3    C2 9297   1.543   1.433  14.625 -0.0786 -0.3703 -0.3437
  628TMC3    C3 9298   1.649   1.488  14.692 -0.0782  0.2827  0.2532
  628TMC3    C4 9299   1.455   1.647  14.593  0.0822 -0.2728 -0.5117
  628TMC3    C5 9300   1.561   1.700  14.647 -0.1071 -0.2040 -0.3888
  628TMC3    C6 9301   1.647   1.623  14.718  0.0906  0.2852  0.1570
  628TMC3     C 9302   1.359   1.471  14.477 -0.6154  0.3740 -0.9099
  628TMC3     O 9303   1.354   1.544  14.377  0.1079  0.2184  0.5118
  628TMC3     H 9304   1.537   1.327  14.605  1.6416 -0.5101 -0.1546
  628TMC3    H1 9305   1.379   1.715  14.555  0.3565 -0.2174 -0.9516
  628TMC3    H2 9306   1.731   1.679  14.757  0.5335  0.7262 -1.4125
  628TMC3    C7 9307   1.578   1.852  14.653  0.2833  0.4416 -0.5872
  628TMC3    C8 9308   1.740   1.403  14.768  0.2493 -0.6705 -0.2823
  628TMC3    O1 9309   1.629   1.900  14.749 -1.0471  0.0380  0.0917
  628TMC3    O2 9310   1.707   1.287  14.784 -0.0570 -0.4752 -0.6394
  629MPD2     C 9311   4.284   0.129  16.476 -0.5388 -0.5148 -0.3048
  629MPD2    C1 9312   4.367   0.035  16.531 -0.1172  0.3889  0.2395
  629MPD2    C2 9313   4.358   4.622  16.503 -0.8643 -0.5322  0.3703
  629MPD2    C3 9314   4.237   4.572  16.446 -0.1322 -0.2553 -0.0681
  629MPD2    C4 9315   4.151   4.672  16.396  0.1505  0.5245  0.1725
  629MPD2    C5 9316   4.170   0.085  16.409 -0.0168  0.2526 -0.1068
  629MPD2     H 9317   4.424   4.545  16.541 -1.7182 -0.9007  1.1173
  629MPD2    H1 9318   4.056   4.637  16.359  0.5901  1.5107 -1.9223
  629MPD2    H2 9319   4.307   0.233  16.499  1.3872  0.1458 -5.3160
  629MPD2    H3 9320   4.091   0.151  16.376 -0.3336 -1.6474 -3.0935
  629MPD2     N 9321   4.231   4.433  16.433  0.6265  0.6523 -0.4947
  629MPD2    H5 9322   4.309   4.378  16.466  0.0779  1.3717  2.0022
  629MPD2    N1 9323   4.480   0.084  16.598 -0.8368 -0.0273 -0.7258
  629MPD2    H7 9324   4.488   0.185  16.605 -0.7597 -0.1843  1.4693
  630TMC3    C1 9325   4.709   0.031  16.618 -0.0223  0.3953  0.7912
  630TMC3    C2 9326   4.722   0.088  16.494 -0.1350 -0.2267 -0.7802
  630TMC3    C3 9327   0.117   0.060  16.427 -0.2565 -0.1800 -0.0894
  630TMC3    C4 9328   0.084   4.674  16.670 -0.3476  0.1202 -0.1144
  630TMC3    C5 9329   0.201   4.668  16.606  1.0264  0.3712  0.2199
  630TMC3    C6 9330   0.220   4.720  16.483  0.2502 -0.3720  0.1727
  630TMC3     C 9331   4.572   0.003  16.666  0.4145 -0.9920 -0.5875
  630TMC3     O 9332   4.560   4.616  16.716  0.8366 -0.1809  0.0886
  630TMC3     H 9333   4.643   0.134  16.436 -2.2143 -2.2726  0.4086
  630TMC3    H1 9334   0.080   4.639  16.772 -1.4501 -0.5213 -0.3722
  630TMC3    H2 9335   0.298   4.685  16.417 -0.8502 -0.0148 -1.3090
  630TMC3    C7 9336   0.319   4.663  16.682  0.2096  0.0981  0.0551
  630TMC3    C8 9337   0.160   0.137  16.315 -0.0717  0.0411  0.0155
  630TMC3    O1 9338   0.307   4.599  16.785  0.0680 -0.1351 -0.0224
  630TMC3    O2 9339   0.278   0.170  16.310 -0.1896  0.0278 -0.3541
  631MPD2     C 9340   2.804   4.554  15.922  0.0089 -0.8435 -0.1954
  631MPD2    C1 9341   2.867   4.552  15.803 -1.4579  0.4182  0.0024
  631MPD2    C2 9342   2.930   4.436  15.755 -0.5143 -0.5469  0.0554
  631MPD2    C3 9343   2.927   4.324  15.837  0.0604 -0.3762  0.1103
  631MPD2    C4 9344   2.861   4.325  15.952 -0.0531  0.0674 -0.1605
  631MPD2    C5 9345   2.800   4.443  15.990  0.1860  0.2925 -0.0978
  631MPD2     H 9346   2.976   4.422  15.658  1.7588  2.3609  0.7084
  631MPD2    H1 9347   2.848   4.238  16.015  0.7474  1.9770  2.6614
  631MPD2    H2 9348   2.761   4.636  15.978  0.2629 -0.2813 -0.8316
  631MPD2    H3 9349   2.768   4.438  16.094  1.5826  0.0111  0.3234
  631MPD2     N 9350   3.003   4.216  15.800  0.0749  0.2363 -0.5356
  631MPD2    H5 9351   3.039   4.218  15.705  0.3013 -1.4105 -0.4854
  631MPD2    N1 9352   2.867   4.676  15.730  0.0765 -0.0052 -0.3898
  631MPD2    H7 9353   2.827   0.035  15.776 -0.4631  1.3588 -3.2852
  632TMC3    C1 9354   2.896   0.092  15.534 -1.1326 -0.0281  0.0363
  632TMC3    C2 9355   2.776   0.146  15.558  0.3001 -0.6207  0.1026
  632TMC3    C3 9356   2.709   0.202  15.459 -0.3330  0.3383 -0.2085
  632TMC3    C4 9357   2.964   0.112  15.417  0.0993 -0.4036 -0.5425
  632TMC3    C5 9358   2.911   0.205  15.335 -0.4406  0.6484 -0.2245
  632TMC3    C6 9359   2.779   0.252  15.355  0.3574  0.3852  0.7102
  632TMC3     C 9360   2.929   4.694  15.609 -0.2138 -0.8099  0.7009
  632TMC3     O 9361   3.015   4.625  15.551 -0.1930 -0.9867  0.3606
  632TMC3     H 9362   2.717   0.121  15.646 -0.9518  2.1565  0.0593
  632TMC3    H1 9363   3.062   0.069  15.405  1.0871  1.5017  0.7439
  632TMC3    H2 9364   2.731   0.319  15.284 -1.2627 -0.9403  0.5507
  632TMC3    C7 9365   2.959   0.206  15.200  0.1991 -0.3091 -0.0704
  632TMC3    C8 9366   2.563   0.227  15.464 -0.8816  0.2096 -0.3891
  632TMC3    O1 9367   2.880   0.240  15.117  0.0984 -0.1532 -0.0815
  632TMC3    O2 9368   2.507   0.198  15.569 -0.1881 -0.3656 -0.1203
  633MPD2     C 9369   2.639   2.645  17.282  0.4718  0.1378 -0.6902
  633MPD2    C1 9370   2.610   2.594  17.155 -0.1729 -0.0758  0.2928
  633MPD2    C2 9371   2.615   2.452  17.140  0.4331  0.1605 -0.2005
  633MPD2    C3 9372   2.648   2.363  17.235 -0.5211 -0.1149  0.1741
  633MPD2    C4 9373   2.665   2.413  17.361 -0.5452  0.4799  0.7147
  633MPD2    C5 9374   2.662   2.553  17.385  0.4070 -0.8635 -0.3653
  633MPD2     H 9375   2.582   2.426  17.040  3.0104 -0.5035 -0.8871
  633MPD2    H1 9376   2.684   2.348  17.446  1.5187 -1.3891 -1.1880
  633MPD2    H2 9377   2.639   2.752  17.300  1.5905 -0.1531  1.0355
  633MPD2    H3 9378   2.689   2.587  17.485 -0.2293 -0.4344 -0.3372
  633MPD2     N 9379   2.654   2.226  17.214  0.2852  0.2426  0.4702
  633MPD2    H5 9380   2.698   2.178  17.292 -1.5968 -0.9493  0.8076
  633MPD2    N1 9381   2.579   2.673  17.043 -0.2501  0.0638  0.6679
  633MPD2    H7 9382   2.575   2.621  16.956  1.8630  1.3371 -0.1877
  634TMC3    C1 9383   2.558   2.865  16.907  0.6601  0.3561  0.0628
  634TMC3    C2 9384   2.574   2.771  16.805 -0.8899  0.0296  0.2841
  634TMC3    C3 9385   2.606   2.815  16.681 -0.9393  0.1181  0.0540
  634TMC3    C4 9386   2.595   2.997  16.893 -1.0025  0.1849  0.5133
  634TMC3    C5 9387   2.632   3.036  16.765  0.2356 -0.0146 -0.2005
  634TMC3    C6 9388   2.643   2.950  16.659 -0.1910 -0.4546 -0.2029
  634TMC3     C 9389   2.545   2.812  17.042  0.2563  0.7128 -0.2491
  634TMC3     O 9390   2.515   2.891  17.132  0.3612  0.1388 -0.1744
  634TMC3     H 9391   2.524   2.674  16.804 -0.3137 -0.2559 -0.4868
  634TMC3    H1 9392   2.581   3.061  16.979 -0.1168  0.0181  0.7813
  634TMC3    H2 9393   2.687   2.981  16.565 -0.0721  0.3551  0.1197
  634TMC3    C7 9394   2.681   3.172  16.748 -0.4802  0.3379  0.1163
  634TMC3    C8 9395   2.603   2.714  16.576  0.0874 -0.2731  0.4436
  634TMC3    O1 9396   2.767   3.205  16.663 -0.7238 -0.6043  0.1599
  634TMC3    O2 9397   2.604   2.592  16.596 -0.1371  0.2127 -0.7857
  635TMC3    C1 9398   2.983   3.484   0.023 -0.4041  0.0304 -0.3271
  635TMC3    C2 9399   3.001   3.439  17.589 -0.2061 -0.6090  0.6371
  635TMC3    C3 9400   3.074   3.320  17.568 -0.0348 -0.5559  0.4094
  635TMC3    C4 9401   3.021   3.409   0.135 -0.7413  0.4678  0.0835
  635TMC3    C5 9402   3.073   3.281   0.112 -0.1345  0.0737  0.1895
  635TMC3    C6 9403   3.115   3.247  17.677 -0.0644  0.1554 -0.2562
  635TMC3     C 9404   2.909   3.608   0.045 -0.7435 -0.2786 -0.3231
  635TMC3     O 9405   2.895   3.632   0.163 -0.5747 -0.1619  0.2655
  635TMC3     H 9406   2.962   3.491  17.503 -1.1022 -2.3378  0.0005
  635TMC3    H1 9407   2.987   3.440   0.233  2.0760  2.6067  0.3659
  635TMC3    H2 9408   3.188   3.168  17.668 -0.4610  0.0320 -2.5322
  635TMC3    C7 9409   3.154   3.228   0.217 -0.6986  0.5812  0.1695
  635TMC3    C8 9410   3.132   3.308  17.440 -0.0120 -0.1999 -0.5909
  635TMC3    O1 9411   3.197   3.113   0.207 -0.5619 -0.0650 -0.4524
  635TMC3    O2 9412   3.131   3.403  17.363 -0.1615  0.0318 -0.6777
  636MPD2     C 9413   3.716   2.863  15.304  0.0658 -0.2354 -0.2385
  636MPD2    C1 9414   3.799   2.829  15.407  0.9617 -0.1562  0.4109
  636MPD2    C2 9415   3.874   2.710  15.395  0.1486  0.2431  0.1632
  636MPD2    C3 9416   3.861   2.628  15.286 -0.3517  0.2052  0.3919
  636MPD2    C4 9417   3.766   2.657  15.195 -0.5418  0.1500 -0.1322
  636MPD2    C5 9418   3.705   2.778  15.200 -0.1991  0.2281  0.5030
  636MPD2     H 9419   3.946   2.680  15.470  1.3666  4.3810  0.6668
  636MPD2    H1 9420   3.746   2.593  15.109 -2.6253 -1.1151  1.2977
  636MPD2    H2 9421   3.664   2.958  15.300 -0.8858 -0.7016  1.3424
  636MPD2    H3 9422   3.630   2.801  15.125  0.4130 -1.8474 -0.7368
  636MPD2     N 9423   3.940   2.510  15.272  0.4540  0.5668  0.3126
  636MPD2    H5 9424   4.000   2.486  15.350  2.0827 -0.0168 -1.0982
  636MPD2    N1 9425   3.822   2.911  15.521 -0.3832  0.2042  0.2260
  636MPD2    H7 9426   3.890   2.871  15.584 -0.0317  2.2947  1.1632
  637TMC3    C1 9427   4.018   2.308  15.198  0.5279  0.8628 -1.3763
  637TMC3    C2 9428   4.038   2.294  15.332 -0.0739 -0.6324  1.1799
  637TMC3    C3 9429   4.158   2.257  15.381 -0.2050  0.3006 -0.7294
  637TMC3    C4 9430   4.114   2.274  15.103  0.5823  0.3196 -0.3176
  637TMC3    C5 9431   4.242   2.244  15.154 -0.6596  0.2548  0.4285
  637TMC3    C6 9432   4.252   2.205  15.288 -0.0944  0.3250  0.7199
  637TMC3     C 9433   3.942   2.425  15.161  0.0041 -0.2382  0.4462
  637TMC3     O 9434   3.912   2.455  15.047 -0.5062 -0.1441 -0.0936
  637TMC3     H 9435   3.955   2.314  15.399  0.3109 -0.4971  1.6165
  637TMC3    H1 9436   4.102   2.318  15.005  0.3680  0.4426 -0.2365
  637TMC3    H2 9437   4.336   2.151  15.330 -0.0727 -0.3148 -0.1402
  637TMC3    C7 9438   4.330   2.353  15.131  0.3910  0.1332 -0.5333
  637TMC3    C8 9439   4.194   2.369  15.471 -0.0648  0.0648  0.1370
  637TMC3    O1 9440   4.277   2.453  15.085 -0.1520  0.2403  0.0166
  637TMC3    O2 9441   4.116   2.463  15.490  0.1645  0.4420 -0.0747
  638MPD2     C 9442   3.504   1.623  15.081 -1.0013 -0.2909 -0.0034
  638MPD2    C1 9443   3.557   1.510  15.017  0.3839  0.2598  0.0574
  638MPD2    C2 9444   3.530   1.387  15.076  1.0495 -0.1928 -0.2816
  638MPD2    C3 9445   3.448   1.379  15.184 -0.1091  0.5931 -0.4310
  638MPD2    C4 9446   3.383   1.484  15.228  0.0255  0.0117  0.7126
  638MPD2    C5 9447   3.413   1.611  15.183 -0.4078  0.1295  0.0500
  638MPD2     H 9448   3.570   1.292  15.043  0.4024 -0.7406  0.5275
  638MPD2    H1 9449   3.307   1.480  15.305  0.0006  1.7831  0.7874
  638MPD2    H2 9450   3.523   1.723  15.044 -2.6459  0.8860  2.3350
  638MPD2    H3 9451   3.343   1.684  15.221 -0.7719 -0.2996  0.2069
  638MPD2     N 9452   3.441   1.251  15.240 -0.9768  0.6560  0.2570
  638MPD2    H5 9453   3.495   1.177  15.199  0.0259  0.4400  1.9571
  638MPD2    N1 9454   3.612   1.523  14.893 -0.2230  0.2522 -0.4169
  638MPD2    H7 9455   3.635   1.612  14.850  0.6466  1.5452  2.7399
  639TMC3    C1 9456   3.393   1.075  15.381 -0.3906  0.3523  0.0129
  639TMC3    C2 9457   3.309   1.000  15.316 -0.7093  0.5087 -0.5927
  639TMC3    C3 9458   3.338   0.879  15.271 -0.5957  0.5356  0.4958
  639TMC3    C4 9459   3.525   1.043  15.371 -0.4578  0.0493  0.4819
  639TMC3    C5 9460   3.561   0.934  15.308  0.3113 -0.0615  0.1154
  639TMC3    C6 9461   3.466   0.843  15.279  0.4884  0.3412 -0.1692
  639TMC3     C 9462   3.370   1.217  15.354  0.2355  0.4591 -0.2095
  639TMC3     O 9463   3.284   1.278  15.418  0.4223 -0.6370 -0.0281
  639TMC3     H 9464   3.209   1.040  15.322 -0.4722  1.0515 -0.2463
  639TMC3    H1 9465   3.601   1.120  15.381 -0.1605 -0.4877  2.2189
  639TMC3    H2 9466   3.502   0.754  15.230  1.9259 -0.1172  1.7165
  639TMC3    C7 9467   3.637   0.968  15.192 -0.0908 -0.6063  0.2298
  639TMC3    C8 9468   3.298   0.851  15.136 -0.0429 -0.4875 -0.1952
  639TMC3    O1 9469   3.585   1.040  15.108  0.5318  0.1059  0.4762
  639TMC3    O2 9470   3.355   0.772  15.062  0.4881 -0.3650  0.8417
  640MPD2     C 9471   4.355   4.426   9.544  0.5566  1.3219  0.1736
  640MPD2    C1 9472   4.467   4.504   9.538 -0.4353 -0.4869  0.9556
  640MPD2    C2 9473   4.462   4.640   9.556 -0.2829 -0.4049  0.3032
  640MPD2    C3 9474   4.350   4.705   9.580 -0.2088 -0.5464  0.2518
  640MPD2    C4 9475   4.236   4.625   9.592 -0.6749  0.6682 -0.3171
  640MPD2    C5 9476   4.239   4.489   9.574 -0.0799  0.6022 -1.1398
  640MPD2     H 9477   4.557   4.692   9.568 -0.5252  0.2998 -0.7539
  640MPD2    H1 9478   4.142   4.670   9.623 -0.2972 -0.2709  2.1329
  640MPD2    H2 9479   4.356   4.321   9.516 -1.6042  1.5414 -0.6776
  640MPD2    H3 9480   4.148   4.431   9.586  1.4640 -1.5367  0.1987
  640MPD2     N 9481   4.328   0.118   9.600  0.1259  0.4146  0.5156
  640MPD2    H5 9482   4.234   0.139   9.632  0.5713 -0.6952  2.5688
  640MPD2    N1 9483   4.595   4.442   9.511  0.3204 -0.2065 -0.1911
  640MPD2    H7 9484   4.596   4.340   9.507 -0.5896 -0.2137 -0.2445
  641TMC3    C1 9485   0.097   4.417   9.490  0.4470 -0.1057  0.2666
  641TMC3    C2 9486   0.094   4.325   9.583 -0.0573 -0.4712  0.2493
  641TMC3    C3 9487   0.213   4.253   9.590 -0.6948 -0.3756 -0.1687
  641TMC3    C4 9488   0.201   4.436   9.401 -0.1706 -0.4386  0.6501
  641TMC3    C5 9489   0.302   4.347   9.395 -0.6778  0.0310 -0.0368
  641TMC3    C6 9490   0.309   4.256   9.489  0.1456 -0.3858  0.0605
  641TMC3     C 9491   4.708   4.512   9.483 -0.0445  0.7846  0.3842
  641TMC3     O 9492   0.000   4.621   9.430 -0.7627  0.2468 -0.0134
  641TMC3     H 9493   0.018   4.323   9.661 -2.1617  2.8648 -1.7082
  641TMC3    H1 9494   0.195   4.512   9.324  0.6117  0.5142  1.5258
  641TMC3    H2 9495   0.396   4.198   9.515 -0.7501 -2.5499 -1.7698
  641TMC3    C7 9496   0.415   4.368   9.317  0.0001  0.1731 -0.7610
  641TMC3    C8 9497   0.234   4.182   9.718  0.2930 -1.1320  0.4360
  641TMC3    O1 9498   0.427   4.480   9.272 -0.0841  0.2563  0.1154
  641TMC3    O2 9499   0.305   4.081   9.705  0.5756 -0.0986 -0.2741
  642TMC3    C1 9500   0.573   2.225  12.074 -0.1514  0.1815 -0.4099
  642TMC3    C2 9501   0.694   2.194  12.118 -0.5750  0.4021 -0.0008
  642TMC3    C3 9502   0.724   2.064  12.120  0.4772  0.0260 -0.1914
  642TMC3    C4 9503   0.475   2.130  12.052  0.1741 -0.6458  0.3280
  642TMC3    C5 9504   0.509   2.003  12.076  0.0020  0.6923 -0.1881
  642TMC3    C6 9505   0.634   1.964  12.114 -1.1655 -0.3738  0.1306
  642TMC3     C 9506   0.538   2.365  12.057 -0.3442 -0.4758 -0.6393
  642TMC3     O 9507   0.622   2.446  12.020 -0.0605 -0.2526 -0.2915
  642TMC3     H 9508   0.759   2.274  12.153  2.3732 -2.4394  1.1012
  642TMC3    H1 9509   0.378   2.158  12.015 -0.8587 -2.4913  1.6366
  642TMC3    H2 9510   0.661   1.860  12.125 -1.2834 -0.5970 -1.7099
  642TMC3    C7 9511   0.413   1.904  12.043 -0.3183 -0.3951  0.4870
  642TMC3    C8 9512   0.832   2.031  12.204 -0.3907  0.4342  0.6211
  642TMC3    O1 9513   0.460   1.794  12.034 -0.3662 -0.2239  0.3890
  642TMC3    O2 9514   0.815   1.943  12.285 -0.2661 -0.1452  0.4195
  643TMC3    C1 9515   4.390   1.734   0.289 -0.3103 -0.0070  0.1206
  643TMC3    C2 9516   4.257   1.754   0.287 -0.3809  0.1642 -0.0462
  643TMC3    C3 9517   4.163   1.666   0.238 -0.3699  0.1349  0.5493
  643TMC3    C4 9518   4.441   1.617   0.231 -0.5437 -0.0921  0.0817
  643TMC3    C5 9519   4.346   1.524   0.175 -0.1342  0.6541  0.1629
  643TMC3    C6 9520   4.213   1.547   0.178 -0.3592  0.0828 -0.3815
  643TMC3     C 9521   4.471   1.846   0.318  0.2163 -0.1499 -0.2902
  643TMC3     O 9522   4.421   1.947   0.282  0.2649 -0.4456  0.0145
  643TMC3     H 9523   4.222   1.847   0.331  0.0859  0.5260 -0.4298
  643TMC3    H1 9524   4.547   1.600   0.218 -0.1611  3.5127 -1.5027
  643TMC3    H2 9525   4.146   1.491   0.113 -3.9316  0.7600  2.7440
  643TMC3    C7 9526   4.404   1.436   0.063 -0.4523  0.4157 -0.3228
  643TMC3    C8 9527   4.041   1.733   0.186  0.1667 -0.7490  0.3882
  643TMC3    O1 9528   4.511   1.470   0.015 -0.0501  0.7401 -0.2986
  643TMC3    O2 9529   3.954   1.657   0.163  0.0782 -0.3706 -0.1934
  644MPD2     C 9530   0.846   1.437   9.204 -0.7739 -0.1003 -0.0391
  644MPD2    C1 9531   0.717   1.406   9.234 -0.4833 -0.1209  0.1819
  644MPD2    C2 9532   0.618   1.487   9.194 -0.1297 -0.7092 -0.0654
  644MPD2    C3 9533   0.648   1.614   9.138 -0.4443 -0.2685 -0.4576
  644MPD2    C4 9534   0.777   1.641   9.097  0.1988  0.5424  0.4738
  644MPD2    C5 9535   0.874   1.551   9.129 -0.5587 -0.4044  0.0583
  644MPD2     H 9536   0.515   1.457   9.203 -0.6205  1.3374  1.1646
  644MPD2    H1 9537   0.802   1.722   9.029  3.0295  0.4442  1.3769
  644MPD2    H2 9538   0.929   1.368   9.209 -0.9698 -0.4259 -1.2104
  644MPD2    H3 9539   0.973   1.564   9.087 -0.2381  1.1607  1.3016
  644MPD2     N 9540   0.532   1.698   9.110  0.1493 -0.6975  0.4079
  644MPD2    H5 9541   0.441   1.656   9.125  0.2195 -0.0454  2.6936
  644MPD2    N1 9542   0.694   1.275   9.282 -0.3688  0.1751  0.0317
  644MPD2    H7 9543   0.775   1.225   9.317 -2.1322 -1.4012  1.9008
  645TMC3    C1 9544   0.411   1.905   9.059  0.2738  0.0632  0.3296
  645TMC3    C2 9545   0.297   1.843   9.098 -0.0387 -0.0068 -0.2703
  645TMC3    C3 9546   0.190   1.920   9.133 -0.6260  0.7065 -0.4061
  645TMC3    C4 9547   0.412   2.044   9.062 -0.0447 -0.4464  0.3660
  645TMC3    C5 9548   0.305   2.119   9.114 -0.5138  0.5966 -0.0510
  645TMC3    C6 9549   0.189   2.055   9.152  0.2181  0.4449 -0.0178
  645TMC3     C 9550   0.539   1.830   9.064  0.0287 -0.6211 -0.5930
  645TMC3     O 9551   0.640   1.892   9.048  0.9019  0.2460  0.2889
  645TMC3     H 9552   0.283   1.736   9.083  0.8976 -0.0810 -0.6408
  645TMC3    H1 9553   0.500   2.098   9.030 -0.8802  0.2240 -0.7438
  645TMC3    H2 9554   0.104   2.118   9.177 -0.0663 -0.2613  0.7772
  645TMC3    C7 9555   0.326   2.259   9.138  0.0103  0.2633 -0.2016
  645TMC3    C8 9556   0.069   1.851   9.173 -0.0876  0.0692  0.2820
  645TMC3    O1 9557   0.391   2.325   9.061 -0.2583  0.3464 -0.2330
  645TMC3    O2 9558   0.093   1.732   9.198  0.8285 -0.4482  0.1215
  646MPD2     C 9559   3.626   0.014  14.608  0.0937 -0.2731 -0.1731
  646MPD2    C1 9560   3.623   0.124  14.685  0.4619 -0.8878 -0.6029
  646MPD2    C2 9561   3.555   0.244  14.647  0.6350  1.1923  0.4247
  646MPD2    C3 9562   3.485   0.246  14.522 -0.1036  0.0279  0.3329
  646MPD2    C4 9563   3.497   0.129  14.443 -0.0997  1.1263 -0.5747
  646MPD2    C5 9564   3.564   0.017  14.483 -0.3469  0.0269  0.3005
  646MPD2     H 9565   3.559   0.337  14.703  1.6293  1.5729 -0.2769
  646MPD2    H1 9566   3.448   0.122  14.346 -1.0367 -0.9034  0.0327
  646MPD2    H2 9567   3.678   4.648  14.642 -0.2231 -0.4924 -0.2652
  646MPD2    H3 9568   3.580   4.650  14.426 -0.5136 -0.4198  0.9561
  646MPD2     N 9569   3.415   0.361  14.484  0.0363 -0.6187 -0.8157
  646MPD2    H5 9570   3.422   0.430  14.558 -0.7224  1.8165 -3.0124
  646MPD2    N1 9571   3.681   0.102  14.813 -0.0039 -0.8039  0.0304
  646MPD2    H7 9572   3.701   0.004  14.832  1.9018 -0.5143 -0.5102
  647TMC3    C1 9573   3.828   0.145  14.992 -0.2541  0.9980 -0.9770
  647TMC3    C2 9574   3.802   0.024  15.059  0.0156 -0.2745 -0.2650
  647TMC3    C3 9575   3.892   4.705  15.157  0.2678 -0.1561  0.0462
  647TMC3    C4 9576   3.953   0.200  15.004  0.1049  0.8250  0.2642
  647TMC3    C5 9577   4.042   0.155  15.098 -0.2926 -0.6368 -0.0594
  647TMC3    C6 9578   4.007   0.048  15.178 -0.4186  0.5096 -0.0251
  647TMC3     C 9579   3.740   0.198  14.887 -0.3077 -0.2693  0.6919
  647TMC3     O 9580   3.773   0.312  14.850  1.3691  0.3555  0.6750
  647TMC3     H 9581   3.703   4.706  15.038 -0.2333 -0.5828  1.5674
  647TMC3    H1 9582   3.980   0.282  14.938  0.1510  0.1457 -0.5608
  647TMC3    H2 9583   4.093   0.012  15.234 -0.2270  2.7284  1.0842
  647TMC3    C7 9584   4.182   0.166  15.071  0.0480 -0.2540  0.5430
  647TMC3    C8 9585   3.859   4.584  15.227  0.4037 -0.3517 -0.1708
  647TMC3    O1 9586   4.251   0.180  15.173 -0.3852  0.3816 -0.4273
  647TMC3    O2 9587   3.918   4.564  15.334 -0.3703  0.3089 -0.1624
  648TMC3    C1 9588   2.980   2.793  16.074 -0.3539  0.3733 -0.1116
  648TMC3    C2 9589   3.056   2.691  16.016 -0.5451 -0.1497 -0.5588
  648TMC3    C3 9590   3.077   2.699  15.882 -0.3211 -0.0343 -0.1602
  648TMC3    C4 9591   2.929   2.900  15.999  0.0233  0.6157 -0.7406
  648TMC3    C5 9592   2.967   2.907  15.873 -0.2633 -0.5425 -0.3200
  648TMC3    C6 9593   3.046   2.809  15.810  0.1503 -0.2654 -0.4296
  648TMC3     C 9594   2.966   2.798  16.223  0.1320 -0.3631 -0.0072
  648TMC3     O 9595   2.928   2.908  16.267 -0.3388 -0.2046  0.6055
  648TMC3     H 9596   3.102   2.615  16.077 -1.5403  1.2801  1.9916
  648TMC3    H1 9597   2.855   2.967  16.040  1.6362  0.7196  2.0306
  648TMC3    H2 9598   3.080   2.807  15.707  1.4067 -1.2295 -0.0065
  648TMC3    C7 9599   2.965   3.030  15.798 -0.1151 -0.1333  0.3885
  648TMC3    C8 9600   3.161   2.595  15.826 -0.4599  0.1189  0.4258
  648TMC3    O1 9601   3.011   3.031  15.684  0.6374  0.5959  1.0056
  648TMC3    O2 9602   3.120   2.549  15.718  0.5139  0.1613 -0.5897
  649TMC3    C1 9603   2.076   3.939  12.879 -0.7098 -0.3531  0.0601
  649TMC3    C2 9604   2.182   4.026  12.844 -0.0515  0.0482  0.8714
  649TMC3    C3 9605   2.258   4.087  12.941 -0.1561  0.2753  0.0756
  649TMC3    C4 9606   2.069   3.897  13.005  0.0923 -0.6164 -0.4704
  649TMC3    C5 9607   2.129   3.970  13.100 -0.1936 -0.8852  0.3850
  649TMC3    C6 9608   2.223   4.064  13.069  1.0217  0.9579  0.2394
  649TMC3     C 9609   1.956   3.967  12.811  0.5442 -0.0771 -0.0005
  649TMC3     O 9610   1.853   3.991  12.869  0.6364 -0.3021  0.3751
  649TMC3     H 9611   2.215   4.033  12.741 -2.2832  4.2249  0.4853
  649TMC3    H1 9612   1.981   3.840  13.030 -0.5625  0.1865 -0.9381
  649TMC3    H2 9613   2.286   4.102  13.148  0.2318 -0.5387  1.5731
  649TMC3    C7 9614   2.120   3.933  13.233 -0.2849  0.4590 -0.6675
  649TMC3    C8 9615   2.365   4.184  12.923  0.6061 -0.4474  0.1148
  649TMC3    O1 9616   2.149   4.015  13.317 -0.1169 -0.1434 -0.3437
  649TMC3    O2 9617   2.449   4.183  13.009  0.3117 -0.3537  0.1891
  650TMC3    C1 9618   4.638   1.381  12.180  0.2216 -0.2107  0.0475
  650TMC3    C2 9619   4.611   1.507  12.225  0.8844  0.2624 -0.2227
  650TMC3    C3 9620   4.483   1.537  12.246  0.0631 -0.3676 -0.2976
  650TMC3    C4 9621   4.549   1.295  12.129 -0.1996  0.1739 -0.7846
  650TMC3    C5 9622   4.423   1.332  12.133  0.2008 -0.7373  0.2444
  650TMC3    C6 9623   4.383   1.453  12.204 -0.1254 -0.4829  0.0572
  650TMC3     C 9624   0.048   1.331  12.196  0.4426 -0.8250  0.2697
  650TMC3     O 9625   0.143   1.409  12.204  1.1386  0.6791  0.5368
  650TMC3     H 9626   4.692   1.569  12.261  1.5955 -1.5945  1.4041
  650TMC3    H1 9627   4.586   1.215  12.066 -1.5636 -0.4060 -0.8373
  650TMC3    H2 9628   4.282   1.489  12.218 -0.6617 -2.0924  0.2209
  650TMC3    C7 9629   4.331   1.288  12.032  0.2874  0.1335  0.0752
  650TMC3    C8 9630   4.459   1.661  12.318 -0.6127 -0.0648 -0.6318
  650TMC3    O1 9631   4.376   1.227  11.938 -0.1445  0.0307 -0.5436
  650TMC3    O2 9632   4.545   1.742  12.328  0.7663  0.0514  0.2006
  651MPD2     C 9633   3.294   2.492  10.557 -0.5713 -0.2474  0.0885
  651MPD2    C1 9634   3.271   2.573  10.664 -0.0001 -0.4484 -0.0111
  651MPD2    C2 9635   3.370   2.641  10.732 -0.2973 -0.1082  0.2480
  651MPD2    C3 9636   3.494   2.633  10.676 -0.5735 -0.4661  0.8282
  651MPD2    C4 9637   3.520   2.557  10.565  0.2679  0.6734 -0.2641
  651MPD2    C5 9638   3.422   2.478  10.514  0.1870  0.9320  1.0454
  651MPD2     H 9639   3.349   2.710  10.814  0.4903  0.1607  0.2200
  651MPD2    H1 9640   3.621   2.551  10.526 -0.0449 -0.6866 -0.8852
  651MPD2    H2 9641   3.213   2.431  10.520 -0.2413 -0.1934 -0.7269
  651MPD2    H3 9642   3.442   2.413  10.429 -1.1111 -0.6570  1.9410
  651MPD2     N 9643   3.594   2.718  10.735  0.5370 -0.4714 -0.1737
  651MPD2    H5 9644   3.567   2.778  10.813  1.9693  0.6993 -0.5843
  651MPD2    N1 9645   3.142   2.606  10.705  0.2091 -0.2568  0.2207
  651MPD2    H7 9646   3.133   2.675  10.779 -0.0422 -0.2856  0.2170
  652TMC3    C1 9647   3.974   2.868  10.946 -0.2011 -0.0237  0.8260
  652TMC3    C2 9648   3.910   2.795  10.853  0.2828 -0.9120  0.8318
  652TMC3    C3 9649   3.790   2.815  10.808 -0.0465  0.7511 -0.0455
  652TMC3    C4 9650   3.904   2.977  10.994 -0.4059  0.7874 -0.1634
  652TMC3    C5 9651   3.780   3.001  10.945 -0.3467  0.9041  0.6699
  652TMC3    C6 9652   3.708   2.916  10.857 -0.6543  0.1075 -0.1309
  652TMC3     C 9653   4.112   2.861  10.978 -0.0768 -1.1490 -0.0092
  652TMC3     O 9654   4.139   2.885  11.090 -0.2931  0.2401  0.3166
  652TMC3     H 9655   3.955   2.704  10.813 -1.4691 -1.8050  0.9061
  652TMC3    H1 9656   3.956   3.037  11.067  1.9072  0.1023 -1.2469
  652TMC3    H2 9657   3.622   2.956  10.804 -1.5388 -0.9696  0.4800
  652TMC3    C7 9658   3.729   3.134  10.935 -0.5788  0.1896 -0.2397
  652TMC3    C8 9659   3.729   2.731  10.706  0.1249 -0.1200 -0.2511
  652TMC3    O1 9660   3.612   3.159  10.948 -0.4794  0.5164 -0.0503
  652TMC3    O2 9661   3.798   2.659  10.635  0.5340 -0.4735  0.4415
  653MPD2     C 9662   2.307   2.848   0.172  0.0895 -0.6734  0.0092
  653MPD2    C1 9663   2.336   2.932   0.062 -0.4136  0.3819 -0.0373
  653MPD2    C2 9664   2.330   2.874  17.630 -0.4133  0.3630  0.1591
  653MPD2    C3 9665   2.313   2.739  17.610 -0.0743  0.1264 -0.0580
  653MPD2    C4 9666   2.316   2.656   0.028  0.4700 -0.5020  0.0801
  653MPD2    C5 9667   2.298   2.712   0.156 -0.2775  0.6371 -0.4505
  653MPD2     H 9668   2.347   2.941  17.546  0.3915 -0.2883 -0.1860
  653MPD2    H1 9669   2.329   2.550   0.012  0.8025 -0.5782  0.8618
  653MPD2    H2 9670   2.311   2.891   0.271  1.6767 -0.5656 -0.0988
  653MPD2    H3 9671   2.289   2.658   0.249  1.1554 -0.7663 -1.1145
  653MPD2     N 9672   2.309   2.691  17.482 -0.0042 -0.0799 -0.1512
  653MPD2    H5 9673   2.289   2.756  17.406 -0.2861 -1.4701 -1.2811
  653MPD2    N1 9674   2.355   3.070   0.071  0.8892  0.2489  0.4168
  653MPD2    H7 9675   2.366   3.122  17.679 -2.5744  1.9103  0.9731
  654TMC3    C1 9676   2.249   2.539  17.315 -0.4217  0.0644 -0.1510
  654TMC3    C2 9677   2.177   2.634  17.248 -0.1326 -0.2417  0.0847
  654TMC3    C3 9678   2.116   2.602  17.132 -0.1002 -0.6169  0.5453
  654TMC3    C4 9679   2.256   2.409  17.274 -0.9086  0.2864  0.3512
  654TMC3    C5 9680   2.195   2.386  17.156 -0.4230  0.0918  0.3170
  654TMC3    C6 9681   2.122   2.471  17.084  0.0423 -0.1188 -0.3012
  654TMC3     C 9682   2.300   2.555  17.449 -0.3626 -0.3045 -0.3481
  654TMC3     O 9683   2.334   2.456  17.511 -0.0236  0.4179  0.5841
  654TMC3     H 9684   2.168   2.735  17.287 -0.2332 -0.4857  0.6932
  654TMC3    H1 9685   2.318   2.338  17.328 -0.5197 -0.1297 -0.6286
  654TMC3    H2 9686   2.051   2.442  17.007  0.3659  0.6484 -0.8773
  654TMC3    C7 9687   2.190   2.250  17.106 -0.0768  0.6724  0.1044
  654TMC3    C8 9688   2.066   2.703  17.041  0.1726  0.2263 -0.4120
  654TMC3    O1 9689   2.126   2.224  17.005 -0.3110  0.1131 -0.2233
  654TMC3    O2 9690   2.010   2.802  17.089 -0.5537 -0.6828 -0.1987
  655MPD2     C 9691   3.691   2.600  15.702 -0.0097  1.2911  1.6751
  655MPD2    C1 9692   3.584   2.662  15.639  0.3687  0.7529  0.7425
  655MPD2    C2 9693   3.543   2.605  15.519  0.3072  0.4660  0.3537
  655MPD2    C3 9694   3.584   2.491  15.463 -0.0486  0.4123 -0.5155
  655MPD2    C4 9695   3.682   2.425  15.526  0.6745 -0.3772  0.3069
  655MPD2    C5 9696   3.734   2.483  15.640  0.8682  0.3180  0.2476
  655MPD2     H 9697   3.471   2.673  15.475 -0.0147 -1.5753 -2.2679
  655MPD2    H1 9698   3.719   2.334  15.482 -3.0911 -1.6398 -0.2540
  655MPD2    H2 9699   3.734   2.634  15.796  0.0698  0.7357  1.8347
  655MPD2    H3 9700   3.823   2.439  15.684  0.9546 -2.6379 -2.8745
  655MPD2     N 9701   3.536   2.440  15.343 -0.0142 -0.3736 -0.3962
  655MPD2    H5 9702   3.591   2.364  15.304  1.5544 -0.6556  2.4212
  655MPD2    N1 9703   3.511   2.775  15.679 -0.1258 -1.0450 -0.4142
  655MPD2    H7 9704   3.434   2.801  15.618  0.2984  0.9610 -0.1158
  656TMC3    C1 9705   3.446   2.962  15.802  0.3352 -0.2847 -0.3731
  656TMC3    C2 9706   3.399   2.998  15.929  0.5841  0.9777 -0.4273
  656TMC3    C3 9707   3.324   3.112  15.944  0.1723 -0.3322  0.5085
  656TMC3    C4 9708   3.418   3.040  15.689 -0.4219 -0.4210  0.5038
  656TMC3    C5 9709   3.330   3.146  15.713  0.7464  0.2239  0.1514
  656TMC3    C6 9710   3.279   3.182  15.834  0.0204  0.0232  0.1848
  656TMC3     C 9711   3.517   2.833  15.802 -0.3721  0.2458  0.2621
  656TMC3     O 9712   3.588   2.800  15.896 -0.9826 -0.0576 -0.0617
  656TMC3     H 9713   3.434   2.948  16.019 -0.9557  0.2479 -0.2386
  656TMC3    H1 9714   3.457   3.019  15.590 -0.9678 -0.6994  0.3445
  656TMC3    H2 9715   3.221   3.272  15.851 -2.4570 -1.1643 -1.9242
  656TMC3    C7 9716   3.294   3.226  15.595  0.5963  0.2148 -0.6605
  656TMC3    C8 9717   3.261   3.134  16.071  0.5480  0.0780 -0.3100
  656TMC3    O1 9718   3.383   3.234  15.508 -0.0286  0.1956  0.0750
  656TMC3    O2 9719   3.220   3.034  16.132  0.0399 -0.0027  0.3485
  657TMC3    C1 9720   2.311   1.972  15.008 -0.0865  0.1292 -0.7637
  657TMC3    C2 9721   2.331   1.989  15.149  0.5404  0.0556 -0.1393
  657TMC3    C3 9722   2.284   2.101  15.214  0.2640  0.0417 -1.1521
  657TMC3    C4 9723   2.249   2.072  14.937 -0.0860 -0.2460 -0.9547
  657TMC3    C5 9724   2.203   2.181  15.003 -0.0720 -0.3939  0.0843
  657TMC3    C6 9725   2.218   2.200  15.139 -0.2786  0.2131 -0.5254
  657TMC3     C 9726   2.383   1.867  14.938 -0.3440  1.2245  0.7741
  657TMC3     O 9727   2.326   1.833  14.832  0.1966  0.1639 -0.1066
  657TMC3     H 9728   2.379   1.912  15.208 -1.9682 -1.1898  0.2596
  657TMC3    H1 9729   2.242   2.074  14.829  0.6228  0.4037 -0.9899
  657TMC3    H2 9730   2.171   2.286  15.186 -1.1013  0.0508 -1.0489
  657TMC3    C7 9731   2.211   2.298  14.919  0.2813  1.0144 -0.2118
  657TMC3    C8 9732   2.325   2.121  15.352 -0.1563 -0.2715  0.4261
  657TMC3    O1 9733   2.282   2.283  14.818 -0.4447  0.4360 -0.2103
  657TMC3    O2 9734   2.375   2.028  15.420 -0.0055 -0.4862 -0.6461
  658MPD2     C 9735   3.523   2.087  14.541  0.0548  0.4566 -0.0298
  658MPD2    C1 9736   3.548   2.200  14.614  0.3961 -0.4734  0.1647
  658MPD2    C2 9737   3.578   2.311  14.534  0.3707 -0.1984 -0.2422
  658MPD2    C3 9738   3.583   2.306  14.396 -0.0454  0.7166  0.1711
  658MPD2    C4 9739   3.567   2.191  14.325 -0.0903  0.1171 -0.0619
  658MPD2    C5 9740   3.539   2.083  14.405  0.8205  0.6186  0.1213
  658MPD2     H 9741   3.578   2.410  14.579  0.1036  0.1591 -1.0336
  658MPD2    H1 9742   3.572   2.186  14.217  0.3152 -0.5722 -0.0100
  658MPD2    H2 9743   3.486   1.996  14.587  1.4427  0.8638  1.9091
  658MPD2    H3 9744   3.508   1.991  14.356 -0.8848  1.6096 -0.6791
  658MPD2     N 9745   3.576   2.432  14.338  0.3664  0.6083 -0.3407
  658MPD2    H5 9746   3.544   2.513  14.391 -0.6027  0.9261 -1.4101
  658MPD2    N1 9747   3.522   2.196  14.753 -0.6034  0.2870  0.1164
  658MPD2    H7 9748   3.471   2.117  14.792  0.4167  0.1640  1.2088
  659TMC3    C1 9749   3.444   2.313  14.949  0.6538 -0.0389 -0.2019
  659TMC3    C2 9750   3.482   2.382  15.064 -0.1831 -0.2561 -1.0425
  659TMC3    C3 9751   3.396   2.411  15.159 -0.0658 -0.2199 -0.1968
  659TMC3    C4 9752   3.316   2.276  14.927 -0.4802  0.5344  0.0247
  659TMC3    C5 9753   3.223   2.320  15.022 -1.1810  0.2562  0.3986
  659TMC3    C6 9754   3.267   2.379  15.140 -0.3783  0.1045 -0.2476
  659TMC3     C 9755   3.538   2.303  14.841  0.1296 -0.1572  0.4513
  659TMC3     O 9756   3.614   2.397  14.827 -0.1964  0.2637 -0.8706
  659TMC3     H 9757   3.584   2.412  15.084 -1.1032  2.3339 -0.3007
  659TMC3    H1 9758   3.284   2.239  14.830  4.0623 -0.7265 -0.9964
  659TMC3    H2 9759   3.193   2.398  15.216 -0.5537 -0.5709 -0.2486
  659TMC3    C7 9760   3.082   2.294  15.019 -0.3846  0.6126 -0.1786
  659TMC3    C8 9761   3.431   2.494  15.272  0.2250 -0.0692 -0.0638
  659TMC3    O1 9762   3.018   2.316  15.116 -0.4966  0.3223  0.1410
  659TMC3    O2 9763   3.355   2.587  15.296 -0.2187 -0.2400 -0.0638
  660MPD2     C 9764   1.878   1.891  12.432 -0.1074  0.0731 -0.5832
  660MPD2    C1 9765   1.765   1.978  12.437  0.0392  0.3870  0.1727
  660MPD2    C2 9766   1.668   1.956  12.529  0.2941 -0.0738  0.3797
  660MPD2    C3 9767   1.679   1.848  12.615 -0.1320 -0.2492 -0.1322
  660MPD2    C4 9768   1.791   1.763  12.616 -0.7354  0.2089  0.6134
  660MPD2    C5 9769   1.898   1.795  12.534 -0.4641 -0.0611  0.2888
  660MPD2     H 9770   1.576   2.014  12.528  0.0255 -0.4458  1.9728
  660MPD2    H1 9771   1.810   1.686  12.689 -0.1972 -0.1407  0.1127
  660MPD2    H2 9772   1.956   1.909  12.358  1.1119  0.8712  0.8730
  660MPD2    H3 9773   1.984   1.729  12.531 -0.9943 -0.7611  0.5024
  660MPD2     N 9774   1.588   1.810  12.719  0.5995 -0.7001  0.2317
  660MPD2    H5 9775   1.622   1.735  12.778  3.4249 -0.2996 -0.9158
  660MPD2    N1 9776   1.749   2.083  12.342 -0.1528 -0.2397  0.0033
  660MPD2    H7 9777   1.821   2.084  12.271  0.4515 -1.2840  0.5972
  661TMC3    C1 9778   1.667   2.286  12.235 -0.0418 -0.1220  0.1134
  661TMC3    C2 9779   1.731   2.247  12.125 -0.3205  0.1158  0.0101
  661TMC3    C3 9780   1.694   2.305  12.009  0.3286 -0.7613  0.5372
  661TMC3    C4 9781   1.583   2.392  12.237  0.2893 -0.4228 -0.2892
  661TMC3    C5 9782   1.554   2.451  12.119  0.0105 -0.5288 -0.2871
  661TMC3    C6 9783   1.604   2.408  12.000  0.3387  0.4830  0.1870
  661TMC3     C 9784   1.658   2.184  12.348  0.0606  0.4816 -0.0577
  661TMC3     O 9785   1.580   2.213  12.439  0.0346  0.3248  0.2822
  661TMC3     H 9786   1.820   2.185  12.121 -0.0143  0.4651  1.2312
  661TMC3    H1 9787   1.527   2.423  12.324  1.2810  2.6439 -0.7274
  661TMC3    H2 9788   1.596   2.461  11.906  0.9326 -0.1879 -0.2461
  661TMC3    C7 9789   1.412   2.486  12.103 -0.4945  0.4554  0.0616
  661TMC3    C8 9790   1.729   2.236  11.887 -0.1006  0.4624 -0.1190
  661TMC3    O1 9791   1.359   2.533  12.203  0.1593 -0.4701  0.0627
  661TMC3    O2 9792   1.752   2.310  11.792  0.3277  0.1340  0.3336
  662MPD2     C 9793   1.614   1.964  17.114 -0.1947 -0.0038 -0.7237
  662MPD2    C1 9794   1.670   1.925  17.234 -0.7146  0.3669 -0.1460
  662MPD2    C2 9795   1.672   2.009  17.338 -0.3335 -0.0413  0.4340
  662MPD2    C3 9796   1.614   2.133  17.333 -0.2615 -0.0162 -0.7508
  662MPD2    C4 9797   1.543   2.162  17.220  0.5385  0.1707  0.7585
  662MPD2    C5 9798   1.539   2.079  17.107 -0.3492  0.0076 -0.2114
  662MPD2     H 9799   1.718   1.978  17.431 -1.5275 -1.4773  0.5494
  662MPD2    H1 9800   1.496   2.259  17.205  0.9858  0.3737  0.6678
  662MPD2    H2 9801   1.616   1.899  17.028  1.2086 -3.5364  2.0047
  662MPD2    H3 9802   1.481   2.104  17.019 -0.3237  0.5824 -0.0639
  662MPD2     N 9803   1.603   2.218  17.440  0.3695 -0.1579  0.4418
  662MPD2    H5 9804   1.549   2.300  17.416 -1.0252 -0.9088  0.9621
  662MPD2    N1 9805   1.719   1.794  17.252 -0.0779 -0.0141 -0.0015
  662MPD2    H7 9806   1.764   1.775  17.341 -2.9906 -1.0534  1.2668
  663TMC3    C1 9807   1.794   1.575  17.207  0.0552  0.6820 -0.5898
  663TMC3    C2 9808   1.852   1.567  17.326  0.8944 -0.2101 -1.0672
  663TMC3    C3 9809   1.906   1.449  17.367  0.1590 -0.0798 -0.2775
  663TMC3    C4 9810   1.765   1.461  17.141 -0.3404  0.2369 -0.3637
  663TMC3    C5 9811   1.800   1.337  17.194  0.0128  0.6563  0.1394
  663TMC3    C6 9812   1.877   1.331  17.306  0.0909 -0.3523  0.2969
  663TMC3     C 9813   1.725   1.695  17.159 -0.0297  1.1166 -0.0678
  663TMC3     O 9814   1.673   1.688  17.048  0.3646  0.1592 -0.2140
  663TMC3     H 9815   1.891   1.659  17.366  0.2632  0.2843 -1.5954
  663TMC3    H1 9816   1.702   1.459  17.053 -0.1753  0.9699 -0.4993
  663TMC3    H2 9817   1.872   1.248  17.375  1.4964 -0.2084  0.5778
  663TMC3    C7 9818   1.685   1.254  17.197 -0.3145 -0.7594 -0.3751
  663TMC3    C8 9819   1.913   1.444  17.508 -0.0630 -0.0277  0.5914
  663TMC3    O1 9820   1.574   1.303  17.178  0.2168  0.5082 -0.6419
  663TMC3    O2 9821   2.003   1.371  17.552 -0.4000 -0.0479 -1.0602
  664MPD2     C 9822   0.422   4.665   0.144  0.6688  0.1091 -0.1108
  664MPD2    C1 9823   0.487   0.064   0.127 -0.6288 -0.3315  0.6343
  664MPD2    C2 9824   0.498   0.146   0.239  0.4798 -0.1543 -0.6268
  664MPD2    C3 9825   0.442   0.109   0.361  0.4052 -0.4382  0.3600
  664MPD2    C4 9826   0.375   4.711   0.373 -0.2330  0.3805  0.1996
  664MPD2    C5 9827   0.374   4.626   0.267  0.4339  0.2676 -0.2756
  664MPD2     H 9828   0.536   0.246   0.226  0.7106 -0.3273 -1.2917
  664MPD2    H1 9829   0.328   4.669   0.460 -0.6394 -0.0766 -0.2423
  664MPD2    H2 9830   0.415   4.596   0.061  4.0553  0.9994 -1.1432
  664MPD2    H3 9831   0.331   4.528   0.286 -0.4280  0.4459 -1.3165
  664MPD2     N 9832   0.443   0.202   0.466  0.0884 -0.1666 -0.2618
  664MPD2    H5 9833   0.472   0.297   0.446  0.8765 -0.2363  0.5098
  664MPD2    N1 9834   0.547   0.097   0.006  0.3450 -0.3057  0.6114
  664MPD2    H7 9835   0.593   0.187  17.692 -0.7770  0.2465  0.3690
  665TMC3    C1 9836   0.382   0.302   0.673  0.5233  0.5827  0.0367
  665TMC3    C2 9837   0.394   0.291   0.809  0.1114  0.2201  0.7097
  665TMC3    C3 9838   0.405   0.401   0.885 -0.6034 -0.7175 -0.4419
  665TMC3    C4 9839   0.390   0.420   0.614 -0.0743 -0.3207  0.2324
  665TMC3    C5 9840   0.411   0.529   0.688  0.2294 -0.0087  0.2800
  665TMC3    C6 9841   0.399   0.523   0.824 -0.0247  0.2456 -0.7043
  665TMC3     C 9842   0.398   0.181   0.596 -0.1643 -0.1448  0.1011
  665TMC3     O 9843   0.386   0.070   0.654 -0.3044  0.3128 -0.3995
  665TMC3     H 9844   0.417   0.190   0.840  0.1086  1.5358  5.0626
  665TMC3    H1 9845   0.366   0.419   0.508 -0.6273  1.3076  0.3449
  665TMC3    H2 9846   0.439   0.606   0.881  1.3666 -0.4271 -0.6812
  665TMC3    C7 9847   0.380   0.657   0.626  0.2080 -0.1795  0.0396
  665TMC3    C8 9848   0.350   0.400   1.024 -0.1217 -1.1559  0.7153
  665TMC3    O1 9849   0.391   0.668   0.504 -0.7876  0.3735 -0.9451
  665TMC3    O2 9850   0.344   0.510   1.076  0.0709 -0.4164 -0.1961
  666TMC3    C1 9851   4.009   4.181   9.922 -0.0640 -0.2331  0.8572
  666TMC3    C2 9852   4.112   4.100   9.965  0.1607 -0.3780  0.1574
  666TMC3    C3 9853   4.229   4.155  10.002  0.4498 -0.4706 -0.1794
  666TMC3    C4 9854   4.032   4.313   9.904  0.0240 -0.1706 -0.0493
  666TMC3    C5 9855   4.152   4.363   9.947  0.7125 -0.4100  0.1470
  666TMC3    C6 9856   4.255   4.285   9.999  0.1727  0.1495  0.3645
  666TMC3     C 9857   3.880   4.151   9.985 -0.6406  0.3332  0.0850
  666TMC3     O 9858   3.786   4.224   9.973  0.0810  0.2717  0.0713
  666TMC3     H 9859   4.105   3.992   9.956  0.3975 -0.4335  0.6076
  666TMC3    H1 9860   3.944   4.373   9.888 -0.2518 -0.4922  0.2403
  666TMC3    H2 9861   4.339   4.326  10.055 -1.6087  0.7264  2.6288
  666TMC3    C7 9862   4.166   4.508   9.949  0.4265 -0.4806  0.0270
  666TMC3    C8 9863   4.289   4.081  10.108 -0.5372 -0.3278 -0.6827
  666TMC3    O1 9864   4.057   4.564   9.952 -0.2522 -0.1401 -0.0957
  666TMC3    O2 9865   4.209   4.019  10.182  0.0552 -0.4208 -0.1172
  667MPD2     C 9866   0.428   4.093  15.030  0.0655 -0.3605 -0.0556
  667MPD2    C1 9867   0.437   4.037  15.161 -0.9692  0.4283  0.7961
  667MPD2    C2 9868   0.436   3.901  15.179 -0.5484  0.4683 -0.6951
  667MPD2    C3 9869   0.412   3.815  15.073 -0.4177  0.1871  0.1597
  667MPD2    C4 9870   0.415   3.863  14.943  0.1123 -0.4577 -0.6241
  667MPD2    C5 9871   0.418   4.004  14.924  0.0572 -0.2686  0.0367
  667MPD2     H 9872   0.448   3.865  15.281  1.3854 -0.3500 -1.2049
  667MPD2    H1 9873   0.400   3.795  14.859 -0.9072 -0.2393 -0.6260
  667MPD2    H2 9874   0.422   4.198  15.006 -0.5219 -0.0982  1.2469
  667MPD2    H3 9875   0.405   4.044  14.824  0.7246  0.8056  0.3867
  667MPD2     N 9876   0.409   3.674  15.082  0.1377 -0.5691  0.1934
  667MPD2    H5 9877   0.406   3.623  14.994 -0.9930 -1.0677  0.5160
  667MPD2    N1 9878   0.448   4.120  15.276  0.8850  0.1410  0.1299
  667MPD2    H7 9879   0.449   4.078  15.368  0.9919 -1.2499 -0.5101
  668TMC3    C1 9880   0.515   4.308  15.410  0.5437 -0.2569 -0.0140
  668TMC3    C2 9881   0.594   4.414  15.403  0.3111  0.4473  0.2623
  668TMC3    C3 9882   0.636   4.479  15.516 -0.2444  0.1727  0.7710
  668TMC3    C4 9883   0.460   4.261  15.524  0.3964  0.3629  0.3679
  668TMC3    C5 9884   0.502   4.329  15.633  0.0800 -0.1461  0.4674
  668TMC3    C6 9885   0.574   4.440  15.631 -0.3752 -0.0919 -0.1790
  668TMC3     C 9886   0.481   4.253  15.279 -0.2245 -0.3503  0.4551
  668TMC3     O 9887   0.458   4.338  15.191  0.6224 -0.0358  0.0832
  668TMC3     H 9888   0.627   4.439  15.303  1.0603 -0.9066  0.1680
  668TMC3    H1 9889   0.404   4.168  15.525 -0.4573  0.8534 -0.9048
  668TMC3    H2 9890   0.603   4.486  15.724  0.3108  0.0177 -0.4431
  668TMC3    C7 9891   0.467   4.283  15.770  0.4656 -0.0541  0.0039
  668TMC3    C8 9892   0.744   4.581  15.523  0.0953  0.1553 -0.1321
  668TMC3    O1 9893   0.428   4.367  15.854 -0.2444 -0.0917  0.1853
  668TMC3    O2 9894   0.761   4.635  15.629  0.4686  0.0499  1.0101
  669TMC3    C1 9895   3.748   4.422  14.428  0.2760  0.1012 -0.0801
  669TMC3    C2 9896   3.661   4.414  14.324  0.3869 -0.1827  0.2496
  669TMC3    C3 9897   3.686   4.492  14.207  0.3438  0.5292  0.5179
  669TMC3    C4 9898   3.846   4.515  14.422 -0.4022  0.3653 -0.2224
  669TMC3    C5 9899   3.859   4.600  14.320  0.2920 -0.1006  0.7102
  669TMC3    C6 9900   3.792   4.583  14.203 -0.4166 -0.2359  0.5025
  669TMC3     C 9901   3.732   4.340  14.552 -0.0786  0.1979  0.2322
  669TMC3     O 9902   3.618   4.295  14.556  0.2453 -0.1963 -0.1682
  669TMC3     H 9903   3.590   4.332  14.329  0.2571 -0.1002 -0.1812
  669TMC3    H1 9904   3.915   4.532  14.504 -0.1097 -1.1620 -0.1514
  669TMC3    H2 9905   3.805   4.648  14.118 -1.8061 -1.4794 -0.6678
  669TMC3    C7 9906   3.981   4.674  14.320 -0.2818  0.0110  0.3029
  669TMC3    C8 9907   3.593   4.491  14.103  0.4000  0.3589 -0.3734
  669TMC3    O1 9908   4.008   0.010  14.420 -0.4209 -0.2801  0.2574
  669TMC3    O2 9909   3.634   4.492  13.986 -0.4133  0.3024  0.0302
  670MPD2     C 9910   2.320   1.773  13.895  0.3604  0.2057 -0.2259
  670MPD2    C1 9911   2.212   1.853  13.862 -0.1723 -0.2174 -0.4169
  670MPD2    C2 9912   2.110   1.871  13.954 -0.9203 -0.1534 -0.3428
  670MPD2    C3 9913   2.113   1.813  14.078  0.0314 -0.4282  0.2826
  670MPD2    C4 9914   2.218   1.732  14.104  0.3368 -0.4082  0.4688
  670MPD2    C5 9915   2.318   1.710  14.017  0.0320  0.1532  0.1385
  670MPD2     H 9916   2.025   1.930  13.920 -0.8812 -0.4481 -0.9581
  670MPD2    H1 9917   2.223   1.670  14.193  1.9864 -0.1982  0.5277
  670MPD2    H2 9918   2.399   1.744  13.827  1.3142  1.9372  0.1357
  670MPD2    H3 9919   2.391   1.637  14.051 -1.5383 -1.0185  0.9741
  670MPD2     N 9920   2.010   1.818  14.171  0.0115 -0.2017  0.5491
  670MPD2    H5 9921   2.023   1.759  14.252  1.5382  3.2681  2.8640
  670MPD2    N1 9922   2.217   1.931  13.746  0.3452 -0.3378 -0.0084
  670MPD2    H7 9923   2.145   2.001  13.735  0.5940  0.0895  1.0936
  671TMC3    C1 9924   1.809   1.862  14.280 -0.4049  0.2772 -0.3313
  671TMC3    C2 9925   1.877   1.785  14.371  0.5549 -0.0008  0.0023
  671TMC3    C3 9926   1.829   1.658  14.413  0.0680  0.3276 -0.0802
  671TMC3    C4 9927   1.692   1.816  14.231 -0.9389 -0.0358  0.5842
  671TMC3    C5 9928   1.645   1.691  14.271  0.4887  0.2214  0.0027
  671TMC3    C6 9929   1.710   1.612  14.359 -0.1552  0.7565  0.2673
  671TMC3     C 9930   1.891   1.885  14.159  0.1058  0.3396 -0.6994
  671TMC3     O 9931   1.845   1.948  14.067  0.5660  1.1316 -0.3925
  671TMC3     H 9932   1.971   1.823  14.408  0.5692  0.5957 -0.6262
  671TMC3    H1 9933   1.640   1.885  14.166 -2.4140 -2.5060 -0.8327
  671TMC3    H2 9934   1.666   1.515  14.382 -0.7387  0.8081 -0.6230
  671TMC3    C7 9935   1.583   1.620  14.160  0.2707 -0.0713  0.3792
  671TMC3    C8 9936   1.935   1.567  14.399 -0.2621  0.1328 -0.3512
  671TMC3    O1 9937   1.523   1.689  14.080 -0.5368  0.3248 -0.0582
  671TMC3    O2 9938   1.928   1.501  14.295 -0.2329 -0.0680  0.2241
  672MPD2     C 9939   2.020   3.650   2.115  0.0252 -0.5731  0.1614
  672MPD2    C1 9940   2.057   3.673   1.982 -0.0904  0.1353 -0.8541
  672MPD2    C2 9941   2.184   3.705   1.944 -0.1393 -0.2422 -0.1098
  672MPD2    C3 9942   2.278   3.725   2.044 -0.8791 -0.0358 -0.3159
  672MPD2    C4 9943   2.243   3.695   2.177 -0.1405  0.1212  0.5570
  672MPD2    C5 9944   2.117   3.653   2.215 -0.5313 -0.1514  0.4697
  672MPD2     H 9945   2.215   3.709   1.840 -0.3251  1.0424 -0.1241
  672MPD2    H1 9946   2.329   3.696   2.244 -0.9145 -0.7478  1.5607
  672MPD2    H2 9947   1.918   3.637   2.147  0.5815 -0.8490  1.8105
  672MPD2    H3 9948   2.090   3.627   2.317 -2.8373  2.5905  0.5624
  672MPD2     N 9949   2.412   3.775   2.026 -0.3998 -0.1581 -0.2745
  672MPD2    H5 9950   2.473   3.776   2.107  1.4780 -1.8827 -1.6554
  672MPD2    N1 9951   1.963   3.672   1.873  0.3800  0.5828 -0.7116
  672MPD2    H7 9952   1.998   3.709   1.786  3.6736  1.9613  1.1674
  673TMC3    C1 9953   1.765   3.635   1.743  0.1384  0.1313  0.6681
  673TMC3    C2 9954   1.674   3.538   1.729 -0.8245 -0.5862  0.1039
  673TMC3    C3 9955   1.650   3.484   1.602 -0.7865  0.8306 -0.0106
  673TMC3    C4 9956   1.841   3.687   1.639 -0.3995 -0.3711  0.0507
  673TMC3    C5 9957   1.808   3.636   1.517  0.3179  0.6600  0.4555
  673TMC3    C6 9958   1.719   3.534   1.494 -0.1986 -0.2977 -0.6599
  673TMC3     C 9959   1.832   3.630   1.874  0.1857 -0.2283  0.2234
  673TMC3     O 9960   1.768   3.590   1.970  0.1819  0.1836  0.9849
  673TMC3     H 9961   1.633   3.485   1.814  0.2413 -1.6014  0.0035
  673TMC3    H1 9962   1.900   3.777   1.647 -0.9228 -0.1443  1.4066
  673TMC3    H2 9963   1.719   3.487   1.396  2.8699  0.2755 -0.9526
  673TMC3    C7 9964   1.876   3.683   1.398 -0.8592 -0.9393 -0.0299
  673TMC3    C8 9965   1.617   3.340   1.603  0.4305  0.1200 -0.0176
  673TMC3    O1 9966   1.821   3.677   1.284 -0.1247 -0.9271  0.1911
  673TMC3    O2 9967   1.545   3.291   1.689 -0.3013  0.2210  0.0462
  674MPD2     C 9968   2.614   1.604   0.502 -0.2204 -0.8311 -0.7169
  674MPD2    C1 9969   2.499   1.656   0.445 -0.4598  0.0289 -0.1317
  674MPD2    C2 9970   2.425   1.744   0.520  0.9451  0.3189  0.1546
  674MPD2    C3 9971   2.452   1.779   0.650 -0.4911  0.5463 -0.1018
  674MPD2    C4 9972   2.563   1.729   0.706 -1.0346  0.3361  0.8360
  674MPD2    C5 9973   2.641   1.640   0.635  0.0898 -0.0333  0.2757
  674MPD2     H 9974   2.339   1.784   0.469  0.6035  1.0918  1.3331
  674MPD2    H1 9975   2.582   1.741   0.812 -0.2203 -1.2784  0.8688
  674MPD2    H2 9976   2.678   1.530   0.455  1.3033  0.6007 -0.8865
  674MPD2    H3 9977   2.727   1.603   0.690  0.2357  1.1946  0.8714
  674MPD2     N 9978   2.367   1.880   0.708  0.1053 -0.1732  0.0993
  674MPD2    H5 9979   2.287   1.909   0.652  1.3293  2.7859 -0.1158
  674MPD2    N1 9980   2.464   1.619   0.311  0.2701 -0.3092 -0.2939
  674MPD2    H7 9981   2.540   1.590   0.249 -0.1692 -2.1293  0.0195
  675TMC3    C1 9982   2.354   1.582   0.111  0.4518  0.5503  0.8308
  675TMC3    C2 9983   2.229   1.584   0.053 -0.3509  0.4558 -1.0659
  675TMC3    C3 9984   2.198   1.651  17.630  0.2697  0.2881  0.0592
  675TMC3    C4 9985   2.454   1.644   0.042 -0.3072  0.4188 -0.1049
  675TMC3    C5 9986   2.432   1.702  17.611 -0.3588  0.0350 -0.9125
  675TMC3    C6 9987   2.301   1.717  17.566  0.7463  0.1538  0.5503
  675TMC3     C 9988   2.346   1.635   0.248 -0.2467 -0.1257 -0.4464
  675TMC3     O 9989   2.233   1.649   0.290 -0.0953 -0.1355  0.4112
  675TMC3     H 9990   2.157   1.525   0.108  0.4679 -0.5582 -1.0693
  675TMC3    H1 9991   2.556   1.632   0.078  0.1580 -1.0027 -1.8690
  675TMC3    H2 9992   2.264   1.788  17.492 -2.9003 -3.3718 -1.0118
  675TMC3    C7 9993   2.534   1.758  17.524 -0.4212  0.1404  0.4011
  675TMC3    C8 9994   2.069   1.719  17.636  0.4858 -0.5834 -0.0941
  675TMC3    O1 9995   2.502   1.776  17.409  0.6844 -0.2612 -0.2520
  675TMC3    O2 9996   2.031   1.781  17.536  0.1579 -0.0685  0.8012
  676MPD2     C 9997   0.113   0.809  10.872 -0.0602 -0.4263  0.4949
  676MPD2    C1 9998   0.003   0.744  10.925  0.0902  0.3563  0.6035
  676MPD2    C2 9999   4.687   0.628  10.866 -0.7296 -0.0826 -0.9075
  676MPD2    C310000   0.026   0.584  10.753 -0.0584  0.0631 -0.4520
  676MPD2    C410001   0.125   0.654  10.703  0.5657  0.3918  0.4082
  676MPD2    C510002   0.179   0.763  10.764  0.5401  0.7716 -0.9996
  676MPD2     H10003   4.612   0.580  10.927  0.8725 -0.4851  0.7864
  676MPD2    H110004   0.176   0.619  10.613 -1.8400 -0.9961 -0.4302
  676MPD2    H210005   0.155   0.898  10.917 -0.8885  0.1714  0.0811
  676MPD2    H310006   0.262   0.816  10.718  1.1024 -0.4116 -1.3600
  676MPD2     N10007   4.722   0.464  10.696 -0.4433 -0.2118 -0.5892
  676MPD2    H510008   0.037   0.449  10.604  0.2210  2.3404 -0.7522
  676MPD2    N110009   4.652   0.790  11.037 -0.1274 -0.4269  0.4247
  676MPD2    H710010   4.580   0.730  11.075 -1.0338  0.4429  0.0733
  677TMC3    C110011   4.564   0.934  11.199  0.0817  0.5269  0.5216
  677TMC3    C210012   4.474   0.839  11.237  0.2511 -0.2304  0.6056
  677TMC3    C310013   4.354   0.872  11.278  0.4938  0.4714  0.2408
  677TMC3    C410014   4.539   1.069  11.230 -0.7059 -0.5683 -0.0031
  677TMC3    C510015   4.413   1.100  11.280  0.4424 -0.4304  0.1684
  677TMC3    C610016   4.321   1.005  11.297  0.6868 -0.2292 -0.0634
  677TMC3     C10017   4.661   0.915  11.090 -0.0664 -0.1918  0.0775
  677TMC3     O10018   0.008   1.010  11.055  0.5320  0.1102  0.3263
  677TMC3     H10019   4.500   0.735  11.226 -1.1622 -0.7264  1.9629
  677TMC3    H110020   4.615   1.143  11.205 -1.0411 -0.1832  0.1173
  677TMC3    H210021   4.218   1.033  11.314  1.4131  2.5426 -0.2961
  677TMC3    C710022   4.387   1.235  11.324 -0.3786  0.4221  0.3957
  677TMC3    C810023   4.265   0.757  11.304 -0.4026  0.6484 -0.1601
  677TMC3    O110024   4.274   1.246  11.363  0.3540  0.5459  0.0797
  677TMC3    O210025   4.261   0.683  11.207 -0.1466 -0.2580 -0.0605
  678MPD2     C10026   0.798   1.915   1.740 -0.3515  0.5739  0.2086
  678MPD2    C110027   0.839   1.839   1.629 -0.4630 -0.7171  0.6451
  678MPD2    C210028   0.737   1.812   1.543  0.1363  0.3620  0.0100
  678MPD2    C310029   0.604   1.845   1.565  0.1694 -0.3931  0.0066
  678MPD2    C410030   0.572   1.916   1.677  0.0488  0.4338  0.5979
  678MPD2    C510031   0.671   1.954   1.761  0.9250 -0.1781 -0.1187
  678MPD2     H10032   0.754   1.735   1.470 -0.5470  0.4094 -0.2009
  678MPD2    H110033   0.467   1.939   1.689  0.6403  2.3304  2.0829
  678MPD2    H210034   0.873   1.943   1.813 -0.2061  1.3066 -0.2256
  678MPD2    H310035   0.657   2.010   1.853  0.2049 -0.3396 -0.1281
  678MPD2     N10036   0.508   1.794   1.472 -0.1194 -0.0083 -0.2583
  678MPD2    H510037   0.540   1.738   1.393 -1.1114 -0.7969 -0.1115
  678MPD2    N110038   0.973   1.799   1.602 -0.0618 -0.3108 -0.0795
  678MPD2    H710039   0.993   1.749   1.516 -0.6129  0.4487 -0.6533
  679TMC3    C110040   1.442   1.823   1.561 -0.0980 -0.6829  0.0523
  679TMC3    C210041   1.330   1.823   1.638  0.4790 -0.1814  0.3324
  679TMC3    C310042   1.203   1.824   1.577  0.5504 -0.6312 -0.0151
  679TMC3    C410043   1.432   1.830   1.428  0.9281 -0.0419  1.1325
  679TMC3    C510044   1.306   1.835   1.362 -0.2921 -0.7216  0.3475
  679TMC3    C610045   1.188   1.831   1.440  0.8374  0.2488 -0.0909
  679TMC3     C10046   1.540   1.722   1.607  0.3004 -0.4401 -0.3190
  679TMC3     O10047   1.614   1.681   1.520 -0.0600  0.3740 -0.5428
  679TMC3     H10048   1.341   1.826   1.746 -0.1569  1.0084  0.3613
  679TMC3    H110049   1.520   1.843   1.366 -1.0465 -0.4658 -1.7689
  679TMC3    H210050   1.097   1.841   1.382  0.7200  0.2950  0.1020
  679TMC3    C710051   1.308   1.783   1.227  0.1555  0.7313 -0.1031
  679TMC3    C810052   1.088   1.837   1.662  0.0011 -0.0356  0.3607
  679TMC3    O110053   1.216   1.805   1.155 -0.2004 -0.6561  0.1563
  679TMC3    O210054   1.109   1.903   1.761  0.2605 -0.1963  0.4384
  680MPD2     C10055   2.630   4.275  14.067 -0.2378  0.5620  0.3084
  680MPD2    C110056   2.490   4.284  14.086  0.4798  0.0813 -0.5137
  680MPD2    C210057   2.438   4.399  14.131 -0.3968  0.5673 -0.2262
  680MPD2    C310058   2.516   4.505  14.179  0.6105 -0.0103 -0.3016
  680MPD2    C410059   2.656   4.495  14.157 -0.1929  0.2481  0.0946
  680MPD2    C510060   2.712   4.385  14.102  0.2545 -0.0190 -0.5234
  680MPD2     H10061   2.331   4.402  14.150 -0.4319 -0.8258 -0.1991
  680MPD2    H110062   2.726   4.569  14.193 -1.8813  1.8772  0.0506
  680MPD2    H210063   2.683   4.186  14.035 -2.1272 -0.5080  0.1770
  680MPD2    H310064   2.820   4.385  14.095  0.3947  0.5723  1.7290
  680MPD2     N10065   2.456   4.611  14.253 -0.0570 -0.4824 -0.1980
  680MPD2    H510066   2.357   4.634  14.243  0.0684 -0.1890 -0.8188
  680MPD2    N110067   2.405   4.173  14.058 -0.4721 -0.0201  0.1058
  680MPD2    H710068   2.315   4.188  14.101 -0.6289 -2.0869  0.4649
  681TMC3    C110069   2.323   3.952  14.018 -0.0720 -0.2548 -0.7919
  681TMC3    C210070   2.247   3.956  14.136  0.9260 -0.4667  0.4988
  681TMC3    C310071   2.133   3.883  14.161  0.2587 -0.3364 -0.4250
  681TMC3    C410072   2.283   3.863  13.923  0.1303 -0.5963 -0.0159
  681TMC3    C510073   2.169   3.789  13.955  0.6169 -0.2540  0.6790
  681TMC3    C610074   2.096   3.793  14.070 -1.1107 -0.6802  0.0226
  681TMC3     C10075   2.433   4.046  14.001  0.1592 -0.3950  0.0277
  681TMC3     O10076   2.531   4.026  13.933  1.2323 -0.0533  0.1810
  681TMC3     H10077   2.296   4.015  14.212 -2.3529  1.2110  1.2740
  681TMC3    H110078   2.345   3.856  13.834 -1.3882  0.2896 -1.1453
  681TMC3    H210079   2.006   3.733  14.083 -0.8520 -1.1921 -0.5729
  681TMC3    C710080   2.111   3.707  13.849 -0.0568  0.4772  0.1875
  681TMC3    C810081   2.037   3.918  14.258 -0.4603 -0.7247 -0.0593
  681TMC3    O110082   2.030   3.626  13.889  0.3585  0.2581  0.1303
  681TMC3    O210083   1.934   3.850  14.257 -0.1570 -0.6362  0.2486
  682MPD2     C10084   4.059   1.010  10.601  0.1435  0.5024 -0.3944
  682MPD2    C110085   3.947   0.933  10.572  0.4822  0.2769  0.4115
  682MPD2    C210086   3.823   0.968  10.628 -0.1258 -0.3146 -0.5293
  682MPD2    C310087   3.815   1.078  10.718  0.9436 -0.5255  0.3478
  682MPD2    C410088   3.925   1.150  10.748 -0.0134  0.2611 -0.0265
  682MPD2    C510089   4.041   1.120  10.687 -0.3835  0.2277 -0.7223
  682MPD2     H10090   3.731   0.924  10.593 -0.2335  1.2454 -2.2556
  682MPD2    H110091   3.912   1.233  10.818 -1.4275 -2.1499  2.5816
  682MPD2    H210092   4.156   0.983  10.561 -0.3711  0.5351 -1.6669
  682MPD2    H310093   4.123   1.186  10.715  0.5599 -1.2226 -0.0913
  682MPD2     N10094   3.703   1.103  10.804 -0.4223  0.1817  0.4596
  682MPD2    H510095   3.713   1.172  10.877 -0.7535  0.9345 -0.2036
  682MPD2    N110096   3.945   0.822  10.484  0.3472  0.8104 -0.3446
  682MPD2    H710097   3.866   0.759  10.487 -0.6458  2.1272  1.1978
  683TMC3    C110098   3.424   0.971  11.082 -0.2271  0.3129  0.0344
  683TMC3    C210099   3.305   0.920  11.034  0.2608 -0.2231  0.2833
  683TMC3    C310100   3.269   0.962  10.912 -0.5211  0.2513  0.1480
  683TMC3    C410101   3.511   1.049  11.010  0.0242  0.6164 -0.7331
  683TMC3    C510102   3.470   1.084  10.884 -0.6027  0.5750 -0.2235
  683TMC3    C610103   3.347   1.050  10.845 -0.2629 -0.2040 -0.6918
  683TMC3     C10104   3.445   0.964  11.227  0.3252  0.2401 -0.2605
  683TMC3     O10105   3.520   1.045  11.273  0.6121  0.4869 -0.2825
  683TMC3     H10106   3.230   0.869  11.092 -0.9182  0.2434 -0.8322
  683TMC3    H110107   3.609   1.076  11.047  0.1593  0.9212 -1.3116
  683TMC3    H210108   3.332   1.067  10.739 -2.0240  2.1469 -0.0630
  683TMC3    C710109   3.576   1.052  10.785 -0.1549 -0.3309 -0.7687
  683TMC3    C810110   3.195   0.874  10.827  0.2145 -0.1085 -0.1822
  683TMC3    O110111   3.543   0.962  10.709  0.1262  0.3375 -0.1675
  683TMC3    O210112   3.125   0.913  10.732 -0.3475  0.2213  0.1571
  684MPD2     C10113   2.108   0.269  16.774 -0.8484 -0.2541 -0.5667
  684MPD2    C110114   2.063   0.311  16.652  0.2851 -0.6546  0.4838
  684MPD2    C210115   1.978   0.413  16.650 -0.2547  0.0846  0.4814
  684MPD2    C310116   1.959   0.502  16.757 -0.2590 -0.5234 -0.2435
  684MPD2    C410117   2.001   0.458  16.880  0.0739 -0.7667 -0.2693
  684MPD2    C510118   2.066   0.336  16.886 -0.1649  0.5473 -0.1878
  684MPD2     H10119   1.927   0.427  16.555  0.4336 -2.9548 -0.3273
  684MPD2    H110120   1.988   0.518  16.970 -2.0406 -2.3038  0.4555
  684MPD2    H210121   2.174   0.186  16.795 -1.3727 -1.2151 -2.7234
  684MPD2    H310122   2.116   0.322  16.981 -0.3815  2.7808  0.2498
  684MPD2     N10123   1.904   0.632  16.741  0.1599  0.5822 -0.1361
  684MPD2    H510124   1.929   0.698  16.815  1.4214  0.2749 -0.2820
  684MPD2    N110125   2.101   0.248  16.531  0.0522  0.9085 -0.4783
  684MPD2    H710126   2.072   0.293  16.446  0.4191  2.6403  0.3117
  685TMC3    C110127   2.257   0.152  16.379  0.2598  0.0278 -0.1103
  685TMC3    C210128   2.202   0.202  16.267 -0.9811 -0.1214  0.2023
  685TMC3    C310129   2.279   0.235  16.157 -0.2986 -0.6514 -0.5244
  685TMC3    C410130   2.395   0.150  16.382  0.3338 -0.1490 -0.6113
  685TMC3    C510131   2.472   0.181  16.272  0.0980 -1.1195  0.3760
  685TMC3    C610132   2.415   0.221  16.160 -0.6412 -0.1914  0.5766
  685TMC3     C10133   2.190   0.150  16.516  0.0339  0.1779 -0.2853
  685TMC3     O10134   2.251   0.091  16.604  0.2109  0.4178  0.2044
  685TMC3     H10135   2.094   0.208  16.265 -0.6409  6.3392  1.3759
  685TMC3    H110136   2.440   0.121  16.476  0.4103 -0.3861 -0.7220
  685TMC3    H210137   2.483   0.261  16.085 -1.0671  0.3226  0.4682
  685TMC3    C710138   2.614   0.135  16.286 -0.0303 -0.1110  0.4079
  685TMC3    C810139   2.213   0.254  16.030 -0.5089  0.9120  0.3797
  685TMC3    O110140   2.650   0.103  16.401  0.1411  0.4531  0.4617
  685TMC3    O210141   2.285   0.266  15.936 -0.1225  0.1584 -0.7628
  686MPD2     C10142   3.328   4.566  15.391 -0.0151  0.4458 -0.4644
  686MPD2    C110143   3.318   4.494  15.508  0.2887 -0.2769  0.0226
  686MPD2    C210144   3.308   4.354  15.499 -0.7368 -0.0762 -0.0488
  686MPD2    C310145   3.296   4.297  15.373  0.0633 -0.2748 -0.2974
  686MPD2    C410146   3.303   4.370  15.260 -0.3695  0.2199 -0.7936
  686MPD2    C510147   3.316   4.504  15.265  0.2299  0.0263  0.1883
  686MPD2     H10148   3.303   4.302  15.594 -1.4148  1.7888  0.9261
  686MPD2    H110149   3.313   4.323  15.162 -0.3855 -1.4253 -0.0133
  686MPD2    H210150   3.342   4.673  15.388 -1.4937  0.6792  0.7724
  686MPD2    H310151   3.333   4.563  15.176  2.3089 -0.3723  0.3235
  686MPD2     N10152   3.270   4.157  15.354 -0.0133  0.8638 -0.6592
  686MPD2    H510153   3.252   4.136  15.257  1.6941  0.2903 -0.8507
  686MPD2    N110154   3.335   4.565  15.632  0.1904 -0.0121  0.4855
  686MPD2    H710155   3.358   4.664  15.633 -1.6038  0.3951  0.5944
  687TMC3    C110156   3.254   4.072  15.583  0.1631  0.2237  0.0543
  687TMC3    C210157   3.137   4.063  15.655 -0.0991  0.4637 -0.2957
  687TMC3    C310158   3.146   4.034  15.793 -0.1555 -0.5310  0.8774
  687TMC3    C410159   3.377   4.050  15.649 -0.1600  0.3290 -0.6690
  687TMC3    C510160   3.378   4.015  15.779  0.6887 -0.2754 -0.1331
  687TMC3    C610161   3.267   4.006  15.851  0.1738 -0.6642 -0.4898
  687TMC3     C10162   3.249   4.044  15.442 -0.1313 -0.9448 -0.2700
  687TMC3     O10163   3.200   3.937  15.415  0.6262 -0.2778  0.3720
  687TMC3     H10164   3.044   4.053  15.601 -0.5118  0.5348  0.4152
  687TMC3    H110165   3.462   4.055  15.583 -0.7077  3.3021 -1.1174
  687TMC3    H210166   3.275   3.999  15.959  0.1328 -2.7691 -0.6392
  687TMC3    C710167   3.508   4.000  15.840  0.1074 -0.5711  0.5941
  687TMC3    C810168   3.062   4.114  15.876 -0.3697  0.4661  0.2129
  687TMC3    O110169   3.609   4.052  15.788  0.3132 -0.1859 -0.7315
  687TMC3    O210170   3.051   4.090  15.993  0.2156  0.9609  0.0506
  688MPD2     C10171   2.601   3.630  17.375 -0.0774  0.6372 -0.1447
  688MPD2    C110172   2.642   3.501  17.409 -0.5463 -0.1053 -0.4721
  688MPD2    C210173   2.732   3.442  17.322  0.0407  0.0638  0.1122
  688MPD2    C310174   2.785   3.503  17.212  0.2546  0.4045  0.1133
  688MPD2    C410175   2.749   3.633  17.188  0.2490  0.7010 -0.1100
  688MPD2    C510176   2.656   3.692  17.268  0.0081  0.1703  0.3505
  688MPD2     H10177   2.762   3.345  17.358  0.1846  0.0977  0.0842
  688MPD2    H110178   2.790   3.686  17.103 -2.3104  0.9458 -1.2022
  688MPD2    H210179   2.532   3.691  17.433 -3.0385 -0.9886 -1.9456
  688MPD2    H310180   2.621   3.793  17.248  1.4286  0.9620  1.8741
  688MPD2     N10181   2.868   3.434  17.121  0.3373  0.1140 -0.2989
  688MPD2    H510182   2.893   3.488  17.038 -1.2404 -0.5657 -1.2122
  688MPD2    N110183   2.607   3.434  17.524 -0.4812 -0.0494  0.7515
  688MPD2    H710184   2.637   3.337  17.533  2.8867  1.0066  1.0761
  689TMC3    C110185   2.547   3.415   0.064 -0.0875  0.7638 -0.3527
  689TMC3    C210186   2.579   3.480   0.177  0.0021 -0.6904 -0.0148
  689TMC3    C310187   2.497   3.449   0.287 -0.3303 -0.4306 -0.6982
  689TMC3    C410188   2.464   3.310   0.055 -0.3433 -0.2434 -0.4652
  689TMC3    C510189   2.388   3.283   0.167  0.7482  0.5431  0.2435
  689TMC3    C610190   2.400   3.354   0.283 -0.6128  0.0782 -0.7053
  689TMC3     C10191   2.562   3.499  17.639 -0.2154 -0.3637  0.5834
  689TMC3     O10192   2.533   3.618  17.661 -0.2021  0.3783  0.4382
  689TMC3     H10193   2.657   3.553   0.194 -0.6061  0.2610 -1.3464
  689TMC3    H110194   2.441   3.274  17.649  2.9650 -2.6198 -0.3649
  689TMC3    H210195   2.333   3.331   0.366  2.0693  1.2071  1.7577
  689TMC3    C710196   2.345   3.140   0.188  0.4641 -0.2926 -0.5597
  689TMC3    C810197   2.462   3.565   0.361 -0.4764 -0.3152 -0.2431
  689TMC3    O110198   2.336   3.104   0.302  0.2160  0.5831 -0.7572
  689TMC3    O210199   2.426   3.572   0.483 -0.2909 -0.2162  0.0029
  690MPD2     C10200   4.189   0.705  15.685 -0.8690  0.2628 -0.3127
  690MPD2    C110201   4.264   0.599  15.724  0.3577  0.6967 -0.0880
  690MPD2    C210202   4.382   0.576  15.658  0.0946 -0.0461  0.4467
  690MPD2    C310203   4.420   0.663  15.557 -0.4791 -0.0004  0.5603
  690MPD2    C410204   4.338   0.765  15.512  0.7637 -0.7305  0.4102
  690MPD2    C510205   4.224   0.788  15.581  0.2153  0.2029 -0.3085
  690MPD2     H10206   4.441   0.490  15.687 -1.1206 -1.2424 -0.6805
  690MPD2    H110207   4.355   0.832  15.429 -1.4719 -1.7119 -0.8378
  690MPD2    H210208   4.095   0.730  15.733 -1.8953 -2.9181 -0.6637
  690MPD2    H310209   4.145   0.856  15.553  0.9225  1.9402  1.9557
  690MPD2     N10210   4.540   0.649  15.479 -0.1041  0.2834 -0.3999
  690MPD2    H510211   4.554   0.722  15.409 -0.1401  1.3652  0.7157
  690MPD2    N110212   4.215   0.502  15.813 -0.5409 -0.8288 -0.1198
  690MPD2    H710213   4.253   0.408  15.811 -1.2920 -1.1338 -0.1430
  691TMC3    C110214   4.059   0.408  15.961  0.4150 -0.4472  0.2110
  691TMC3    C210215   3.929   0.403  15.999 -0.8467 -0.3839 -0.4534
  691TMC3    C310216   3.888   0.282  16.049 -0.5030  0.7210 -0.0038
  691TMC3    C410217   4.140   0.298  15.968 -0.0748  0.0033 -0.4470
  691TMC3    C510218   4.092   0.178  16.015  1.1806 -0.3335 -0.6111
  691TMC3    C610219   3.960   0.165  16.053 -0.0609  0.4438 -0.0772
  691TMC3     C10220   4.102   0.529  15.895 -0.1169 -0.8320 -0.1796
  691TMC3     O10221   4.022   0.621  15.906 -0.6422  0.1689 -0.2138
  691TMC3     H10222   3.879   0.496  16.021 -1.3095 -0.8057  0.2705
  691TMC3    H110223   4.245   0.300  15.944 -0.2064  1.2532 -0.9244
  691TMC3    H210224   3.918   0.077  16.101  1.1641  0.6202  1.3231
  691TMC3    C710225   4.178   0.067  16.006 -0.2247  0.5676  0.0553
  691TMC3    C810226   3.751   0.262  16.088 -0.3937 -0.5536 -0.0132
  691TMC3    O110227   4.296   0.077  16.033 -0.2481  0.5704 -0.1242
  691TMC3    O210228   3.715   0.162  16.143 -0.1810  0.2041 -0.1502
  692TMC3    C110229   1.412   1.344  15.700 -1.2511 -0.0638  0.0458
  692TMC3    C210230   1.549   1.372  15.734  0.2066  0.0352  0.2829
  692TMC3    C310231   1.636   1.270  15.718 -0.2441 -0.1962 -0.0408
  692TMC3    C410232   1.367   1.213  15.683  0.2822 -0.3625 -0.0323
  692TMC3    C510233   1.465   1.116  15.668  0.3872 -0.4836 -0.9185
  692TMC3    C610234   1.592   1.143  15.690  0.3445 -0.2846 -0.2922
  692TMC3     C10235   1.324   1.450  15.721  0.5792  0.0502 -0.0205
  692TMC3     O10236   1.217   1.422  15.777  0.1932  0.2948 -0.0960
  692TMC3     H10237   1.581   1.475  15.726  0.4940 -0.0340  0.5548
  692TMC3    H110238   1.263   1.185  15.677  0.2812 -0.3038 -0.2874
  692TMC3    H210239   1.664   1.064  15.674  0.7440 -0.5909  3.0432
  692TMC3    C710240   1.421   0.999  15.746 -1.1222 -0.0848 -0.0097
  692TMC3    C810241   1.707   1.263  15.845 -0.3955  0.5709  0.3780
  692TMC3    O110242   1.308   0.960  15.755  0.0144 -0.2612  0.2703
  692TMC3    O210243   1.758   1.153  15.856 -0.0849  0.0490  0.0600
  693MPD2     C10244   0.505   4.677  10.549  0.2085 -0.2764 -0.0890
  693MPD2    C110245   0.527   4.537  10.540  0.0592 -0.0233  0.4817
  693MPD2    C210246   0.658   4.484  10.528  0.7182 -0.7750  0.0635
  693MPD2    C310247   0.763   4.579  10.520  0.4580  0.1569  0.3615
  693MPD2    C410248   0.743   4.715  10.511 -0.3618  0.1406  0.1845
  693MPD2    C510249   0.615   0.037  10.521  0.4307 -0.3709  0.4587
  693MPD2     H10250   0.680   4.380  10.511  1.6515 -0.7548  1.1154
  693MPD2    H110251   0.821   0.065  10.491  1.8501 -2.0586  0.8615
  693MPD2    H210252   0.409   0.004  10.544 -0.8529 -2.1696  1.2845
  693MPD2    H310253   0.608   0.145  10.530  2.5558 -0.0850 -1.1031
  693MPD2     N10254   0.900   4.535  10.531  0.6490 -0.4757 -0.1994
  693MPD2    H510255   0.977   4.600  10.521 -0.2242  0.7694  1.2417
  693MPD2    N110256   0.413   4.452  10.554  0.0319 -0.4635  0.7268
  693MPD2    H710257   0.323   4.497  10.571  1.4723  2.4700  0.5251
  694TMC3    C110258   0.313   4.252  10.637  0.3740  0.3078 -0.5190
  694TMC3    C210259   0.291   4.121  10.605  0.5664 -0.3364 -0.6513
  694TMC3    C310260   0.240   4.047  10.707  0.1912 -0.5540  0.5804
  694TMC3    C410261   0.289   4.307  10.759 -0.3243  0.0816  0.0030
  694TMC3    C510262   0.246   4.229  10.857 -0.0940 -0.6251  0.0398
  694TMC3    C610263   0.230   4.093  10.830 -0.2965  0.3957 -0.1596
  694TMC3     C10264   0.417   4.313  10.560  0.4810 -0.5969 -0.1686
  694TMC3     O10265   0.509   4.238  10.530 -0.3944 -0.8091  0.2499
  694TMC3     H10266   0.322   4.086  10.508 -2.3059 -0.5089 -1.5022
  694TMC3    H110267   0.320   4.408  10.782 -4.0469  1.0538  0.5972
  694TMC3    H210268   0.193   4.027  10.907  3.9442  1.2291  2.5978
  694TMC3    C710269   0.224   4.303  10.977 -0.1121 -0.0444  0.3509
  694TMC3    C810270   0.180   3.915  10.676  0.0399  0.3420 -0.0286
  694TMC3    O110271   0.281   4.408  10.991  0.1189 -0.5824  0.8773
  694TMC3    O210272   0.100   3.864  10.756 -0.6774 -0.3742  0.5545
  695MPD2     C10273   2.300   1.496  13.371  0.0844 -0.9339 -0.1174
  695MPD2    C110274   2.230   1.448  13.476 -0.4757 -0.0455 -0.1054
  695MPD2    C210275   2.094   1.434  13.463  0.8073 -0.1184  0.3424
  695MPD2    C310276   2.026   1.485  13.351  0.1203  0.3417  0.4830
  695MPD2    C410277   2.099   1.536  13.248 -0.5389  0.4361 -0.7865
  695MPD2    C510278   2.233   1.547  13.265 -0.4245  0.2214  0.0214
  695MPD2     H10279   2.038   1.395  13.547  2.2692 -0.9302  0.9330
  695MPD2    H110280   2.053   1.587  13.164  0.1014  0.8551 -0.8828
  695MPD2    H210281   2.408   1.488  13.379  0.2676 -0.7875 -2.6220
  695MPD2    H310282   2.298   1.589  13.189 -1.7559  0.0762 -1.1948
  695MPD2     N10283   1.883   1.499  13.358 -0.1266  0.2878 -0.2763
  695MPD2    H510284   1.839   1.447  13.434  0.2868 -0.1600 -0.3436
  695MPD2    N110285   2.287   1.405  13.601  0.1991  0.0126 -0.6400
  695MPD2    H710286   2.224   1.355  13.664  0.2605  1.1751  0.3334
  696TMC3    C110287   1.672   1.601  13.306 -0.4361 -0.0193 -0.6292
  696TMC3    C210288   1.631   1.524  13.406 -0.8553  0.5478 -0.1191
  696TMC3    C310289   1.528   1.576  13.483 -0.5357  0.4944  0.9288
  696TMC3    C410290   1.612   1.715  13.263  0.3508 -0.0369 -0.7238
  696TMC3    C510291   1.512   1.765  13.339  0.7146 -0.6773  0.4032
  696TMC3    C610292   1.477   1.699  13.451  0.1212 -0.2913 -0.9446
  696TMC3     C10293   1.810   1.580  13.268 -0.4312  0.7844  0.0493
  696TMC3     O10294   1.847   1.647  13.174 -0.6056  0.3564 -0.1617
  696TMC3     H10295   1.671   1.425  13.426 -2.8243 -0.7798 -2.5872
  696TMC3    H110296   1.656   1.771  13.181  0.7960 -0.6103 -0.8773
  696TMC3    H210297   1.392   1.740  13.505  2.5670  2.7075  0.6169
  696TMC3    C710298   1.489   1.911  13.325  0.4996  0.7481  0.3250
  696TMC3    C810299   1.515   1.535  13.622 -1.0031  0.9270 -0.4487
  696TMC3    O110300   1.513   1.944  13.213 -0.1944 -0.6993  0.2797
  696TMC3    O210301   1.465   1.622  13.696  0.1898 -0.1027  0.2297
  697MPD2     C10302   1.807   3.065  15.411 -0.7890 -0.1827 -0.3206
  697MPD2    C110303   1.680   3.064  15.369  0.5174  0.7848 -0.3150
  697MPD2    C210304   1.634   3.162  15.283  0.1618 -0.4858 -0.1169
  697MPD2    C310305   1.704   3.278  15.261 -0.1260 -0.5932  0.5019
  697MPD2    C410306   1.833   3.278  15.303 -0.3667 -0.5960 -0.2813
  697MPD2    C510307   1.883   3.169  15.376  0.8295  0.2410 -0.0567
  697MPD2     H10308   1.532   3.153  15.247 -0.4078 -1.0295  1.6759
  697MPD2    H110309   1.899   3.357  15.271 -0.2007 -0.9843 -0.8865
  697MPD2    H210310   1.850   2.981  15.465  0.0482 -0.4251 -1.3647
  697MPD2    H310311   1.986   3.163  15.410  0.4219 -0.0131  1.1083
  697MPD2     N10312   1.654   3.368  15.169  0.2082 -1.0318  0.2318
  697MPD2    H510313   1.556   3.352  15.145  0.2573 -0.6931 -0.1952
  697MPD2    N110314   1.586   2.953  15.390 -0.0896  0.3856 -0.1759
  697MPD2    H710315   1.504   2.963  15.332 -2.0082  1.7482  2.7650
  698TMC3    C110316   1.638   3.534  15.002  0.0987  0.1429  0.3263
  698TMC3    C210317   1.635   3.670  14.988  0.3173 -0.5183 -0.0217
  698TMC3    C310318   1.548   3.724  14.897 -0.3060  0.0137 -0.0233
  698TMC3    C410319   1.554   3.455  14.929 -0.5308  0.1131  0.0388
  698TMC3    C510320   1.478   3.512  14.831 -0.1038 -0.0382 -0.5257
  698TMC3    C610321   1.470   3.649  14.820 -0.2990 -0.0678  0.0847
  698TMC3     C10322   1.717   3.473  15.106 -0.1521  0.3980 -0.0602
  698TMC3     O10323   1.832   3.513  15.121 -0.3321  0.3295 -0.1709
  698TMC3     H10324   1.712   3.730  15.035  0.0744  0.1033 -0.4250
  698TMC3    H110325   1.563   3.349  14.950  0.0650 -0.5862 -3.7118
  698TMC3    H210326   1.397   3.694  14.755  1.8342  1.5684 -1.1738
  698TMC3    C710327   1.404   3.431  14.737  0.1179  0.3107 -0.2125
  698TMC3    C810328   1.549   3.864  14.875  0.1523  0.0317  0.6792
  698TMC3    O110329   1.319   3.489  14.671 -0.1748 -0.3332  0.3496
  698TMC3    O210330   1.509   3.891  14.762  0.6339 -0.1203  0.0412
  699TMC3    C110331   1.381   1.813  12.849 -0.1748 -0.7147  0.0558
  699TMC3    C210332   1.402   1.679  12.875  0.1259 -0.0254 -0.0541
  699TMC3    C310333   1.325   1.626  12.967 -0.7310 -0.3084 -0.5128
  699TMC3    C410334   1.288   1.888  12.918 -0.8358 -0.1170  0.8564
  699TMC3    C510335   1.207   1.831  13.010  0.4678  0.1203 -0.5274
  699TMC3    C610336   1.228   1.701  13.032 -0.0180 -0.4766  0.1571
  699TMC3     C10337   1.471   1.875  12.750  0.2603  0.0934  0.6649
  699TMC3     O10338   1.433   1.982  12.705  0.2952  0.0196  0.3717
  699TMC3     H10339   1.482   1.623  12.827 -0.3437 -0.0713 -0.7833
  699TMC3    H110340   1.274   1.989  12.882  0.0675  0.1119  1.1540
  699TMC3    H210341   1.176   1.657  13.117 -0.1260  0.3692  0.5223
  699TMC3    C710342   1.112   1.905  13.091 -0.6023 -0.4880  1.2358
  699TMC3    C810343   1.352   1.500  13.016  0.0523 -0.9193  0.9206
  699TMC3    O110344   1.054   1.839  13.173 -0.0149  0.4475  0.4979
  699TMC3    O210345   1.251   1.448  13.066  0.1363  0.3136 -0.1668
  700TMC3    C110346   0.638   3.879  17.013  0.5020 -0.1930  0.6976
  700TMC3    C210347   0.719   3.773  16.996  0.3819  0.1529  0.2460
  700TMC3    C310348   0.842   3.771  17.057 -0.2326  0.5863  0.4007
  700TMC3    C410349   0.664   3.971  17.105  1.0628 -1.2479 -0.4298
  700TMC3    C510350   0.784   3.962  17.173 -0.1035 -0.1294 -0.2524
  700TMC3    C610351   0.878   3.866  17.145  0.3485  0.1736  0.1931
  700TMC3     C10352   0.569   3.928  16.903  0.1403  0.9538  0.3523
  700TMC3     O10353   0.523   3.851  16.825 -0.1136 -0.2557 -0.6785
  700TMC3     H10354   0.702   3.715  16.906 -0.8357  0.0673  0.5290
  700TMC3    H110355   0.593   4.052  17.113 -1.0773 -3.2083  0.4089
  700TMC3    H210356   0.958   3.861  17.217 -0.7617 -1.1925  1.3475
  700TMC3    C710357   0.843   4.079  17.234 -0.7621  0.6778  0.5363
  700TMC3    C810358   0.928   3.663  17.009 -0.6164 -0.0978 -0.0272
  700TMC3    O110359   0.961   4.094  17.229  0.6005 -0.4642 -0.6900
  700TMC3    O210360   0.891   3.564  16.950  0.6123 -0.1968 -0.2205
  701TMC3    C110361   0.432   2.735  15.397  0.2861 -0.8376  0.0721
  701TMC3    C210362   0.365   2.728  15.278  0.0501 -0.0822  0.1259
  701TMC3    C310363   0.375   2.834  15.189  0.4552 -0.2351  0.2034
  701TMC3    C410364   0.509   2.840  15.436 -0.2088 -0.2253  0.1434
  701TMC3    C510365   0.518   2.939  15.349  0.1834  0.5706 -0.3194
  701TMC3    C610366   0.459   2.939  15.223  0.0823  0.6073 -0.0535
  701TMC3     C10367   0.432   2.613  15.484  0.1701 -0.2529  0.4588
  701TMC3     O10368   0.429   2.629  15.605 -0.0434  0.0235  0.5354
  701TMC3     H10369   0.295   2.647  15.261  0.1011 -0.1155  0.0737
  701TMC3    H110370   0.559   2.835  15.532 -0.4528  3.2498  0.4358
  701TMC3    H210371   0.465   3.020  15.151 -0.9655 -1.2870 -2.2665
  701TMC3    C710372   0.585   3.061  15.380 -0.2949 -0.2290 -0.1110
  701TMC3    C810373   0.271   2.861  15.095 -0.4086 -0.3809 -0.2466
  701TMC3    O110374   0.626   3.126  15.282  0.5560  0.4993  0.6189
  701TMC3    O210375   0.267   2.978  15.048 -0.6960  0.4554  0.1110
  702MPD2     C10376   0.129   0.198  10.079 -0.7532  0.0164 -0.6155
  702MPD2    C110377   0.057   0.302  10.146  0.2005 -0.2907 -0.8871
  702MPD2    C210378   0.070   0.432  10.094 -0.6030 -0.5034 -0.0113
  702MPD2    C310379   0.155   0.467   9.988  0.2742 -0.2265 -0.2246
  702MPD2    C410380   0.226   0.366   9.928 -0.3489 -0.2330  0.4829
  702MPD2    C510381   0.203   0.233   9.968  0.4289 -1.1500 -0.0594
  702MPD2     H10382   0.015   0.510  10.147 -2.4635 -0.4028 -2.0538
  702MPD2    H110383   0.282   0.389   9.838 -0.7894 -3.2111 -0.5483
  702MPD2    H210384   0.113   0.091  10.089 -0.1067  0.1664  1.9227
  702MPD2    H310385   0.253   0.155   9.913  0.3996 -1.5658  0.5093
  702MPD2     N10386   0.171   0.601   9.949 -0.2579 -0.1575  0.4794
  702MPD2    H510387   0.245   0.624   9.883 -0.6371 -0.4640 -0.0576
  702MPD2    N110388   4.704   0.279  10.263  0.2872 -0.3597  0.4699
  702MPD2    H710389   4.647   0.355  10.299 -0.3187 -1.0142  0.8766
  703TMC3    C110390   0.090   0.828   9.954 -0.4944 -0.4073  0.1197
  703TMC3    C210391   0.010   0.911  10.030  0.9427 -0.0460  0.9474
  703TMC3    C310392   0.033   1.044  10.027  0.1226  0.1551  0.4340
  703TMC3    C410393   0.208   0.866   9.897 -0.3348  0.5241  0.2533
  703TMC3    C510394   0.233   0.998   9.911 -0.5577 -0.2301 -0.2051
  703TMC3    C610395   0.151   1.084   9.977 -0.1657 -0.2443 -0.0470
  703TMC3     C10396   0.065   0.692   9.981  0.5440  0.3075 -0.1282
  703TMC3     O10397   4.675   0.663  10.019 -0.0713  0.6826 -0.4535
  703TMC3     H10398   4.639   0.875  10.069  0.1906  0.5025 -0.3839
  703TMC3    H110399   0.275   0.801   9.841 -0.4769  0.0248  0.6634
  703TMC3    H210400   0.185   1.181  10.013  0.9522 -0.7881  0.3370
  703TMC3    C710401   0.349   1.050   9.829  0.6532 -0.0321  0.2056
  703TMC3    C810402   4.710   1.122  10.137  0.1073 -0.0571 -0.1987
  703TMC3    O110403   0.436   0.971   9.802  0.0991 -0.3311 -0.1831
  703TMC3    O210404   4.699   1.245  10.128 -0.3821 -0.3481  0.2751
  704TMC3    C110405   2.111   3.353  12.345 -0.5323  0.2554 -0.8222
  704TMC3    C210406   2.233   3.387  12.306  0.5256 -0.1243  0.0568
  704TMC3    C310407   2.334   3.384  12.396  0.4207  0.3208 -0.0986
  704TMC3    C410408   2.079   3.326  12.477  0.1775  0.2972 -0.4619
  704TMC3    C510409   2.181   3.327  12.568  0.2218 -0.3062 -0.2921
  704TMC3    C610410   2.306   3.365  12.529  0.8407 -0.5005  0.0105
  704TMC3     C10411   2.016   3.308  12.243  0.5194 -0.6623 -0.3228
  704TMC3     O10412   1.906   3.356  12.260 -0.7158 -0.2422 -0.1797
  704TMC3     H10413   2.260   3.407  12.202  1.3379  0.4319  0.3707
  704TMC3    H110414   1.978   3.290  12.496 -0.7368  1.4479 -3.1076
  704TMC3    H210415   2.388   3.353  12.599  1.3154 -0.7742 -0.6023
  704TMC3    C710416   2.192   3.215  12.669  0.1790 -0.3175 -0.2267
  704TMC3    C810417   2.467   3.364  12.353 -0.4854 -0.2209  0.3302
  704TMC3    O110418   2.301   3.166  12.689 -0.0087 -0.8828 -0.2870
  704TMC3    O210419   2.476   3.315  12.240  0.1445  0.5040  0.1323
  705MPD2     C10420   1.736   1.303  16.731 -0.0436 -0.1000 -0.3567
  705MPD2    C110421   1.740   1.405  16.637  0.4141 -0.4434  0.2639
  705MPD2    C210422   1.644   1.506  16.646 -0.5329  0.8531  0.0482
  705MPD2    C310423   1.558   1.508  16.750 -0.5441 -0.2523  0.1626
  705MPD2    C410424   1.552   1.408  16.845  0.1519  0.4773 -0.8042
  705MPD2    C510425   1.643   1.301  16.829  0.0027 -0.3109 -0.3356
  705MPD2     H10426   1.652   1.591  16.579 -1.1260 -0.2300 -1.3994
  705MPD2    H110427   1.482   1.402  16.928  1.6218  0.9385  0.4737
  705MPD2    H210428   1.806   1.220  16.731 -1.9233 -1.6847  0.1768
  705MPD2    H310429   1.655   1.236  16.914 -2.8539 -2.7012 -1.7368
  705MPD2     N10430   1.456   1.606  16.766 -0.0421  0.1395 -0.0265
  705MPD2    H510431   1.388   1.584  16.838  2.2072  1.1861  2.4057
  705MPD2    N110432   1.825   1.416  16.527 -0.5445 -0.0360  0.3865
  705MPD2    H710433   1.805   1.501  16.476 -2.7003 -0.8468 -0.1102
  706TMC3    C110434   2.053   1.249  16.163 -0.0914 -0.6409  0.2097
  706TMC3    C210435   2.035   1.360  16.089  0.3795 -0.4845 -0.4770
  706TMC3    C310436   1.972   1.463  16.152 -0.1816  0.4861  0.2207
  706TMC3    C410437   2.024   1.244  16.297 -0.4168  0.0817 -0.4971
  706TMC3    C510438   1.958   1.349  16.348  0.2398 -0.0235  0.4276
  706TMC3    C610439   1.916   1.453  16.271  0.7920  0.3325 -0.1453
  706TMC3     C10440   2.156   1.155  16.122  0.3622 -0.1273 -0.7148
  706TMC3     O10441   2.214   1.087  16.207 -0.0928 -0.0703  0.0935
  706TMC3     H10442   2.063   1.374  15.985  1.0686 -2.1871 -0.5184
  706TMC3    H110443   2.063   1.164  16.359  3.4489  2.2929 -0.0835
  706TMC3    H210444   1.861   1.540  16.306  1.2841  0.7364 -0.3926
  706TMC3    C710445   1.899   1.311  16.475  0.3785  0.1158  0.4768
  706TMC3    C810446   1.956   1.586  16.079  0.2920  0.0567  0.2554
  706TMC3    O110447   1.924   1.201  16.526 -0.6009 -0.4648  0.5013
  706TMC3    O210448   1.949   1.590  15.957 -1.0116 -0.4409 -0.2661
  707TMC3    C110449   3.901   1.332   1.069 -0.3976  0.6765  0.0673
  707TMC3    C210450   3.972   1.325   1.186  0.8617 -0.0207 -0.5353
  707TMC3    C310451   3.905   1.358   1.301  0.0792 -0.3783 -0.0165
  707TMC3    C410452   3.769   1.358   1.056 -0.1483  0.3241 -0.2487
  707TMC3    C510453   3.705   1.396   1.175 -0.2978  0.4049  0.3452
  707TMC3    C610454   3.774   1.389   1.292  0.2965  0.0326  0.2042
  707TMC3     C10455   3.974   1.328   0.942  0.4221 -0.2015 -0.7114
  707TMC3     O10456   4.081   1.382   0.947  0.1382  0.1509  0.3696
  707TMC3     H10457   4.080   1.321   1.198  1.0382  0.9738 -1.7868
  707TMC3    H110458   3.714   1.377   0.964  1.2442 -0.0146 -1.1422
  707TMC3    H210459   3.722   1.411   1.385 -1.7249  0.5264 -1.0392
  707TMC3    C710460   3.555   1.379   1.167  0.8315  0.0727 -0.2302
  707TMC3    C810461   3.975   1.364   1.431  0.5950 -0.7697  0.1341
  707TMC3    O110462   3.520   1.300   1.081  0.1042  0.2607  0.3555
  707TMC3    O210463   3.924   1.443   1.504  0.0237 -0.5451  0.5698
  708MPD2     C10464   0.695   4.482  13.367  0.2265 -0.0208 -0.0407
  708MPD2    C110465   0.659   4.595  13.437 -0.0133  0.2911  0.2609
  708MPD2    C210466   0.544   4.587  13.520  0.7117 -1.0717 -0.3412
  708MPD2    C310467   0.466   4.473  13.513 -0.1215  0.4925  0.2396
  708MPD2    C410468   0.506   4.361  13.451 -0.0245  0.3729  0.2257
  708MPD2    C510469   0.628   4.366  13.385 -0.2060  1.1486 -0.3063
  708MPD2     H10470   0.522   4.659  13.599  0.7296  1.9299 -3.0845
  708MPD2    H110471   0.454   4.266  13.460  0.1506  0.3480  0.9544
  708MPD2    H210472   0.795   4.469  13.329  0.2966 -1.1255  0.5148
  708MPD2    H310473   0.671   4.274  13.346 -0.1394  1.2117 -0.3804
  708MPD2     N10474   0.338   4.465  13.583 -0.1018 -0.1325 -0.1521
  708MPD2    H510475   0.297   4.374  13.598  0.6255  0.1196  3.4570
  708MPD2    N110476   0.738   4.705  13.429 -1.0108 -0.1797  0.4264
  708MPD2    H710477   0.799   4.719  13.350  0.5315 -1.3027  1.4038
  709TMC3    C110478   0.752   0.223  13.467  0.0741 -0.4324  0.5289
  709TMC3    C210479   0.782   0.245  13.334  0.4731 -0.5603  0.0941
  709TMC3    C310480   0.719   0.352  13.273  0.4749 -0.2921 -0.0473
  709TMC3    C410481   0.676   0.315  13.532  0.0657 -0.0839 -0.2131
  709TMC3    C510482   0.610   0.414  13.463 -0.5629 -0.9785 -0.6307
  709TMC3    C610483   0.629   0.431  13.330  0.2505  0.0736  0.4318
  709TMC3     C10484   0.723   0.090  13.513  0.4767  0.0517  0.5168
  709TMC3     O10485   0.687   0.080  13.629 -0.0791  0.4110 -0.0938
  709TMC3     H10486   0.853   0.188  13.276  0.0849  0.7459 -1.6837
  709TMC3    H110487   0.656   0.305  13.638  0.2781  1.9182  0.0212
  709TMC3    H210488   0.568   0.507  13.281 -0.4774  0.2622  1.6285
  709TMC3    C710489   0.473   0.410  13.502  0.5618 -0.4086 -0.6052
  709TMC3    C810490   0.762   0.358  13.133 -0.6987 -0.5971 -0.2650
  709TMC3    O110491   0.390   0.373  13.416  0.5390  0.5213  0.4108
  709TMC3    O210492   0.883   0.343  13.115  0.2218 -0.3099  0.0880
  710TMC3    C110493   1.107   1.734   0.377 -0.5527 -0.0254 -0.4306
  710TMC3    C210494   1.199   1.716   0.283 -0.2084 -0.3787  0.3926
  710TMC3    C310495   1.320   1.668   0.320  0.0992  0.5620  0.3863
  710TMC3    C410496   1.142   1.745   0.510 -0.1537 -0.4576 -0.1369
  710TMC3    C510497   1.267   1.706   0.552  0.4938 -0.3326  0.1411
  710TMC3    C610498   1.359   1.665   0.451 -0.2775 -0.5708  0.1988
  710TMC3     C10499   0.998   1.829   0.337  0.5724 -0.7382  0.1282
  710TMC3     O10500   0.962   1.839   0.215 -0.2615  0.3886  1.0626
  710TMC3     H10501   1.172   1.715   0.178  3.7029 -1.2530 -0.6099
  710TMC3    H110502   1.067   1.761   0.586  0.3072 -0.9203  0.4237
  710TMC3    H210503   1.464   1.659   0.474 -0.0680 -0.3844 -0.7217
  710TMC3    C710504   1.284   1.691   0.693  0.1921  0.0230  0.2598
  710TMC3    C810505   1.403   1.609   0.218  0.2012 -0.8588 -0.2258
  710TMC3    O110506   1.192   1.717   0.774 -0.1268 -0.0251  0.4596
  710TMC3    O210507   1.384   1.645   0.101  0.4551 -0.0874 -0.3147
  711TMC3    C110508   0.969   2.259  14.722 -0.1930  0.0891  1.3477
  711TMC3    C210509   1.018   2.345  14.817  0.0057 -0.3370  0.1576
  711TMC3    C310510   1.142   2.354  14.855  0.0598  0.9703  0.0204
  711TMC3    C410511   1.055   2.160  14.674  0.4395  0.2085 -0.8248
  711TMC3    C510512   1.185   2.165  14.718  0.6941 -0.0530  0.4361
  711TMC3    C610513   1.233   2.275  14.791  0.2656 -0.1410  0.0212
  711TMC3     C10514   0.846   2.207  14.755  0.7501  0.1315 -0.4556
  711TMC3     O10515   0.767   2.190  14.664 -0.2946  0.9519  0.2437
  711TMC3     H10516   0.948   2.417  14.858 -0.1563  0.0822 -0.8348
  711TMC3    H110517   1.010   2.087  14.609  1.0840 -1.4113  0.5381
  711TMC3    H210518   1.342   2.282  14.794  0.2273  0.3723  0.3044
  711TMC3    C710519   1.253   2.041  14.749  0.2997  0.1263 -0.4453
  711TMC3    C810520   1.151   2.353  15.000  0.1270  0.3733  0.6571
  711TMC3    O110521   1.347   2.035  14.826  0.1778 -0.4609  0.6535
  711TMC3    O210522   1.048   2.369  15.061 -0.3155 -0.4229  0.3290
  712MPD2     C10523   2.947   3.479  13.571  0.3636 -0.0834  0.0452
  712MPD2    C110524   2.833   3.558  13.570 -0.1891 -0.6097 -0.0358
  712MPD2    C210525   2.807   3.644  13.466 -0.3596 -0.1635  0.4893
  712MPD2    C310526   2.892   3.659  13.360  0.3794  0.2306 -0.6043
  712MPD2    C410527   3.007   3.590  13.364 -0.4627  0.8493  0.2249
  712MPD2    C510528   3.040   3.497  13.468  0.8802 -0.1985 -0.2135
  712MPD2     H10529   2.715   3.699  13.461 -1.0075 -1.2924 -0.0279
  712MPD2    H110530   3.079   3.602  13.284 -0.1895  2.4248  0.7096
  712MPD2    H210531   2.969   3.412  13.653 -0.2088  1.0261  1.1186
  712MPD2    H310532   3.124   3.431  13.452  2.1013  1.6535 -1.3386
  712MPD2     N10533   2.872   3.739  13.248 -0.7035 -0.3918 -0.0914
  712MPD2    H510534   2.951   3.751  13.185  1.2219 -0.7897  2.2183
  712MPD2    N110535   2.725   3.530  13.661  0.8672  0.2416  0.6864
  712MPD2    H710536   2.635   3.563  13.627  0.5855 -0.9249  0.2971
  713TMC3    C110537   2.766   3.898  13.106 -0.2481  0.0751 -0.2033
  713TMC3    C210538   2.891   3.912  13.049 -0.9269 -0.4134  0.2234
  713TMC3    C310539   2.924   4.043  13.007  0.4243 -0.3279 -0.7870
  713TMC3    C410540   2.675   4.000  13.122  0.7544 -0.0566 -0.7030
  713TMC3    C510541   2.719   4.126  13.089 -0.0072  0.0250 -0.1210
  713TMC3    C610542   2.837   4.145  13.021 -0.3785 -0.1743 -0.4729
  713TMC3     C10543   2.747   3.794  13.205  0.5396  0.2127  0.5851
  713TMC3     O10544   2.635   3.774  13.249 -0.1700  0.2775  0.3129
  713TMC3     H10545   2.954   3.827  13.031 -1.6243 -1.2531  1.7115
  713TMC3    H110546   2.594   3.996  13.194  0.2215  0.8650 -1.2489
  713TMC3    H210547   2.867   4.247  13.000 -1.2303 -0.4262 -2.8753
  713TMC3    C710548   2.714   4.221  13.205  0.0616 -0.1186 -0.0292
  713TMC3    C810549   3.033   4.059  12.912  0.0043  0.0285  0.5438
  713TMC3    O110550   2.826   4.254  13.251 -0.3131 -0.4018 -0.0694
  713TMC3    O210551   3.011   4.114  12.805 -0.3088 -0.1970 -0.1167
  714MPD2     C10552   4.468   2.315   1.517 -0.1063  0.6929  0.4054
  714MPD2    C110553   4.507   2.285   1.387 -0.0449 -0.1358  0.0742
  714MPD2    C210554   4.419   2.311   1.282 -0.0469 -0.5458 -0.5068
  714MPD2    C310555   4.295   2.364   1.302  0.0535 -0.3437 -0.0888
  714MPD2    C410556   4.253   2.389   1.435 -0.0047  0.0152  0.2770
  714MPD2    C510557   4.341   2.372   1.538 -0.0839  0.7413 -0.1093
  714MPD2     H10558   4.448   2.300   1.179  0.9172  1.9074 -0.5225
  714MPD2    H110559   4.156   2.433   1.454  0.4335  0.7324  0.8558
  714MPD2    H210560   4.530   2.317   1.606  0.1208  1.6577  0.2186
  714MPD2    H310561   4.314   2.401   1.639  1.6053  2.5555 -0.1524
  714MPD2     N10562   4.196   2.386   1.197  0.2758 -0.4781  0.6126
  714MPD2    H510563   4.212   2.340   1.108  0.0412  1.2053 -0.2950
  714MPD2    N110564   4.639   2.238   1.365  0.2976  0.2118 -0.0465
  714MPD2    H710565   4.680   2.189   1.444  1.2901 -0.0206 -0.7043
  715TMC3    C110566   0.119   2.193   1.261 -0.2670  0.1605  0.5123
  715TMC3    C210567   0.193   2.140   1.157 -0.3485 -0.1569  0.9751
  715TMC3    C310568   0.330   2.115   1.164  0.3434  0.3870 -0.2854
  715TMC3    C410569   0.172   2.215   1.383  0.3760  0.1508  0.8896
  715TMC3    C510570   0.303   2.187   1.384  0.8096 -0.7101 -0.0207
  715TMC3    C610571   0.386   2.148   1.285  0.5180 -0.1980  0.1955
  715TMC3     C10572   4.698   2.211   1.247 -0.3993 -0.1152  0.3506
  715TMC3     O10573   4.643   2.208   1.138  0.3965  0.0543  0.0286
  715TMC3     H10574   0.141   2.109   1.068 -1.6811  1.1940  1.2939
  715TMC3    H110575   0.119   2.260   1.467 -0.3365  1.6781 -0.3710
  715TMC3    H210576   0.490   2.131   1.310  0.6538 -0.3616 -0.4931
  715TMC3    C710577   0.366   2.207   1.515 -0.4995  0.1085  0.0174
  715TMC3    C810578   0.408   2.032   1.069 -0.0253 -0.0373 -0.0419
  715TMC3    O110579   0.488   2.233   1.515 -0.4209 -0.3313 -0.8168
  715TMC3    O210580   0.345   1.995   0.972 -0.2032  0.2028 -0.0328
  716MPD2     C10581   0.233   4.300  10.064  0.6609 -0.6035  0.1955
  716MPD2    C110582   0.240   4.207   9.965 -0.6083 -0.1455 -0.1826
  716MPD2    C210583   0.292   4.079   9.998 -0.4442 -0.2900 -0.8923
  716MPD2    C310584   0.334   4.044  10.119  0.2436 -0.8724 -0.2378
  716MPD2    C410585   0.341   4.144  10.214 -0.3371  0.0441 -0.2761
  716MPD2    C510586   0.289   4.267  10.184  0.9567  0.1350 -0.3366
  716MPD2     H10587   0.281   3.993   9.932  2.4572 -2.1998  1.1576
  716MPD2    H110588   0.375   4.122  10.315  1.1142  0.2900 -0.7010
  716MPD2    H210589   0.187   4.397  10.051  1.9156  0.0785  0.9796
  716MPD2    H310590   0.293   4.343  10.261 -0.4100  1.2693 -1.3610
  716MPD2     N10591   0.375   3.911  10.137 -0.0120 -0.0174  0.5775
  716MPD2    H510592   0.369   3.853  10.053 -2.0309 -0.1890  0.8414
  716MPD2    N110593   0.203   4.250   9.833 -0.1776 -0.1852  0.2283
  716MPD2    H710594   0.158   4.340   9.826  0.6461  0.3047  1.1350
  717TMC3    C110595   0.416   3.712  10.251  0.4568  0.3239  0.3770
  717TMC3    C210596   0.410   3.643  10.133 -0.2623 -0.3877 -0.2846
  717TMC3    C310597   0.412   3.508  10.133  0.5742  0.5797  0.1190
  717TMC3    C410598   0.404   3.653  10.376  0.1868  0.1828  0.0832
  717TMC3    C510599   0.399   3.516  10.373  0.0548 -0.0405 -0.7089
  717TMC3    C610600   0.396   3.442  10.258  0.1881  0.1993  0.2209
  717TMC3     C10601   0.402   3.853  10.252  0.1484 -0.3934 -0.6658
  717TMC3     O10602   0.389   3.903  10.360  0.6675  0.4485  0.2021
  717TMC3     H10603   0.422   3.699  10.042  0.9309  0.1588  0.2189
  717TMC3    H110604   0.413   3.707  10.469  0.7953 -0.7574  0.5741
  717TMC3    H210605   0.384   3.334  10.256 -1.5743  0.4056 -0.2871
  717TMC3    C710606   0.397   3.444  10.511 -0.2275 -0.2965 -0.3314
  717TMC3    C810607   0.381   3.439  10.007 -0.8581 -0.3596 -0.5174
  717TMC3    O110608   0.363   3.516  10.606  0.1320 -0.3919  0.8335
  717TMC3    O210609   0.333   3.512   9.920  0.1027  0.6874  0.5281
  718MPD2     C10610   4.073   3.243  13.068 -0.6181 -0.0201 -0.2419
  718MPD2    C110611   4.044   3.301  12.944  0.2837 -0.4580  0.2288
  718MPD2    C210612   3.948   3.246  12.861  0.0187 -0.2539 -0.0657
  718MPD2    C310613   3.885   3.131  12.901 -0.1504  0.4439  0.0950
  718MPD2    C410614   3.917   3.077  13.023 -0.3933  0.0157  0.0115
  718MPD2    C510615   4.003   3.137  13.110 -0.1492  0.2064  0.1858
  718MPD2     H10616   3.902   3.313  12.788 -0.0633 -1.2890 -0.9586
  718MPD2    H110617   3.863   2.987  13.049  0.1573  0.2824  2.1296
  718MPD2    H210618   4.141   3.288  13.139 -1.0983 -0.3479  0.4257
  718MPD2    H310619   4.021   3.083  13.203  0.1556 -1.7176 -0.9835
  718MPD2     N10620   3.771   3.087  12.827  0.5229 -0.1559  0.4818
  718MPD2    H510621   3.741   3.141  12.746  0.9496  0.3457  0.6553
  718MPD2    N110622   4.106   3.411  12.917 -0.0963 -0.1397 -0.3975
  718MPD2    H710623   4.140   3.468  12.994 -2.0266 -1.8864  1.7364
  719TMC3    C110624   4.130   3.616  12.810 -1.0061  0.0846 -0.1412
  719TMC3    C210625   4.023   3.677  12.866 -0.4428  1.0012 -0.1357
  719TMC3    C310626   3.986   3.799  12.805 -0.5622  1.0791  0.2139
  719TMC3    C410627   4.201   3.668  12.705 -0.8503  0.0312  0.1452
  719TMC3    C510628   4.176   3.799  12.668 -0.2633  0.8531 -0.8068
  719TMC3    C610629   4.069   3.860  12.719  0.5850  0.4365 -0.4804
  719TMC3     C10630   4.102   3.475  12.795  1.1130 -0.6844 -0.5494
  719TMC3     O10631   4.095   3.428  12.683 -0.5119 -0.0008  0.0489
  719TMC3     H10632   3.961   3.623  12.937  1.6684 -1.1866  0.0226
  719TMC3    H110633   4.273   3.606  12.652 -0.3392  0.8245 -0.0938
  719TMC3    H210634   4.032   3.947  12.667 -0.5939  0.3477  0.2006
  719TMC3    C710635   4.220   3.836  12.537 -0.0676  0.1604 -0.8495
  719TMC3    C810636   3.853   3.811  12.757 -0.0314 -0.1515  0.1688
  719TMC3    O110637   4.136   3.891  12.466  0.0230  0.2533  0.4034
  719TMC3    O210638   3.795   3.918  12.763  0.1238 -0.0922 -0.5789
  720MPD2     C10639   2.345   0.564  14.250  0.3275 -0.3128 -0.1043
  720MPD2    C110640   2.383   0.501  14.135 -0.0574  0.7959  0.3233
  720MPD2    C210641   2.470   0.398  14.146 -0.3816  0.0691 -0.8489
  720MPD2    C310642   2.535   0.368  14.263 -0.6372  1.0555  0.5211
  720MPD2    C410643   2.491   0.429  14.378  0.0190  0.0532  0.0363
  720MPD2    C510644   2.397   0.519  14.368  0.4742  0.4412 -0.5719
  720MPD2     H10645   2.507   0.342  14.061 -1.7817  0.7384 -1.9123
  720MPD2    H110646   2.528   0.400  14.476  1.1388 -1.1642 -0.7525
  720MPD2    H210647   2.280   0.650  14.257  0.1878 -0.5051  0.9701
  720MPD2    H310648   2.376   0.569  14.462 -1.7270  0.3465 -1.0100
  720MPD2     N10649   2.646   0.278  14.266 -0.5926  0.5401  0.5149
  720MPD2    H510650   2.649   0.230  14.177  1.3866 -0.1143  0.9325
  720MPD2    N110651   2.338   0.540  14.009 -0.0853  0.0743  0.1460
  720MPD2    H710652   2.378   0.487  13.933  1.0798 -1.6198  1.9427
  721TMC3    C110653   2.849   0.163  14.340  0.8642 -0.1588 -0.3126
  721TMC3    C210654   2.906   0.105  14.455  0.5470  0.2240 -0.1436
  721TMC3    C310655   3.039   0.090  14.454 -0.7398 -0.0003 -0.3849
  721TMC3    C410656   2.921   0.188  14.224 -0.2325 -0.1493 -0.2946
  721TMC3    C510657   3.059   0.152  14.230 -0.3270 -0.4120  0.4329
  721TMC3    C610658   3.122   0.108  14.341  0.4654 -0.6044 -0.5142
  721TMC3     C10659   2.729   0.245  14.372  0.0886 -0.0648  0.6695
  721TMC3     O10660   2.724   0.278  14.489 -0.4298 -0.2436  0.1490
  721TMC3     H10661   2.844   0.089  14.542 -0.9801  4.2460 -0.5083
  721TMC3    H110662   2.871   0.238  14.141 -0.2258 -0.7256 -0.6420
  721TMC3    H210663   3.225   0.074  14.341  0.5225 -0.4302 -0.4115
  721TMC3    C710664   3.117   0.122  14.100  0.0135 -0.0694  0.8841
  721TMC3    C810665   3.107   0.044  14.571  0.6204 -0.0237  0.0800
  721TMC3    O110666   3.029   0.097  14.022 -0.1496  0.3965 -0.0216
  721TMC3    O210667   3.216   4.713  14.546  0.2642  0.1241  0.3983
  722MPD2     C10668   1.712   3.718  13.920  0.4399  0.3120 -0.4174
  722MPD2    C110669   1.665   3.760  13.799 -0.6346 -0.1046 -0.6019
  722MPD2    C210670   1.548   3.709  13.750 -0.4443  0.2420 -0.1917
  722MPD2    C310671   1.469   3.622  13.821 -0.1497 -0.7928  0.3346
  722MPD2    C410672   1.510   3.591  13.949  0.0659 -0.2826  0.0975
  722MPD2    C510673   1.632   3.637  13.995  0.3750 -0.0374 -0.5436
  722MPD2     H10674   1.508   3.745  13.656  0.5263 -1.1828 -1.1516
  722MPD2    H110675   1.462   3.529  14.023 -0.4885  0.6688  0.5416
  722MPD2    H210676   1.807   3.736  13.968  0.0127  1.2310  0.0799
  722MPD2    H310677   1.667   3.603  14.092 -1.1323 -1.0009 -0.3477
  722MPD2     N10678   1.346   3.581  13.764  0.0615  0.1543 -0.1247
  722MPD2    H510679   1.330   3.602  13.666 -2.2793  1.2912  0.5093
  722MPD2    N110680   1.728   3.852  13.719  0.6075  0.1067  0.0696
  722MPD2    H710681   1.695   3.854  13.623 -0.8223 -4.0400  0.4808
  723TMC3    C110682   1.121   3.490  13.761  0.4845  0.6649 -0.1427
  723TMC3    C210683   1.016   3.420  13.822  0.0007  0.2559  0.7891
  723TMC3    C310684   0.901   3.405  13.743 -0.2061  0.0206 -0.4415
  723TMC3    C410685   1.099   3.564  13.646 -0.0004  0.4188  0.0488
  723TMC3    C510686   0.980   3.560  13.588 -0.1765 -0.6667  0.0784
  723TMC3    C610687   0.880   3.477  13.633  0.4388 -0.3146  0.1059
  723TMC3     C10688   1.244   3.513  13.835  1.2194 -0.1016 -0.1078
  723TMC3     O10689   1.235   3.475  13.949 -0.3689  0.8812  0.3215
  723TMC3     H10690   1.017   3.362  13.914 -0.0255 -0.7566  0.1481
  723TMC3    H110691   1.170   3.638  13.613  0.9585 -1.2109 -1.5501
  723TMC3    H210692   0.792   3.469  13.571  0.1252 -0.4601  0.5703
  723TMC3    C710693   0.964   3.564  13.449  0.8364  0.5404  0.4304
  723TMC3    C810694   0.834   3.276  13.733 -0.6186  0.9392 -0.1185
  723TMC3    O110695   0.924   3.458  13.400  0.1405  0.3004  0.6525
  723TMC3    O210696   0.807   3.209  13.830 -0.0582  0.2868 -0.0627
  724TMC3    C110697   0.645   2.237   9.324  0.7285  0.0325 -0.4270
  724TMC3    C210698   0.654   2.369   9.329  0.1886 -0.2734 -0.5850
  724TMC3    C310699   0.674   2.439   9.207 -0.1143 -1.0834 -0.1238
  724TMC3    C410700   0.678   2.180   9.208 -0.0640  0.1407 -0.1353
  724TMC3    C510701   0.737   2.245   9.101  0.7290  0.5139  0.5376
  724TMC3    C610702   0.727   2.382   9.098 -0.0687  0.2399 -0.3622
  724TMC3     C10703   0.567   2.160   9.426  0.5604 -0.3702 -0.4408
  724TMC3     O10704   0.527   2.050   9.386 -0.1115  0.3269 -0.0067
  724TMC3     H10705   0.607   2.424   9.410 -1.9579 -0.0064 -2.0105
  724TMC3    H110706   0.677   2.072   9.217 -0.7475  0.1656  0.1340
  724TMC3    H210707   0.776   2.450   9.029  1.9541 -2.0862 -1.2086
  724TMC3    C710708   0.877   2.212   9.067  0.1532 -0.4453 -0.1188
  724TMC3    C810709   0.738   2.559   9.231  0.3979 -0.3584 -0.2202
  724TMC3    O110710   0.951   2.288   9.001  0.4754 -0.6258  0.4732
  724TMC3    O210711   0.670   2.663   9.237  0.3809 -0.4248 -0.1326
  725TMC3    C110712   3.132   0.856  12.612 -0.2447 -0.1817 -0.6493
  725TMC3    C210713   3.025   0.898  12.540 -0.3212  0.5233 -0.7545
  725TMC3    C310714   3.023   0.853  12.414 -0.5694  0.3746 -0.2470
  725TMC3    C410715   3.217   0.758  12.575 -0.1094 -0.0406  0.4432
  725TMC3    C510716   3.189   0.700  12.453 -0.1019  0.2024 -0.4666
  725TMC3    C610717   3.098   0.752  12.367 -0.6875  0.3772 -0.3881
  725TMC3     C10718   3.183   0.956  12.703 -0.1308  0.3765 -0.3101
  725TMC3     O10719   3.159   1.073  12.683  0.2107  0.4606 -0.4994
  725TMC3     H10720   2.970   0.985  12.573  1.2184  1.0966  0.2912
  725TMC3    H110721   3.303   0.725  12.631  0.3485  1.0161  0.3479
  725TMC3    H210722   3.082   0.708  12.270 -2.1245 -0.2645  0.1475
  725TMC3    C710723   3.219   0.561  12.430 -0.0884  0.3330  0.0823
  725TMC3    C810724   2.910   0.898  12.328  0.1360 -0.0433 -0.5307
  725TMC3    O110725   3.129   0.504  12.371 -0.7080  0.0236  0.1085
  725TMC3    O210726   2.928   0.893  12.205 -0.1706  0.5746  0.5338
  726MPD2     C10727   1.418   2.166  10.572 -0.2777  0.3494 -0.1096
  726MPD2    C110728   1.326   2.251  10.530  0.1443 -0.4709 -0.0817
  726MPD2    C210729   1.196   2.214  10.562 -0.8846  0.2571  0.3417
  726MPD2    C310730   1.163   2.121  10.652  0.1850  0.9851 -0.6634
  726MPD2    C410731   1.259   2.037  10.700  0.2707 -0.3743  0.1095
  726MPD2    C510732   1.385   2.056  10.656  0.9498  0.6643  0.6055
  726MPD2     H10733   1.122   2.276  10.512 -0.2124 -0.8404 -2.0224
  726MPD2    H110734   1.243   1.955  10.769  3.1443 -0.9210  0.1035
  726MPD2    H210735   1.521   2.194  10.552 -0.4460 -0.0925 -1.5804
  726MPD2    H310736   1.449   1.973  10.684 -0.0963  0.3517  2.1062
  726MPD2     N10737   1.032   2.104  10.698 -0.7015 -0.8717  0.5928
  726MPD2    H510738   1.021   2.029  10.766  2.5141  0.4178  2.5793
  726MPD2    N110739   1.353   2.371  10.451 -0.4789 -0.5803 -0.7459
  726MPD2    H710740   1.270   2.420  10.418 -0.0341  0.0527 -0.9391
  727TMC3    C110741   1.477   2.546  10.357  0.2193  0.5881 -0.3001
  727TMC3    C210742   1.565   2.652  10.375  0.1580 -0.6973 -0.0200
  727TMC3    C310743   1.576   2.758  10.292 -0.8911 -0.0753  0.3971
  727TMC3    C410744   1.392   2.547  10.254 -0.3723 -0.0868  0.0025
  727TMC3    C510745   1.393   2.661  10.172  0.2181 -0.5430 -0.1337
  727TMC3    C610746   1.479   2.767  10.192 -0.6070  0.1437  0.1355
  727TMC3     C10747   1.482   2.428  10.438 -0.4418 -0.2630 -0.1461
  727TMC3     O10748   1.583   2.394  10.499  0.3197 -0.6890 -0.5863
  727TMC3     H10749   1.648   2.622  10.438  0.8077  3.4191  1.1207
  727TMC3    H110750   1.318   2.469  10.239  0.5526 -0.9490 -0.0412
  727TMC3    H210751   1.470   2.856  10.130 -1.1242  0.1940  0.2785
  727TMC3    C710752   1.285   2.665  10.076  0.2734 -0.4164  0.1208
  727TMC3    C810753   1.668   2.858  10.334  0.2278 -0.0533 -0.5235
  727TMC3    O110754   1.218   2.566  10.073 -0.2362 -0.0308 -0.1817
  727TMC3    O210755   1.746   2.816  10.415 -0.1898 -0.9415 -0.3540
  728TMC3    C110756   0.037   0.589  15.416 -0.2024  0.2188  0.0060
  728TMC3    C210757   0.166   0.595  15.462  0.0390 -0.4328  0.4133
  728TMC3    C310758   0.266   0.641  15.383  0.9998 -0.5887 -0.2547
  728TMC3    C410759   0.006   0.624  15.285  0.0435  0.0759 -0.4921
  728TMC3    C510760   0.112   0.660  15.206  0.4618 -0.5247 -0.1673
  728TMC3    C610761   0.238   0.664  15.252 -0.6239  0.1028  0.1378
  728TMC3     C10762   4.651   0.568  15.509 -0.3005  0.2697  0.3209
  728TMC3     O10763   4.664   0.492  15.605 -0.4989  0.2920 -0.3974
  728TMC3     H10764   0.186   0.552  15.560  0.0879  1.6678  1.3302
  728TMC3    H110765   4.631   0.616  15.239  0.6037 -1.8982 -1.3465
  728TMC3    H210766   0.314   0.696  15.182  0.0104 -0.2059  0.6885
  728TMC3    C710767   0.081   0.714  15.074 -0.0528  0.2433  0.2962
  728TMC3    C810768   0.401   0.641  15.440 -0.4683  0.0157 -0.9221
  728TMC3    O110769   4.698   0.678  15.024  0.0122 -0.8006  0.0280
  728TMC3    O210770   0.400   0.662  15.562  0.0270 -0.1062 -0.6516
  729MPD2     C10771   2.439   1.898  16.404  0.3386 -0.7025  0.0056
  729MPD2    C110772   2.577   1.891  16.423 -0.2964 -0.4351  0.4205
  729MPD2    C210773   2.616   1.845  16.549  0.7450 -0.0903  0.4679
  729MPD2    C310774   2.525   1.812  16.646 -0.0425  0.1914  0.0826
  729MPD2    C410775   2.391   1.809  16.616  0.5106 -0.5898  0.4722
  729MPD2    C510776   2.347   1.852  16.496  0.0319  0.5787 -0.3973
  729MPD2     H10777   2.720   1.840  16.579  0.3423  0.4559  1.9871
  729MPD2    H110778   2.317   1.777  16.689  1.3970 -0.1549  1.5629
  729MPD2    H210779   2.405   1.939  16.310  0.5464  2.9182  1.4929
  729MPD2    H310780   2.243   1.872  16.472  0.0211  1.8560  0.6673
  729MPD2     N10781   2.585   1.792  16.776  0.4902  0.0201  0.6267
  729MPD2    H510782   2.686   1.807  16.775  0.5802 -0.8264 -2.9695
  729MPD2    N110783   2.665   1.940  16.321 -0.2677  0.6532 -0.7198
  729MPD2    H710784   2.616   1.984  16.243 -0.0714 -0.3147 -1.3812
  730TMC3    C110785   2.614   1.808  17.005 -0.2941  0.4511  0.2739
  730TMC3    C210786   2.746   1.789  16.964 -1.0373  0.3788 -0.2540
  730TMC3    C310787   2.832   1.895  16.990  0.1100 -1.2204  0.5818
  730TMC3    C410788   2.572   1.927  17.054 -1.2562 -0.4694  0.2625
  730TMC3    C510789   2.663   2.016  17.095  0.2075 -0.6176 -0.0184
  730TMC3    C610790   2.793   1.999  17.068 -0.1519 -0.1751  0.5496
  730TMC3     C10791   2.525   1.767  16.898  0.0023  0.5581 -0.5074
  730TMC3     O10792   2.406   1.770  16.920 -0.2695  0.0798 -0.6514
  730TMC3     H10793   2.777   1.698  16.915 -0.8958 -2.0460  4.3779
  730TMC3    H110794   2.468   1.949  17.075 -1.5254 -0.2921 -1.2409
  730TMC3    H210795   2.862   2.075  17.101  0.6743 -0.5099 -0.3945
  730TMC3    C710796   2.616   2.155  17.102 -0.3174  1.1887  0.0767
  730TMC3    C810797   2.907   1.929  16.872  0.6546  0.3000  0.4130
  730TMC3    O110798   2.533   2.178  17.013 -0.0342 -0.3300  0.5973
  730TMC3    O210799   2.892   1.854  16.773 -0.0851 -0.0346 -0.7743
  731MPD2     C10800   2.146   0.440  11.815  0.1924 -0.1689  0.4111
  731MPD2    C110801   2.179   0.307  11.819 -0.3697 -0.2077 -0.0329
  731MPD2    C210802   2.201   0.242  11.941  0.2871  0.0446  0.0202
  731MPD2    C310803   2.192   0.316  12.062  0.4850 -0.1676 -1.3207
  731MPD2    C410804   2.140   0.443  12.059 -0.1816 -0.5353 -0.1702
  731MPD2    C510805   2.115   0.500  11.936  0.2175  0.0731  0.3664
  731MPD2     H10806   2.234   0.138  11.939 -0.6795 -0.2637  0.1293
  731MPD2    H110807   2.117   0.504  12.146 -2.4661 -1.5606 -0.0454
  731MPD2    H210808   2.122   0.500  11.728 -2.1884 -1.1547  0.3691
  731MPD2    H310809   2.077   0.601  11.931  0.1996 -0.0063 -1.0149
  731MPD2     N10810   2.234   0.255  12.188  0.4437 -0.4320 -0.3667
  731MPD2    H510811   2.281   0.165  12.195  0.1451 -0.4828  0.9595
  731MPD2    N110812   2.201   0.244  11.695 -0.0108  0.2280  0.3103
  731MPD2    H710813   2.209   0.297  11.609  0.3689  0.2160  0.3400
  732TMC3    C110814   2.210   0.069  11.541 -0.1874 -0.1798 -0.7050
  732TMC3    C210815   2.170   4.660  11.523  0.2334 -0.3105  0.4083
  732TMC3    C310816   2.244   4.564  11.459  0.7805  0.3831  0.2301
  732TMC3    C410817   2.328   0.103  11.481  0.5298 -0.3796 -1.1218
  732TMC3    C510818   2.394   0.014  11.404  0.8898  0.0926  0.6988
  732TMC3    C610819   2.359   4.604  11.393 -0.5238  0.0200  0.2977
  732TMC3     C10820   2.208   0.107  11.683  0.1601 -0.8013  0.5422
  732TMC3     O10821   2.152   0.018  11.749 -0.3512  0.0396  0.1616
  732TMC3     H10822   2.071   4.627  11.552  0.7492 -0.9774  1.3967
  732TMC3    H110823   2.373   0.201  11.491  1.2624 -0.5678 -2.6112
  732TMC3    H210824   2.417   4.539  11.329 -1.6978  0.5914 -1.3553
  732TMC3    C710825   2.518   0.049  11.346 -0.2621 -0.3086 -0.4445
  732TMC3    C810826   2.260   4.444  11.537 -0.0119  0.0498  0.1779
  732TMC3    O110827   2.540   0.014  11.232 -0.5529  0.6542 -0.2843
  732TMC3    O210828   2.308   4.348  11.480  0.0917 -0.1172  0.3665
  733TMC3    C110829   3.355   2.951  12.729 -0.1701 -0.1504 -0.4316
  733TMC3    C210830   3.476   2.912  12.784  0.0319  0.0534  0.3138
  733TMC3    C310831   3.591   2.972  12.742 -0.2373  0.4016 -0.1606
  733TMC3    C410832   3.353   3.040  12.618 -0.6038  0.7360  0.2766
  733TMC3    C510833   3.466   3.101  12.578  0.4559  0.0271 -0.3546
  733TMC3    C610834   3.590   3.063  12.638 -0.3300 -0.2144 -0.0018
  733TMC3     C10835   3.222   2.932  12.792  0.2341  0.3406  0.5305
  733TMC3     O10836   3.126   2.977  12.731  0.5909 -0.0760 -0.2010
  733TMC3     H10837   3.480   2.862  12.880 -2.0370 -1.2441 -0.2547
  733TMC3    H110838   3.260   3.067  12.569  0.6471  3.0436 -0.8169
  733TMC3    H210839   3.681   3.109  12.601  0.1141 -0.6056  0.5816
  733TMC3    C710840   3.448   3.242  12.551  0.1770  0.0507 -0.3892
  733TMC3    C810841   3.705   2.970  12.837  0.4564  0.7408 -0.7174
  733TMC3    O110842   3.334   3.280  12.554  0.1567  0.2268 -0.4978
  733TMC3    O210843   3.710   2.881  12.920 -0.5797 -0.5770  0.0206
  734MPD2     C10844   1.392   1.471  12.079  0.7974 -0.0564 -0.2939
  734MPD2    C110845   1.273   1.410  12.121 -0.2482 -0.1841  0.7458
  734MPD2    C210846   1.162   1.418  12.038 -0.1400  0.4272 -0.2168
  734MPD2    C310847   1.176   1.474  11.914 -0.1861  0.1952 -0.3150
  734MPD2    C410848   1.291   1.536  11.876 -0.5881 -0.3307 -0.3393
  734MPD2    C510849   1.392   1.536  11.961  0.0035 -0.0410  0.8024
  734MPD2     H10850   1.069   1.370  12.066  0.7297 -0.8048  0.5846
  734MPD2    H110851   1.308   1.597  11.788 -0.4668  3.0264  2.0518
  734MPD2    H210852   1.475   1.472  12.149  0.4987 -0.0956  0.0616
  734MPD2    H310853   1.483   1.583  11.926 -0.1838 -0.8417 -0.7714
  734MPD2     N10854   1.069   1.461  11.830 -0.6187 -0.2908  0.3759
  734MPD2    H510855   0.998   1.402  11.871 -1.4819 -0.3080 -1.1353
  734MPD2    N110856   1.262   1.342  12.251 -0.0551  0.3524  0.2667
  734MPD2    H710857   1.352   1.338  12.298 -0.4964 -0.7582  0.9924
  735TMC3    C110858   1.177   1.163  12.392 -0.0307  0.0201  0.4746
  735TMC3    C210859   1.063   1.116  12.436 -0.3246 -0.0263  0.1447
  735TMC3    C310860   1.048   0.981  12.454  0.4009  0.2358 -0.1898
  735TMC3    C410861   1.288   1.082  12.376 -0.2642  0.2591 -0.2621
  735TMC3    C510862   1.281   0.948  12.398 -0.1212 -0.5862 -0.1678
  735TMC3    C610863   1.153   0.894  12.431 -0.1841  0.4377  0.2811
  735TMC3     C10864   1.152   1.268  12.296  0.1793  0.9163 -0.1676
  735TMC3     O10865   1.032   1.287  12.267  0.0580 -0.6500  0.5360
  735TMC3     H10866   0.975   1.178  12.448  1.0216  1.9505 -0.1912
  735TMC3    H110867   1.376   1.129  12.334 -0.2599 -1.8252 -2.6146
  735TMC3    H210868   1.139   0.788  12.444 -0.9884  0.5755  0.5323
  735TMC3    C710869   1.392   0.862  12.356  0.6304  0.1789  0.5696
  735TMC3    C810870   0.934   0.926  12.382  0.4273  0.1310 -0.2601
  735TMC3    O110871   1.487   0.913  12.295  0.5435  0.0603 -0.0233
  735TMC3    O210872   0.917   0.803  12.381  0.1163 -0.4147  0.3894
  736MPD2     C10873   1.401   0.503  12.391  0.3425 -0.8297  0.7562
  736MPD2    C110874   1.444   0.620  12.351 -0.6594  0.2118  0.2285
  736MPD2    C210875   1.536   0.632  12.246  0.7832 -0.8146  0.3005
  736MPD2    C310876   1.587   0.517  12.184 -0.3765 -0.8202 -0.3341
  736MPD2    C410877   1.548   0.389  12.237 -0.0363 -1.4295  0.4699
  736MPD2    C510878   1.446   0.390  12.332  0.1129  0.0637  0.5142
  736MPD2     H10879   1.556   0.735  12.217 -0.6489 -0.4854  0.4427
  736MPD2    H110880   1.571   0.299  12.180 -0.1199 -1.6943  0.8552
  736MPD2    H210881   1.330   0.485  12.470 -2.1456  0.4797 -1.1715
  736MPD2    H310882   1.404   0.297  12.370 -0.4379  0.5462  1.1051
  736MPD2     N10883   1.672   0.530  12.065  0.6935  0.2249  0.4437
  736MPD2    H510884   1.693   0.439  12.025  0.6482 -0.0170  0.9664
  736MPD2    N110885   1.375   0.733  12.402  0.0004 -0.9248 -0.0885
  736MPD2    H710886   1.298   0.724  12.468  0.9056  1.1565  1.2640
  737TMC3    C110887   1.762   0.626  11.864  0.1621 -0.0511 -0.8269
  737TMC3    C210888   1.765   0.731  11.774  0.2899 -0.0511  0.3079
  737TMC3    C310889   1.773   0.705  11.641  0.6246  0.0201 -0.3858
  737TMC3    C410890   1.773   0.491  11.820 -0.6859  0.0556 -0.4388
  737TMC3    C510891   1.794   0.473  11.688 -0.7794 -0.0238  0.4874
  737TMC3    C610892   1.795   0.577  11.595  0.1676  0.7532  0.1574
  737TMC3     C10893   1.708   0.646  12.002 -0.2692  0.3411 -0.0463
  737TMC3     O10894   1.714   0.759  12.052 -0.4309 -0.2488 -0.3158
  737TMC3     H10895   1.743   0.831  11.808 -1.2397 -0.4332  0.4471
  737TMC3    H110896   1.774   0.409  11.890 -2.5285  0.2383 -0.2050
  737TMC3    H210897   1.809   0.569  11.488 -0.3262  1.8293  0.0044
  737TMC3    C710898   1.815   0.343  11.632 -0.4183 -0.1768  0.1037
  737TMC3    C810899   1.796   0.821  11.565  1.0238 -1.1241 -0.2403
  737TMC3    O110900   1.790   0.258  11.713  0.6190 -0.4295 -0.1599
  737TMC3    O210901   1.839   0.922  11.617 -0.7951  0.2192 -0.6737
  738MPD2     C10902   1.585   4.160  14.871 -0.4921  0.1412  0.2844
  738MPD2    C110903   1.625   4.081  14.979  0.2322  0.7431 -0.1513
  738MPD2    C210904   1.682   4.134  15.093 -0.1720 -0.3451  0.2585
  738MPD2    C310905   1.708   4.270  15.086 -0.3566 -0.4299 -0.4800
  738MPD2    C410906   1.669   4.350  14.982  0.0433  0.3177 -0.2487
  738MPD2    C510907   1.610   4.291  14.869  0.4185 -0.4972  0.1223
  738MPD2     H10908   1.724   4.068  15.169  0.0430  0.7060  1.0530
  738MPD2    H110909   1.682   4.457  14.973  1.1826  0.1571 -0.4238
  738MPD2    H210910   1.527   4.115  14.792 -0.7011  0.3384  0.3249
  738MPD2    H310911   1.587   4.354  14.785  0.0698  0.2139  0.7517
  738MPD2     N10912   1.781   4.339  15.178 -0.3451  0.7815  0.2710
  738MPD2    H510913   1.809   4.435  15.157 -3.4978  1.1551 -2.1328
  738MPD2    N110914   1.605   3.944  14.975  0.0653 -0.0191 -0.1551
  738MPD2    H710915   1.627   3.891  15.059  1.8544  1.7773  0.5029
  739TMC3    C110916   1.916   4.400  15.359 -0.3046 -0.7749  1.1208
  739TMC3    C210917   1.995   4.470  15.264  0.3122 -0.0514  0.3828
  739TMC3    C310918   2.078   4.566  15.307 -0.1462  0.7701  0.5046
  739TMC3    C410919   1.940   4.419  15.488 -0.3827 -0.1275 -0.0685
  739TMC3    C510920   2.022   4.523  15.522 -0.4291  0.2844 -0.5210
  739TMC3    C610921   2.094   4.595  15.433 -0.2641  0.4028 -0.3561
  739TMC3     C10922   1.829   4.298  15.299  0.5432  0.1066 -0.5498
  739TMC3     O10923   1.789   4.206  15.370  0.0390 -0.4097 -0.0214
  739TMC3     H10924   1.990   4.445  15.159 -1.6017 -0.8260  0.6531
  739TMC3    H110925   1.886   4.350  15.553 -1.3794 -1.1698 -1.9970
  739TMC3    H210926   2.147   4.686  15.461 -1.6646  0.8736  0.7899
  739TMC3    C710927   2.061   4.507  15.663 -0.0066  0.7070  0.7936
  739TMC3    C810928   2.174   4.610  15.207 -0.0955 -0.1665  0.8156
  739TMC3    O110929   2.001   4.426  15.733  0.2465 -0.2079 -0.2139
  739TMC3    O210930   2.126   4.617  15.097  0.0865  0.2680  0.0172
  740TMC3    C110931   2.472   0.916  14.299 -0.7651  0.0428  0.3589
  740TMC3    C210932   2.503   0.854  14.417  0.4373  0.4453 -0.1101
  740TMC3    C310933   2.611   0.768  14.414  0.4023 -0.2227  0.0110
  740TMC3    C410934   2.537   0.888  14.175 -0.1750 -0.2163 -0.5627
  740TMC3    C510935   2.648   0.806  14.183 -0.0301  1.0732  0.1431
  740TMC3    C610936   2.687   0.749  14.300  0.1565  0.0771  0.5940
  740TMC3     C10937   2.352   0.995  14.293 -0.1677  0.7687  0.5640
  740TMC3     O10938   2.339   1.070  14.201  0.0468 -0.0101  0.2468
  740TMC3     H10939   2.455   0.886  14.509 -1.5107 -1.2758 -0.5085
  740TMC3    H110940   2.497   0.943  14.091 -1.9435  0.0368  0.4408
  740TMC3    H210941   2.787   0.707  14.300  0.6290  1.2066 -3.7131
  740TMC3    C710942   2.677   0.720  14.068 -0.2324  0.7653  0.0328
  740TMC3    C810943   2.646   0.687  14.519 -0.0874 -0.2046  0.5250
  740TMC3    O110944   2.725   0.614  14.107 -0.6961 -0.0765  0.0640
  740TMC3    O210945   2.745   0.615  14.501 -0.8829  0.0521  0.1447
  741TMC3    C110946   1.901   4.454  13.872  0.0612 -0.3882  0.1828
  741TMC3    C210947   1.819   4.347  13.852  0.3243 -0.1269 -0.4508
  741TMC3    C310948   1.830   4.237  13.942 -0.5054  0.4915 -0.1549
  741TMC3    C410949   1.973   4.457  13.993  0.3530  0.0025 -0.1441
  741TMC3    C510950   2.001   4.340  14.055  0.2455  0.2112 -0.8550
  741TMC3    C610951   1.925   4.231  14.037  0.4425  0.2893 -1.1175
  741TMC3     C10952   1.839   4.581  13.846 -0.5467  0.5391  0.1911
  741TMC3     O10953   1.846   4.659  13.941 -0.1555  0.2710 -0.2184
  741TMC3     H10954   1.741   4.345  13.777 -1.4727 -0.0922  1.4330
  741TMC3    H110955   2.024   4.551  14.014  0.1753 -0.3215  1.6912
  741TMC3    H210956   1.927   4.139  14.094  2.7831 -1.0867 -3.4089
  741TMC3    C710957   2.080   4.326  14.170 -0.9213 -0.3880  0.3296
  741TMC3    C810958   1.700   4.188  13.972 -0.2198 -0.2211  1.2067
  741TMC3    O110959   2.156   4.228  14.176 -0.2299 -0.7365 -0.4710
  741TMC3    O210960   1.611   4.261  13.937 -0.4088 -0.2130  0.0800
  742TMC3    C110961   2.211   3.513  15.176 -0.4619  0.3372 -0.3261
  742TMC3    C210962   2.138   3.534  15.060  0.0843 -0.3707 -0.2521
  742TMC3    C310963   2.144   3.433  14.968 -0.4278 -0.0702  0.7553
  742TMC3    C410964   2.315   3.422  15.176  0.7375  0.3145  0.5507
  742TMC3    C510965   2.312   3.321  15.082  0.4401  0.2095  0.0575
  742TMC3    C610966   2.220   3.317  14.983 -0.4062 -0.5010 -0.2006
  742TMC3     C10967   2.170   3.570  15.303  0.3894  0.4391  0.3177
  742TMC3     O10968   2.259   3.570  15.391  0.2198  0.0429 -0.3909
  742TMC3     H10969   2.061   3.611  15.058 -0.4464 -0.8792  1.0513
  742TMC3    H110970   2.388   3.419  15.257  0.7070  0.5041  0.5846
  742TMC3    H210971   2.206   3.232  14.917  0.9562  0.2231 -1.4164
  742TMC3    C710972   2.388   3.197  15.111  0.8327  0.4461  0.4303
  742TMC3    C810973   2.023   3.415  14.889  0.0091 -0.0585 -0.3322
  742TMC3    O110974   2.342   3.091  15.060  0.7795  0.1430 -0.0661
  742TMC3    O210975   1.988   3.303  14.857 -0.6684  0.1134 -0.0274
  743MPD2     C10976   0.140   1.120   2.012  0.3253 -0.2446  0.3322
  743MPD2    C110977   0.187   1.038   1.916 -0.4272  0.2683 -0.2070
  743MPD2    C210978   0.322   1.044   1.884 -0.1276 -0.8438 -0.3194
  743MPD2    C310979   0.410   1.127   1.953  0.8124 -0.8269 -0.2996
  743MPD2    C410980   0.355   1.196   2.064  0.0517  0.1094 -0.5279
  743MPD2    C510981   0.226   1.194   2.088  0.7325 -0.0344  0.2973
  743MPD2     H10982   0.364   0.996   1.797  0.0657  0.8792 -1.1772
  743MPD2    H110983   0.418   1.255   2.130  0.8352 -0.3714 -0.8417
  743MPD2    H210984   0.036   1.113   2.042  0.2436 -0.1243  0.0736
  743MPD2    H310985   0.187   1.247   2.174  1.4442  2.2457 -0.7775
  743MPD2     N10986   0.545   1.136   1.915  0.0291  0.3729  0.4170
  743MPD2    H510987   0.576   1.067   1.847 -2.4280 -1.4855  1.1683
  743MPD2    N110988   0.100   0.954   1.844  0.5995 -0.3905  0.7154
  743MPD2    H710989   0.003   0.971   1.867  0.2774  0.2641 -1.1074
  744TMC3    C110990   0.024   0.811   1.673  0.2129  0.0991 -0.1594
  744TMC3    C210991   4.629   0.886   1.671 -0.1371  0.1358 -0.0846
  744TMC3    C310992   4.521   0.824   1.619 -0.2487 -0.0516  0.7999
  744TMC3    C410993   0.032   0.681   1.624 -0.0405 -0.3131 -0.6218
  744TMC3    C510994   4.636   0.632   1.576  0.2652 -0.2789  0.0300
  744TMC3    C610995   4.519   0.693   1.579 -0.6319  0.2310 -0.3000
  744TMC3     C10996   0.143   0.858   1.747 -0.0102 -0.8054  0.2903
  744TMC3     O10997   0.249   0.794   1.740 -0.5800 -0.4703  0.0922
  744TMC3     H10998   4.630   0.991   1.697 -0.3252  0.5102 -1.6172
  744TMC3    H110999   0.127   0.629   1.631  0.5253  0.9558  1.1844
  744TMC3    H211000   4.436   0.642   1.533  0.5576 -1.2055 -0.8493
  744TMC3    C711001   4.651   0.495   1.518  0.1795 -0.4570  0.3747
  744TMC3    C811002   4.398   0.893   1.605 -0.2280  0.0346  0.0683
  744TMC3    O111003   4.554   0.418   1.532 -0.0761 -0.1824  0.3657
  744TMC3    O211004   4.325   0.858   1.510 -0.0679 -1.0294 -0.8265
  745TMC3    C111005   2.619   3.474  13.858 -0.1935 -0.6810  0.2700
  745TMC3    C211006   2.608   3.547  13.974 -0.1211 -0.1178 -0.1173
  745TMC3    C311007   2.490   3.559  14.038  0.9705 -0.0699  0.2830
  745TMC3    C411008   2.508   3.424  13.798 -0.4773 -0.0385 -0.6491
  745TMC3    C511009   2.388   3.449  13.859 -0.9662 -0.5544  0.3292
  745TMC3    C611010   2.370   3.510  13.980  0.0530  0.2437 -0.0822
  745TMC3     C11011   2.741   3.471  13.781  0.2386 -0.6990 -0.0430
  745TMC3     O11012   2.843   3.457  13.851  0.5572  0.0769  0.0776
  745TMC3     H11013   2.697   3.569  14.031  0.4137 -2.4290 -0.0902
  745TMC3    H111014   2.520   3.363  13.709 -2.2035  0.1356 -1.0060
  745TMC3    H211015   2.270   3.526  14.018  0.2788 -1.2027  1.1151
  745TMC3    C711016   2.274   3.378  13.805 -0.1126 -0.2704  0.2568
  745TMC3    C811017   2.466   3.644  14.150 -0.7600 -0.5098  0.5004
  745TMC3    O111018   2.200   3.339  13.897 -0.5187  0.4325 -0.4431
  745TMC3    O211019   2.369   3.619  14.216 -0.0403  0.5031 -0.7672
  746TMC3    C111020   4.598   0.271  10.656  0.8351  0.3022 -0.7032
  746TMC3    C211021   4.659   0.268  10.530 -0.0178 -0.4679  0.4158
  746TMC3    C311022   4.629   0.158  10.455  0.6059  0.1076  0.0617
  746TMC3    C411023   4.510   0.175  10.698 -0.1356 -0.5053 -0.3521
  746TMC3    C511024   4.490   0.064  10.617  0.1667  0.1226 -0.3100
  746TMC3    C611025   4.553   0.049  10.499  0.7786 -0.1985  0.2587
  746TMC3     C11026   4.631   0.376  10.747  0.0182  0.2978 -0.6062
  746TMC3     O11027   4.584   0.361  10.860  0.1907  0.8951 -0.4549
  746TMC3     H11028   0.001   0.349  10.497 -0.8115 -0.1502 -0.3821
  746TMC3    H111029   4.454   0.195  10.788 -0.7351 -0.6748 -0.6892
  746TMC3    H211030   4.541   4.684  10.436 -0.9648  1.1856 -1.3408
  746TMC3    C711031   4.392   4.689  10.656  0.0761  0.1293 -0.1517
  746TMC3    C811032   4.687   0.161  10.321 -0.2524 -0.5158 -0.2142
  746TMC3    O111033   4.337   4.631  10.561  0.2428  0.5054  0.2799
  746TMC3    O211034   4.719   0.046  10.296 -0.3210 -0.0781  0.3119
  747TMC3    C111035   2.371   0.081  10.773  0.9515  0.0213 -0.3143
  747TMC3    C211036   2.261   0.035  10.841  0.0594 -0.4406  0.5500
  747TMC3    C311037   2.248   0.067  10.980 -0.2339 -0.9136 -0.4340
  747TMC3    C411038   2.468   0.157  10.832 -0.2367  0.5567 -0.1541
  747TMC3    C511039   2.460   0.192  10.959  0.5421  0.2377 -0.2751
  747TMC3    C611040   2.348   0.152  11.030  0.4637 -0.3182 -0.0484
  747TMC3     C11041   2.391   0.045  10.636 -0.4076 -0.1454  0.6278
  747TMC3     O11042   2.487   0.096  10.580  0.3327 -0.1719 -0.1181
  747TMC3     H11043   2.188   4.689  10.801 -0.8726  2.4602 -2.6801
  747TMC3    H111044   2.548   0.198  10.771 -2.5559  3.4989 -1.1709
  747TMC3    H211045   2.335   0.184  11.133  2.0189  2.0141 -0.5596
  747TMC3    C711046   2.550   0.287  11.018  0.6122  0.4102  0.5538
  747TMC3    C811047   2.134   0.023  11.056 -0.0296  0.2277  0.4998
  747TMC3    O111048   2.548   0.303  11.134 -0.7539 -0.3747 -0.2651
  747TMC3    O211049   2.109   4.624  11.053 -0.4877 -0.1521  0.1860
  748MPD2     C11050   3.201   1.590   1.028  0.0568 -0.0537 -0.6477
  748MPD2    C111051   3.233   1.686   1.125  0.0151  0.4919 -0.1062
  748MPD2    C211052   3.360   1.749   1.120 -0.3675 -0.0510  0.6571
  748MPD2    C311053   3.441   1.717   1.018 -0.3598 -0.4037  0.0562
  748MPD2    C411054   3.413   1.614   0.931  0.0972 -0.4167 -0.2107
  748MPD2    C511055   3.294   1.557   0.932  0.7080  0.2469 -0.3355
  748MPD2     H11056   3.391   1.816   1.200 -0.2977 -1.1668  1.5536
  748MPD2    H111057   3.487   1.586   0.857  0.0899  1.0233 -0.7608
  748MPD2    H211058   3.106   1.539   1.040 -0.9172  1.6147 -1.0795
  748MPD2    H311059   3.274   1.493   0.847 -1.0494  3.2880 -2.2238
  748MPD2     N11060   3.563   1.789   1.019  0.1752  0.5861 -0.7978
  748MPD2    H511061   3.595   1.828   1.108 -1.2840 -1.9134  0.8168
  748MPD2    N111062   3.136   1.704   1.224  0.2622 -0.2324 -0.1788
  748MPD2    H711063   3.047   1.655   1.222 -0.4032  0.9889 -0.4864
  749TMC3    C111064   3.786   1.794   0.935 -0.1704  0.2942 -0.4393
  749TMC3    C211065   3.834   1.729   1.046  0.0520 -0.3294 -0.3707
  749TMC3    C311066   3.969   1.741   1.071  0.4437  0.1698 -0.0598
  749TMC3    C411067   3.865   1.849   0.838 -0.1367  0.2714  0.5057
  749TMC3    C511068   3.999   1.859   0.871  0.2061 -0.5912 -0.8325
  749TMC3    C611069   4.049   1.808   0.988  0.1877  0.7640 -0.6089
  749TMC3     C11070   3.644   1.782   0.910  0.6394 -0.1762  0.5147
  749TMC3     O11071   3.611   1.762   0.792  0.4190  0.3195  0.3450
  749TMC3     H11072   3.773   1.678   1.119  2.1948 -0.3786  1.4025
  749TMC3    H111073   3.826   1.905   0.754  0.0502 -2.1973 -1.2251
  749TMC3    H211074   4.155   1.807   1.008  0.0093 -1.6985  0.1904
  749TMC3    C711075   4.094   1.936   0.798 -0.0586  0.2139 -0.0446
  749TMC3    C811076   4.014   1.683   1.193  0.1880 -0.1750 -1.4005
  749TMC3    O111077   4.200   1.953   0.856 -0.1870 -0.6423 -0.3567
  749TMC3    O211078   3.941   1.689   1.294  0.2913 -0.0031 -0.2050
  750MPD2     C11079   0.198   2.148  11.385  0.3467 -0.6595  0.0830
  750MPD2    C111080   0.065   2.117  11.392 -0.6079 -0.2998  0.0030
  750MPD2    C211081   0.022   2.005  11.321  0.4766 -0.2849  0.2783
  750MPD2    C311082   0.115   1.917  11.259 -0.3128 -0.4903  0.1090
  750MPD2    C411083   0.245   1.951  11.256  0.0808  1.0782 -0.7943
  750MPD2    C511084   0.289   2.069  11.315 -0.3006  0.5199 -0.5557
  750MPD2     H11085   4.640   1.978  11.323  0.3983 -0.1130 -2.0139
  750MPD2    H111086   0.316   1.889  11.203 -1.3809 -2.1939  1.1022
  750MPD2    H211087   0.241   2.232  11.440  0.5054  0.4705 -1.7936
  750MPD2    H311088   0.389   2.105  11.296  0.7796 -3.2888 -1.8885
  750MPD2     N11089   0.075   1.802  11.190 -0.0239 -0.1789 -0.2201
  750MPD2    H511090   0.150   1.739  11.162 -0.8364 -1.9101  1.4419
  750MPD2    N111091   4.701   2.201  11.462 -0.1784  0.6411  0.1764
  750MPD2    H711092   0.022   2.280  11.509  0.1110  0.5352  0.0853
  751TMC3    C111093   4.646   1.653  11.070  0.4722 -0.5235 -0.1164
  751TMC3    C211094   4.519   1.616  11.045 -0.8899  0.6947  0.1432
  751TMC3    C311095   4.499   1.540  10.935  0.0841 -0.5859  0.4020
  751TMC3    C411096   0.025   1.619  10.985 -0.6109 -0.0487  0.2773
  751TMC3    C511097   0.007   1.528  10.884  0.0505 -0.5283 -0.6867
  751TMC3    C611098   4.606   1.494  10.853 -0.6102  0.2559  0.3179
  751TMC3     C11099   4.663   1.771  11.153  0.1859 -0.3184 -0.2378
  751TMC3     O11100   4.560   1.829  11.175  0.4909  0.1125  0.6463
  751TMC3     H11101   4.436   1.655  11.102  0.0112  3.1392 -0.2159
  751TMC3    H111102   0.129   1.649  10.997  0.0893 -2.5658  0.3719
  751TMC3    H211103   4.591   1.423  10.772  2.3131  0.1929 -0.1778
  751TMC3    C711104   0.118   1.480  10.802  1.0846  0.0180  0.7212
  751TMC3    C811105   4.388   1.450  10.930 -0.2584 -0.7678 -0.5893
  751TMC3    O111106   0.195   1.566  10.761  0.1402  0.1604  0.5112
  751TMC3    O211107   4.389   1.369  10.834 -0.2230  0.1447  0.1749
  752TMC3    C111108   3.539   1.665  16.821  0.6565  0.1371 -0.4843
  752TMC3    C211109   3.592   1.548  16.858  0.1628  0.1309  0.6361
  752TMC3    C311110   3.593   1.517  16.992 -0.6897  0.2458 -0.1947
  752TMC3    C411111   3.507   1.757  16.921  0.0509  0.0058 -0.3551
  752TMC3    C511112   3.500   1.727  17.052  0.8188 -0.0713 -1.0118
  752TMC3    C611113   3.539   1.604  17.089 -0.5289 -0.8971  0.4227
  752TMC3     C11114   3.587   1.719  16.701 -0.1911 -0.6202 -0.6698
  752TMC3     O11115   3.705   1.708  16.665 -0.5752 -0.3337  0.0654
  752TMC3     H11116   3.618   1.483  16.775  3.4352 -0.6162  2.2401
  752TMC3    H111117   3.481   1.859  16.896 -0.8728 -0.0318  0.4535
  752TMC3    H211118   3.526   1.572  17.191  1.1096  1.6399  1.4225
  752TMC3    C711119   3.457   1.823  17.150  0.0727  0.4750  0.0491
  752TMC3    C811120   3.683   1.408  17.030  0.1516 -0.3201  0.1361
  752TMC3    O111121   3.400   1.922  17.107  0.3299 -0.6515  0.4027
  752TMC3    O211122   3.701   1.321  16.944 -0.0545 -0.0109 -0.2658
  753TMC3    C111123   0.131   3.188  13.334  0.5996  0.0368  0.5271
  753TMC3    C211124   0.178   3.126  13.445 -0.8393  0.2435 -0.0435
  753TMC3    C311125   0.146   2.992  13.469  0.6807 -0.2176 -0.7819
  753TMC3    C411126   0.061   3.122  13.240 -0.1913 -0.2823 -0.4992
  753TMC3    C511127   0.031   2.989  13.264  0.1997 -0.1181 -0.4631
  753TMC3    C611128   0.070   2.919  13.378  0.1812  0.1069 -0.4266
  753TMC3     C11129   0.164   3.325  13.306 -0.3069  0.4749  0.0105
  753TMC3     O11130   0.087   3.390  13.233  0.0635 -0.1361 -0.4762
  753TMC3     H11131   0.228   3.177  13.527 -0.9904 -0.4013  0.4492
  753TMC3    H111132   0.038   3.173  13.147 -2.2954 -0.7687 -0.2601
  753TMC3    H211133   0.041   2.818  13.406  0.2902  0.1802 -0.0524
  753TMC3    C711134   4.674   2.911  13.167 -0.5053 -0.0389 -0.2403
  753TMC3    C811135   0.203   2.918  13.582  0.0668 -0.3077  0.4030
  753TMC3    O111136   4.676   2.940  13.051 -0.0955 -0.2606  0.1451
  753TMC3    O211137   0.188   2.794  13.586  0.1363 -0.2923  0.2625
  754MPD2     C11138   4.132   1.620  12.970 -0.4758 -0.1269  0.4929
  754MPD2    C111139   4.066   1.563  13.079 -0.0807 -0.5081  0.0822
  754MPD2    C211140   3.928   1.576  13.097  0.0397  0.2164  0.2775
  754MPD2    C311141   3.864   1.661  13.008 -0.3868  0.1426  0.2310
  754MPD2    C411142   3.923   1.724  12.900 -0.3759  0.3399 -0.0230
  754MPD2    C511143   4.062   1.709  12.886 -0.0011 -0.0139  0.0585
  754MPD2     H11144   3.875   1.522  13.174 -1.4935  0.9725 -0.2472
  754MPD2    H111145   3.873   1.789  12.831 -2.5406  0.0270  1.2601
  754MPD2    H211146   4.239   1.604  12.968 -0.5003 -0.4270  1.5804
  754MPD2    H311147   4.112   1.772  12.813 -1.5337  1.0976 -0.0332
  754MPD2     N11148   3.726   1.686  13.026  0.4897 -0.1161 -0.1569
  754MPD2    H511149   3.677   1.742  12.957  1.3074 -0.7288 -1.2326
  754MPD2    N111150   4.145   1.461  13.140  0.9867  0.1013 -0.0788
  754MPD2    H711151   4.239   1.446  13.106  1.5325  2.1703  0.5181
  755MPD2     C11152   2.754   1.942  13.328 -0.2986  0.4571  0.0674
  755MPD2    C111153   2.851   1.898  13.422 -0.0529 -0.3622  0.7010
  755MPD2    C211154   2.968   1.834  13.382  0.7093  0.2486 -1.2434
  755MPD2    C311155   2.986   1.811  13.250 -0.6338  0.6771 -0.3180
  755MPD2    C411156   2.884   1.844  13.162  0.1419 -0.2963 -0.1938
  755MPD2    C511157   2.774   1.916  13.192 -0.1532 -0.2495  0.4040
  755MPD2     H11158   3.034   1.798  13.459 -1.6563  0.0924  0.7029
  755MPD2    H111159   2.902   1.822  13.057  0.7471 -0.5762 -0.0248
  755MPD2    H211160   2.661   1.985  13.364  0.6974  1.3956  1.5282
  755MPD2    H311161   2.709   1.947  13.111 -1.9479 -1.6931  1.3061
  755MPD2     N11162   3.093   1.741  13.200 -0.3366  0.0578  0.0862
  755MPD2    H511163   3.092   1.708  13.103  2.7794  1.9460 -0.5635
  755MPD2    N111164   2.821   1.912  13.561  0.1657 -0.6799 -0.2725
  755MPD2    H711165   2.884   1.861  13.623 -2.1157 -0.4769  2.1965
  756MPD2     C11166   4.646   2.023   9.699  0.2579  0.5614  0.4957
  756MPD2    C111167   4.630   2.039   9.831  0.2685  0.1761 -0.0101
  756MPD2    C211168   4.555   1.953   9.905  0.4552 -0.3621  0.3703
  756MPD2    C311169   4.493   1.843   9.838  0.7597  0.1309  0.2744
  756MPD2    C411170   4.489   1.843   9.701 -0.1592 -0.0722 -0.7629
  756MPD2    C511171   4.572   1.926   9.629  0.0794 -0.3827  0.9448
  756MPD2     H11172   4.552   1.975  10.011  1.6202  0.9960  0.1187
  756MPD2    H111173   4.432   1.773   9.640  1.2386  0.2434 -2.4153
  756MPD2    H211174   4.680   2.101   9.632  1.4116  1.5885  2.2956
  756MPD2    H311175   4.576   1.915   9.521 -0.1511  0.0929  0.8880
  756MPD2     N11176   4.414   1.749   9.911  0.5570 -0.2247  0.4413
  756MPD2    H511177   4.400   1.755  10.011  2.2067 -1.0815  0.7285
  756MPD2    N111178   4.685   2.150   9.900 -0.3594 -0.0322  0.6291
  756MPD2    H711179   4.668   2.164   9.999  2.5895 -2.8314  1.5493
  757MPD2     C11180   3.661   1.015   9.592  0.4809 -0.1268 -0.2904
  757MPD2    C111181   3.609   1.095   9.700 -0.6053  0.2807  1.0112
  757MPD2    C211182   3.698   1.169   9.772  0.2831  0.1867  0.2045
  757MPD2    C311183   3.833   1.168   9.734  0.0054 -0.2772  0.3509
  757MPD2    C411184   3.880   1.099   9.628  0.1158 -0.0394 -0.2961
  757MPD2    C511185   3.792   1.017   9.566 -0.1728 -0.0440 -0.9048
  757MPD2     H11186   3.665   1.228   9.856 -1.2633  0.1684 -0.3968
  757MPD2    H111187   3.986   1.091   9.604  0.0330  1.8576 -1.2473
  757MPD2    H211188   3.602   0.957   9.522 -1.9456  2.3416 -0.2720
  757MPD2    H311189   3.826   0.960   9.480 -2.3188  0.3579 -2.0151
  757MPD2     N11190   3.918   1.251   9.802  0.5717 -0.8566 -0.0688
  757MPD2    H511191   3.870   1.297   9.879 -1.8585 -2.3878 -0.6848
  757MPD2    N111192   3.470   1.091   9.735 -0.5380  0.3249  0.1409
  757MPD2    H711193   3.415   1.029   9.675 -0.2127  0.7498 -0.5886
  758MPD2     C11194   4.214   1.129  15.733 -0.1963  1.0060  0.4709
  758MPD2    C111195   4.248   1.124  15.864 -0.0205  0.5430 -0.9308
  758MPD2    C211196   4.221   1.228  15.941  0.3620  0.6494 -0.0444
  758MPD2    C311197   4.149   1.335  15.909 -0.2118 -0.2509 -0.0611
  758MPD2    C411198   4.116   1.343  15.772  0.1237  0.1485  0.5273
  758MPD2    C511199   4.150   1.244  15.691 -0.3911 -0.0106  0.2038
  758MPD2     H11200   4.260   1.221  16.042 -1.1113 -0.7618  0.4052
  758MPD2    H111201   4.078   1.433  15.724  0.3338 -0.6715 -1.1830
  758MPD2    H211202   4.238   1.058  15.655 -2.4705  1.2351 -0.4479
  758MPD2    H311203   4.133   1.267  15.586 -1.5085 -0.5146  0.2731
  758MPD2     N11204   4.110   1.440  15.990 -0.0529 -0.1419  0.2894
  758MPD2    H511205   4.070   1.524  15.950  2.4817 -0.0562 -2.0831
  758MPD2    N111206   4.321   1.015  15.911  0.6832  0.3144 -0.6166
  758MPD2    H711207   4.359   0.946  15.848 -2.5295 -0.3317 -1.8253
  759MPD2     C11208   2.986   3.911  10.071  0.2531  0.0300 -0.0209
  759MPD2    C111209   3.060   3.813  10.131 -0.2203 -0.2638 -0.2827
  759MPD2    C211210   3.184   3.781  10.083 -0.4889 -0.2784  0.2378
  759MPD2    C311211   3.241   3.854   9.986 -0.3350  0.6939 -0.3905
  759MPD2    C411212   3.171   3.964   9.934  0.1758  0.4183  0.3727
  759MPD2    C511213   3.050   3.986   9.974  0.2362 -0.4476 -0.7445
  759MPD2     H11214   3.231   3.695  10.127 -0.9628 -0.8603 -0.3961
  759MPD2    H111215   3.221   4.022   9.858  0.9889  1.4538  1.6985
  759MPD2    H211216   2.888   3.936  10.109  0.7098 -1.5253  2.1648
  759MPD2    H311217   2.996   4.062   9.918 -4.6102 -1.8146  2.0436
  759MPD2     N11218   3.372   3.813   9.955  0.2414 -0.0866  0.1791
  759MPD2    H511219   3.401   3.720   9.985  2.7088  0.4391 -0.5809
  759MPD2    N111220   3.014   3.741  10.247  0.5042 -1.0029  0.2908
  759MPD2    H711221   3.085   3.679  10.283  1.6914 -0.8817 -1.8483
  760MPD2     C11222   2.503   2.085  12.096 -0.6213  0.0949 -0.7125
  760MPD2    C111223   2.591   2.075  11.987 -0.7227 -0.1840  0.0250
  760MPD2    C211224   2.597   1.950  11.919  0.0664 -0.5305  0.4943
  760MPD2    C311225   2.511   1.843  11.946 -0.2893 -0.6603  0.1215
  760MPD2    C411226   2.424   1.865  12.052  0.0548  0.1050  0.2089
  760MPD2    C511227   2.416   1.982  12.122 -0.1565 -0.4630 -0.2836
  760MPD2     H11228   2.665   1.945  11.835 -0.6382 -1.1773 -0.0496
  760MPD2    H111229   2.352   1.787  12.073  0.9484 -0.8309 -0.1658
  760MPD2    H211230   2.486   2.177  12.151 -1.4250  0.0017 -0.8012
  760MPD2    H311231   2.325   1.998  12.179  0.5605 -0.2884  0.8123
  760MPD2     N11232   2.517   1.720  11.891  0.3615 -0.0390  0.3689
  760MPD2    H511233   2.443   1.653  11.908  0.0480  1.1253  3.4735
  760MPD2    N111234   2.678   2.178  11.951  0.5318 -0.5324  0.6559
  760MPD2    H711235   2.742   2.153  11.876 -0.8307 -0.1382 -0.6259
  761MPD2     C11236   4.011   1.185  11.133 -0.3074  0.2142  0.8544
  761MPD2    C111237   4.119   1.149  11.055  0.2688 -0.2932 -0.7136
  761MPD2    C211238   4.205   1.247  11.017  0.5598 -0.0751 -0.3387
  761MPD2    C311239   4.197   1.379  11.052  1.0576  0.0466 -0.6850
  761MPD2    C411240   4.099   1.411  11.141  0.7633 -0.9086  0.7002
  761MPD2    C511241   4.002   1.316  11.171  0.6871 -0.4218  0.3722
  761MPD2     H11242   4.297   1.215  10.970  1.3675 -0.2141  1.3490
  761MPD2    H111243   4.097   1.510  11.185  2.8181  0.1058 -1.5292
  761MPD2    H211244   3.931   1.115  11.154  0.0456 -0.6363 -0.6437
  761MPD2    H311245   3.933   1.353  11.246  1.1454  2.4297 -0.6078
  761MPD2     N11246   4.293   1.476  11.026  0.4800 -0.3297  0.7710
  761MPD2    H511247   4.287   1.570  11.064  3.5563  1.1646 -2.5004
  761MPD2    N111248   4.137   1.014  11.017 -1.0418 -0.4169 -0.3834
  761MPD2    H711249   4.060   0.957  11.052 -0.6545 -0.0492  1.0754
  762MPD2     C11250   4.468   1.121  10.582 -0.0022  0.2958  0.5195
  762MPD2    C111251   4.492   0.992  10.553 -0.4073  0.7092 -0.0548
  762MPD2    C211252   4.560   0.962  10.438  0.3730  0.0127  0.6910
  762MPD2    C311253   4.602   1.068  10.356 -0.7023 -0.1617 -0.3577
  762MPD2    C411254   4.591   1.198  10.393  0.2087 -0.4041  0.5911
  762MPD2    C511255   4.521   1.223  10.510  0.6245 -0.6160  0.4269
  762MPD2     H11256   4.572   0.859  10.406  1.1991  0.0337  0.9426
  762MPD2    H111257   4.632   1.283  10.338 -2.1854  1.5267  1.7957
  762MPD2    H211258   4.403   1.131  10.669  0.2424 -2.7627  1.0391
  762MPD2    H311259   4.506   1.323  10.549  1.8439  0.2627 -1.3282
  762MPD2     N11260   4.678   1.032  10.242  0.4254  0.0764 -0.0924
  762MPD2    H511261   4.694   0.931  10.243 -1.0604 -0.1445  1.8075
  762MPD2    N111262   4.426   0.896  10.640 -0.2128  0.2779  0.2296
  762MPD2    H711263   4.380   0.940  10.719  2.4769  0.7094  1.5632
  763MPD2     C11264   0.848   1.198  16.049 -0.7500 -0.4085  0.0721
  763MPD2    C111265   0.869   1.327  15.995 -0.1694 -0.6595 -0.0018
  763MPD2    C211266   0.905   1.427  16.083  0.1053  0.4301 -0.1267
  763MPD2    C311267   0.916   1.406  16.217  0.4028  0.0720 -0.1972
  763MPD2    C411268   0.902   1.279  16.270 -0.3496 -0.3701  0.0816
  763MPD2    C511269   0.867   1.176  16.187 -0.9206 -0.3600  0.7042
  763MPD2     H11270   0.928   1.527  16.047  1.0951  0.1213 -0.3571
  763MPD2    H111271   0.930   1.260  16.373 -0.7107 -0.1303  0.2255
  763MPD2    H211272   0.806   1.112  15.997 -0.3424 -1.5589  1.6393
  763MPD2    H311273   0.828   1.084  16.229 -0.7105 -0.5556  0.4816
  763MPD2     N11274   0.963   1.496  16.313  0.0805 -0.3757  0.8916
  763MPD2    H511275   1.004   1.458  16.398 -0.0401 -3.1841 -0.3203
  763MPD2    N111276   0.878   1.356  15.860 -0.8248 -0.4797 -0.1337
  763MPD2    H711277   0.866   1.451  15.826  0.0290  0.0343  1.0070
  764MPD2     C11278   3.487   3.606  17.313  0.8617  0.9942  0.4617
  764MPD2    C111279   3.562   3.496  17.267 -0.2359  0.1043 -0.0701
  764MPD2    C211280   3.548   3.389  17.350 -0.9198  0.3932 -0.2182
  764MPD2    C311281   3.482   3.389  17.472 -0.1791 -0.4259  0.0805
  764MPD2    C411282   3.417   3.502  17.512  0.5973  0.1913  0.1255
  764MPD2    C511283   3.418   3.605  17.427 -1.1038 -0.1985 -0.0150
  764MPD2     H11284   3.595   3.298  17.313 -0.2009  1.3520 -1.6246
  764MPD2    H111285   3.359   3.499  17.603  0.4897  0.1195  0.0538
  764MPD2    H211286   3.479   3.703  17.265  0.0117  0.1773 -1.0636
  764MPD2    H311287   3.359   3.689  17.462  0.8014  0.4062  1.7380
  764MPD2     N11288   3.487   3.268  17.549  0.6782 -0.1919  0.0110
  764MPD2    H511289   3.542   3.192  17.510 -0.7536 -1.0762 -0.2874
  764MPD2    N111290   3.627   3.499  17.143  0.0343 -0.3569 -0.5999
  764MPD2    H711291   3.676   3.413  17.118 -2.7593 -2.5939  1.5676
  765MPD2     C11292   3.249   0.376  16.031  0.5870 -0.0350  0.0646
  765MPD2    C111293   3.325   0.480  15.993  0.2018 -0.3617 -1.0020
  765MPD2    C211294   3.463   0.471  15.988  0.6390 -0.1173 -0.3046
  765MPD2    C311295   3.534   0.356  16.033  0.0711 -0.0744 -0.1485
  765MPD2    C411296   3.448   0.251  16.075 -0.4924 -0.1389 -0.9030
  765MPD2    C511297   3.314   0.261  16.061  0.6532  0.1209  0.1617
  765MPD2     H11298   3.530   0.550  15.957  0.5028  0.8061  1.7471
  765MPD2    H111299   3.488   0.158  16.113  0.6820  0.0173 -1.7448
  765MPD2    H211300   3.141   0.383  16.038  0.6313 -0.5084  1.1968
  765MPD2    H311301   3.247   0.184  16.099  1.7297 -0.0167  1.7626
  765MPD2     N11302   3.672   0.362  16.039 -0.8592 -0.0282  0.1858
  765MPD2    H511303   3.727   0.433  15.991 -2.5044 -0.3545 -2.1643
  765MPD2    N111304   3.258   0.603  15.950  0.1423  0.3696 -0.2374
  765MPD2    H711305   3.166   0.591  15.909 -0.7020 -0.2970  1.8533
  766MPD2     C11306   2.934   0.700  15.340  0.3918  0.0448 -0.4774
  766MPD2    C111307   3.052   0.671  15.406 -0.0599  0.4224  0.7557
  766MPD2    C211308   3.143   0.585  15.344  0.3096  0.2357  0.2086
  766MPD2    C311309   3.125   0.536  15.214 -0.3913  0.0819  0.3428
  766MPD2    C411310   3.007   0.570  15.154  0.2792  0.6195  0.1484
  766MPD2    C511311   2.918   0.647  15.219  0.1489 -0.0307 -0.1676
  766MPD2     H11312   3.238   0.566  15.392  0.9899  0.2404 -1.1180
  766MPD2    H111313   2.979   0.528  15.058  0.2380 -1.8539  1.2373
  766MPD2    H211314   2.852   0.760  15.377  0.8689 -1.5276  3.2121
  766MPD2    H311315   2.830   0.674  15.160 -0.1826  0.1628  0.4216
  766MPD2     N11316   3.225   0.481  15.130 -0.7122 -0.9057 -0.2128
  766MPD2    H511317   3.206   0.480  15.030  0.0257 -1.8463 -0.3386
  766MPD2    N111318   3.078   0.725  15.536  0.4818 -0.4954 -0.9598
  766MPD2    H711319   3.166   0.693  15.576  0.3827 -0.0360 -0.3601
  767MPD2     C11320   2.956   0.903  14.999  0.2362 -0.7910 -0.1352
  767MPD2    C111321   3.089   0.880  14.999  0.2118  0.1168 -0.5238
  767MPD2    C211322   3.145   0.824  14.881  0.1571  1.1561 -0.5732
  767MPD2    C311323   3.065   0.791  14.769 -0.2414  0.4611 -0.3185
  767MPD2    C411324   2.932   0.815  14.769  0.1542  0.5591 -0.2149
  767MPD2    C511325   2.887   0.865  14.887 -0.1381  0.6329  0.3063
  767MPD2     H11326   3.252   0.814  14.869  0.4081 -0.1390  2.6973
  767MPD2    H111327   2.862   0.788  14.690 -0.3328  1.5478 -0.1177
  767MPD2    H211328   2.902   0.946  15.082  3.2312  1.1899  0.7745
  767MPD2    H311329   2.780   0.866  14.905 -0.4885  0.4472 -1.7548
  767MPD2     N11330   3.119   0.727  14.659 -1.0097  0.8816  0.2479
  767MPD2    H511331   3.216   0.699  14.666 -1.0015  0.7056 -0.6567
  767MPD2    N111332   3.174   0.911  15.107 -0.4255  0.2172  0.1621
  767MPD2    H711333   3.129   0.966  15.179  2.6560  1.1467  1.4118
  768MPD2     C11334   4.141   4.216  10.414  0.1110  0.6108 -0.2241
  768MPD2    C111335   4.047   4.170  10.503 -0.0577  0.4095 -0.0479
  768MPD2    C211336   4.092   4.153  10.631  0.4406 -0.0733 -1.2484
  768MPD2    C311337   4.222   4.172  10.671 -0.4619  0.5089 -0.5113
  768MPD2    C411338   4.313   4.213  10.574  0.0991 -0.8973  0.2015
  768MPD2    C511339   4.271   4.242  10.443  0.7245 -0.2909 -0.1948
  768MPD2     H11340   4.015   4.144  10.706  0.7954  0.6371 -0.7935
  768MPD2    H111341   4.419   4.224  10.595 -0.0054  0.8758 -0.1843
  768MPD2    H211342   4.108   4.232  10.313  0.6488  0.5948 -0.4043
  768MPD2    H311343   4.330   4.298  10.372 -1.0154 -1.7477 -2.8004
  768MPD2     N11344   4.277   4.161  10.803 -0.3667 -0.7269  0.4394
  768MPD2    H511345   4.378   4.170  10.806 -0.7014  2.6907  1.3065
  768MPD2    N111346   3.910   4.162  10.464 -0.0075  0.8062 -0.4315
  768MPD2    H711347   3.885   4.213  10.380 -1.8397  0.8218  0.1353
  769MPD2     C11348   4.543   2.721  14.887 -0.6031  0.2540  0.3774
  769MPD2    C111349   4.628   2.613  14.914 -0.0195 -0.0547 -0.0399
  769MPD2    C211350   0.026   2.627  14.967 -0.2100 -0.1641  0.0321
  769MPD2    C311351   0.069   2.749  15.012 -0.3471  0.5409 -0.0207
  769MPD2    C411352   4.700   2.855  15.009 -0.0107 -0.8896 -0.5439
  769MPD2    C511353   4.588   2.840  14.936  0.2967  0.3153  0.5605
  769MPD2     H11354   0.088   2.540  14.982 -0.9597 -0.7111 -0.0702
  769MPD2    H111355   4.720   2.954  15.049  0.8022 -0.4259 -2.0912
  769MPD2    H211356   4.452   2.724  14.829  1.7245 -0.2468 -3.3195
  769MPD2    H311357   4.534   2.930  14.909 -0.4501 -0.2402  0.2142
  769MPD2     N11358   0.196   2.749  15.068  0.2642 -0.5693 -0.2128
  769MPD2    H511359   0.242   2.660  15.082  1.2219  0.0182  0.4302
  769MPD2    N111360   4.603   2.477  14.871 -0.4663  0.6012 -0.2807
  769MPD2    H711361   4.677   2.409  14.887  1.0853  1.7857 -2.3653
  770MPD2     C11362   0.034   1.568  15.168 -0.1100 -0.0361 -0.6789
  770MPD2    C111363   4.689   1.531  15.053  0.2802  0.8438  0.5494
  770MPD2    C211364   4.630   1.638  14.978 -0.3721 -0.0386  0.3293
  770MPD2    C311365   4.660   1.771  15.001 -0.2846  0.0605  0.6821
  770MPD2    C411366   0.027   1.800  15.098  0.0589  0.6336  0.5604
  770MPD2    C511367   0.067   1.701  15.188 -0.6310  0.5782  0.1970
  770MPD2     H11368   4.565   1.617  14.894 -0.7141  1.3910  0.2320
  770MPD2    H111369   0.049   1.904  15.120  0.0580  0.7754 -0.1116
  770MPD2    H211370   0.055   1.493  15.243 -1.9393  0.5105  0.4057
  770MPD2    H311371   0.123   1.717  15.280 -1.0670  0.3431  0.5029
  770MPD2     N11372   4.609   1.876  14.914  0.6375  0.0107  0.8017
  770MPD2    H511373   4.536   1.842  14.852  1.3184 -0.3919  0.2310
  770MPD2    N111374   4.656   1.393  15.038 -0.2658  0.7432 -0.1953
  770MPD2    H711375   4.702   1.333  15.106  1.9761  1.2239 -1.3018
  771MPD2     C11376   1.178   0.199  13.440  0.7779  0.0071 -0.1982
  771MPD2    C111377   1.151   0.239  13.312 -0.4530 -0.5493 -0.1544
  771MPD2    C211378   1.096   0.148  13.224  0.7284 -0.2216 -0.0262
  771MPD2    C311379   1.073   0.015  13.263  0.6405 -0.1078 -0.1974
  771MPD2    C411380   1.089   4.698  13.391  0.2087  0.0058 -0.4959
  771MPD2    C511381   1.147   0.071  13.480 -0.2158  0.1673  0.6198
  771MPD2     H11382   1.073   0.182  13.124  0.2809  0.6722  0.3854
  771MPD2    H111383   1.074   4.599  13.433 -1.0482  0.3897 -0.0550
  771MPD2    H211384   1.212   0.264  13.519  1.8838 -0.7285 -0.0700
  771MPD2    H311385   1.179   0.050  13.581 -1.2979 -0.0042  0.9304
  771MPD2     N11386   1.034   4.648  13.162  0.3425  0.4909 -0.0141
  771MPD2    H511387   0.998   4.681  13.073  2.6007 -1.4612 -1.6784
  771MPD2    N111388   1.166   0.373  13.269 -0.2715 -0.5336 -0.1279
  771MPD2    H711389   1.112   0.397  13.186 -1.5733 -2.3439  0.1954
  772MPD2     C11390   0.657   0.758  13.025  0.7437  0.1478  0.2316
  772MPD2    C111391   0.701   0.756  13.159 -0.3465 -1.0521  0.0300
  772MPD2    C211392   0.605   0.766  13.252  0.2779 -0.7065 -0.0535
  772MPD2    C311393   0.467   0.757  13.220  0.0093 -0.6678  0.3238
  772MPD2    C411394   0.425   0.748  13.085 -0.0669  0.1728 -0.4282
  772MPD2    C511395   0.521   0.739  12.988 -0.1829 -0.6436  0.0419
  772MPD2     H11396   0.630   0.781  13.357 -0.0304  0.9526 -0.2092
  772MPD2    H111397   0.322   0.727  13.058 -0.2314 -2.7921  2.4173
  772MPD2    H211398   0.731   0.769  12.947  0.1760 -0.7721 -0.4389
  772MPD2    H311399   0.494   0.718  12.885  0.2321  0.0623 -0.2146
  772MPD2     N11400   0.361   0.750  13.316  0.6948 -0.4985  0.4512
  772MPD2    H511401   0.270   0.719  13.286  0.5909  0.9654 -0.7534
  772MPD2    N111402   0.839   0.762  13.199  0.3167 -0.2465  0.0622
  772MPD2    H711403   0.876   0.773  13.293 -1.4756 -0.4504  0.7864
  773MPD2     C11404   0.184   2.322   0.007  0.2012  0.2070 -0.3864
  773MPD2    C111405   0.147   2.225  17.617 -0.1828  0.1681 -0.4908
  773MPD2    C211406   0.219   2.111  17.605  0.5724 -0.3113  0.0770
  773MPD2    C311407   0.335   2.101  17.679 -1.0560 -0.5564 -0.2557
  773MPD2    C411408   0.373   2.206   0.069 -0.2802  0.2872  0.9310
  773MPD2    C511409   0.297   2.319   0.079 -0.0650 -0.5069 -0.1078
  773MPD2     H11410   0.194   2.036  17.530  4.5809 -2.4406  0.8710
  773MPD2    H111411   0.472   2.213   0.114 -0.0597 -0.4421  0.5601
  773MPD2    H211412   0.123   2.410   0.023 -0.5471 -0.4217  0.2718
  773MPD2    H311413   0.326   2.409   0.133 -1.0330  0.1951 -0.7539
  773MPD2     N11414   0.411   1.982  17.658  0.0397  0.1491  0.0343
  773MPD2    H511415   0.384   1.921  17.581  0.8524  1.4603 -1.2748
  773MPD2    N111416   0.038   2.230  17.524  0.1448  0.5174 -0.7013
  773MPD2    H711417   0.034   2.176  17.438 -0.8498  1.0049 -0.9634
  774MPD2     C11418   3.483   0.890  13.588 -0.2900  0.7918  0.5989
  774MPD2    C111419   3.621   0.883  13.619  0.5566 -0.0352 -0.3410
  774MPD2    C211420   3.703   0.990  13.608  0.4730  0.0462 -0.1947
  774MPD2    C311421   3.655   1.104  13.545 -0.8861  0.2366  0.2656
  774MPD2    C411422   3.518   1.120  13.514  0.3457 -0.0517  0.4448
  774MPD2    C511423   3.437   1.009  13.534 -0.0917 -0.3970  0.4054
  774MPD2     H11424   3.809   0.994  13.629  0.7942  0.1456 -1.8351
  774MPD2    H111425   3.475   1.214  13.479 -1.9789 -1.2376  0.1422
  774MPD2    H211426   3.414   0.809  13.611 -1.6181  1.8382  0.3629
  774MPD2    H311427   3.335   1.010  13.498  0.3408 -0.2434 -0.7925
  774MPD2     N11428   3.744   1.214  13.514  0.2381 -0.0496  0.3063
  774MPD2    H511429   3.845   1.199  13.517 -0.2618 -3.5224 -0.6801
  774MPD2    N111430   3.670   0.758  13.661 -0.1419 -0.1623 -0.0971
  774MPD2    H711431   3.598   0.692  13.689 -0.4358  0.3707  0.3763
  775MPD2     C11432   0.741   2.428  15.549 -0.5441 -0.1623  0.1137
  775MPD2    C111433   0.823   2.478  15.649  0.3026  0.3137 -0.4025
  775MPD2    C211434   0.949   2.509  15.616 -0.2911  0.9534  0.0897
  775MPD2    C311435   0.988   2.493  15.481  0.5467 -0.4888 -0.4318
  775MPD2    C411436   0.909   2.430  15.388  0.2901  1.0562  0.0922
  775MPD2    C511437   0.779   2.402  15.421 -0.1592 -0.6756  0.3091
  775MPD2     H11438   1.020   2.544  15.690 -0.1524  4.0037 -1.4888
  775MPD2    H111439   0.945   2.419  15.287  1.2579  1.4421  0.3892
  775MPD2    H211440   0.638   2.404  15.573 -1.2774  2.2330 -0.6579
  775MPD2    H311441   0.714   2.353  15.350  1.7852 -1.5943 -0.8341
  775MPD2     N11442   1.113   2.542  15.438 -0.2407  0.1134  0.3357
  775MPD2    H511443   1.121   2.543  15.337  2.4885 -2.5682  0.5131
  775MPD2    N111444   0.765   2.500  15.776  0.0219 -0.4716  0.0836
  775MPD2    H711445   0.674   2.459  15.796 -0.9285  1.7894  0.3472
  776MPD2     C11446   0.132   2.761  11.678 -0.0503  0.0625 -0.1973
  776MPD2    C111447   0.017   2.780  11.620  0.0593  0.2437  0.2141
  776MPD2    C211448   4.698   2.912  11.579 -0.1648  0.1781  0.3565
  776MPD2    C311449   0.053   3.018  11.605 -0.1856  0.7972 -0.1703
  776MPD2    C411450   0.175   2.999  11.667 -0.0131  0.2031 -0.1129
  776MPD2    C511451   0.211   2.873  11.701  0.8174 -0.0995 -0.1279
  776MPD2     H11452   4.604   2.926  11.526  0.5831  1.0524 -0.7164
  776MPD2    H111453   0.248   3.076  11.687 -0.1967  0.1848  0.6590
  776MPD2    H211454   0.177   2.668  11.711 -1.9316 -1.6433 -2.4180
  776MPD2    H311455   0.308   2.848  11.743 -0.1749  0.4925  2.4933
  776MPD2     N11456   0.021   3.149  11.562  0.2824  0.1897 -0.6026
  776MPD2    H511457   0.083   3.224  11.590 -0.9635  1.2023 -0.5158
  776MPD2    N111458   4.671   2.664  11.585  0.4585  0.3176 -0.1048
  776MPD2    H711459   0.002   2.579  11.587  0.0492  0.0423 -0.7436
  777MPD2     C11460   0.167   1.129   0.639 -0.0638 -0.1502  0.5701
  777MPD2    C111461   0.217   1.088   0.761 -0.0410  0.5247  0.1322
  777MPD2    C211462   0.266   0.964   0.786  0.5041  0.4639  0.1631
  777MPD2    C311463   0.277   0.876   0.687 -0.5041 -0.4886  0.4813
  777MPD2    C411464   0.230   0.906   0.565  0.5693  0.6589 -0.2880
  777MPD2    C511465   0.171   1.029   0.546 -0.7756 -0.6335  0.1675
  777MPD2     H11466   0.304   0.939   0.884  0.9301  0.6343  0.0407
  777MPD2    H111467   0.201   0.828   0.495  1.4407 -1.1372  1.3385
  777MPD2    H211468   0.121   1.224   0.615 -2.1946 -1.1281  0.7926
  777MPD2    H311469   0.119   1.050   0.453  1.1543 -0.4065 -0.8738
  777MPD2     N11470   0.336   0.752   0.718 -0.4604  0.9852  0.0511
  777MPD2    H511471   0.353   0.730   0.816  0.9798  0.8658 -0.2336
  777MPD2    N111472   0.196   1.174   0.874 -0.8136 -0.0135 -0.2552
  777MPD2    H711473   0.125   1.244   0.856 -3.1844 -2.5548 -0.7379
  778MPD2     C11474   0.948   0.072  15.484 -0.9320 -0.2725  0.5256
  778MPD2    C111475   0.904   4.712  15.383 -0.0554 -0.4424  0.6140
  778MPD2    C211476   0.950   0.012  15.252 -0.8236 -0.0593  0.2888
  778MPD2    C311477   1.031   0.119  15.225 -0.2409  0.2576  0.9517
  778MPD2    C411478   1.067   0.208  15.324  0.7418 -0.0792  0.0483
  778MPD2    C511479   1.031   0.181  15.453 -0.1686  0.6779  0.5082
  778MPD2     H11480   0.919   4.669  15.172 -1.6003  1.8414 -0.9720
  778MPD2    H111481   1.123   0.298  15.300 -0.6408  0.8757  0.4444
  778MPD2    H211482   0.916   0.075  15.587 -2.3890  1.8282  0.0109
  778MPD2    H311483   1.056   0.251  15.532 -0.3406  0.4712  0.7495
  778MPD2     N11484   1.087   0.137  15.090  0.0603 -0.4296  0.0520
  778MPD2    H511485   1.048   0.073  15.021  1.1298  0.3925 -1.3199
  778MPD2    N111486   0.813   4.603  15.399  0.6191  0.5799  0.0821
  778MPD2    H711487   0.792   4.538  15.324  1.1280  0.0909  0.3548
  779MPD2     C11488   0.470   3.797  14.406 -0.6588  0.4385 -0.6277
  779MPD2    C111489   0.596   3.747  14.375 -1.0227 -0.2530 -0.1051
  779MPD2    C211490   0.701   3.836  14.395  0.3576 -0.2620 -0.0885
  779MPD2    C311491   0.676   3.976  14.404  0.0612  0.0170 -0.5172
  779MPD2    C411492   0.543   4.022  14.410 -0.3870  0.0738  0.3784
  779MPD2    C511493   0.448   3.930  14.420 -0.4771 -1.1349 -0.0391
  779MPD2     H11494   0.803   3.798  14.388 -0.3296 -1.5897 -3.1043
  779MPD2    H111495   0.501   4.120  14.428  1.1983  1.0080 -0.9910
  779MPD2    H211496   0.382   3.735  14.411  0.2843 -0.8183  0.4414
  779MPD2    H311497   0.349   3.966  14.447 -0.7113 -1.5076 -0.4066
  779MPD2     N11498   0.783   4.067  14.421  0.7057 -0.5006  0.6937
  779MPD2    H511499   0.878   4.035  14.433  2.2781  3.5502 -0.8667
  779MPD2    N111500   0.612   3.602  14.355  0.3964  0.1703  0.1654
  779MPD2    H711501   0.524   3.553  14.341 -0.2204  0.7929  1.7743
  780MPD2     C11502   0.293   4.149   0.696  0.1688 -0.0583 -0.2150
  780MPD2    C111503   0.314   4.039   0.626  0.8957 -0.5213 -0.7476
  780MPD2    C211504   0.381   4.042   0.505  0.9907 -0.8758 -0.0991
  780MPD2    C311505   0.433   4.165   0.455  0.2237 -0.2389 -0.5213
  780MPD2    C411506   0.411   4.275   0.540  0.2284  0.2047 -0.7138
  780MPD2    C511507   0.344   4.273   0.657 -0.4885 -0.0458  0.6314
  780MPD2     H11508   0.406   3.951   0.452  3.6119  0.3929 -1.0349
  780MPD2    H111509   0.466   4.367   0.521 -1.2350  0.9140 -1.5017
  780MPD2    H211510   0.244   4.140   0.792 -1.5851 -2.1354 -1.3199
  780MPD2    H311511   0.323   4.355   0.726 -2.2505 -1.3671  1.6932
  780MPD2     N11512   0.520   4.158   0.344 -0.0541 -0.2299  0.1890
  780MPD2    H511513   0.512   4.069   0.298 -0.6721  1.5761 -3.1572
  780MPD2    N111514   0.280   3.918   0.692 -0.2658  0.3889  0.5271
  780MPD2    H711515   0.257   3.919   0.790  0.0561 -1.8155  0.6281
  781MPD2     C11516   2.185   0.804  11.786  0.2695 -0.2842  0.4742
  781MPD2    C111517   2.292   0.811  11.873 -0.1997 -0.0253 -0.6667
  781MPD2    C211518   2.417   0.817  11.815  0.7449  0.8783  0.6770
  781MPD2    C311519   2.444   0.806  11.682 -0.1714  0.4030  0.0828
  781MPD2    C411520   2.333   0.785  11.599 -0.3259  0.1395 -0.3258
  781MPD2    C511521   2.205   0.788  11.654  0.0141  0.9246 -0.2655
  781MPD2     H11522   2.495   0.809  11.890 -1.1553 -2.0125  2.3400
  781MPD2    H111523   2.334   0.778  11.491  1.0122  0.5965 -0.3357
  781MPD2    H211524   2.083   0.796  11.822  0.4469  2.5456  1.6141
  781MPD2    H311525   2.123   0.792  11.583 -0.1143 -1.2566 -0.2669
  781MPD2     N11526   2.576   0.824  11.621  0.4107  0.0862  0.0633
  781MPD2    H511527   2.571   0.825  11.520  3.1960 -1.6279 -0.0813
  781MPD2    N111528   2.281   0.803  12.019  0.2994 -0.1128 -0.3731
  781MPD2    H711529   2.371   0.795  12.065  0.7053  2.4375 -0.6996
  782MPD2     C11530   0.143   1.910  10.288  0.3740 -0.1221  0.5214
  782MPD2    C111531   0.269   1.876  10.257  0.3279 -1.2832  0.3763
  782MPD2    C211532   0.375   1.920  10.335  0.7080 -0.1635 -0.4281
  782MPD2    C311533   0.352   1.994  10.450  0.3433  0.4221  0.2499
  782MPD2    C411534   0.221   2.025  10.477 -0.5809  0.9408  0.2825
  782MPD2    C511535   0.113   1.994  10.392 -0.1105 -0.1573  0.2743
  782MPD2     H11536   0.476   1.893  10.304  1.1019  0.9783 -0.1277
  782MPD2    H111537   0.193   2.078  10.567 -1.4866 -1.8767  1.6864
  782MPD2    H211538   0.073   1.870  10.215  1.2853  2.2373 -1.6800
  782MPD2    H311539   0.007   2.008  10.414 -0.3610 -0.2492 -0.9092
  782MPD2     N11540   0.460   2.039  10.530  0.3616  0.3207 -0.4666
  782MPD2    H511541   0.554   2.015  10.503 -0.0866  2.7549 -4.1976
  782MPD2    N111542   0.296   1.789  10.146  0.6532 -0.9011  0.0475
  782MPD2    H711543   0.213   1.739  10.116  0.1865  0.3706 -0.8033
  783MPD2     C11544   0.123   1.147  10.643 -0.0800  0.1739 -0.7089
  783MPD2    C111545   0.160   1.278  10.660  0.9873 -0.1273  0.2219
  783MPD2    C211546   0.225   1.345  10.554  0.5585  0.7534 -0.3533
  783MPD2    C311547   0.259   1.274  10.441  0.0420  0.0707 -0.6215
  783MPD2    C411548   0.235   1.135  10.433  0.2005 -0.4540 -0.3383
  783MPD2    C511549   0.171   1.077  10.536  0.5855 -0.3851  0.0050
  783MPD2     H11550   0.235   1.453  10.550 -2.7457  1.0912  0.7720
  783MPD2    H111551   0.261   1.068  10.352  0.9039  0.0202 -0.5077
  783MPD2    H211552   0.063   1.093  10.715  1.2406 -2.2363 -1.4210
  783MPD2    H311553   0.151   0.971  10.546 -0.9573 -0.2020 -1.2593
  783MPD2     N11554   0.312   1.350  10.334  0.2761  0.3375  0.3716
  783MPD2    H511555   0.315   1.450  10.352 -0.5652  0.2986  0.7125
  783MPD2    N111556   0.102   1.348  10.770 -0.2859 -0.1199  1.0397
  783MPD2    H711557   0.045   1.297  10.837 -2.5144 -0.8645 -1.4393
  784MPD2     C11558   1.775   2.842   1.547 -0.5583  0.2080  0.2213
  784MPD2    C111559   1.873   2.939   1.502 -0.4916  0.4160 -0.1371
  784MPD2    C211560   1.849   3.076   1.509  0.0766 -0.3962 -0.1991
  784MPD2    C311561   1.725   3.126   1.543 -0.6340  0.0384  0.1437
  784MPD2    C411562   1.627   3.033   1.575 -0.2854 -0.3078 -0.2798
  784MPD2    C511563   1.657   2.904   1.581 -0.5386 -0.5298 -0.0596
  784MPD2     H11564   1.925   3.149   1.485 -0.2245  0.7834  2.3593
  784MPD2    H111565   1.528   3.069   1.601 -0.1335  1.1230 -1.6558
  784MPD2    H211566   1.793   2.735   1.546 -4.4154 -0.4112 -1.0409
  784MPD2    H311567   1.580   2.837   1.618  0.1803 -0.5566  1.3712
  784MPD2     N11568   1.714   3.267   1.535 -0.2000  0.3468  1.3944
  784MPD2    H511569   1.785   3.321   1.488 -0.2215  1.2947  2.4755
  784MPD2    N111570   2.007   2.907   1.477  0.6686 -0.1550  0.0433
  784MPD2    H711571   2.069   2.987   1.466  0.4370  0.2854  1.8892
  785MPD2     C11572   1.862   4.689   9.979  0.3106 -0.5010 -0.0054
  785MPD2    C111573   1.739   0.023   9.992 -0.0123 -0.1544  0.6341
  785MPD2    C211574   1.640   4.716   9.899 -0.4973  0.1347  0.4967
  785MPD2    C311575   1.670   4.642   9.787  0.5388  0.2483  0.1024
  785MPD2    C411576   1.793   4.589   9.773  0.3988  0.3362  0.1984
  785MPD2    C511577   1.889   4.606   9.873 -0.4444  0.7260  0.4626
  785MPD2     H11578   1.545   0.044   9.912 -0.9404 -0.1004 -1.9029
  785MPD2    H111579   1.822   4.525   9.690  1.2206  1.0407 -0.0589
  785MPD2    H211580   1.938   4.693  10.057 -0.4678  0.4665  0.6972
  785MPD2    H311581   1.981   4.550   9.859  0.3495  2.3946 -0.9011
  785MPD2     N11582   1.567   4.645   9.689  0.1100  0.8210 -0.2695
  785MPD2    H511583   1.480   4.689   9.716 -0.1742 -0.3424  0.7354
  785MPD2    N111584   1.708   0.117  10.096  0.2307 -0.9701 -1.0544
  785MPD2    H711585   1.620   0.167  10.097 -0.1559 -1.6900  1.1534
  786MPD2     C11586   1.707   3.566  14.501 -0.1427  0.0244  0.3725
  786MPD2    C111587   1.728   3.442  14.554  0.6925 -0.0239 -0.0809
  786MPD2    C211588   1.811   3.436  14.664  0.1026  0.3010  0.4602
  786MPD2    C311589   1.890   3.537  14.713  0.6017 -0.9379 -0.1762
  786MPD2    C411590   1.887   3.657  14.634 -0.6437  0.3783 -0.0932
  786MPD2    C511591   1.793   3.670  14.536  0.2313  0.8044  0.4087
  786MPD2     H11592   1.812   3.341  14.717 -1.5957  0.1559  0.2152
  786MPD2    H111593   1.946   3.746  14.651 -0.6451  0.7784 -2.1871
  786MPD2    H211594   1.631   3.578  14.425  1.7544 -2.2809 -1.8958
  786MPD2    H311595   1.784   3.768  14.490 -1.8849  1.2214  1.7082
  786MPD2     N11596   1.983   3.532  14.821 -0.6563 -0.6018  0.1510
  786MPD2    H511597   2.038   3.615  14.838  1.1746 -1.7723  0.0157
  786MPD2    N111598   1.655   3.330  14.515  0.1301 -0.1408 -0.0869
  786MPD2    H711599   1.687   3.244  14.557 -1.6923 -1.1173 -0.6839
  787MPD2     C11600   1.696   2.801  14.776 -0.4711 -0.4043  0.2313
  787MPD2    C111601   1.686   2.767  14.641  0.0945  0.7462  0.1825
  787MPD2    C211602   1.734   2.639  14.603 -0.1243 -0.5234 -0.1495
  787MPD2    C311603   1.770   2.545  14.707 -0.0781 -0.0055 -0.0322
  787MPD2    C411604   1.768   2.586  14.838  0.8247 -0.1127  0.8167
  787MPD2    C511605   1.735   2.710  14.876  0.3350 -0.5401  0.2091
  787MPD2     H11606   1.750   2.623  14.497  2.9739 -4.3969  0.8876
  787MPD2    H111607   1.804   2.524  14.920  1.9786 -0.1921  0.2530
  787MPD2    H211608   1.684   2.904  14.807 -2.1047 -0.4266 -0.3597
  787MPD2    H311609   1.743   2.740  14.980  0.3427 -0.5842  0.2209
  787MPD2     N11610   1.826   2.423  14.663  0.4269  0.3450 -0.1848
  787MPD2    H511611   1.865   2.431  14.570  1.6146 -1.5361  0.1456
  787MPD2    N111612   1.660   2.872  14.552 -0.2301 -0.6764  0.3766
  787MPD2    H711613   1.657   2.963  14.597 -0.4114 -0.4058 -0.1934
  788MPD2     C11614   3.457   1.390  17.677 -0.2158 -0.5243 -1.0312
  788MPD2    C111615   3.495   1.310   0.090 -0.4202  0.0294  0.0602
  788MPD2    C211616   3.506   1.173   0.070 -0.4549 -0.1319 -0.3984
  788MPD2    C311617   3.453   1.111  17.651  0.1621 -0.7157 -0.0118
  788MPD2    C411618   3.408   1.194  17.555  0.3248 -0.0744  0.8273
  788MPD2    C511619   3.416   1.332  17.565 -0.5566 -0.7200  0.0536
  788MPD2     H11620   3.559   1.122   0.150  2.4417  0.0385 -2.1925
  788MPD2    H111621   3.366   1.145  17.468  3.5391  1.0382 -1.3548
  788MPD2    H211622   3.448   1.498  17.679  3.1701 -0.3120  1.7207
  788MPD2    H311623   3.379   1.396  17.486 -0.1550  1.3797  1.5385
  788MPD2     N11624   3.468   0.980  17.614  0.3239  0.6353 -0.1202
  788MPD2    H511625   3.419   0.946  17.532  0.1879  3.8031 -1.3806
  788MPD2    N111626   3.543   1.369   0.209  0.1995  0.7261  0.4682
  788MPD2    H711627   3.573   1.304   0.280 -0.0416  0.1190  0.0192
  789MPD2     C11628   3.826   1.152  16.053 -0.0465  0.3357  0.3154
  789MPD2    C111629   3.769   1.058  16.129  0.3153 -0.0271  0.4015
  789MPD2    C211630   3.635   1.074  16.170 -0.1432  0.0014 -0.3529
  789MPD2    C311631   3.558   1.191  16.148  0.0224 -0.6465  0.6948
  789MPD2    C411632   3.626   1.282  16.066 -0.2279  0.3478  0.5830
  789MPD2    C511633   3.751   1.263  16.016 -0.4952  0.4044  0.6592
  789MPD2     H11634   3.596   0.995  16.233  0.2815 -0.5442 -0.7829
  789MPD2    H111635   3.576   1.373  16.035 -0.4132  0.5418  1.4648
  789MPD2    H211636   3.923   1.138  16.007  0.0841  1.8186  0.1473
  789MPD2    H311637   3.793   1.331  15.942  1.0902 -0.8891  0.3816
  789MPD2     N11638   3.425   1.215  16.200  0.2848 -0.2970 -0.6948
  789MPD2    H511639   3.390   1.306  16.172  2.4272  0.8678  0.4801
  789MPD2    N111640   3.832   0.933  16.166  0.3302  0.0773  0.6929
  789MPD2    H711641   3.779   0.862  16.215 -1.1011  1.4374  1.1031
  790MPD2     C11642   4.493   3.147  13.518 -0.1998  0.3694 -0.6240
  790MPD2    C111643   4.449   3.019  13.509  0.1823 -0.5162  0.0632
  790MPD2    C211644   4.382   2.984  13.390  0.3418  0.5192  0.6190
  790MPD2    C311645   4.389   3.065  13.272  0.2563  0.8613 -0.1319
  790MPD2    C411646   4.446   3.191  13.285  0.2988 -0.2694 -0.3272
  790MPD2    C511647   4.490   3.230  13.406  0.2199 -0.4339 -0.4201
  790MPD2     H11648   4.349   2.881  13.388 -0.4866  0.8095 -0.2301
  790MPD2    H111649   4.451   3.246  13.192  0.1085  3.5765  1.9640
  790MPD2    H211650   4.521   3.194  13.612  0.8950  3.9915 -2.7518
  790MPD2    H311651   4.536   3.327  13.417 -1.0163  0.3012 -1.6326
  790MPD2     N11652   4.339   3.035  13.147  0.1760 -0.2271 -0.5340
  790MPD2    H511653   4.369   3.098  13.073  1.0626 -0.4749 -0.3854
  790MPD2    N111654   4.464   2.948  13.626  0.7184  0.6812 -0.4139
  790MPD2    H711655   4.535   2.968  13.695  1.4813  1.9019 -1.5463
  791MPD2     C11656   3.843   2.897  12.434 -0.5818 -0.0482 -0.0532
  791MPD2    C111657   3.868   2.817  12.545 -0.8499  0.4295  0.0273
  791MPD2    C211658   3.785   2.709  12.571  0.2830 -0.4408  0.1776
  791MPD2    C311659   3.665   2.699  12.499  0.8247  0.0600  0.3180
  791MPD2    C411660   3.628   2.788  12.399  0.2816 -0.6049  0.1508
  791MPD2    C511661   3.721   2.889  12.369 -0.1992  0.0330  0.1066
  791MPD2     H11662   3.805   2.632  12.644 -1.0634 -0.2357  0.7486
  791MPD2    H111663   3.540   2.785  12.336 -1.2784  0.2965  2.3079
  791MPD2    H211664   3.918   2.965  12.397 -0.8188 -0.2583 -0.9162
  791MPD2    H311665   3.709   2.951  12.281  1.3829 -0.4791 -0.4778
  791MPD2     N11666   3.584   2.589  12.524 -0.6191 -0.2302  0.0962
  791MPD2    H511667   3.620   2.526  12.595 -0.4809 -2.0894 -1.6369
  791MPD2    N111668   3.985   2.848  12.627 -0.7434 -0.5401 -0.3058
  791MPD2    H711669   4.041   2.927  12.597  0.0150 -0.9365  0.0821
  792MPD2     C11670   0.441   2.534  11.166  0.2889  0.3128 -0.4636
  792MPD2    C111671   0.319   2.577  11.206 -0.0510  0.0658 -0.1689
  792MPD2    C211672   0.204   2.490  11.189  0.2813 -0.5461  0.4797
  792MPD2    C311673   0.214   2.373  11.116  0.0846 -0.4021  0.3024
  792MPD2    C411674   0.342   2.331  11.074 -0.2254 -0.3494 -0.7019
  792MPD2    C511675   0.451   2.419  11.094  0.6015  0.5059  0.0920
  792MPD2     H11676   0.113   2.517  11.243  1.4190  0.8104  1.7127
  792MPD2    H111677   0.356   2.242  11.013  0.8343 -1.2658  0.8727
  792MPD2    H211678   0.532   2.593  11.171  0.5119 -0.2629  2.1342
  792MPD2    H311679   0.544   2.397  11.044  0.7031 -0.6704  0.7981
  792MPD2     N11680   0.102   2.295  11.078  0.5061  0.3100 -0.9848
  792MPD2    H511681   0.128   2.211  11.026 -2.2066  0.0941 -1.9827
  792MPD2    N111682   0.292   2.716  11.244 -0.1591  0.2719  0.4635
  792MPD2    H711683   0.371   2.780  11.245 -0.0264  0.1053  0.6153
  793MPD2     C11684   4.420   2.621  10.351  0.1479  0.3041 -0.0936
  793MPD2    C111685   4.492   2.511  10.341  0.6419  0.3179  0.3164
  793MPD2    C211686   4.478   2.418  10.439 -0.3752 -0.2130 -0.0375
  793MPD2    C311687   4.412   2.440  10.559 -0.1128  0.0556  0.4052
  793MPD2    C411688   4.346   2.564  10.574 -0.1881 -0.5917  0.5447
  793MPD2    C511689   4.346   2.654  10.466  0.3167 -0.0489  0.3256
  793MPD2     H11690   4.542   2.331  10.434 -2.0738 -1.3272 -1.9565
  793MPD2    H111691   4.284   2.577  10.662 -1.6208 -1.9239 -0.2615
  793MPD2    H211692   4.427   2.695  10.272  0.6391  1.1129  0.7205
  793MPD2    H311693   4.277   2.737  10.456 -0.5543 -1.0962 -2.3237
  793MPD2     N11694   4.427   2.340  10.662 -0.7397 -0.3366 -0.6719
  793MPD2    H511695   4.480   2.257  10.635 -1.8218 -1.5135  0.8213
  793MPD2    N111696   4.587   2.487  10.242 -0.1238  0.1362  0.3989
  793MPD2    H711697   4.626   2.394  10.229  0.2416  0.7831 -3.2027
  794MPD2     C11698   4.569   2.266  16.770 -0.2354  0.4536 -0.1238
  794MPD2    C111699   4.465   2.305  16.848  0.1397  0.3671  0.3926
  794MPD2    C211700   4.352   2.353  16.788  0.4339  0.4791 -0.0172
  794MPD2    C311701   4.330   2.363  16.653 -0.4783 -0.2964  0.1798
  794MPD2    C411702   4.440   2.327  16.574 -0.3884  0.4182 -0.4605
  794MPD2    C511703   4.547   2.282  16.631  0.4899 -0.1398 -0.3985
  794MPD2     H11704   4.272   2.357  16.861  0.8816 -0.7978  0.5521
  794MPD2    H111705   4.439   2.323  16.465  2.1223  0.7569 -0.4770
  794MPD2    H211706   4.666   2.226  16.800 -0.3226 -0.0517 -0.5111
  794MPD2    H311707   4.617   2.254  16.554 -0.6401 -2.4813 -0.5904
  794MPD2     N11708   4.222   2.416  16.587 -0.3330 -0.1279  0.0906
  794MPD2    H511709   4.205   2.410  16.487 -0.5960 -2.5341  0.2803
  794MPD2    N111710   4.458   2.280  16.982 -0.1191  0.1636 -0.1597
  794MPD2    H711711   4.373   2.301  17.033 -1.0677 -3.1846 -0.3654
  795MPD2     C11712   2.420   4.389  13.587  0.4367  0.7334 -0.1036
  795MPD2    C111713   2.346   4.302  13.507 -0.6948 -0.5628  0.3394
  795MPD2    C211714   2.410   4.255  13.398 -0.5572 -0.1379  0.4022
  795MPD2    C311715   2.540   4.287  13.368  0.0450 -0.5482 -0.1579
  795MPD2    C411716   2.615   4.374  13.443 -0.3565 -0.3534 -0.8117
  795MPD2    C511717   2.550   4.426  13.546 -0.6144  0.1637 -0.1041
  795MPD2     H11718   2.358   4.183  13.335 -0.6027  1.5816 -1.4957
  795MPD2    H111719   2.714   4.410  13.420 -0.6572  0.0856 -1.4472
  795MPD2    H211720   2.382   4.446  13.671 -0.6618 -1.3940  0.8552
  795MPD2    H311721   2.599   4.505  13.602 -2.0900 -0.0841  1.5540
  795MPD2     N11722   2.586   4.226  13.247  0.3761  0.1799 -0.2414
  795MPD2    H511723   2.516   4.192  13.182  0.5867  0.1134 -0.4336
  795MPD2    N111724   2.216   4.251  13.541 -0.2556  0.0006  0.1274
  795MPD2    H711725   2.155   4.189  13.488  0.4814 -0.4859 -0.1480
  796MPD2     C11726   1.506   0.721  16.163 -0.5015  0.4115  0.1570
  796MPD2    C111727   1.609   0.800  16.143  0.6825 -0.0208 -0.9746
  796MPD2    C211728   1.613   0.873  16.030 -0.0777  0.8262 -0.7500
  796MPD2    C311729   1.518   0.869  15.934  0.1968 -1.1433 -1.3223
  796MPD2    C411730   1.413   0.786  15.947 -0.8807 -0.1322 -0.1979
  796MPD2    C511731   1.412   0.713  16.063  0.6732 -0.3196 -0.3710
  796MPD2     H11732   1.688   0.950  16.010  0.0483  0.0506 -3.2499
  796MPD2    H111733   1.352   0.757  15.863  2.1510  0.5591 -2.6103
  796MPD2    H211734   1.495   0.660  16.252 -2.2402  0.8952  0.2643
  796MPD2    H311735   1.330   0.642  16.064 -0.4284  0.9538  0.3158
  796MPD2     N11736   1.526   0.964  15.827 -0.0924 -0.3028  0.7185
  796MPD2    H511737   1.613   1.016  15.825 -0.1192 -0.2337  1.2440
  796MPD2    N111738   1.711   0.807  16.239  0.5607  0.2207  0.3976
  796MPD2    H711739   1.698   0.750  16.322 -0.2787 -3.2141 -2.0652
  797MPD2     C11740   3.568   0.426  17.076 -0.5068  0.0816 -0.1636
  797MPD2    C111741   3.473   0.323  17.064  0.0759 -0.9165 -0.2156
  797MPD2    C211742   3.375   0.332  16.969  0.4117 -0.3920  0.0086
  797MPD2    C311743   3.362   0.440  16.882 -0.2277  0.6860  0.5337
  797MPD2    C411744   3.448   0.544  16.904  0.4212  0.5177 -0.1795
  797MPD2    C511745   3.549   0.537  16.996 -0.5515  0.7742 -0.3391
  797MPD2     H11746   3.297   0.256  16.969 -0.2752  0.3253  1.1451
  797MPD2    H111747   3.439   0.631  16.840 -0.9766  0.5459  0.0515
  797MPD2    H211748   3.647   0.431  17.149  0.4862  0.9467 -1.2988
  797MPD2    H311749   3.616   0.623  16.996 -1.8470  1.7819  0.4700
  797MPD2     N11750   3.260   0.461  16.784 -0.3476  0.7002  0.4576
  797MPD2    H511751   3.253   0.556  16.748  1.4007  0.7155  0.1482
  797MPD2    N111752   3.461   0.217  17.162  0.0987  0.8187  0.4281
  797MPD2    H711753   3.381   0.157  17.150  0.0600  1.0552 -0.4748
  798MPD2     C11754   2.741   0.143  17.093 -0.2593  0.4019  0.1006
  798MPD2    C111755   2.849   0.143  17.007  0.6468  0.1875  0.0799
  798MPD2    C211756   2.972   0.092  17.058  0.1105  0.5844  0.0992
  798MPD2    C311757   2.973   0.028  17.183 -0.2158  0.1926 -0.5205
  798MPD2    C411758   2.856   0.013  17.255 -0.1682 -0.4138  0.0693
  798MPD2    C511759   2.745   0.075  17.208 -0.4264  0.5392  0.1126
  798MPD2     H11760   3.062   0.106  16.999 -0.4978  1.7411 -0.5573
  798MPD2    H111761   2.849   4.690  17.353 -2.6894 -1.2560 -0.5355
  798MPD2    H211762   2.652   0.202  17.071  0.3628  1.0046 -0.8259
  798MPD2    H311763   2.648   0.073  17.257 -0.0447  0.0107  0.8538
  798MPD2     N11764   3.098   4.707  17.238  0.1279 -0.5100 -0.0723
  798MPD2    H511765   3.174   4.707  17.170 -2.5308 -0.8729 -3.0207
  798MPD2    N111766   2.852   0.226  16.892  0.3388  0.2359  0.3786
  798MPD2    H711767   2.944   0.216  16.851  0.2046 -1.4326  0.4993
  799MPD2     C11768   1.556   2.157  14.613 -0.5903 -0.0437 -0.0052
  799MPD2    C111769   1.506   2.062  14.528  0.6604  0.2479 -0.3043
  799MPD2    C211770   1.426   2.098  14.420 -0.3133 -0.3659  0.3672
  799MPD2    C311771   1.395   2.228  14.401 -0.1402 -0.5512 -0.5232
  799MPD2    C411772   1.457   2.324  14.481  1.2020  0.0013 -0.4381
  799MPD2    C511773   1.536   2.289  14.584 -0.5459  0.5085  0.6368
  799MPD2     H11774   1.374   2.027  14.356  1.8872 -2.0553  0.4496
  799MPD2    H111775   1.432   2.427  14.460  0.7046  0.0552  0.3952
  799MPD2    H211776   1.619   2.126  14.695  1.5877  2.3648 -0.7672
  799MPD2    H311777   1.580   2.366  14.646  1.8303 -0.6120  0.3524
  799MPD2     N11778   1.301   2.278  14.305  0.5170 -0.4812  0.1409
  799MPD2    H511779   1.289   2.378  14.314 -0.3949 -0.2575 -3.4072
  799MPD2    N111780   1.523   1.917  14.540 -0.0356  0.1022  0.1074
  799MPD2    H711781   1.475   1.867  14.467 -0.9384  0.2931  0.5743
  800MPD2     C11782   2.628   4.039  14.452 -0.1268 -0.0720  0.0713
  800MPD2    C111783   2.696   4.038  14.332  0.6029 -0.2483 -0.0382
  800MPD2    C211784   2.668   3.944  14.238  0.4075  0.3415  0.1004
  800MPD2    C311785   2.569   3.850  14.263 -0.3541 -0.3885 -0.0544
  800MPD2    C411786   2.497   3.855  14.380  0.4189 -0.6491 -0.5956
  800MPD2    C511787   2.523   3.957  14.471  0.7882  0.2594  0.5201
  800MPD2     H11788   2.713   3.958  14.140  2.7881  1.1049  1.3063
  800MPD2    H111789   2.417   3.782  14.388 -1.1122  0.9119 -1.8271
  800MPD2    H211790   2.651   4.112  14.529 -0.7209  1.0788 -0.8486
  800MPD2    H311791   2.470   3.945  14.565 -0.2890  1.1148  0.0141
  800MPD2     N11792   2.558   3.746  14.163 -0.0737 -0.2367  0.1713
  800MPD2    H511793   2.631   3.750  14.092  0.8491 -2.7945  1.0045
  800MPD2    N111794   2.818   4.110  14.332 -0.3041  0.2692 -0.1878
  800MPD2    H711795   2.850   4.133  14.426  0.6808  2.9840 -1.1908
  801MPD2     C11796   3.080   4.459  14.843  0.1602 -0.1700 -0.1783
  801MPD2    C111797   2.992   4.397  14.760  0.5471  0.2097 -0.0986
  801MPD2    C211798   2.864   4.384  14.799  0.6726 -0.0947  0.2892
  801MPD2    C311799   2.820   4.414  14.928  0.0105 -0.0918  0.4862
  801MPD2    C411800   2.911   4.451  15.016 -0.6112 -0.1251  0.2209
  801MPD2    C511801   3.042   4.481  14.977  0.5204  0.1842  0.2878
  801MPD2     H11802   2.795   4.358  14.720  0.6910  1.1884 -0.1388
  801MPD2    H111803   2.887   4.464  15.121 -0.4319 -0.6478  0.3267
  801MPD2    H211804   3.179   4.483  14.807  1.0198  2.1497  3.7556
  801MPD2    H311805   3.113   4.520  15.049 -0.7937  0.8366  1.2258
  801MPD2     N11806   2.685   4.396  14.979 -0.0708  0.1717  0.1998
  801MPD2    H511807   2.672   4.389  15.079  2.3476 -0.9842  0.4378
  801MPD2    N111808   3.024   4.353  14.628  0.1594 -0.2164  0.3117
  801MPD2    H711809   2.944   4.304  14.590  1.0401 -1.7091  0.4117
  802MPD2     C11810   1.752   3.356  17.433 -0.4044 -0.1766  0.4753
  802MPD2    C111811   1.761   3.487  17.388  0.3325 -0.8959 -0.3966
  802MPD2    C211812   1.769   3.519  17.254  0.3742 -0.3233 -0.3381
  802MPD2    C311813   1.783   3.420  17.167  0.2430  0.0547  0.1227
  802MPD2    C411814   1.780   3.286  17.217 -0.5051 -0.2120 -0.1096
  802MPD2    C511815   1.780   3.259  17.348 -0.1857  0.5236 -0.2909
  802MPD2     H11816   1.762   3.621  17.218  0.1943  0.1324  0.9641
  802MPD2    H111817   1.789   3.201  17.150 -0.3399  0.8173 -1.3941
  802MPD2    H211818   1.735   3.344  17.540 -2.0939  0.2452  0.2448
  802MPD2    H311819   1.786   3.156  17.380  1.6580  1.1104  1.1900
  802MPD2     N11820   1.802   3.459  17.036  0.0724  0.0066  0.2654
  802MPD2    H511821   1.784   3.557  17.017 -0.8024 -0.0378  0.8479
  802MPD2    N111822   1.748   3.597  17.480  0.2573  0.0634  0.6793
  802MPD2    H711823   1.768   3.687  17.436 -1.0702  0.5362  1.0283
  803MPD2     C11824   2.617   2.761  11.812  0.8223  0.4270  0.3683
  803MPD2    C111825   2.696   2.780  11.930  0.1379 -0.1798 -0.2841
  803MPD2    C211826   2.657   2.718  12.046  0.3597 -0.1071  0.3266
  803MPD2    C311827   2.537   2.664  12.049 -0.6858  0.1029 -0.3555
  803MPD2    C411828   2.465   2.636  11.935  0.6224  0.6097  0.6315
  803MPD2    C511829   2.503   2.685  11.814  0.3102 -0.4611  0.7017
  803MPD2     H11830   2.718   2.731  12.135  0.4798 -1.1593  0.3965
  803MPD2    H111831   2.378   2.570  11.939 -0.2791  1.6800 -1.3412
  803MPD2    H211832   2.650   2.799  11.716 -0.7445  2.1935  0.5291
  803MPD2    H311833   2.443   2.659  11.727  0.0464  0.8474  0.4994
  803MPD2     N11834   2.494   2.619  12.179 -0.4523  0.5054  0.3432
  803MPD2    H511835   2.562   2.626  12.254  1.2616 -0.8895 -1.0786
  803MPD2    N111836   2.802   2.872  11.937  0.1162  0.3328 -0.0807
  803MPD2    H711837   2.840   2.898  12.028  4.0517 -0.7051 -1.4668
  804MPD2     C11838   2.390   3.987  17.025 -0.1090 -0.8012  0.1473
  804MPD2    C111839   2.373   3.958  17.156 -0.0561  0.5014  0.0073
  804MPD2    C211840   2.435   4.052  17.238 -0.1713 -0.0375 -0.5132
  804MPD2    C311841   2.505   4.161  17.195 -0.3942  0.0840  0.5825
  804MPD2    C411842   2.516   4.179  17.060  0.1421  0.3252 -0.4014
  804MPD2    C511843   2.456   4.096  16.980  0.3189  0.0672 -0.4662
  804MPD2     H11844   2.452   4.031  17.343 -2.3238 -1.4365 -0.4502
  804MPD2    H111845   2.563   4.264  17.011  0.5089  0.3247 -0.0540
  804MPD2    H211846   2.342   3.929  16.947 -2.1536  1.1279 -0.0614
  804MPD2    H311847   2.471   4.119  16.876 -0.5915  0.6035 -0.4808
  804MPD2     N11848   2.566   4.252  17.285  0.3262 -0.3301  0.0771
  804MPD2    H511849   2.546   4.251  17.385  1.1174  1.8109  0.2550
  804MPD2    N111850   2.312   3.848  17.213 -0.6133  0.2781  0.0007
  804MPD2    H711851   2.323   3.847  17.314  1.9282  0.5193 -0.2641
  805MPD2     C11852   1.221   2.298  15.292 -0.7384  0.9149  0.5907
  805MPD2    C111853   1.312   2.296  15.188 -0.0558  0.1507  0.9400
  805MPD2    C211854   1.442   2.263  15.226 -0.2082 -0.2038 -0.0015
  805MPD2    C311855   1.480   2.233  15.359  0.5408 -0.7223  0.2701
  805MPD2    C411856   1.382   2.241  15.462  0.1704 -0.1183 -0.6594
  805MPD2    C511857   1.256   2.268  15.422 -0.4089  0.5271 -0.3565
  805MPD2     H11858   1.520   2.274  15.152 -0.7815 -0.3124 -0.6220
  805MPD2    H111859   1.396   2.222  15.567 -2.5927 -0.0876 -0.2657
  805MPD2    H211860   1.114   2.299  15.275 -0.5621  1.5812 -0.4505
  805MPD2    H311861   1.179   2.256  15.498 -1.1276  3.8725 -0.5921
  805MPD2     N11862   1.618   2.212  15.388 -0.3707  0.0269 -0.9000
  805MPD2    H511863   1.685   2.212  15.312  0.5793 -0.1404 -0.0573
  805MPD2    N111864   1.275   2.321  15.053 -0.1297  0.1859  0.2618
  805MPD2    H711865   1.352   2.326  14.987 -1.6449 -2.2046 -1.6787
  806MPD2     C11866   1.671   1.908   0.204  0.5395 -0.8032  0.0861
  806MPD2    C111867   1.763   1.854   0.291 -0.1951  0.0359 -1.3910
  806MPD2    C211868   1.877   1.793   0.234 -0.3087  0.4783  0.7329
  806MPD2    C311869   1.904   1.794   0.097  0.6947 -0.2128  0.5401
  806MPD2    C411870   1.802   1.848   0.011 -0.0807  0.3572  0.1708
  806MPD2    C511871   1.685   1.904   0.071  0.3318 -0.5488  0.1336
  806MPD2     H11872   1.949   1.742   0.297  1.1968  0.2846 -1.1600
  806MPD2    H111873   1.810   1.849  17.596 -1.2627 -2.4926  0.0384
  806MPD2    H211874   1.578   1.939   0.250  0.9312 -0.2971  0.5436
  806MPD2    H311875   1.609   1.941   0.003  0.6130 -0.4204 -0.1132
  806MPD2     N11876   2.030   1.742   0.069  0.5410 -0.2337  0.4278
  806MPD2    H511877   2.083   1.712   0.150 -0.2011 -1.0214  0.6268
  806MPD2    N111878   1.734   1.862   0.429  0.1488  0.0525 -0.4497
  806MPD2    H711879   1.652   1.914   0.456  0.1556 -0.0440 -0.2427
  807MPD2     C11880   1.273   2.103   1.017  0.0943  0.3708  0.4755
  807MPD2    C111881   1.399   2.094   1.068 -0.3096 -0.3646  0.8544
  807MPD2    C211882   1.420   2.137   1.198  0.7137  0.0923 -0.4597
  807MPD2    C311883   1.319   2.170   1.284  0.0985  0.5175  0.1220
  807MPD2    C411884   1.192   2.162   1.235  0.2817  0.4656  0.1339
  807MPD2    C511885   1.173   2.130   1.102 -0.2464  0.3837  1.5487
  807MPD2     H11886   1.523   2.156   1.225  0.8447 -3.6289  1.7058
  807MPD2    H111887   1.106   2.177   1.300  0.7890 -0.5411  1.0405
  807MPD2    H211888   1.249   2.082   0.914  2.1220 -0.6411  0.2154
  807MPD2    H311889   1.074   2.134   1.058  0.3353 -0.5799  0.1391
  807MPD2     N11890   1.358   2.192   1.412  0.3859 -1.0412 -0.3698
  807MPD2    H511891   1.458   2.195   1.428 -0.0603 -1.0618  2.4530
  807MPD2    N111892   1.513   2.043   1.006 -1.0388 -0.8285  0.6324
  807MPD2    H711893   1.599   2.033   1.059 -1.5814  1.0767  1.8637
  808MPD2     C11894   1.893   2.190   9.832 -0.0204 -0.7014  0.2854
  808MPD2    C111895   1.928   2.313   9.794 -0.6792 -0.0516  0.6621
  808MPD2    C211896   2.027   2.390   9.864 -0.3816  0.7476  0.3332
  808MPD2    C311897   2.083   2.347   9.988 -0.1446  0.2521  0.3710
  808MPD2    C411898   2.051   2.212  10.019 -0.1210  0.8580  0.7552
  808MPD2    C511899   1.950   2.147   9.950  0.2861 -0.8635  0.3508
  808MPD2     H11900   2.059   2.491   9.840 -1.1435  1.4728  2.3669
  808MPD2    H111901   2.091   2.160  10.105 -4.6064 -0.3646  2.1139
  808MPD2    H211902   1.806   2.136   9.796  1.1110 -2.5558  0.3257
  808MPD2    H311903   1.909   2.057   9.994 -0.0898 -0.8891 -0.0541
  808MPD2     N11904   2.170   2.420  10.069  0.1626  0.4887 -0.2114
  808MPD2    H511905   2.208   2.372  10.150 -0.9073 -1.3808 -0.8241
  808MPD2    N111906   1.860   2.385   9.693 -0.2343  0.1049  0.4402
  808MPD2    H711907   1.909   2.467   9.659  0.9300 -1.2692 -1.1498
  809MPD2     C11908   3.029   2.851  10.357 -0.1586 -0.1128  0.1998
  809MPD2    C111909   3.021   2.722  10.306  0.2159  0.0131  0.7626
  809MPD2    C211910   2.903   2.652  10.322  0.3234 -0.2869 -0.0888
  809MPD2    C311911   2.785   2.720  10.362 -0.3729  0.4053 -0.2830
  809MPD2    C411912   2.799   2.852  10.404  0.5388  0.2454 -0.1888
  809MPD2    C511913   2.925   2.914  10.412  0.1455 -0.2910  0.1478
  809MPD2     H11914   2.885   2.553  10.280 -3.1401 -0.5772  2.1023
  809MPD2    H111915   2.714   2.895  10.456 -0.1476 -0.3957 -0.7774
  809MPD2    H211916   3.124   2.902  10.351 -1.0141  1.2257 -1.8542
  809MPD2    H311917   2.938   3.013  10.454 -0.6579 -0.7272  1.4274
  809MPD2     N11918   2.653   2.662  10.355 -0.4351  0.5667  0.3298
  809MPD2    H511919   2.580   2.726  10.384 -2.2942 -1.0946 -0.7264
  809MPD2    N111920   3.147   2.669  10.266  0.2810  0.4558  0.3624
  809MPD2    H711921   3.219   2.737  10.246  2.4619 -1.5630  1.3109
  810MPD2     C11922   2.278   2.438  10.705  0.6213 -0.3260 -0.2040
  810MPD2    C111923   2.187   2.514  10.632 -0.2097  0.0403 -0.3861
  810MPD2    C211924   2.177   2.650  10.660  0.2744 -0.6623  0.1076
  810MPD2    C311925   2.259   2.709  10.753 -0.7667  0.3977  0.1698
  810MPD2    C411926   2.340   2.633  10.825  0.1313  0.4880 -0.1176
  810MPD2    C511927   2.350   2.500  10.800  0.3236  0.1192 -0.6131
  810MPD2     H11928   2.116   2.713  10.596 -0.6910 -0.9966  0.7078
  810MPD2    H111929   2.389   2.677  10.911 -0.0553 -2.1605  1.3492
  810MPD2    H211930   2.281   2.331  10.691 -0.1196 -0.4327  0.5037
  810MPD2    H311931   2.419   2.442  10.859  2.8375  3.4534 -0.2383
  810MPD2     N11932   2.261   2.851  10.779 -0.2915 -0.2943  0.3438
  810MPD2    H511933   2.339   2.888  10.832 -0.9069 -1.0133  1.7409
  810MPD2    N111934   2.108   2.453  10.523 -0.1189  0.1240  0.0221
  810MPD2    H711935   2.121   2.354  10.507  1.3438  0.3203 -0.0259
  811MPD2     C11936   1.475   2.481   9.819  0.4100  0.4366 -0.1301
  811MPD2    C111937   1.590   2.546   9.869 -0.7925  0.3450  0.5973
  811MPD2    C211938   1.620   2.671   9.824 -0.7569  0.5548 -0.4450
  811MPD2    C311939   1.546   2.740   9.726  0.0249  0.7779  0.4845
  811MPD2    C411940   1.442   2.663   9.661 -0.4764 -0.4434 -0.0246
  811MPD2    C511941   1.410   2.537   9.711  0.5817  0.4529 -0.1479
  811MPD2     H11942   1.708   2.717   9.867 -1.8449  1.3744  0.8996
  811MPD2    H111943   1.386   2.714   9.583 -1.0609  1.4474  1.6206
  811MPD2    H211944   1.448   2.383   9.858  1.3595  0.1913 -0.0821
  811MPD2    H311945   1.327   2.484   9.667  1.2275 -1.6390  1.1118
  811MPD2     N11946   1.590   2.868   9.684  0.2111 -0.1627  0.4032
  811MPD2    H511947   1.668   2.903   9.738 -0.5702 -0.0282  1.4456
  811MPD2    N111948   1.654   2.488   9.984  0.3631 -0.8913  0.6968
  811MPD2    H711949   1.626   2.398  10.021 -2.9989 -0.5092 -0.9654
  812MPD2     C11950   0.713   2.895  12.163  1.1305  1.0603 -0.1391
  812MPD2    C111951   0.648   2.939  12.273 -0.8823  0.1804 -0.6179
  812MPD2    C211952   0.621   2.850  12.373 -0.4677 -0.3992  0.3562
  812MPD2    C311953   0.668   2.716  12.369  0.0849  0.8822  0.4363
  812MPD2    C411954   0.729   2.672  12.251  0.1640 -0.1734 -0.1718
  812MPD2    C511955   0.761   2.768  12.162 -0.3905  0.0960 -0.2206
  812MPD2     H11956   0.560   2.877  12.458 -2.7093 -1.4376 -0.9119
  812MPD2    H111957   0.747   2.566  12.234  1.6442 -0.0684  0.7664
  812MPD2    H211958   0.735   2.960  12.078  0.5649 -1.0370 -1.8902
  812MPD2    H311959   0.815   2.746  12.070 -1.7475  2.2280 -1.5104
  812MPD2     N11960   0.617   2.627  12.469 -0.2558  0.5350 -0.4146
  812MPD2    H511961   0.571   2.677  12.545 -0.7261 -0.8167  0.1851
  812MPD2    N111962   0.607   3.076  12.266 -0.2291 -0.4052  0.1355
  812MPD2    H711963   0.630   3.122  12.179  1.4520 -1.2728  0.1114
  813MPD2     C11964   4.588   4.678  12.561 -0.2863 -0.2605 -0.1637
  813MPD2    C111965   4.591   0.085  12.602 -0.4093  0.1697  0.0428
  813MPD2    C211966   4.509   0.134  12.707  0.1270  0.7362 -0.4613
  813MPD2    C311967   4.424   0.049  12.775 -0.2221  0.2140  0.4523
  813MPD2    C411968   4.421   4.637  12.733 -0.2840 -0.0590  0.2543
  813MPD2    C511969   4.505   4.591  12.635 -0.4363  0.3879 -1.0988
  813MPD2     H11970   4.506   0.240  12.729 -2.2913  0.9810 -2.0230
  813MPD2    H111971   4.355   4.568  12.784 -1.3421  0.6349 -0.1810
  813MPD2    H211972   4.649   4.647  12.477 -2.1928  0.9787 -1.9940
  813MPD2    H311973   4.506   4.483  12.621  3.1667 -0.2211  3.9403
  813MPD2     N11974   4.345   0.103  12.883  0.3184 -0.1747 -0.6736
  813MPD2    H511975   4.377   0.196  12.907  1.0207 -0.9488  1.3834
  813MPD2    N111976   4.671   0.169  12.526  0.3987 -0.1523  0.0909
  813MPD2    H711977   0.031   0.136  12.479  1.0002 -0.2314  1.1961
  814MPD2     C11978   4.659   1.730  11.982  0.6911 -0.6254 -0.4060
  814MPD2    C111979   0.060   1.673  11.945  0.7460  0.3657  0.0055
  814MPD2    C211980   0.176   1.734  11.977 -0.1146  0.2972  0.3141
  814MPD2    C311981   0.172   1.862  12.036  0.6430 -0.0018 -0.0695
  814MPD2    C411982   0.053   1.916  12.073 -0.2229  0.4035 -0.3641
  814MPD2    C511983   4.662   1.844  12.054  0.1641  0.1924 -0.4251
  814MPD2     H11984   0.272   1.690  11.954 -1.1187 -0.6375 -2.1423
  814MPD2    H111985   0.045   2.012  12.122 -0.5799  0.6448 -0.8992
  814MPD2    H211986   4.564   1.683  11.957 -0.3678  1.3094 -0.0339
  814MPD2    H311987   4.569   1.876  12.100 -0.2472  1.6313 -2.2264
  814MPD2     N11988   0.288   1.941  12.063 -0.3814 -0.0415 -0.2978
  814MPD2    H511989   0.271   2.033  12.102 -0.0246  0.7564 -2.0428
  814MPD2    N111990   0.061   1.548  11.876  0.3255 -0.3920  0.0497
  814MPD2    H711991   0.151   1.515  11.845  0.0188 -0.6827 -0.5334
  815MPD2     C11992   0.173   0.189  11.678  0.0818 -0.2176 -0.0488
  815MPD2    C111993   0.191   0.055  11.706  0.5400  0.1171 -0.5295
  815MPD2    C211994   0.087   4.703  11.752 -0.1266  0.0279 -0.3082
  815MPD2    C311995   4.698   0.046  11.812  1.1284 -0.4428 -0.0566
  815MPD2    C411996   4.689   0.185  11.796  0.6033 -0.1246  0.6915
  815MPD2    C511997   0.059   0.257  11.721 -0.0310  0.4127 -0.3428
  815MPD2     H11998   0.096   4.595  11.759 -0.1596  0.0704  0.4041
  815MPD2    H111999   4.616   0.256  11.833  1.3020 -0.2056  2.2400
  815MPD2    H212000   0.249   0.244  11.625 -0.8741  2.2922  1.1292
  815MPD2    H312001   0.052   0.364  11.712  0.7433  0.1798 -3.6281
  815MPD2     N12002   4.591   4.692  11.873 -0.4893 -0.4666 -0.2635
  815MPD2    H512003   4.605   4.594  11.894  1.7112  0.2329  1.4341
  815MPD2    N112004   0.309   4.715  11.648 -0.3036 -0.5115 -0.2478
  815MPD2    H712005   0.368   0.053  11.593 -2.2001  0.2172 -1.4682
  816MPD2     C12006   1.293   3.655  17.115  0.4706  0.1576 -0.3685
  816MPD2    C112007   1.176   3.611  17.062  0.4030 -0.0053  0.4365
  816MPD2    C212008   1.177   3.487  17.001  0.2517 -0.3954  1.4051
  816MPD2    C312009   1.292   3.405  17.015  0.2084  0.0807  0.2824
  816MPD2    C412010   1.407   3.448  17.076 -0.8375 -0.1215 -0.3981
  816MPD2    C512011   1.401   3.579  17.118 -0.2484  0.5621  0.0933
  816MPD2     H12012   1.090   3.449  16.950  2.6856 -2.0102 -1.5776
  816MPD2    H112013   1.504   3.399  17.080 -0.7276  0.0057 -1.6623
  816MPD2    H212014   1.292   3.754  17.160 -3.3226 -0.6230  1.3146
  816MPD2    H312015   1.499   3.617  17.146 -0.6080  0.5925  1.3195
  816MPD2     N12016   1.284   3.281  16.951 -0.1250  0.7988 -0.0403
  816MPD2    H512017   1.190   3.246  16.932  0.4346 -0.5248 -0.3531
  816MPD2    N112018   1.055   3.694  17.062 -0.1670  0.3632 -0.2925
  816MPD2    H712019   1.066   3.782  17.110 -2.2779  0.3147  0.2977
  817MPD2     C12020   0.221   0.334   9.565 -0.0088  0.5215  0.3005
  817MPD2    C112021   0.357   0.328   9.559 -1.0757 -0.8560  0.3110
  817MPD2    C212022   0.434   0.437   9.540  0.4269  1.3889  0.1972
  817MPD2    C312023   0.372   0.559   9.522 -0.2256 -0.7519 -1.2848
  817MPD2    C412024   0.237   0.571   9.533  0.0375  0.0326  0.4335
  817MPD2    C512025   0.164   0.460   9.556  0.7009  0.2485 -0.1916
  817MPD2     H12026   0.542   0.426   9.536  0.0701 -1.1005 -3.1267
  817MPD2    H112027   0.183   0.664   9.535  1.0270  0.5917  1.2830
  817MPD2    H212028   0.155   0.250   9.582 -0.6235  2.1193  5.5826
  817MPD2    H312029   0.057   0.473   9.570  1.1213  1.9549  1.4181
  817MPD2     N12030   0.457   0.674   9.518 -0.1249  0.8847 -0.1787
  817MPD2    H512031   0.556   0.652   9.518 -0.3754 -0.2740 -0.4540
  817MPD2    N112032   0.423   0.200   9.582 -0.2774 -0.3539  0.4014
  817MPD2    H712033   0.523   0.203   9.592 -0.0712  0.6350 -1.8533
  818MPD2     C12034   4.427   0.227  10.014 -0.8855 -0.2615  0.7201
  818MPD2    C112035   4.294   0.196  10.052  0.6522  0.3536 -0.1148
  818MPD2    C212036   4.252   0.070  10.021  0.5254  0.1703 -0.3134
  818MPD2    C312037   4.333   4.699   9.965  0.6257 -0.2863 -0.0232
  818MPD2    C412038   4.467   0.008   9.931  0.0408  0.7073 -0.1526
  818MPD2    C512039   4.507   0.138   9.949 -0.2929 -0.2077 -0.0379
  818MPD2     H12040   4.149   0.042  10.038  0.4646  0.1259 -0.7500
  818MPD2    H112041   4.537   4.660   9.889  2.8526  2.4355  1.5665
  818MPD2    H212042   4.483   0.314  10.046 -0.4112 -0.3828  0.2222
  818MPD2    H312043   4.608   0.170   9.928  0.0523 -2.1040 -1.2106
  818MPD2     N12044   4.295   4.562   9.942 -0.0127  0.3870 -0.3126
  818MPD2    H512045   4.373   4.502   9.918 -0.2474  0.4013 -1.1107
  818MPD2    N112046   4.211   0.286  10.118  0.1144  0.0058  0.0469
  818MPD2    H712047   4.120   0.255  10.152  1.4649 -3.4027  0.5530
  819MPD2     C12048   1.889   1.907  15.366 -0.0057  0.3305 -0.7437
  819MPD2    C112049   1.846   1.792  15.439  0.2205  0.2701 -0.2576
  819MPD2    C212050   1.924   1.747  15.545  0.4714 -0.7918  0.7636
  819MPD2    C312051   2.044   1.811  15.584  0.1553 -0.4394 -0.4633
  819MPD2    C412052   2.080   1.930  15.520  0.5644 -0.1651 -0.3284
  819MPD2    C512053   2.002   1.975  15.413  0.2607 -0.1428 -0.3956
  819MPD2     H12054   1.896   1.665  15.610 -0.5577 -0.6019  0.5625
  819MPD2    H112055   2.172   1.983  15.542 -1.5448  3.8349 -1.1599
  819MPD2    H212056   1.834   1.950  15.283  1.1818  0.8982 -1.2369
  819MPD2    H312057   2.035   2.059  15.354  0.0906  0.2426  0.0628
  819MPD2     N12058   2.123   1.747  15.684  0.1126 -0.5311  0.0438
  819MPD2    H512059   2.101   1.649  15.690 -0.8952 -0.2765  0.4547
  819MPD2    N112060   1.726   1.728  15.395  0.6418  0.4398 -0.3679
  819MPD2    H712061   1.685   1.774  15.314 -0.8762 -1.3912 -0.6188
  820MPD2     C12062   1.113   1.709  14.679  0.2930  0.0056 -0.0886
  820MPD2    C112063   1.180   1.805  14.748  0.1199  0.4832 -0.8514
  820MPD2    C212064   1.255   1.752  14.857 -0.3726  0.0486  0.8539
  820MPD2    C312065   1.247   1.623  14.902 -0.2178  0.0076  0.6425
  820MPD2    C412066   1.184   1.526  14.824 -0.0197 -0.2270  0.3755
  820MPD2    C512067   1.121   1.580  14.713  0.0836  0.4950  0.0962
  820MPD2     H12068   1.312   1.822  14.916  1.2011  0.4649 -1.1729
  820MPD2    H112069   1.156   1.423  14.845  1.5391 -0.7317 -0.0210
  820MPD2    H212070   1.043   1.737  14.601 -0.3379 -1.4787 -0.0702
  820MPD2    H312071   1.065   1.509  14.653 -0.4020  1.1153 -0.1818
  820MPD2     N12072   1.295   1.582  15.024 -0.2640  0.6914 -0.6540
  820MPD2    H512073   1.307   1.482  15.039 -2.2954  0.4983 -0.3958
  820MPD2    N112074   1.177   1.935  14.701  0.9656 -0.2587  0.3946
  820MPD2    H712075   1.119   1.952  14.619  1.2987 -2.9508 -0.3947
  821MPD2     C12076   2.106   3.198  13.646  0.2937 -0.3029 -0.0106
  821MPD2    C112077   2.202   3.281  13.591  0.7578 -0.1016 -0.3705
  821MPD2    C212078   2.247   3.265  13.463 -0.1997  0.1483 -0.0757
  821MPD2    C312079   2.179   3.174  13.382 -0.3422 -0.3157  0.5502
  821MPD2    C412080   2.089   3.083  13.443  0.2218  0.4043  0.4588
  821MPD2    C512081   2.046   3.109  13.566  0.0797 -0.3818 -0.6287
  821MPD2     H12082   2.319   3.337  13.426  1.2631 -1.3369 -0.0723
  821MPD2    H112083   2.046   3.013  13.373  2.8161 -0.3996 -0.3424
  821MPD2    H212084   2.069   3.219  13.746  0.6986  0.1281  0.0507
  821MPD2    H312085   1.967   3.047  13.607  1.3048 -1.8132 -0.4442
  821MPD2     N12086   2.230   3.149  13.257  0.4435  0.6881 -0.2113
  821MPD2    H512087   2.226   3.053  13.224  1.4319  0.3623  0.6085
  821MPD2    N112088   2.281   3.364  13.672  0.4133 -0.1763 -0.0404
  821MPD2    H712089   2.345   3.414  13.611  1.1038  1.3320  1.9374
  822MPD2     C12090   2.794   3.249  15.746  0.2814  0.0244  0.0944
  822MPD2    C112091   2.883   3.257  15.843 -0.2083 -0.7509  0.1431
  822MPD2    C212092   2.884   3.366  15.930  0.1435 -0.4854  0.0038
  822MPD2    C312093   2.783   3.461  15.924  0.2130 -0.1284 -0.2159
  822MPD2    C412094   2.684   3.451  15.830  0.4494  0.1845  0.2243
  822MPD2    C512095   2.692   3.348  15.738 -0.4245 -0.0022  0.4286
  822MPD2     H12096   2.956   3.367  16.011  0.4773 -2.7376 -0.2531
  822MPD2    H112097   2.601   3.520  15.824 -0.0021 -0.4414 -0.6510
  822MPD2    H212098   2.790   3.166  15.677  3.0628 -0.3090  0.3154
  822MPD2    H312099   2.621   3.343  15.657  2.7286 -0.0096 -2.3664
  822MPD2     N12100   2.780   3.574  16.009 -0.9155  0.3157 -0.2737
  822MPD2    H512101   2.692   3.619  16.029 -1.0838  0.2084 -0.7664
  822MPD2    N112102   2.957   3.143  15.877  0.2383 -0.1891 -0.1698
  822MPD2    H712103   2.993   3.140  15.972 -1.4643  1.0022  0.4925
  823MPD2     C12104   2.591   3.667  16.838 -0.7007  0.0586 -0.0036
  823MPD2    C112105   2.627   3.604  16.722 -0.5583 -0.5065  0.1679
  823MPD2    C212106   2.634   3.467  16.726 -0.0535 -0.1013 -0.3139
  823MPD2    C312107   2.601   3.393  16.835 -0.6892 -0.3519  0.0886
  823MPD2    C412108   2.540   3.459  16.940  0.4258 -0.0293  0.8686
  823MPD2    C512109   2.538   3.593  16.936 -0.3531  0.3051  0.4438
  823MPD2     H12110   2.677   3.415  16.641 -2.4684 -4.2631  1.0198
  823MPD2    H112111   2.498   3.413  17.028  1.3053 -0.0308  1.2910
  823MPD2    H212112   2.584   3.776  16.838  1.4618  0.1943 -0.6410
  823MPD2    H312113   2.500   3.649  17.021 -0.9524  0.9204 -0.2323
  823MPD2     N12114   2.618   3.251  16.841  0.7889  0.0176  0.9104
  823MPD2    H512115   2.566   3.215  16.920 -1.3490  0.5048 -0.2754
  823MPD2    N112116   2.679   3.672  16.617 -0.4045  0.2451 -0.0341
  823MPD2    H712117   2.683   3.773  16.624  0.7876  0.2965 -1.4772
  824MPD2     C12118   3.489   2.487  15.939 -0.3071 -0.5015  0.7863
  824MPD2    C112119   3.383   2.489  15.855 -0.3552  0.3242  0.2411
  824MPD2    C212120   3.362   2.391  15.763  0.2788  0.4387  0.9457
  824MPD2    C312121   3.451   2.290  15.760  0.5746 -0.8462 -0.6768
  824MPD2    C412122   3.571   2.294  15.835 -0.3522  0.0322 -0.3358
  824MPD2    C512123   3.584   2.384  15.929  0.5864  0.2309 -0.0766
  824MPD2     H12124   3.279   2.395  15.693  0.8894  1.0141  0.2611
  824MPD2    H112125   3.646   2.216  15.827  0.3815  0.6632  0.4847
  824MPD2    H212126   3.498   2.556  16.023  0.8657  0.3702 -0.0560
  824MPD2    H312127   3.671   2.370  15.991  0.4545 -0.5943 -0.0796
  824MPD2     N12128   3.434   2.198  15.656  0.1016  0.7683  0.4886
  824MPD2    H512129   3.378   2.226  15.576 -0.9289 -0.1066  0.9135
  824MPD2    N112130   3.282   2.586  15.883  0.1323 -0.2746  0.0807
  824MPD2    H712131   3.307   2.645  15.962  0.4353  0.4356 -0.5462
  825MPD2     C12132   3.888   1.924  14.995 -0.1429  0.5065 -0.0549
  825MPD2    C112133   3.820   2.031  15.051  0.3475  0.2367 -0.1827
  825MPD2    C212134   3.808   2.147  14.978  0.1823  0.3336 -0.7164
  825MPD2    C312135   3.880   2.170  14.861  0.1059 -0.2607  0.4138
  825MPD2    C412136   3.953   2.067  14.811 -0.3040 -0.6358  0.6480
  825MPD2    C512137   3.955   1.941  14.876 -0.3414 -0.6229  0.4967
  825MPD2     H12138   3.746   2.228  15.014  0.8996  0.9996 -0.9900
  825MPD2    H112139   4.024   2.080  14.730  1.5664  2.0132  2.7170
  825MPD2    H212140   3.884   1.826  15.040  1.4472  0.2574 -0.4847
  825MPD2    H312141   4.010   1.869  14.816  2.4599  0.4400  1.7885
  825MPD2     N12142   3.867   2.288  14.788 -0.1506  0.1823 -0.0035
  825MPD2    H512143   3.807   2.359  14.828  0.6990  0.7995  0.1874
  825MPD2    N112144   3.745   2.002  15.170  0.3206  0.0040  0.3339
  825MPD2    H712145   3.761   1.911  15.213 -1.3495 -0.9407 -1.0741
  826MPD2     C12146   3.073   2.159  13.791 -0.0253  0.2965  0.2133
  826MPD2    C112147   3.025   2.215  13.676  0.4244  0.5081  0.2750
  826MPD2    C212148   2.933   2.319  13.697 -0.2512 -0.5101  0.4527
  826MPD2    C312149   2.892   2.354  13.827  0.5385 -0.0259 -0.0190
  826MPD2    C412150   2.940   2.286  13.932  0.1199 -0.3031  0.2621
  826MPD2    C512151   3.040   2.194  13.917  0.1547  0.4937  0.2576
  826MPD2     H12152   2.899   2.373  13.609  2.9753  1.8101  0.6066
  826MPD2    H112153   2.916   2.318  14.033 -1.5150  1.0087 -0.5534
  826MPD2    H212154   3.146   2.079  13.787 -1.2782 -0.8225 -0.2215
  826MPD2    H312155   3.100   2.153  13.997  0.3944  0.9686  0.3162
  826MPD2     N12156   2.791   2.452  13.851 -0.1165 -0.4464  1.1142
  826MPD2    H512157   2.771   2.466  13.950  0.4037 -0.9967  1.2935
  826MPD2    N112158   3.077   2.169  13.553 -0.1302  0.4626  0.3693
  826MPD2    H712159   3.145   2.095  13.564 -1.3123 -0.8120 -0.8288
  827MPD2     C12160   4.389   3.106  10.106 -0.1067 -0.1924 -0.2245
  827MPD2    C112161   4.330   3.064  10.225 -0.3697  0.2101  0.4229
  827MPD2    C212162   4.263   2.946  10.223  0.8550  0.0340 -0.1447
  827MPD2    C312163   4.245   2.865  10.113 -0.7642 -0.5708  0.5635
  827MPD2    C412164   4.304   2.912   9.998 -0.4919 -0.1262 -0.4110
  827MPD2    C512165   4.360   3.036   9.994  0.1533  0.3135 -0.4325
  827MPD2     H12166   4.225   2.911  10.319  0.0209  1.3306 -0.0078
  827MPD2    H112167   4.297   2.856   9.906 -3.0102  0.5657 -0.6426
  827MPD2    H212168   4.451   3.195  10.098  0.8909 -0.4309  4.9812
  827MPD2    H312169   4.386   3.070   9.894  1.2358  1.6480  0.2930
  827MPD2     N12170   4.172   2.741  10.123  0.3132  0.1463 -0.2476
  827MPD2    H512171   4.146   2.702  10.212  1.3263 -0.4291 -0.1984
  827MPD2    N112172   4.345   3.149  10.336  0.5603 -0.5787  0.2654
  827MPD2    H712173   4.386   3.241  10.324  5.5088 -2.9598 -1.0727
  828MPD2     C12174   2.642   3.776  12.264  0.1793  0.4680 -0.0746
  828MPD2    C112175   2.578   3.737  12.146  0.0940 -0.2060 -0.1312
  828MPD2    C212176   2.658   3.692  12.041 -0.3226 -0.2542  0.5690
  828MPD2    C312177   2.789   3.668  12.056  0.2028  0.5766 -0.2488
  828MPD2    C412178   2.856   3.704  12.168  0.7442  0.5305 -0.5272
  828MPD2    C512179   2.779   3.770  12.266 -0.1591  0.0847  0.0825
  828MPD2     H12180   2.607   3.661  11.951 -0.3719  1.8520 -0.1247
  828MPD2    H112181   2.959   3.684  12.198  1.9133  1.4895 -3.9510
  828MPD2    H212182   2.579   3.800  12.349  0.3217  1.0484 -0.1324
  828MPD2    H312183   2.831   3.786  12.359 -0.5746  1.9723 -0.0119
  828MPD2     N12184   2.878   3.612  11.959 -0.1480  0.2833  0.2781
  828MPD2    H512185   2.973   3.593  11.989  0.3152  0.2036 -1.2517
  828MPD2    N112186   2.438   3.733  12.147 -0.3706 -0.1438 -0.7241
  828MPD2    H712187   2.394   3.726  12.055 -0.8825  0.7869 -0.5498
  829MPD2     C12188   2.062   4.133  11.540  0.2999  0.4961  0.6401
  829MPD2    C112189   1.971   4.152  11.640 -0.3968 -0.0441 -0.6755
  829MPD2    C212190   1.971   4.069  11.749 -0.0580  0.2490  1.1100
  829MPD2    C312191   2.054   3.957  11.754 -0.2627 -0.2411 -0.4307
  829MPD2    C412192   2.146   3.939  11.656  0.5317  0.0641  0.2937
  829MPD2    C512193   2.150   4.025  11.551  0.4176 -0.9205  0.4692
  829MPD2     H12194   1.902   4.079  11.832 -1.4161 -1.1323  0.1615
  829MPD2    H112195   2.205   3.848  11.655  1.0197  0.3400  3.1787
  829MPD2    H212196   2.071   4.208  11.461 -0.4610 -0.0347  0.0502
  829MPD2    H312197   2.224   4.021  11.472  0.8788  1.0582  0.7844
  829MPD2     N12198   2.056   3.872  11.864  0.1244 -0.1252 -0.2043
  829MPD2    H512199   2.124   3.798  11.850 -0.6298 -0.6227 -1.2127
  829MPD2    N112200   1.880   4.255  11.636  0.3667  0.3451 -0.0908
  829MPD2    H712201   1.872   4.296  11.543 -1.1878 -0.0265 -0.1295
  830MPD2     C12202   2.679   1.234  16.045 -0.0727  0.2264  0.6422
  830MPD2    C112203   2.628   1.290  15.934  0.3807  0.3201  0.1006
  830MPD2    C212204   2.704   1.324  15.826  0.6948  0.4485  0.0261
  830MPD2    C312205   2.841   1.293  15.829 -0.3311  0.7738 -0.0519
  830MPD2    C412206   2.891   1.218  15.933  0.7572  0.9771  0.1383
  830MPD2    C512207   2.809   1.193  16.039 -0.3391 -0.1789  0.3237
  830MPD2     H12208   2.673   1.394  15.748 -4.1035  0.0688  1.6205
  830MPD2    H112209   2.990   1.174  15.935  2.1320  4.0581  1.3479
  830MPD2    H212210   2.621   1.215  16.135  0.4409 -0.4394  0.8370
  830MPD2    H312211   2.848   1.137  16.123 -1.1257  2.0817  2.1966
  830MPD2     N12212   2.926   1.338  15.728 -0.4848  0.3835  0.2561
  830MPD2    H512213   3.026   1.328  15.742 -0.7972 -2.7148  0.0881
  830MPD2    N112214   2.499   1.339  15.959  0.5908  0.5409  0.2401
  830MPD2    H712215   2.466   1.342  16.055  2.3676  1.4649  0.8314
  831MPD2     C12216   3.223   3.437  16.268  0.4908  0.1216  0.1682
  831MPD2    C112217   3.182   3.320  16.210  0.1528 -0.9130  0.6581
  831MPD2    C212218   3.062   3.269  16.249 -0.0746 -0.8483 -0.3133
  831MPD2    C312219   2.975   3.349  16.319  0.0254 -0.4769 -0.0211
  831MPD2    C412220   3.018   3.452  16.391 -0.8798  0.1295  0.1439
  831MPD2    C512221   3.142   3.501  16.365  0.4084 -0.5833 -0.3895
  831MPD2     H12222   3.035   3.175  16.203 -1.0397 -0.3257 -0.8117
  831MPD2    H112223   2.962   3.514  16.461 -1.4415  0.1826 -0.3494
  831MPD2    H212224   3.314   3.486  16.236 -0.5862  1.5014 -0.7967
  831MPD2    H312225   3.180   3.586  16.421 -1.2738  0.5537 -0.9485
  831MPD2     N12226   2.835   3.320  16.332  1.0577  0.0255 -0.3862
  831MPD2    H512227   2.772   3.374  16.390  1.1538  0.5460 -0.7653
  831MPD2    N112228   3.265   3.263  16.111  0.4549  0.4532 -0.0080
  831MPD2    H712229   3.324   3.327  16.058  0.3346 -0.5068 -1.2858
  832MPD2     C12230   1.484   4.543  17.093  0.0880 -0.5411  0.0154
  832MPD2    C112231   1.452   4.675  17.083  0.4420 -1.0211 -0.0152
  832MPD2    C212232   1.345   4.722  17.009  0.0984  0.2019 -0.2828
  832MPD2    C312233   1.277   4.627  16.934 -0.4232 -0.2017 -0.2224
  832MPD2    C412234   1.306   4.494  16.946 -0.6523 -0.4259 -0.6275
  832MPD2    C512235   1.407   4.447  17.024  0.8765 -0.5424  0.7257
  832MPD2     H12236   1.334   0.103  16.978 -0.5259  1.1771  3.1934
  832MPD2    H112237   1.252   4.425  16.881 -0.5208 -0.4722 -0.6879
  832MPD2    H212238   1.566   4.510  17.155  0.2855  1.1364  0.6323
  832MPD2    H312239   1.428   4.343  17.042 -1.6433 -1.5092 -1.8675
  832MPD2     N12240   1.167   4.664  16.842  0.0395 -0.3585 -0.1242
  832MPD2    H512241   1.125   4.582  16.798 -0.4512 -0.6514  0.9103
  832MPD2    N112242   1.538   0.046  17.151 -0.0782 -0.4443  0.5470
  832MPD2    H712243   1.624   0.006  17.187  0.0035  0.0833  0.9501
  833MPD2     C12244   3.500   1.176  12.665  0.0124  0.1121 -0.7609
  833MPD2    C112245   3.530   1.275  12.577 -0.3197 -0.1832 -0.9033
  833MPD2    C212246   3.601   1.248  12.462  0.6701  0.0136  1.0380
  833MPD2    C312247   3.646   1.116  12.444  0.1849 -0.1996  0.3927
  833MPD2    C412248   3.614   1.012  12.533 -0.0377 -0.2819 -0.2773
  833MPD2    C512249   3.535   1.048  12.641  0.1419 -0.3545 -0.4055
  833MPD2     H12250   3.617   1.322  12.384 -0.0449 -0.7804  0.1361
  833MPD2    H112251   3.647   0.909  12.528  1.1634  0.1381 -1.0813
  833MPD2    H212252   3.440   1.194  12.753  0.5233  0.6061 -0.5180
  833MPD2    H312253   3.505   0.972  12.712  2.5495 -0.6740  0.2642
  833MPD2     N12254   3.720   1.076  12.331 -0.2986 -0.6719 -0.1296
  833MPD2    H512255   3.726   0.976  12.312  0.7696 -0.3253 -1.5999
  833MPD2    N112256   3.469   1.399  12.595 -0.0736  0.1525  0.3113
  833MPD2    H712257   3.412   1.410  12.678 -0.6209 -1.6716  0.1848
  834MPD2     C12258   3.341   0.725  11.476  0.1726 -0.3406 -0.8500
  834MPD2    C112259   3.400   0.837  11.425 -0.3871 -0.5317  0.6578
  834MPD2    C212260   3.478   0.909  11.509  0.1872  0.0346 -0.8306
  834MPD2    C312261   3.487   0.875  11.641 -0.3457  0.8206  0.0519
  834MPD2    C412262   3.410   0.773  11.693  0.1432 -0.4387  0.0672
  834MPD2    C512263   3.346   0.689  11.607  0.5870  0.0434  0.4648
  834MPD2     H12264   3.539   0.995  11.485 -0.6834  0.9052  0.0814
  834MPD2    H112265   3.398   0.744  11.796 -0.0786 -2.1061 -0.4145
  834MPD2    H212266   3.304   0.649  11.409 -2.9185 -0.9817  1.5935
  834MPD2    H312267   3.298   0.596  11.637  2.1155 -0.8573  0.1413
  834MPD2     N12268   3.570   0.949  11.728  0.1894 -0.3056 -0.2322
  834MPD2    H512269   3.635   1.018  11.691  1.4643 -0.0308  2.5314
  834MPD2    N112270   3.388   0.856  11.286  0.9888 -0.3147 -0.5657
  834MPD2    H712271   3.334   0.795  11.226  0.1644 -1.7488  1.6264
  835MPD2     C12272   3.423   3.615  11.294  0.8262  0.1882  0.3529
  835MPD2    C112273   3.328   3.717  11.321 -0.7261  0.9029 -0.3258
  835MPD2    C212274   3.348   3.800  11.436  0.8803  0.8954  0.0613
  835MPD2    C312275   3.457   3.773  11.517  0.2194 -0.1155  0.5253
  835MPD2    C412276   3.553   3.680  11.479  0.6760 -0.1072 -0.4451
  835MPD2    C512277   3.530   3.596  11.374  0.2739  0.5618  0.4762
  835MPD2     H12278   3.272   3.874  11.456 -0.4783 -0.7456  1.0361
  835MPD2    H112279   3.640   3.661  11.541  3.2120  2.0923 -3.3380
  835MPD2    H212280   3.416   3.551  11.207 -0.6389 -0.6381  1.0759
  835MPD2    H312281   3.598   3.515  11.354 -0.9625 -0.7431  1.5573
  835MPD2     N12282   3.475   3.847  11.635 -0.1889 -0.4350 -0.4539
  835MPD2    H512283   3.537   3.803  11.703  1.6179 -1.1281 -2.5320
  835MPD2    N112284   3.207   3.734  11.248 -0.2032  0.2479  0.2970
  835MPD2    H712285   3.166   3.824  11.272  0.1455  0.2096  1.0288
  836MPD2     C12286   3.009   4.429  11.958 -0.2172 -0.2383  0.3732
  836MPD2    C112287   3.060   4.324  12.024  0.0556  0.3881  0.2333
  836MPD2    C212288   2.996   4.272  12.137  0.1575 -0.8724 -0.4899
  836MPD2    C312289   2.885   4.340  12.180  0.5024 -0.3619 -0.4290
  836MPD2    C412290   2.841   4.462  12.117  0.1047 -0.2700 -0.0310
  836MPD2    C512291   2.899   4.497  12.003  0.1790  0.1064 -1.1538
  836MPD2     H12292   3.024   4.175  12.177 -0.6367 -0.8476  0.1290
  836MPD2    H112293   2.760   4.527  12.146  0.2480 -0.2006  0.2137
  836MPD2    H212294   3.052   4.459  11.862 -1.8006  1.3562  0.1641
  836MPD2    H312295   2.857   4.580  11.946  0.3158  0.9811  0.0290
  836MPD2     N12296   2.811   4.287  12.283 -0.6939  0.8527  0.3750
  836MPD2    H512297   2.720   4.328  12.303 -1.0225  0.1053  0.3899
  836MPD2    N112298   3.173   4.265  11.968  0.2991  0.2921 -0.3589
  836MPD2    H712299   3.198   4.276  11.871 -1.1627  0.7346 -0.6757
  837MPD2     C12300   1.568   3.671   9.280  0.9000 -0.0741  0.1057
  837MPD2    C112301   1.550   3.645   9.414  0.0691  0.4417 -0.1874
  837MPD2    C212302   1.509   3.745   9.503 -0.1234  0.2452  0.9692
  837MPD2    C312303   1.488   3.875   9.460 -0.7113  0.6624 -0.1433
  837MPD2    C412304   1.512   3.906   9.328 -0.8924  0.0079  0.0548
  837MPD2    C512305   1.543   3.800   9.242 -0.4319 -0.1305  0.0817
  837MPD2     H12306   1.483   3.720   9.605  2.0484 -1.3398  1.1423
  837MPD2    H112307   1.495   4.006   9.291 -0.3124  0.4856  1.0775
  837MPD2    H212308   1.588   3.599   9.202  2.4956  0.0177  0.4368
  837MPD2    H312309   1.542   3.819   9.135 -1.5778 -3.4851 -0.5047
  837MPD2     N12310   1.437   3.972   9.549  0.3463  0.6439 -0.4771
  837MPD2    H512311   1.431   3.941   9.646  1.3008  0.4777 -0.4659
  837MPD2    N112312   1.564   3.513   9.468  0.1903 -0.0291 -0.1335
  837MPD2    H712313   1.542   3.493   9.566  1.8589  1.2906  0.5034
  838MPD2     C12314   4.603   2.351  11.894  0.0842  0.1065  0.2051
  838MPD2    C112315   4.572   2.213  11.891 -0.7439 -0.2310  0.0367
  838MPD2    C212316   4.448   2.172  11.934 -0.5327  0.2184  0.6055
  838MPD2    C312317   4.353   2.265  11.968 -0.2162 -0.5331 -0.2691
  838MPD2    C412318   4.382   2.405  11.960  0.2498 -0.9339  0.1399
  838MPD2    C512319   4.498   2.444  11.914  0.0524  0.4749 -0.0397
  838MPD2     H12320   4.435   2.065  11.936  0.4883  0.1315  2.4268
  838MPD2    H112321   4.303   2.479  11.970  1.7381  1.1296 -3.3895
  838MPD2    H212322   4.699   2.396  11.872 -0.2050 -0.4254 -2.1067
  838MPD2    H312323   4.530   2.547  11.903  1.5349  0.0770  0.4884
  838MPD2     N12324   4.232   2.207  12.016  0.4685 -0.1985  0.4792
  838MPD2    H512325   4.232   2.106  12.004 -0.1967 -0.0427 -0.8238
  838MPD2    N112326   4.661   2.114  11.840 -0.2187  0.2003 -0.0118
  838MPD2    H712327   4.620   2.021  11.839 -1.7450  0.8835 -1.0641
  839MPD2     C12328   4.366   1.526  11.368  0.8021 -0.9135  0.4304
  839MPD2    C112329   4.485   1.463  11.368  0.1163 -0.3018 -0.0648
  839MPD2    C212330   4.594   1.525  11.425  0.4803 -0.2305 -0.7324
  839MPD2    C312331   4.573   1.651  11.482 -0.5543 -0.6800 -0.0386
  839MPD2    C412332   4.453   1.715  11.476 -0.4012  0.5567 -0.0049
  839MPD2    C512333   4.350   1.655  11.411  0.9836  0.0286  0.3529
  839MPD2     H12334   4.692   1.479  11.426  0.7512  0.3718  0.3933
  839MPD2    H112335   4.444   1.814  11.521 -1.6047  0.6263 -0.3927
  839MPD2    H212336   4.288   1.483  11.306 -0.3372 -0.3024  1.4173
  839MPD2    H312337   4.258   1.712  11.410  2.2710  2.1253  0.1397
  839MPD2     N12338   4.668   1.729  11.550  0.1359 -0.3031 -0.4763
  839MPD2    H512339   4.639   1.821  11.583 -0.8299 -1.6464  2.3855
  839MPD2    N112340   4.490   1.328  11.315 -0.8994 -0.1326 -0.3376
  839MPD2    H712341   4.581   1.294  11.287 -0.8271 -0.5959  0.4540
  840MPD2     C12342   4.643   3.665  10.313 -0.0862  0.1147 -1.1711
  840MPD2    C112343   4.644   3.651  10.444 -0.0717 -0.3259 -0.5650
  840MPD2    C212344   0.013   3.708  10.525 -0.2245  0.0198  0.2399
  840MPD2    C312345   0.101   3.797  10.465  0.3865 -0.1963  0.0238
  840MPD2    C412346   0.088   3.828  10.331 -0.0502 -0.0314  0.9231
  840MPD2    C512347   0.001   3.754  10.259 -0.2766 -0.4633 -0.3971
  840MPD2     H12348   0.025   3.687  10.631  1.5050 -1.1056 -0.1771
  840MPD2    H112349   0.150   3.902  10.282 -0.3057 -0.5932 -0.2499
  840MPD2    H212350   4.569   3.616  10.250 -2.3007 -0.6363  1.9997
  840MPD2    H312351   4.719   3.771  10.152 -0.4164  0.0307 -0.3111
  840MPD2     N12352   0.185   3.885  10.541  0.7701  0.0856 -0.0970
  840MPD2    H512353   0.245   3.932  10.475 -3.0231  2.9406 -1.5340
  840MPD2    N112354   4.566   3.537  10.493 -0.2283  0.1127  0.1102
  840MPD2    H712355   4.510   3.480  10.431  0.4427 -0.9649  0.4974
  841MPD2     C12356   4.719   3.065  14.542 -0.1190  0.1624 -0.7349
  841MPD2    C112357   0.045   3.192  14.539  0.1811  0.0463 -0.3467
  841MPD2    C212358   0.127   3.230  14.643  0.1056 -0.3552 -0.0246
  841MPD2    C312359   0.165   3.144  14.751  0.1197  0.1630 -0.2730
  841MPD2    C412360   0.129   3.013  14.740  0.0504 -0.4624 -0.3340
  841MPD2    C512361   0.027   2.978  14.647  0.0892  0.0342  0.1551
  841MPD2     H12362   0.165   3.331  14.655 -0.6417 -0.0874  0.1418
  841MPD2    H112363   0.144   2.940  14.819 -0.1195  0.6582  0.7313
  841MPD2    H212364   4.642   3.029  14.474 -0.0569 -0.7671 -0.3086
  841MPD2    H312365   4.722   2.873  14.644 -0.9884  0.3161  0.2972
  841MPD2     N12366   0.243   3.174  14.864  0.5277 -0.1270  0.2580
  841MPD2    H512367   0.244   3.106  14.939 -0.9303  0.3209  0.6906
  841MPD2    N112368   0.012   3.271  14.428 -0.5868  0.2445  0.5857
  841MPD2    H712369   4.675   3.222  14.362  0.1435  0.7430 -0.4513
  842MPD2     C12370   0.598   0.181  16.629 -0.4869  0.0643 -0.6304
  842MPD2    C112371   0.522   0.093  16.704 -0.1427  0.3792 -0.7493
  842MPD2    C212372   0.547   0.065  16.839  0.3280  0.4232  0.7775
  842MPD2    C312373   0.641   0.146  16.902  0.3912  0.4551 -0.8490
  842MPD2    C412374   0.702   0.246  16.835  0.0848 -0.5434  0.4380
  842MPD2    C512375   0.685   0.260  16.695  0.3515 -0.2612  0.0216
  842MPD2     H12376   0.477   4.721  16.886 -0.2344  1.3418  1.2453
  842MPD2    H112377   0.780   0.302  16.885  0.2340  0.6872 -1.1728
  842MPD2    H212378   0.590   0.188  16.521 -0.3507  2.0598 -0.5095
  842MPD2    H312379   0.742   0.325  16.630 -0.6316 -0.8166 -1.3915
  842MPD2     N12380   0.680   0.130  17.033 -0.1434  0.3707 -0.3779
  842MPD2    H512381   0.748   0.196  17.071 -2.6296  2.1419  1.0088
  842MPD2    N112382   0.407   0.039  16.636  0.1888  0.0828 -0.1833
  842MPD2    H712383   0.393   0.070  16.541 -0.8338 -1.4475 -0.5369
  843MPD2     C12384   1.927   0.572   0.016  0.0453 -0.4801 -0.1106
  843MPD2    C112385   2.009   0.561   0.131  0.9131 -0.2786 -0.0049
  843MPD2    C212386   2.137   0.496   0.118  0.1049  0.3718 -0.1464
  843MPD2    C312387   2.179   0.456  17.687  0.4933 -0.4103  0.3269
  843MPD2    C412388   2.105   0.492  17.578  0.1801  0.2083  0.3016
  843MPD2    C512389   1.979   0.536  17.588 -0.4169  0.5445 -0.3879
  843MPD2     H12390   2.204   0.478   0.201  0.1763 -1.6927 -0.6716
  843MPD2    H112391   2.140   0.474  17.477 -2.4908 -1.1908 -0.3577
  843MPD2    H212392   1.822   0.600   0.021 -0.9129 -4.2888  0.9001
  843MPD2    H312393   1.918   0.559  17.502  0.4114  1.9335 -0.6088
  843MPD2     N12394   2.297   0.380  17.656  0.2562  0.1237 -0.7688
  843MPD2    H512395   2.320   0.355  17.561  0.8135  2.3739 -1.2138
  843MPD2    N112396   1.950   0.609   0.252  0.5118  0.1973 -0.3367
  843MPD2    H712397   1.855   0.642   0.249  0.1989 -0.5326  1.4490
  844MPD2     C12398   0.909   4.065  16.413 -0.2772  0.1201 -0.1878
  844MPD2    C112399   1.023   4.064  16.334 -0.3419  0.7234 -0.4780
  844MPD2    C212400   1.119   4.159  16.353 -0.3431  0.0458 -0.3752
  844MPD2    C312401   1.112   4.247  16.459  0.2205  0.3098 -0.6145
  844MPD2    C412402   1.007   4.246  16.548  0.2264 -0.7117  0.6279
  844MPD2    C512403   0.907   4.157  16.517 -0.3769  0.1278  0.0000
  844MPD2     H12404   1.210   4.157  16.294  0.8969  0.4578  1.5099
  844MPD2    H112405   0.999   4.315  16.631 -3.9510  2.7739 -2.7006
  844MPD2    H212406   0.822   3.999  16.411 -1.1626  1.3163 -1.0846
  844MPD2    H312407   0.819   4.160  16.581  0.2696 -2.0890  1.0239
  844MPD2     N12408   1.218   4.342  16.462  0.2859 -0.1638  0.8159
  844MPD2    H512409   1.291   4.339  16.391 -0.5723 -0.1047 -0.0672
  844MPD2    N112410   1.033   3.974  16.233 -0.0735 -0.7034  0.1367
  844MPD2    H712411   1.103   3.988  16.161  1.2700  2.2072  1.9906
  845MPD2     C12412   1.582   0.484  16.895  0.6247  0.0298 -0.2736
  845MPD2    C112413   1.467   0.467  16.826 -0.7728  0.0044  0.0855
  845MPD2    C212414   1.438   0.345  16.770 -0.1495  0.2953  0.1498
  845MPD2    C312415   1.526   0.240  16.780  0.0028  0.6032  0.1328
  845MPD2    C412416   1.650   0.268  16.833  0.1941 -0.1614 -0.2995
  845MPD2    C512417   1.678   0.389  16.886  0.2198  0.5247 -1.0390
  845MPD2     H12418   1.339   0.323  16.731  0.5180 -0.6002 -1.0397
  845MPD2    H112419   1.730   0.197  16.850  0.3409 -0.0454 -0.5103
  845MPD2    H212420   1.608   0.577  16.943 -0.1778 -1.0233  2.2120
  845MPD2    H312421   1.771   0.396  16.942 -2.2441  2.1879  2.9026
  845MPD2     N12422   1.494   0.111  16.723 -0.0299  0.6429  0.4686
  845MPD2    H512423   1.407   0.114  16.671  1.5302 -0.0717 -2.1889
  845MPD2    N112424   1.375   0.576  16.833  0.4411 -0.0282  0.7917
  845MPD2    H712425   1.402   0.647  16.900  1.3578  0.6476 -0.2894
  846MPD2     C12426   2.644   0.523  13.605  0.4225 -0.5749  0.2906
  846MPD2    C112427   2.658   0.660  13.590 -0.2362  0.9522  0.2114
  846MPD2    C212428   2.654   0.739  13.706 -0.0447  0.7878  0.5820
  846MPD2    C312429   2.643   0.681  13.830 -0.1085  0.3671  0.1154
  846MPD2    C412430   2.637   0.543  13.838 -0.1636 -0.3917 -0.6122
  846MPD2    C512431   2.643   0.464  13.728 -0.1666 -0.5120 -0.1209
  846MPD2     H12432   2.660   0.847  13.701 -1.2698  0.7787 -1.1430
  846MPD2    H112433   2.622   0.501  13.937 -0.5043  0.9659 -0.0904
  846MPD2    H212434   2.650   0.458  13.518 -2.0305 -0.3579 -0.0384
  846MPD2    H312435   2.632   0.357  13.734 -1.4197 -0.3049  1.1530
  846MPD2     N12436   2.629   0.763  13.946 -0.3178  0.4165  0.1574
  846MPD2    H512437   2.610   0.862  13.932  2.1320  0.6722 -1.2366
  846MPD2    N112438   2.669   0.729  13.461 -0.2812 -0.4413  0.1676
  846MPD2    H712439   2.687   0.829  13.458 -0.7420 -0.4609 -2.9571
  847MPD2     C12440   2.985   1.559  14.031 -0.0115  0.3903 -0.2552
  847MPD2    C112441   3.010   1.593  14.162 -0.2219  0.1160  0.4859
  847MPD2    C212442   3.018   1.490  14.252  0.4172 -0.2423 -1.3787
  847MPD2    C312443   3.022   1.356  14.219  0.2047  0.1697  0.1601
  847MPD2    C412444   2.994   1.324  14.090  0.0737 -0.1228 -0.3655
  847MPD2    C512445   2.966   1.426  14.002  0.1701 -0.2671  0.3549
  847MPD2     H12446   3.051   1.514  14.353 -2.6575 -1.0943 -0.1771
  847MPD2    H112447   2.984   1.220  14.060  1.4642 -1.1129  2.5888
  847MPD2    H212448   2.950   1.625  13.953 -1.8154  0.2711  0.4574
  847MPD2    H312449   2.937   1.390  13.903  0.6831  0.2040  0.0346
  847MPD2     N12450   3.047   1.263  14.321 -0.0202  0.1787 -0.2247
  847MPD2    H512451   3.059   1.307  14.412  0.6067 -2.5668  1.0327
  847MPD2    N112452   3.023   1.727  14.212  0.4337 -0.2091 -0.3193
  847MPD2    H712453   3.041   1.737  14.311  0.9352  0.5675 -0.4835
  848MPD2     C12454   0.907   4.687  16.048  0.4539 -0.0663 -0.1750
  848MPD2    C112455   0.887   0.059  16.147 -0.4349  0.2922 -0.1443
  848MPD2    C212456   0.854   0.183  16.102  0.2793 -0.3058  0.9535
  848MPD2    C312457   0.833   0.216  15.968 -0.0460  0.2810 -0.6925
  848MPD2    C412458   0.834   0.115  15.877 -0.3940 -0.5661 -0.0719
  848MPD2    C512459   0.877   4.715  15.915 -0.7951  0.3620 -0.3910
  848MPD2     H12460   0.849   0.262  16.176 -2.7106 -1.5712  2.0947
  848MPD2    H112461   0.828   0.139  15.771  2.5878 -0.0658 -0.1530
  848MPD2    H212462   0.944   4.590  16.080 -0.6717 -0.2414  0.6062
  848MPD2    H312463   0.883   4.633  15.844 -0.4600 -0.0527  0.1252
  848MPD2     N12464   0.793   0.342  15.923  0.3901  0.1345 -0.1596
  848MPD2    H512465   0.783   0.354  15.822  0.5040  0.2338 -0.1592
  848MPD2    N112466   0.903   0.025  16.290  0.3114 -0.2082 -0.1483
  848MPD2    H712467   0.921   4.649  16.308  2.2863 -0.1496 -1.8908
  849MPD2     C12468   0.319   0.506  13.826  0.5594 -0.1161  0.3331
  849MPD2    C112469   0.346   0.429  13.710  0.8857  0.5178 -0.2614
  849MPD2    C212470   0.269   0.317  13.686  0.2857 -0.1192  0.0065
  849MPD2    C312471   0.165   0.277  13.768 -0.6746  0.0287 -0.2333
  849MPD2    C412472   0.128   0.367  13.866  0.6112 -0.6116 -0.3900
  849MPD2    C512473   0.208   0.477  13.897 -0.4220  0.3800  0.2362
  849MPD2     H12474   0.297   0.256  13.601  1.3303  0.4426 -0.0597
  849MPD2    H112475   0.044   0.353  13.933  2.5245  0.1894  2.1980
  849MPD2    H212476   0.383   0.585  13.864  0.2256 -0.5508  1.7741
  849MPD2    H312477   0.182   0.533  13.986  0.5614  0.4351  0.4955
  849MPD2     N12478   0.098   0.164  13.734  0.0738 -0.8355 -0.3899
  849MPD2    H512479   0.146   0.106  13.665  2.6152 -0.5285  1.1025
  849MPD2    N112480   0.459   0.449  13.636 -0.0607 -0.5206 -0.3052
  849MPD2    H712481   0.535   0.501  13.678 -0.6960 -0.1755  0.4301
  850MPD2     C12482   2.635   2.168  14.814 -0.3323 -0.7583  0.8698
  850MPD2    C112483   2.660   2.255  14.916  0.5400  0.5114 -0.3562
  850MPD2    C212484   2.793   2.278  14.948 -0.5535  0.4366  0.2827
  850MPD2    C312485   2.896   2.215  14.879 -0.0700  0.6371  0.5862
  850MPD2    C412486   2.866   2.133  14.775  0.7416  0.7517  0.6968
  850MPD2    C512487   2.733   2.104  14.744  0.0681  0.4543 -0.6118
  850MPD2     H12488   2.821   2.350  15.023  3.2002 -1.2427  0.4844
  850MPD2    H112489   2.939   2.067  14.729  0.7364  0.2460  1.4202
  850MPD2    H212490   2.534   2.140  14.789 -0.0596 -0.2749 -0.7748
  850MPD2    H312491   2.708   2.025  14.674 -2.0246 -0.5781  1.3005
  850MPD2     N12492   3.035   2.240  14.899 -0.0674 -0.6205 -0.4293
  850MPD2    H512493   3.099   2.204  14.829 -2.0569 -1.3705 -1.8666
  850MPD2    N112494   2.546   2.317  14.966 -0.1789  0.5894 -0.4436
  850MPD2    H712495   2.469   2.297  14.903 -1.2174 -0.8936  1.3158
  851MPD2     C12496   3.040   2.199  15.694 -0.8191  0.0540 -0.0886
  851MPD2    C112497   2.950   2.145  15.606 -0.1904 -0.2074 -0.2831
  851MPD2    C212498   2.956   2.015  15.565 -0.3475  0.1463  0.5340
  851MPD2    C312499   3.052   1.935  15.626 -0.7739  0.2232 -0.6774
  851MPD2    C412500   3.134   1.982  15.727  0.2808  0.8057  0.5480
  851MPD2    C512501   3.130   2.114  15.758  0.3998 -0.2512  0.2579
  851MPD2     H12502   2.892   1.976  15.487  2.1182  1.4782 -2.1497
  851MPD2    H112503   3.217   1.918  15.754  1.1937  0.3392 -3.3047
  851MPD2    H212504   3.043   2.302  15.728 -1.5924  0.2304 -0.5364
  851MPD2    H312505   3.211   2.160  15.813  0.9552 -0.4503 -0.3966
  851MPD2     N12506   3.067   1.812  15.563 -0.2430  0.1070  0.3614
  851MPD2    H512507   2.996   1.798  15.492 -0.2379 -1.3376  0.6403
  851MPD2    N112508   2.871   2.239  15.536  0.3005  0.1495 -0.4801
  851MPD2    H712509   2.881   2.336  15.563  3.8942 -0.6353  0.9786
  852MPD2     C12510   1.496   0.418   9.115  0.3950 -0.4977 -0.4681
  852MPD2    C112511   1.540   0.389   9.242 -0.0320 -0.6397 -0.5756
  852MPD2    C212512   1.650   0.461   9.285  0.6373  0.2839  0.7471
  852MPD2    C312513   1.716   0.557   9.217  0.0243 -0.8077 -0.0336
  852MPD2    C412514   1.664   0.595   9.096 -0.5021  0.5655 -0.5194
  852MPD2    C512515   1.554   0.525   9.045 -0.3987  0.0829 -0.3627
  852MPD2     H12516   1.688   0.428   9.381  0.0624 -2.3040  0.1043
  852MPD2    H112517   1.711   0.680   9.048 -0.8155  0.9803 -0.0968
  852MPD2    H212518   1.414   0.367   9.065  0.7503 -0.4178 -1.1211
  852MPD2    H312519   1.517   0.545   8.945  0.5340 -0.7241 -0.8737
  852MPD2     N12520   1.818   0.631   9.278 -0.3082 -0.1337 -0.1832
  852MPD2    H512521   1.836   0.613   9.377 -2.3277  2.4232  0.6468
  852MPD2    N112522   1.488   0.281   9.312 -0.0669 -0.6327 -0.6043
  852MPD2    H712523   1.543   0.246   9.390  1.0351 -2.0424 -2.0160
  853MPD2     C12524   4.474   0.906  12.044 -0.1544 -0.3047  0.5458
  853MPD2    C112525   4.338   0.893  12.068  0.8738 -0.1971 -0.3092
  853MPD2    C212526   4.270   0.798  11.997  0.1284  0.5391  0.2917
  853MPD2    C312527   4.331   0.736  11.892 -0.7080  0.1513  0.1967
  853MPD2    C412528   4.464   0.753  11.864  0.3624  0.1462 -1.1395
  853MPD2    C512529   4.533   0.838  11.947 -0.1989  0.3422 -0.3988
  853MPD2     H12530   4.165   0.773  12.011  0.3640 -0.1523  0.8188
  853MPD2    H112531   4.522   0.708  11.785  1.2588  1.1828 -1.0721
  853MPD2    H212532   4.537   0.973  12.102 -0.3594  0.4518 -0.1073
  853MPD2    H312533   4.633   0.862  11.913  0.6675 -0.2359  1.6978
  853MPD2     N12534   4.252   0.635  11.825 -0.1324 -0.0419 -0.2087
  853MPD2    H512535   4.153   0.622  11.842 -0.3740  0.9482 -0.8551
  853MPD2    N112536   4.274   0.962  12.178  0.0944  0.5699 -0.3588
  853MPD2    H712537   4.328   1.034  12.226  2.5094 -1.8237  0.5204
  854MPD2     C12538   1.508   0.518  12.945  1.1991  0.3482 -0.0004
  854MPD2    C112539   1.628   0.566  12.993  0.4102  0.3448  0.6956
  854MPD2    C212540   1.678   0.513  13.109  0.5938  0.7560 -0.7010
  854MPD2    C312541   1.613   0.409  13.176  0.4927 -0.5184 -0.3156
  854MPD2    C412542   1.494   0.362  13.125 -0.0605 -0.2404  0.3332
  854MPD2    C512543   1.439   0.420  13.013  0.6630 -0.0086  0.0643
  854MPD2     H12544   1.773   0.550  13.143  0.3297  0.6354  0.1555
  854MPD2    H112545   1.444   0.274  13.163  1.4142 -0.5357  1.5640
  854MPD2    H212546   1.467   0.561  12.854 -2.9083 -0.3865  1.4864
  854MPD2    H312547   1.347   0.395  12.961  1.2546 -0.2602 -0.8571
  854MPD2     N12548   1.659   0.348  13.298  0.1432  0.7707 -0.0820
  854MPD2    H512549   1.632   0.252  13.315  0.5082  0.5876 -0.5391
  854MPD2    N112550   1.684   0.665  12.917  0.1862 -0.4890 -0.7510
  854MPD2    H712551   1.620   0.712  12.854 -0.3736  0.3864  0.4806
  855MPD2     C12552   1.945   0.387  14.250 -0.0223 -0.4696  0.1671
  855MPD2    C112553   2.041   0.299  14.193 -0.4325 -0.6847  0.4853
  855MPD2    C212554   2.039   0.282  14.058 -0.6732  0.7177 -0.1360
  855MPD2    C312555   1.940   0.341  13.977 -0.1145 -0.6578 -0.9129
  855MPD2    C412556   1.846   0.422  14.037  0.5066 -0.1868 -0.1541
  855MPD2    C512557   1.851   0.445  14.171 -0.2796 -0.0357 -0.0077
  855MPD2     H12558   2.107   0.219  14.003  0.2237  1.0259  0.6282
  855MPD2    H112559   1.768   0.471  13.979 -0.9151 -2.5473 -0.2178
  855MPD2    H212560   1.923   0.379  14.356 -3.2189 -0.8385 -0.5296
  855MPD2    H312561   1.774   0.511  14.210 -0.3843  0.0010 -0.2735
  855MPD2     N12562   1.929   0.316  13.838 -0.6038  0.1561  0.1268
  855MPD2    H512563   1.855   0.368  13.793 -0.9158 -1.1262 -0.8631
  855MPD2    N112564   2.148   0.240  14.266 -1.0342  0.0276  0.0206
  855MPD2    H712565   2.200   0.169  14.215 -1.8018 -1.0726  0.7762
  856MPD2     C12566   3.737   0.797  14.044 -0.5426 -0.9414 -0.0150
  856MPD2    C112567   3.806   0.905  13.992  0.1322  0.4960  0.8147
  856MPD2    C212568   3.745   1.017  13.937 -0.0788 -0.5893 -0.1052
  856MPD2    C312569   3.609   1.023  13.930 -1.0073  0.3769 -0.0769
  856MPD2    C412570   3.532   0.910  13.972 -0.0162 -0.2064 -0.0669
  856MPD2    C512571   3.595   0.808  14.036  0.6077 -0.5744 -0.0770
  856MPD2     H12572   3.812   1.089  13.891 -2.5590  2.0167  0.3556
  856MPD2    H112573   3.426   0.900  13.952 -0.5178 -0.2660  2.6138
  856MPD2    H212574   3.782   0.702  14.069  1.2496 -0.1919 -0.3358
  856MPD2    H312575   3.530   0.726  14.067  1.2911 -0.5463  1.4681
  856MPD2     N12576   3.545   1.138  13.880 -0.0227  0.0458 -0.1569
  856MPD2    H512577   3.444   1.125  13.877  0.1134 -1.0195 -0.0967
  856MPD2    N112578   3.950   0.912  14.001 -0.2668 -0.6822 -0.5330
  856MPD2    H712579   4.000   0.988  13.956 -1.6342 -1.2333 -3.0138
  857MPD2     C12580   0.560   2.977  13.419 -0.5679 -0.1832 -0.0182
  857MPD2    C112581   0.622   3.080  13.341  0.0248 -0.5725  0.1891
  857MPD2    C212582   0.702   3.171  13.407 -0.2442  0.3169  1.0967
  857MPD2    C312583   0.733   3.154  13.541  0.2064  0.5635  0.1013
  857MPD2    C412584   0.680   3.051  13.614 -0.2591 -0.2102 -0.4562
  857MPD2    C512585   0.591   2.963  13.553  0.2325  0.7209 -1.0241
  857MPD2     H12586   0.759   3.247  13.355  0.7318 -0.7090  0.6516
  857MPD2    H112587   0.712   3.027  13.715  0.4135 -0.7925 -0.8039
  857MPD2    H212588   0.496   2.909  13.364 -0.2403 -0.6121  0.1396
  857MPD2    H312589   0.556   2.872  13.601 -1.3734  2.2191  0.6571
  857MPD2     N12590   0.813   3.251  13.598  0.2258 -0.0348  0.3447
  857MPD2    H512591   0.860   3.307  13.526 -0.0292  0.5689  0.6473
  857MPD2    N112592   0.583   3.093  13.203  0.7420  0.4219 -0.6285
  857MPD2    H712593   0.509   3.030  13.173  1.2711  1.3109 -3.7989
  858MPD2     C12594   1.430   2.278  16.205 -0.2472 -0.9318  1.1219
  858MPD2    C112595   1.329   2.246  16.298 -0.0952  0.9607  0.0593
  858MPD2    C212596   1.311   2.322  16.414 -0.8614  0.0155  0.1898
  858MPD2    C312597   1.396   2.428  16.431 -0.2746  0.0965 -0.2076
  858MPD2    C412598   1.486   2.460  16.329 -0.2756  0.3671  0.1266
  858MPD2    C512599   1.502   2.395  16.214  0.2655 -0.5309 -0.5377
  858MPD2     H12600   1.249   2.287  16.496  0.0796 -0.8392  0.5229
  858MPD2    H112601   1.548   2.548  16.339  0.8996 -0.4063 -0.3813
  858MPD2    H212602   1.437   2.215  16.117  1.6792 -0.4780  0.9475
  858MPD2    H312603   1.563   2.432  16.133 -2.5968  0.1757 -2.3903
  858MPD2     N12604   1.394   2.506  16.549  0.2100 -0.2496  0.2149
  858MPD2    H512605   1.470   2.572  16.566 -0.0185 -0.0269  0.3692
  858MPD2    N112606   1.279   2.114  16.292 -0.9581  0.0859 -0.2808
  858MPD2    H712607   1.325   2.057  16.221 -1.1640 -1.7986  1.0993
  859MPD2     C12608   0.019   4.276  15.843  0.0115 -0.0703  0.5908
  859MPD2    C112609   4.701   4.217  15.731 -0.7762  0.2996  1.0348
  859MPD2    C212610   4.619   4.102  15.728  1.0094 -0.7884 -0.5144
  859MPD2    C312611   4.576   4.048  15.846  0.3272  0.1748  0.3854
  859MPD2    C412612   4.621   4.109  15.965 -0.9180 -0.1374  0.5615
  859MPD2    C512613   4.692   4.228  15.958  0.5466 -0.0078  0.1786
  859MPD2     H12614   4.604   4.053  15.633 -3.3220  2.2273 -1.3967
  859MPD2    H112615   4.589   4.079  16.065 -0.2456  1.3210  1.2106
  859MPD2    H212616   0.083   4.363  15.848 -1.0482  0.7863 -0.6904
  859MPD2    H312617   4.713   4.276  16.053 -0.1912 -1.5079  1.1006
  859MPD2     N12618   4.476   3.950  15.862 -0.2926  0.2596 -0.7749
  859MPD2    H512619   4.445   3.926  15.956 -1.6748  1.2489 -0.9641
  859MPD2    N112620   0.021   4.291  15.617 -0.4254  0.1229  0.4043
  859MPD2    H712621   0.077   4.375  15.630  0.0680 -0.0631 -0.5477
  860MPD2     C12622   2.291   4.256  11.776 -0.3642  0.4606 -0.1339
  860MPD2    C112623   2.232   4.379  11.777 -0.5976 -0.6035  0.1252
  860MPD2    C212624   2.170   4.425  11.893 -0.3146  0.2445  0.1138
  860MPD2    C312625   2.156   4.337  12.001  0.6543  0.2060 -0.3106
  860MPD2    C412626   2.210   4.212  11.998  0.0074 -0.2476  0.2338
  860MPD2    C512627   2.280   4.174  11.883  0.3458  0.1763 -0.6986
  860MPD2     H12628   2.132   4.526  11.901 -1.3469 -0.2357  1.2221
  860MPD2    H112629   2.200   4.135  12.074  1.4125 -0.6428  0.0222
  860MPD2    H212630   2.330   4.216  11.683  1.9664  1.2568  0.5098
  860MPD2    H312631   2.326   4.076  11.886 -1.0280 -0.4332 -0.0755
  860MPD2     N12632   2.087   4.385  12.118  0.1582 -0.0885 -0.2265
  860MPD2    H512633   2.062   4.483  12.118  0.2118 -0.0822  0.9564
  860MPD2    N112634   2.231   4.468  11.665  0.2789  0.0865  0.3356
  860MPD2    H712635   2.190   4.558  11.689  0.8415  0.9980 -2.1749
  861MPD2     C12636   0.756   3.236  11.189 -0.3605 -0.6163  0.8566
  861MPD2    C112637   0.771   3.373  11.217  0.4258  0.1170  0.3857
  861MPD2    C212638   0.710   3.458  11.132 -0.0356  0.0766  0.7492
  861MPD2    C312639   0.645   3.412  11.013  0.5055 -0.6936 -0.4757
  861MPD2    C412640   0.642   3.275  10.988 -0.4761  0.5546  0.0424
  861MPD2    C512641   0.697   3.186  11.074 -0.2416 -0.4503  0.2282
  861MPD2     H12642   0.727   3.565  11.137 -1.0821  0.2774 -0.0273
  861MPD2    H112643   0.615   3.232  10.892 -0.1984 -1.2905  0.7784
  861MPD2    H212644   0.809   3.169  11.256  1.2793  0.0199  0.1741
  861MPD2    H312645   0.697   3.080  11.050  1.1436 -0.0083 -1.7659
  861MPD2     N12646   0.591   3.497  10.913  0.3205  0.6257 -0.1595
  861MPD2    H512647   0.581   3.451  10.822 -0.8641 -0.8876  0.7362
  861MPD2    N112648   0.849   3.433  11.323 -0.3028 -0.2088 -0.3600
  861MPD2    H712649   0.859   3.534  11.320  0.8340 -0.3900 -2.5749
  862MPD2     C12650   0.724   3.743  10.244  0.1838  1.0168  0.3656
  862MPD2    C112651   0.746   3.664  10.357  0.6729 -0.1018 -0.5106
  862MPD2    C212652   0.789   3.534  10.339  0.5109 -0.3914  0.0833
  862MPD2    C312653   0.816   3.478  10.215  0.3166  0.1602  0.0531
  862MPD2    C412654   0.800   3.558  10.103 -0.7619  0.5838  0.0989
  862MPD2    C512655   0.739   3.680  10.123  0.1965 -0.1307 -0.3807
  862MPD2     H12656   0.821   3.477  10.425 -0.6252 -0.8758  0.1734
  862MPD2    H112657   0.826   3.518  10.006  0.8162 -0.0006  0.7557
  862MPD2    H212658   0.674   3.839  10.240  0.2970  1.0948  0.7968
  862MPD2    H312659   0.731   3.749  10.040 -1.3308  0.0217 -0.1096
  862MPD2     N12660   0.868   3.347  10.200  0.3870  0.5571  0.1454
  862MPD2    H512661   0.861   3.291  10.284  2.3160  4.1623  2.7378
  862MPD2    N112662   0.710   3.700  10.489 -1.0207  0.6394 -0.6710
  862MPD2    H712663   0.715   3.625  10.557  0.7545  0.1566 -1.3266
  863MPD2     C12664   3.952   1.639  16.871 -0.3855  0.1484 -0.4283
  863MPD2    C112665   4.054   1.626  16.779  0.0212 -0.3224 -0.0860
  863MPD2    C212666   4.185   1.617  16.828  0.7889 -0.1846  0.4421
  863MPD2    C312667   4.205   1.604  16.966 -0.0196  0.1763  0.4234
  863MPD2    C412668   4.100   1.601  17.049  0.0451  0.5781  0.0863
  863MPD2    C512669   3.975   1.623  17.007  0.6182 -0.5773  0.4750
  863MPD2     H12670   4.265   1.603  16.757  0.1171 -2.7436  0.2013
  863MPD2    H112671   4.114   1.588  17.156 -2.6832 -0.3245  0.3414
  863MPD2    H212672   3.853   1.653  16.830  0.0294  0.1910 -1.4092
  863MPD2    H312673   3.894   1.643  17.076 -0.4437  0.6662 -1.1378
  863MPD2     N12674   4.335   1.571  17.017  0.1405  0.5991  0.1938
  863MPD2    H512675   4.344   1.553  17.117  0.0678 -1.6391 -0.2205
  863MPD2    N112676   4.018   1.634  16.641  0.0167  0.4407 -0.6109
  863MPD2    H712677   3.922   1.648  16.610  0.7814 -0.5003 -3.3418
  864MPD2     C12678   0.200   2.451  17.035  0.4503  1.1698  0.7708
  864MPD2    C112679   0.281   2.356  16.983  0.6696 -0.5084 -0.5966
  864MPD2    C212680   0.403   2.394  16.929  0.1530 -0.3545  0.5208
  864MPD2    C312681   0.433   2.526  16.920 -0.7584  0.4529 -0.2052
  864MPD2    C412682   0.342   2.621  16.965 -0.1261  0.3030 -0.1054
  864MPD2    C512683   0.226   2.584  17.021 -0.0823  0.8872 -0.2451
  864MPD2     H12684   0.470   2.320  16.886  1.2327  1.6095 -1.1257
  864MPD2    H112685   0.374   2.723  16.943  2.2918 -0.4897 -0.2942
  864MPD2    H212686   0.109   2.422  17.087  1.3364 -0.4461  1.4230
  864MPD2    H312687   0.151   2.659  17.045 -0.6166  0.0549  0.6621
  864MPD2     N12688   0.565   2.578  16.885  0.6001  0.3338  0.4552
  864MPD2    H512689   0.582   2.678  16.888  3.3679 -0.0708 -2.2707
  864MPD2    N112690   0.237   2.225  16.982 -0.2144 -0.3608 -0.1375
  864MPD2    H712691   0.145   2.211  17.022  0.3224 -1.0397  0.8849
  865MPD2     C12692   0.745   3.084  16.330 -0.4823 -0.6025  0.8867
  865MPD2    C112693   0.742   2.959  16.382 -0.1093 -0.5640  0.6431
  865MPD2    C212694   0.759   2.950  16.524  0.1243  0.9214  0.4065
  865MPD2    C312695   0.786   3.057  16.604 -0.3236  0.1672 -0.6837
  865MPD2    C412696   0.785   3.179  16.541  0.2190  0.6775 -0.2963
  865MPD2    C512697   0.767   3.190  16.410  0.2858 -0.1267 -0.6276
  865MPD2     H12698   0.734   2.852  16.564 -2.3888  0.8314 -1.3889
  865MPD2    H112699   0.802   3.270  16.597 -0.2402  0.1681  0.6715
  865MPD2    H212700   0.727   3.102  16.225  0.9055  0.4251  0.8294
  865MPD2    H312701   0.778   3.281  16.354 -0.7260  1.5409  1.8632
  865MPD2     N12702   0.821   3.055  16.745  0.4407  0.2983 -0.2583
  865MPD2    H512703   0.842   3.146  16.785 -0.0942  1.1959 -1.9955
  865MPD2    N112704   0.724   2.848  16.294  0.0770 -0.2030  0.3246
  865MPD2    H712705   0.721   2.880  16.198 -0.8854 -1.5000 -0.0764
  866MPD2     C12706   1.298   4.175  11.693 -0.3700  0.0615  0.1263
  866MPD2    C112707   1.330   4.161  11.560 -1.0011 -0.2178  0.4900
  866MPD2    C212708   1.230   4.176  11.462 -0.5862 -1.0015 -0.3306
  866MPD2    C312709   1.106   4.211  11.499 -0.6162 -0.0109 -0.9857
  866MPD2    C412710   1.075   4.233  11.633 -0.1150  0.2695 -1.2970
  866MPD2    C512711   1.174   4.223  11.730  0.1560 -0.4534 -0.0937
  866MPD2     H12712   1.254   4.168  11.357  0.1981  1.4816 -0.3437
  866MPD2    H112713   0.986   4.289  11.658 -0.8073 -0.2884 -2.4894
  866MPD2    H212714   1.376   4.165  11.768  0.6476  1.1807 -0.7669
  866MPD2    H312715   1.156   4.253  11.832 -2.1342 -0.1380 -0.5870
  866MPD2     N12716   0.996   4.205  11.406  0.0040 -0.3890 -0.3816
  866MPD2    H512717   0.904   4.226  11.444 -0.3296 -2.9413  0.2061
  866MPD2    N112718   1.458   4.122  11.519 -0.0977 -0.2787  0.5103
  866MPD2    H712719   1.526   4.106  11.592  0.0027 -2.0633  0.0279
  867MPD2     C12720   3.619   3.004  16.293  0.2079 -0.1716  0.5840
  867MPD2    C112721   3.674   2.970  16.417  0.0935 -0.3070 -0.5890
  867MPD2    C212722   3.703   3.070  16.513 -0.3314  0.1377  0.1826
  867MPD2    C312723   3.687   3.203  16.481  0.2523 -0.3123  0.0934
  867MPD2    C412724   3.642   3.241  16.352 -0.0529 -0.4570  0.1683
  867MPD2    C512725   3.620   3.141  16.261 -0.6128 -0.2108  0.6162
  867MPD2     H12726   3.754   3.049  16.606 -2.0432  0.5880  1.2203
  867MPD2    H112727   3.625   3.341  16.314 -1.9861 -1.1048 -0.6956
  867MPD2    H212728   3.592   2.932  16.217  0.2045  1.4753 -0.9720
  867MPD2    H312729   3.585   3.163  16.160 -1.1884 -2.2134  0.3828
  867MPD2     N12730   3.720   3.313  16.563 -0.1595 -0.0418 -0.4029
  867MPD2    H512731   3.714   3.404  16.517  1.0596 -0.2369 -0.9516
  867MPD2    N112732   3.719   2.833  16.435  0.0006 -0.1625  0.0043
  867MPD2    H712733   3.716   2.773  16.354  2.0383  0.4483 -0.5304
  868MPD2     C12734   1.028   2.247  13.041 -0.1901  0.2686 -0.5451
  868MPD2    C112735   1.024   2.128  13.107 -0.3515  0.4137 -0.1991
  868MPD2    C212736   0.965   2.113  13.230 -0.5315  0.3930 -0.3697
  868MPD2    C312737   0.916   2.229  13.285  0.6608  0.5735  0.2507
  868MPD2    C412738   0.903   2.349  13.218 -0.6464  0.4773 -0.6839
  868MPD2    C512739   0.970   2.359  13.097  0.4147 -0.2054  0.6286
  868MPD2     H12740   0.968   2.021  13.287 -2.1245  1.3618  1.2815
  868MPD2    H112741   0.851   2.434  13.260 -0.0476  1.2880 -1.5719
  868MPD2    H212742   1.095   2.256  12.956  2.0429  1.1886  1.3258
  868MPD2    H312743   0.975   2.456  13.049 -1.3917 -0.9672 -1.0847
  868MPD2     N12744   0.844   2.213  13.402 -0.1747 -0.1417 -0.4698
  868MPD2    H512745   0.821   2.121  13.438 -1.4023  0.4905  0.3513
  868MPD2    N112746   1.111   2.032  13.051 -0.3156 -0.4430  0.0384
  868MPD2    H712747   1.169   2.062  12.973  0.0861  0.9302  0.8612
  869MPD2     C12748   2.716   1.501   1.877  0.2809 -0.0707  0.6310
  869MPD2    C112749   2.690   1.364   1.902 -1.3628 -0.7104  0.6327
  869MPD2    C212750   2.585   1.307   1.824 -0.0862 -0.0924 -0.6169
  869MPD2    C312751   2.503   1.391   1.742  0.0689 -0.1132  0.1004
  869MPD2    C412752   2.534   1.527   1.728 -0.3417 -0.6327 -0.6632
  869MPD2    C512753   2.644   1.584   1.784  0.2803 -0.4810  0.1483
  869MPD2     H12754   2.552   1.205   1.841  0.7618 -0.1415  0.7612
  869MPD2    H112755   2.462   1.587   1.674  0.7675  2.2942  1.1260
  869MPD2    H212756   2.801   1.544   1.927 -0.2372  0.3774  1.1210
  869MPD2    H312757   2.670   1.688   1.775  1.7320 -0.9721 -1.3407
  869MPD2     N12758   2.384   1.341   1.680 -0.2115  0.5751 -0.3787
  869MPD2    H512759   2.314   1.409   1.652 -0.7336 -0.0530 -0.6287
  869MPD2    N112760   2.757   1.302   2.012 -0.4636  0.4573  0.1061
  869MPD2    H712761   2.830   1.361   2.052  0.1427  0.6448 -1.2641
  870MPD2     C12762   1.999   4.613   1.393  1.1391  0.7445  1.2294
  870MPD2    C112763   1.957   4.533   1.291 -0.2378 -0.5447  0.4029
  870MPD2    C212764   1.969   4.586   1.161  0.0960  0.7593  0.3823
  870MPD2    C312765   2.019   4.719   1.142 -0.7441  0.0099 -0.0268
  870MPD2    C412766   2.051   0.079   1.259 -0.9018 -0.0838 -1.4076
  870MPD2    C512767   2.055   0.012   1.381 -0.5200  0.0836  0.4437
  870MPD2     H12768   1.937   4.529   1.075  0.5206  1.0735  0.0174
  870MPD2    H112769   2.082   0.183   1.267 -1.1939 -0.0821 -0.2908
  870MPD2    H212770   1.971   4.578   1.491  1.4644  0.2440  1.1458
  870MPD2    H312771   2.094   0.062   1.469  1.0617  0.2284 -0.3323
  870MPD2     N12772   2.028   0.050   1.013 -0.1682 -0.5897 -0.1615
  870MPD2    H512773   2.010   4.707   0.938 -0.0728  0.0071 -0.7054
  870MPD2    N112774   1.910   4.404   1.319  0.2726 -0.3732 -0.5019
  870MPD2    H712775   1.899   4.371   1.415  1.5831  0.7187  0.0164
  871MPD2     C12776   2.598   2.771  16.211  0.3422  0.1624  0.5072
  871MPD2    C112777   2.623   2.704  16.329  0.5523  0.6570  0.3068
  871MPD2    C212778   2.689   2.579  16.317  0.4159  0.3291  0.1594
  871MPD2    C312779   2.723   2.524  16.195  0.1572 -1.0434 -0.3843
  871MPD2    C412780   2.684   2.592  16.078  0.2607 -0.1404  0.3386
  871MPD2    C512781   2.622   2.711  16.090  0.0936 -0.0193  0.3513
  871MPD2     H12782   2.720   2.524  16.406  0.8320 -0.7840 -0.6713
  871MPD2    H112783   2.709   2.545  15.984  0.6831 -0.8393  0.8021
  871MPD2    H212784   2.549   2.867  16.206 -0.2984 -0.1105  1.7542
  871MPD2    H312785   2.581   2.764  16.005 -1.3954 -2.4664 -0.4629
  871MPD2     N12786   2.793   2.398  16.195 -0.0757  0.6338 -0.5061
  871MPD2    H512787   2.798   2.364  16.291 -1.1188  1.5476 -0.1207
  871MPD2    N112788   2.592   2.773  16.452 -0.2866  0.1497 -0.3708
  871MPD2    H712789   2.552   2.866  16.443  0.8591  0.6261 -0.5331
  872MPD2     C12790   3.446   0.164  13.710 -0.1459 -0.0745 -0.0760
  872MPD2    C112791   3.509   0.215  13.823 -0.3942 -0.8759  0.1830
  872MPD2    C212792   3.446   0.201  13.949  0.6751  0.7022 -0.5236
  872MPD2    C312793   3.326   0.140  13.961 -0.3527  0.3143  0.4465
  872MPD2    C412794   3.270   0.086  13.847  0.4319  0.3269  0.2384
  872MPD2    C512795   3.330   0.093  13.725  0.3768 -0.0020 -0.0186
  872MPD2     H12796   3.496   0.232  14.040 -0.7069  1.7897 -0.1418
  872MPD2    H112797   3.177   0.030  13.840  0.7539 -0.2040  0.1971
  872MPD2    H212798   3.494   0.180  13.615  1.2867 -1.2637  0.4564
  872MPD2    H312799   3.280   0.052  13.639 -1.6832 -4.1742  3.2140
  872MPD2     N12800   3.253   0.148  14.084  0.3438  0.3229  0.0808
  872MPD2    H512801   3.293   0.191  14.167 -0.3105  1.2670 -0.0915
  872MPD2    N112802   3.635   0.275  13.810  0.1457  0.7612 -0.3213
  872MPD2    H712803   3.663   0.312  13.720 -0.8647  0.7172 -0.6551
  873MPD2     C12804   0.301   1.552   0.675 -0.0821  0.7050  0.4549
  873MPD2    C112805   0.375   1.547   0.788  0.2209 -0.2671  0.0316
  873MPD2    C212806   0.497   1.477   0.786 -0.1132 -0.0495 -0.2150
  873MPD2    C312807   0.538   1.403   0.675  0.2172 -0.0955 -0.5138
  873MPD2    C412808   0.445   1.398   0.572 -0.3415  0.4996  0.2799
  873MPD2    C512809   0.330   1.471   0.564 -0.2524 -0.2647 -0.0630
  873MPD2     H12810   0.564   1.483   0.871  0.6507  0.6477 -0.8635
  873MPD2    H112811   0.481   1.354   0.479  0.6746 -0.7700  1.2707
  873MPD2    H212812   0.209   1.608   0.677 -0.2335  0.4424  0.8246
  873MPD2    H312813   0.265   1.462   0.478  1.6589  0.4646 -1.5865
  873MPD2     N12814   0.651   1.318   0.670 -0.1644 -0.4211  0.1824
  873MPD2    H512815   0.648   1.248   0.596 -1.3036  0.3050 -0.4534
  873MPD2    N112816   0.333   1.620   0.900 -0.1878  1.2064 -0.4713
  873MPD2    H712817   0.250   1.678   0.890 -1.6284 -0.3437  2.4920
  874MPD2     C12818   4.667   0.281  16.050  0.4167  0.8486 -0.0805
  874MPD2    C112819   0.063   0.259  16.117  0.4141 -0.4427  0.5447
  874MPD2    C212820   0.183   0.302  16.070  0.4843 -0.6057 -0.2618
  874MPD2    C312821   0.181   0.380  15.960  0.0336 -0.5911 -0.1051
  874MPD2    C412822   0.069   0.398  15.889 -1.0343 -0.1020  0.4618
  874MPD2    C512823   4.671   0.353  15.932 -0.1406  0.1775 -0.1716
  874MPD2     H12824   0.278   0.293  16.120 -0.1628 -1.9416  0.7108
  874MPD2    H112825   0.076   0.450  15.794 -1.5542  0.0944  0.5303
  874MPD2    H212826   4.571   0.245  16.086 -0.8815  2.9222 -1.4705
  874MPD2    H312827   4.584   0.367  15.869 -0.8460 -0.6336  0.6106
  874MPD2     N12828   0.305   0.442  15.931 -0.0594  0.1942  0.8934
  874MPD2    H512829   0.388   0.404  15.975  1.3838  1.6459 -0.5635
  874MPD2    N112830   0.055   0.184  16.239 -0.4522 -0.8860 -0.1872
  874MPD2    H712831   4.683   0.151  16.252 -0.9054 -0.0417 -1.3752
  875MPD2     C12832   1.184   2.987  14.566 -0.8421 -0.0255  0.0536
  875MPD2    C112833   1.153   3.119  14.545  0.3372  0.1379  0.0155
  875MPD2    C212834   1.229   3.224  14.595  0.2672 -0.4873 -0.0211
  875MPD2    C312835   1.338   3.195  14.679 -0.1430  0.1859 -0.3666
  875MPD2    C412836   1.372   3.062  14.688 -0.4236  0.0685  0.6786
  875MPD2    C512837   1.305   2.960  14.629 -0.2908  0.2673 -1.1497
  875MPD2     H12838   1.199   3.328  14.582 -0.0011 -0.2648  2.3562
  875MPD2    H112839   1.457   3.029  14.747 -0.4928 -0.2500  0.6026
  875MPD2    H212840   1.136   2.902  14.520 -2.4027  0.6366  0.4617
  875MPD2    H312841   1.348   2.863  14.651 -0.5093  0.6540  1.0230
  875MPD2     N12842   1.417   3.292  14.757  0.3509 -0.0514  0.1723
  875MPD2    H512843   1.487   3.254  14.820  1.9792  2.1695 -0.3352
  875MPD2    N112844   1.041   3.166  14.472  0.0672  0.5929  0.1091
  875MPD2    H712845   1.028   3.266  14.462  1.0691  0.6778 -0.2987
  876MPD2     C12846   0.016   4.647  16.063 -0.5058  0.0174 -0.0771
  876MPD2    C112847   0.153   4.647  16.017  0.2439  0.2105 -0.7620
  876MPD2    C212848   0.237   4.559  16.083 -0.3542  0.0558  0.3326
  876MPD2    C312849   0.205   4.466  16.181 -0.5507  0.2618  0.4943
  876MPD2    C412850   0.076   4.472  16.222  0.4648  0.6231  0.6552
  876MPD2    C512851   4.712   4.567  16.169  0.2001  0.6250  0.9323
  876MPD2     H12852   0.338   4.554  16.043  0.3497  3.3224  1.7352
  876MPD2    H112853   0.025   4.408  16.293  2.9415 -0.4523  1.4580
  876MPD2    H212854   4.659   4.701  16.015 -0.9068 -1.1518 -0.7410
  876MPD2    H312855   4.616   4.571  16.220 -0.4250  3.0586 -0.4575
  876MPD2     N12856   0.293   4.361  16.209 -0.1200 -0.0264  0.2851
  876MPD2    H512857   0.386   4.352  16.170 -0.4058  1.1805 -0.6767
  876MPD2    N112858   0.201   0.011  15.912 -0.4915 -0.4756 -0.0221
  876MPD2    H712859   0.132   0.057  15.853  1.4009  0.3859 -1.5920
  877MPD2     C12860   0.044   0.232  15.208  0.3483 -0.0000  0.2364
  877MPD2    C112861   0.178   0.244  15.230 -0.7219  0.1961  0.3829
  877MPD2    C212862   0.262   0.233  15.119  0.8984 -0.0766 -0.6300
  877MPD2    C312863   0.207   0.218  14.996 -0.3150 -0.4942 -0.6764
  877MPD2    C412864   0.072   0.200  14.974 -0.3723 -0.5369 -0.1956
  877MPD2    C512865   4.720   0.205  15.082 -0.2454  0.8858  0.0472
  877MPD2     H12866   0.369   0.229  15.132  1.1263  3.7160 -1.2331
  877MPD2    H112867   0.031   0.177  14.877 -1.4052 -0.4246  0.2218
  877MPD2    H212868   4.696   0.232  15.291 -1.7988 -2.9642 -1.6211
  877MPD2    H312869   4.615   0.184  15.066 -0.3975  1.5084  0.2376
  877MPD2     N12870   0.286   0.223  14.880 -0.4528  0.0727  1.4495
  877MPD2    H512871   0.244   0.205  14.789  1.9937  0.9680  0.1587
  877MPD2    N112872   0.239   0.256  15.361  0.3317 -0.3782 -0.3013
  877MPD2    H712873   0.338   0.279  15.360  0.3319 -0.3445  0.2294
  878MPD2     C12874   0.726   0.472  12.642 -0.1894  0.2105  0.4995
  878MPD2    C112875   0.601   0.447  12.693 -0.1718 -0.1858  0.1047
  878MPD2    C212876   0.581   0.421  12.827 -0.0601 -0.8654 -1.0260
  878MPD2    C312877   0.686   0.433  12.915  0.1762  0.2861  0.4158
  878MPD2    C412878   0.813   0.459  12.866  0.4428  0.4972  0.5640
  878MPD2    C512879   0.831   0.476  12.733 -0.1358  0.3978  0.0756
  878MPD2     H12880   0.484   0.405  12.872  0.0150  0.8070 -0.2639
  878MPD2    H112881   0.897   0.494  12.926  0.5700  0.7515  0.2342
  878MPD2    H212882   0.746   0.493  12.538  0.5919  0.5372  0.7193
  878MPD2    H312883   0.920   0.525  12.695  0.3192  1.2280  2.2272
  878MPD2     N12884   0.664   0.395  13.047 -0.2150 -0.0680  0.3467
  878MPD2    H512885   0.568   0.394  13.080  0.5551  1.8390  2.6748
  878MPD2    N112886   0.494   0.443  12.606 -0.0692 -0.5074  0.0443
  878MPD2    H712887   0.512   0.476  12.512  3.7433  3.0986  2.0455
  879MPD2     C12888   0.519   1.739  16.825  0.4299 -0.2207  0.2907
  879MPD2    C112889   0.621   1.671  16.882 -0.5684 -0.1834  0.0911
  879MPD2    C212890   0.611   1.530  16.891 -0.2224  0.2545 -0.3660
  879MPD2    C312891   0.503   1.457  16.856  0.2265  0.3165 -0.5055
  879MPD2    C412892   0.410   1.532  16.791  0.1778 -0.3611 -0.3112
  879MPD2    C512893   0.411   1.668  16.784  0.1154 -0.6896 -0.0094
  879MPD2     H12894   0.693   1.480  16.941  0.3466  2.8172  1.2579
  879MPD2    H112895   0.319   1.480  16.767  0.5342 -1.0331 -0.2244
  879MPD2    H212896   0.515   1.847  16.821 -1.1343 -0.2658  0.8384
  879MPD2    H312897   0.320   1.710  16.742 -1.0777 -1.0169  2.2597
  879MPD2     N12898   0.487   1.321  16.859  0.2979  0.1589  0.3950
  879MPD2    H512899   0.404   1.281  16.816 -0.0626  0.9948  0.3269
  879MPD2    N112900   0.723   1.749  16.950  0.8679  0.0110  0.4888
  879MPD2    H712901   0.720   1.850  16.944  0.0418 -0.1746 -2.1598
  880MPD2     C12902   2.303   3.770   1.136  0.1146 -0.5568  0.0434
  880MPD2    C112903   2.171   3.780   1.097  0.3620  0.3949  0.5655
  880MPD2    C212904   2.066   3.765   1.189  0.4733  0.1473  0.4575
  880MPD2    C312905   2.101   3.739   1.321 -0.6659  0.0546 -0.5992
  880MPD2    C412906   2.235   3.736   1.364 -0.0340  0.0206 -0.0291
  880MPD2    C512907   2.330   3.756   1.267 -0.1521 -0.6973 -0.1171
  880MPD2     H12908   1.962   3.772   1.161  1.0506 -0.2468 -1.8321
  880MPD2    H112909   2.266   3.726   1.467  2.7830 -0.1615 -0.9162
  880MPD2    H212910   2.380   3.784   1.062 -0.1320  0.3109 -0.0409
  880MPD2    H312911   2.434   3.736   1.291 -0.1871 -0.6367  0.0873
  880MPD2     N12912   2.006   3.720   1.424 -0.0609  0.1679  0.2315
  880MPD2    H512913   2.046   3.704   1.516  0.9962 -0.3054 -0.3092
  880MPD2    N112914   2.141   3.806   0.958  0.3247  0.2694 -0.4659
  880MPD2    H712915   2.050   3.841   0.931  0.6199  2.3235  1.2983
  881MPD2     C12916   2.030   3.277   0.115 -0.1321 -0.9736 -0.0208
  881MPD2    C112917   2.099   3.394   0.077 -0.3643 -0.1737 -0.4800
  881MPD2    C212918   2.099   3.496   0.170 -0.6446 -0.1301  0.3550
  881MPD2    C312919   2.074   3.478   0.305 -0.1610 -0.2310  0.3004
  881MPD2    C412920   2.021   3.361   0.346 -0.5707 -0.0925 -0.2650
  881MPD2    C512921   2.002   3.263   0.255 -0.3552  0.1335 -0.4473
  881MPD2     H12922   2.149   3.588   0.145 -0.1263 -0.6215 -0.4372
  881MPD2    H112923   1.985   3.354   0.449  0.2483  1.0098  0.0942
  881MPD2    H212924   2.024   3.193   0.048  0.4997 -0.4970 -0.6827
  881MPD2    H312925   1.949   3.171   0.278  1.0462 -1.6244 -4.2616
  881MPD2     N12926   2.083   3.571   0.411 -0.0271  0.0943  0.4617
  881MPD2    H512927   2.060   3.543   0.506 -0.9542  1.4911  0.6557
  881MPD2    N112928   2.111   3.411  17.633 -0.2242  0.4693  0.3375
  881MPD2    H712929   2.073   3.338  17.574 -1.4927 -0.6611  2.5103
  882MPD2     C12930   0.484   0.582  14.278  0.8940  0.5038 -0.5122
  882MPD2    C112931   0.444   0.549  14.405  0.0125 -0.3075  0.0176
  882MPD2    C212932   0.315   0.578  14.438  0.4071  0.7364 -0.3131
  882MPD2    C312933   0.232   0.648  14.354 -0.1756  0.0426  0.1677
  882MPD2    C412934   0.281   0.691  14.232  0.4477 -0.6561  0.1022
  882MPD2    C512935   0.407   0.659  14.198  0.1171 -0.2019 -0.5000
  882MPD2     H12936   0.270   0.542  14.531 -2.8580  1.4701 -1.5890
  882MPD2    H112937   0.221   0.751  14.165  0.3358 -0.7928  0.0770
  882MPD2    H212938   0.580   0.548  14.239  0.3839 -1.1781 -0.2896
  882MPD2    H312939   0.458   0.703  14.113  0.3409 -0.7577 -0.6511
  882MPD2     N12940   0.092   0.666  14.379 -0.2241 -0.5076 -0.3021
  882MPD2    H512941   0.037   0.687  14.296 -1.8290 -2.1131  0.3338
  882MPD2    N112942   0.513   0.462  14.492  0.1129 -0.1489  0.0997
  882MPD2    H712943   0.470   0.439  14.581 -0.0983 -0.2899 -0.0398
  883MPD2     C12944   2.141   0.562  16.282  0.2617 -0.6109  0.6290
  883MPD2    C112945   2.189   0.583  16.158  0.3370  0.0807 -0.8578
  883MPD2    C212946   2.324   0.578  16.140  0.5656  0.1834  0.2772
  883MPD2    C312947   2.409   0.562  16.248  0.0326  0.0469  1.0871
  883MPD2    C412948   2.361   0.537  16.374  0.4414 -0.3845 -0.3299
  883MPD2    C512949   2.224   0.529  16.380 -0.4879 -0.4871 -0.7756
  883MPD2     H12950   2.359   0.567  16.038 -0.1975 -3.4936  0.4134
  883MPD2    H112951   2.413   0.528  16.468  0.4812  2.2807 -0.1135
  883MPD2    H212952   2.037   0.583  16.300  0.1773 -0.1011 -0.4125
  883MPD2    H312953   2.185   0.519  16.480 -0.2313 -0.0389 -0.6329
  883MPD2     N12954   2.548   0.556  16.224  0.0103 -0.0737  0.0946
  883MPD2    H512955   2.588   0.567  16.132 -1.3314  0.9874 -0.3668
  883MPD2    N112956   2.113   0.613  16.041  0.1102 -0.1174  0.2631
  883MPD2    H712957   2.166   0.641  15.959  2.7387 -2.8413  1.0531
  884MPD2     C12958   4.015   0.914  14.866  0.6452 -0.2756 -0.3097
  884MPD2    C112959   4.076   0.940  14.984 -0.0890  0.0531  0.6889
  884MPD2    C212960   3.999   0.939  15.098 -0.8486  1.2708 -0.6633
  884MPD2    C312961   3.859   0.930  15.087 -0.3610  0.0787  0.7933
  884MPD2    C412962   3.800   0.918  14.961  0.2374 -0.0170 -0.7106
  884MPD2    C512963   3.884   0.906  14.852  0.4107 -0.0583  0.2097
  884MPD2     H12964   4.043   0.942  15.197  0.1826 -3.6633 -1.0004
  884MPD2    H112965   3.694   0.898  14.948  0.5761 -1.8427 -0.7256
  884MPD2    H212966   4.072   0.897  14.775  0.2799 -0.5831 -0.4774
  884MPD2    H312967   3.845   0.876  14.756  0.1953 -1.5429  0.7589
  884MPD2     N12968   3.774   0.922  15.196 -0.5843 -0.2283  0.6901
  884MPD2    H512969   3.808   0.904  15.290  1.3196  0.1973  0.0720
  884MPD2    N112970   4.217   0.951  14.994  0.5124  0.2762  0.0868
  884MPD2    H712971   4.260   0.958  15.085  0.0935 -1.2104  0.4025
  885MPD2     C12972   2.251   1.239   0.317 -0.3485  0.1704  0.2618
  885MPD2    C112973   2.387   1.257   0.306 -0.4453 -0.2311 -0.5989
  885MPD2    C212974   2.446   1.266   0.182 -0.4016  0.4009 -0.6247
  885MPD2    C312975   2.361   1.257   0.074 -0.3868 -0.2380  0.9975
  885MPD2    C412976   2.227   1.239   0.082  0.2216 -0.5244 -0.0698
  885MPD2    C512977   2.172   1.240   0.204  0.2772  0.3012  0.0685
  885MPD2     H12978   2.554   1.271   0.172 -0.4500 -0.6307 -1.6739
  885MPD2    H112979   2.164   1.225  17.688  0.8245  0.7342 -0.6992
  885MPD2    H212980   2.202   1.217   0.411 -1.1848  1.1469  0.0467
  885MPD2    H312981   2.065   1.227   0.210  0.2391  0.4669 -0.2852
  885MPD2     N12982   2.406   1.266  17.632  1.0855  0.1495  0.9101
  885MPD2    H512983   2.337   1.247  17.560  1.1081  1.3072  0.5875
  885MPD2    N112984   2.462   1.259   0.428  0.1371 -0.6116 -0.6760
  885MPD2    H712985   2.411   1.259   0.516 -2.2730  2.6648 -2.1118
  886MPD2     C12986   3.627   4.123  15.244  0.2252  0.2334  0.1880
  886MPD2    C112987   3.725   4.184  15.322 -0.4838  0.2362 -0.2568
  886MPD2    C212988   3.775   4.308  15.298  0.3076 -0.4365  0.7133
  886MPD2    C312989   3.735   4.375  15.187 -0.6145 -0.1586 -0.6545
  886MPD2    C412990   3.633   4.319  15.117  0.3398  1.1531 -0.0831
  886MPD2    C512991   3.577   4.197  15.144 -0.4036 -0.6676 -0.3377
  886MPD2     H12992   3.860   4.339  15.356 -0.9941 -0.6495  2.7391
  886MPD2    H112993   3.590   4.362  15.028  0.2387  0.3838 -0.4087
  886MPD2    H212994   3.582   4.028  15.271 -0.8197  1.2506  2.0098
  886MPD2    H312995   3.488   4.161  15.093 -1.4874  1.6563 -0.1019
  886MPD2     N12996   3.777   4.512  15.149 -1.0992 -0.1260 -0.3317
  886MPD2    H512997   3.747   4.543  15.057 -0.4248 -1.4931 -1.0058
  886MPD2    N112998   3.782   4.112  15.430  0.1242 -0.0301 -0.0638
  886MPD2    H712999   3.853   4.161  15.485  1.7094 -1.2023 -1.0505
  887MPD2     C13000   4.263   4.290  15.938  0.2928  0.0601  0.1143
  887MPD2    C113001   4.136   4.313  15.895 -0.6000 -0.5744 -0.2752
  887MPD2    C213002   4.086   4.442  15.926 -0.0148 -0.0412 -0.3623
  887MPD2    C313003   4.161   4.549  15.978 -0.3199 -0.3573  0.4173
  887MPD2    C413004   4.293   4.524  16.010 -0.4024 -0.6470 -0.4108
  887MPD2    C513005   4.332   4.396  15.988  0.3140  0.2628  0.2900
  887MPD2     H13006   3.981   4.465  15.911 -0.5638 -0.6972  2.5322
  887MPD2    H113007   4.357   4.594  16.064  0.5491 -2.2947  0.5853
  887MPD2    H213008   4.321   4.202  15.914 -0.4405 -0.7082  1.1884
  887MPD2    H313009   4.438   4.380  16.007  0.2987 -1.1876 -0.8241
  887MPD2     N13010   4.105   4.677  15.983 -0.4804 -0.2922 -0.4856
  887MPD2    H513011   4.016   4.699  15.939  0.2411 -1.1540 -2.3988
  887MPD2    N113012   4.055   4.215  15.831 -0.5063  0.6038 -0.1386
  887MPD2    H713013   3.966   4.255  15.801 -1.2737  0.6495  2.2243
  888MPD2     C13014   1.530   4.709  14.878  0.2343  0.5943 -0.3089
  888MPD2    C113015   1.514   0.046  15.003  0.1703 -0.0120 -0.0608
  888MPD2    C213016   1.559   0.179  15.020 -0.4312  0.1714  0.1985
  888MPD2    C313017   1.598   0.256  14.911  0.1980 -0.2030  0.1630
  888MPD2    C413018   1.617   0.187  14.787 -0.3460 -0.4823 -0.1256
  888MPD2    C513019   1.576   0.057  14.774 -0.3951 -0.5883  0.2814
  888MPD2     H13020   1.541   0.229  15.114  0.6223  1.1162 -0.1168
  888MPD2    H113021   1.654   0.239  14.699 -2.3465  1.2495  0.0601
  888MPD2    H213022   1.498   4.608  14.855 -1.1661  1.0255 -0.3014
  888MPD2    H313023   1.586   0.014  14.675  3.6111 -0.8316  0.7740
  888MPD2     N13024   1.623   0.393  14.926  0.7119 -0.1905 -0.3905
  888MPD2    H513025   1.599   0.434  15.016 -0.1615 -0.2137 -0.6165
  888MPD2    N113026   1.458   4.698  15.111  0.1460  0.2333  0.8450
  888MPD2    H713027   1.467   0.017  15.203  1.5932  0.6191  0.5282
  889MPD2     C13028   0.931   3.631  13.158  0.6763 -0.2954  0.4606
  889MPD2    C113029   0.970   3.724  13.253  0.3201 -0.5364  0.0027
  889MPD2    C213030   0.963   3.860  13.228 -0.3754 -0.1627 -0.6288
  889MPD2    C313031   0.919   3.906  13.107 -0.4704 -0.2136 -0.2194
  889MPD2    C413032   0.902   3.811  13.008  0.2986  0.4270 -0.0940
  889MPD2    C513033   0.906   3.677  13.032 -0.7307  0.1490  0.8268
  889MPD2     H13034   0.972   3.932  13.309 -0.9689 -3.6917  2.6062
  889MPD2    H113035   0.885   3.839  12.904 -0.0958 -1.6436 -0.5765
  889MPD2    H213036   0.966   3.529  13.174  1.1182 -0.4769 -1.6332
  889MPD2    H313037   0.883   3.607  12.953 -1.3337  0.4959  0.6970
  889MPD2     N13038   0.915   4.045  13.085  0.2168 -0.1777  0.7294
  889MPD2    H513039   0.952   4.099  13.163  3.0294  1.9867 -2.0818
  889MPD2    N113040   0.987   3.689  13.394  0.5526  0.4911  0.4490
  889MPD2    H713041   1.014   3.758  13.463 -0.3651  2.9092 -1.5895
  890MPD2     C13042   0.035   1.068  14.722 -0.3342  0.0331 -0.4044
  890MPD2    C113043   0.120   1.122  14.813 -0.4101 -0.0988  0.1148
  890MPD2    C213044   0.158   1.036  14.916  0.6143  0.2028 -0.6541
  890MPD2    C313045   0.114   0.907  14.932 -0.1127 -0.7611  0.3330
  890MPD2    C413046   0.048   0.850  14.825  0.6600  1.0971  0.3534
  890MPD2    C513047   0.009   0.933  14.721 -0.8463  0.0275  0.8234
  890MPD2     H13048   0.228   1.084  14.983  0.4883  0.0017 -0.3781
  890MPD2    H113049   0.031   0.743  14.818  1.5458  0.9265  0.6947
  890MPD2    H213050   4.710   1.138  14.655 -1.1941  0.6368  0.8576
  890MPD2    H313051   4.671   0.896  14.639 -0.0650  2.6785 -0.9428
  890MPD2     N13052   0.143   0.831  15.050 -0.0239 -0.3652 -0.5239
  890MPD2    H513053   0.207   0.869  15.119 -1.8015  0.7552  0.5162
  890MPD2    N113054   0.169   1.252  14.789  0.3105 -0.0855  0.3306
  890MPD2    H713055   0.141   1.296  14.702 -1.0597 -0.7970  0.4119
  891MPD2     C13056   3.611   4.430  16.751 -0.6374 -0.2127 -0.1501
  891MPD2    C113057   3.491   4.363  16.780  0.6588 -0.2540 -0.4760
  891MPD2    C213058   3.500   4.273  16.886 -0.4292  0.0425 -0.2409
  891MPD2    C313059   3.621   4.257  16.959  0.6388 -1.0075  0.1369
  891MPD2    C413060   3.729   4.336  16.937  0.2134 -0.0659  0.6973
  891MPD2    C513061   3.719   4.420  16.828 -0.4037 -0.3539 -0.3586
  891MPD2     H13062   3.420   4.206  16.915  0.9364 -0.6540  1.9289
  891MPD2    H113063   3.820   4.333  16.995 -1.0801 -4.1816  2.4933
  891MPD2    H213064   3.607   4.504  16.672 -0.7380 -0.6755 -0.5779
  891MPD2    H313065   3.805   4.482  16.805  0.0586 -0.8266  0.0657
  891MPD2     N13066   3.633   4.167  17.061 -0.6569  0.8093 -0.1866
  891MPD2    H513067   3.551   4.109  17.074  0.6414 -0.7689  1.0179
  891MPD2    N113068   3.372   4.383  16.697 -0.6825 -0.0852  1.0478
  891MPD2    H713069   3.382   4.448  16.619 -1.9133  0.1091  1.0420
  892MPD2     C13070   4.105   0.588  15.147 -0.3456  0.2776  0.0075
  892MPD2    C113071   4.043   0.570  15.026  0.1188  0.0579 -0.1530
  892MPD2    C213072   4.120   0.567  14.915 -0.5545 -0.2515  0.1644
  892MPD2    C313073   4.262   0.569  14.923 -0.1296  0.5786 -0.3339
  892MPD2    C413074   4.315   0.589  15.049 -0.4516  0.2658 -1.1516
  892MPD2    C513075   4.238   0.604  15.153 -0.7391 -0.3512  0.1746
  892MPD2     H13076   4.072   0.547  14.820 -1.1281  1.9238 -0.0047
  892MPD2    H113077   4.422   0.601  15.064 -0.6792  0.5131  0.2561
  892MPD2    H213078   4.046   0.587  15.238 -0.5328 -2.3502 -0.1599
  892MPD2    H313079   4.286   0.629  15.247  0.8721 -1.0185 -0.4681
  892MPD2     N13080   4.350   0.558  14.808  0.0457  0.3409  0.2321
  892MPD2    H513081   4.450   0.564  14.822  0.5711 -1.2377 -2.8433
  892MPD2    N113082   3.905   0.552  15.012  0.1085 -0.4108  0.1620
  892MPD2    H713083   3.871   0.535  14.918 -0.0335  0.3211  0.0781
  893MPD2     C13084   2.286   4.546   2.256 -0.3181 -0.0047  0.3090
  893MPD2    C113085   2.242   4.560   2.128 -0.4145  0.3826 -0.2264
  893MPD2    C213086   2.117   4.511   2.094 -0.0729  0.7215 -0.6072
  893MPD2    C313087   2.048   4.439   2.189 -0.0758  0.5388 -0.1453
  893MPD2    C413088   2.088   4.414   2.318  0.4420  0.1267 -0.5125
  893MPD2    C513089   2.210   4.467   2.351 -0.0476  0.2600  0.4125
  893MPD2     H13090   2.081   4.522   1.992 -0.3997 -0.5414 -0.6202
  893MPD2    H113091   2.026   4.366   2.393 -1.4179  3.1610 -0.1359
  893MPD2    H213092   2.377   4.595   2.290 -2.1350  1.3498  3.2748
  893MPD2    H313093   2.231   4.471   2.457 -0.9427 -0.7828  0.6324
  893MPD2     N13094   1.925   4.374   2.160 -0.4217  0.1645 -0.4998
  893MPD2    H513095   1.880   4.325   2.236  3.7175  0.2893  2.0242
  893MPD2    N113096   2.312   4.650   2.043 -0.2372  0.1556  0.1145
  893MPD2    H713097   2.397   4.690   2.082 -0.4341 -0.8401  1.5783
  894MPD2     C13098   3.484   2.073   0.755  0.3938 -0.1780  0.5166
  894MPD2    C113099   3.507   2.119   0.890 -0.2235  0.0859 -0.1619
  894MPD2    C213100   3.628   2.178   0.917 -0.0706 -0.7903  0.5389
  894MPD2    C313101   3.728   2.191   0.822 -0.1888 -0.0757  0.7116
  894MPD2    C413102   3.709   2.144   0.691 -0.1500 -0.9077  0.3762
  894MPD2    C513103   3.588   2.084   0.661 -0.4355  0.4346 -0.1662
  894MPD2     H13104   3.649   2.214   1.017 -0.9347  1.4516 -0.0913
  894MPD2    H113105   3.770   2.162   0.603  0.3277 -1.6912  0.5459
  894MPD2    H213106   3.386   2.041   0.722 -1.1701  0.3129  4.6516
  894MPD2    H313107   3.566   2.060   0.557 -1.6618 -0.8854  0.4025
  894MPD2     N13108   3.846   2.260   0.868 -0.4708  0.0756 -0.2415
  894MPD2    H513109   3.851   2.288   0.965 -0.2512 -1.4518  0.1705
  894MPD2    N113110   3.408   2.125   0.995  0.6204  0.2013 -0.2339
  894MPD2    H713111   3.445   2.177   1.073  1.7329 -1.1648  0.1439
  895MPD2     C13112   3.287   4.639  13.389 -0.0501  0.0903 -0.7873
  895MPD2    C113113   3.239   0.006  13.295 -0.2490 -0.1941 -0.5067
  895MPD2    C213114   3.312   0.032  13.185 -0.5162 -0.1729 -0.1571
  895MPD2    C313115   3.414   4.671  13.150 -0.2843 -0.4308  0.1915
  895MPD2    C413116   3.467   4.590  13.244  0.1783  0.2615 -0.0884
  895MPD2    C513117   3.403   4.574  13.363 -0.3604  0.1400  0.1593
  895MPD2     H13118   3.266   0.096  13.110  2.1391 -1.3510 -2.7845
  895MPD2    H113119   3.552   4.529  13.215  1.8361  2.6865 -0.3486
  895MPD2    H213120   3.235   4.615  13.481  0.5800 -0.0814 -0.4759
  895MPD2    H313121   3.441   4.503  13.436 -0.4177 -1.0843 -0.9846
  895MPD2     N13122   3.471   4.674  13.020 -0.7119  0.1631 -0.5361
  895MPD2    H513123   3.518   4.588  12.995  2.2782  1.6770 -0.1449
  895MPD2    N113124   3.111   0.072  13.313  0.3231  0.7122 -0.4298
  895MPD2    H713125   3.087   0.144  13.246 -0.5858  0.3457 -0.5058
  896MPD2     C13126   1.240   3.124   1.563  0.2955  0.1627 -0.6650
  896MPD2    C113127   1.258   3.034   1.467  0.0128  0.3720  0.4021
  896MPD2    C213128   1.171   2.925   1.464  0.6923  0.2821  0.6615
  896MPD2    C313129   1.070   2.908   1.560 -0.0531  0.2347 -0.7066
  896MPD2    C413130   1.060   3.002   1.652 -0.3701  0.9954 -0.5604
  896MPD2    C513131   1.145   3.106   1.660  0.7661 -0.0981  0.9076
  896MPD2     H13132   1.160   2.850   1.387 -0.8179 -0.1929  1.3322
  896MPD2    H113133   0.980   3.000   1.726  0.0548  0.0599 -0.1317
  896MPD2    H213134   1.299   3.215   1.568  0.6804 -0.2385  2.0851
  896MPD2    H313135   1.131   3.165   1.750  0.9751 -0.1438  0.9706
  896MPD2     N13136   0.973   2.805   1.536 -0.3679  0.3139 -0.3182
  896MPD2    H513137   0.964   2.774   1.440 -3.4991 -2.6747  0.9133
  896MPD2    N113138   1.361   3.054   1.373  0.4176  0.2225 -0.6122
  896MPD2    H713139   1.396   3.149   1.362  1.6438  0.1132  2.3624
  897MPD2     C13140   1.576   3.807  10.499 -0.2221 -0.7555  0.0528
  897MPD2    C113141   1.576   3.929  10.437  0.4779  0.4371 -0.5844
  897MPD2    C213142   1.486   4.028  10.474 -0.2336  0.0692 -0.5876
  897MPD2    C313143   1.398   4.003  10.581  0.4847 -0.2936  0.3902
  897MPD2    C413144   1.404   3.880  10.646  0.1401  0.5005  0.3877
  897MPD2    C513145   1.489   3.786  10.607 -0.6922 -0.1322 -0.2802
  897MPD2     H13146   1.486   4.125  10.427 -0.2712 -0.2526 -1.2538
  897MPD2    H113147   1.337   3.866  10.730  0.8985 -0.0455  0.9008
  897MPD2    H213148   1.645   3.728  10.473  1.1737  0.6153 -0.3692
  897MPD2    H313149   1.499   3.694  10.664  2.2998  1.0262  1.0753
  897MPD2     N13150   1.312   4.107  10.624 -0.4038  0.5095  0.5399
  897MPD2    H513151   1.322   4.194  10.572 -0.4374  1.0406  1.4149
  897MPD2    N113152   1.663   3.965  10.328  0.5561  0.2784 -0.4560
  897MPD2    H713153   1.722   3.892  10.290  2.3146  1.5798 -0.1931
  898MPD2     C13154   4.375   4.694  17.651  0.0376  0.1464  0.2814
  898MPD2    C113155   4.454   0.069  17.607  0.5545 -0.1987  0.7429
  898MPD2    C213156   4.402   0.162  17.516  0.5363  0.3526 -0.2478
  898MPD2    C313157   4.278   0.152  17.466 -0.6310  0.1575  0.0569
  898MPD2    C413158   4.207   0.039  17.495 -0.4476 -0.0636  0.0828
  898MPD2    C513159   4.256   4.669  17.587 -0.1063 -0.7321  0.5876
  898MPD2     H13160   4.459   0.249  17.485 -0.3524  1.3247  0.8379
  898MPD2    H113161   4.121   0.014  17.433 -1.2757  1.1356  0.7675
  898MPD2    H213162   4.404   4.612   0.022 -1.6208 -1.3019 -0.7961
  898MPD2    H313163   4.197   4.585  17.623  0.6200 -1.9062 -0.9394
  898MPD2     N13164   4.248   0.247  17.364 -0.2870  0.0431 -0.1423
  898MPD2    H513165   4.324   0.306  17.332 -1.4873  1.6399 -0.0360
  898MPD2    N113166   4.588   0.085  17.653  0.7858 -0.8128 -0.5017
  898MPD2    H713167   4.638   0.165  17.615 -0.1637 -0.2842 -0.6340
  899MPD2     C13168   4.397   1.065  17.415 -1.3038 -0.0276  0.7722
  899MPD2    C113169   4.457   1.187  17.426 -0.3899  0.6297 -0.2471
  899MPD2    C213170   4.445   1.263  17.538 -0.6811 -0.0751  0.6753
  899MPD2    C313171   4.357   1.232  17.635  0.6440 -0.3563  0.2868
  899MPD2    C413172   4.300   1.106  17.631  0.2079 -0.4247  0.5804
  899MPD2    C513173   4.317   1.023  17.516  0.5133  0.1846 -0.2257
  899MPD2     H13174   4.499   1.357  17.538 -3.1528  1.3457  0.7244
  899MPD2    H113175   4.228   1.081   0.014 -2.1971  0.8711 -1.2710
  899MPD2    H213176   4.435   0.994  17.343 -2.3563 -0.2251  0.4109
  899MPD2    H313177   4.276   0.923  17.518  2.9084 -0.8156 -0.9764
  899MPD2     N13178   4.333   1.320   0.047 -0.3891  0.3340  0.0623
  899MPD2    H513179   4.258   1.295   0.111 -0.8021  1.8946  0.1651
  899MPD2    N113180   4.541   1.216  17.318  0.0867  0.1284 -0.4810
  899MPD2    H713181   4.526   1.176  17.226 -0.4996 -3.0978  1.0177
  900MPD2     C13182   4.313   3.098  12.313  0.3432  0.2562  0.1503
  900MPD2    C113183   4.247   2.983  12.281  0.6511  0.0516  0.2766
  900MPD2    C213184   4.133   3.000  12.198 -0.5573 -0.2177 -0.5131
  900MPD2    C313185   4.076   3.126  12.190 -0.4177 -0.5259  0.2619
  900MPD2    C413186   4.139   3.241  12.234  0.6364  0.0123  0.5264
  900MPD2    C513187   4.266   3.227  12.292  0.1145  0.2845  0.3702
  900MPD2     H13188   4.084   2.919  12.145 -0.1936  0.6243 -2.1470
  900MPD2    H113189   4.082   3.332  12.220  1.0640 -0.0460 -1.5720
  900MPD2    H213190   4.406   3.098  12.368  0.2093 -0.9068  0.3747
  900MPD2    H313191   4.334   3.310  12.313  0.0053  0.0879  1.4646
  900MPD2     N13192   3.954   3.140  12.118 -0.3366  0.1565  0.1448
  900MPD2    H513193   3.927   3.062  12.059  0.9408 -0.5108  0.4379
  900MPD2    N113194   4.304   2.858  12.316 -0.1169  0.3191 -0.3555
  900MPD2    H713195   4.389   2.858  12.372  0.8777  0.8328 -1.8810
  901MPD2     C13196   4.139   1.775  12.449  0.1825 -0.0541  0.4289
  901MPD2    C113197   4.266   1.795  12.405  0.1046  0.3297 -0.9116
  901MPD2    C213198   4.323   1.920  12.395 -0.0371  0.9090  0.4908
  901MPD2    C313199   4.254   2.040  12.415  0.1203 -0.1078 -0.1480
  901MPD2    C413200   4.118   2.019  12.448 -0.1184  0.4244 -0.1935
  901MPD2    C513201   4.067   1.888  12.467 -0.1316 -0.1925 -0.3521
  901MPD2     H13202   4.424   1.927  12.354 -1.0490  1.2777 -1.9481
  901MPD2    H113203   4.051   2.103  12.464  1.6009  1.6368  0.6159
  901MPD2    H213204   4.093   1.678  12.463 -0.9952  0.4588  0.1237
  901MPD2    H313205   3.962   1.882  12.493 -0.1983  2.3216 -0.1162
  901MPD2     N13206   4.314   2.168  12.392  0.3669 -0.3137  0.5780
  901MPD2    H513207   4.405   2.158  12.348  0.2496 -0.7616  0.4412
  901MPD2    N113208   4.335   1.673  12.373  0.2136 -0.4483 -0.1988
  901MPD2    H713209   4.282   1.590  12.398 -1.1414 -0.0706 -1.8371
  902MPD2     C13210   3.478   0.326  12.556 -0.5280 -0.2525 -0.3162
  902MPD2    C113211   3.378   0.376  12.476 -0.1203  0.4191  0.9188
  902MPD2    C213212   3.324   0.288  12.383 -0.1409 -0.0779  0.8010
  902MPD2    C313213   3.388   0.168  12.350  0.0325  0.7077 -0.4057
  902MPD2    C413214   3.505   0.134  12.423  0.4756 -0.5436  0.2880
  902MPD2    C513215   3.549   0.211  12.526 -0.2426  0.6865  0.1592
  902MPD2     H13216   3.238   0.322  12.326  0.4445 -0.7336 -0.4693
  902MPD2    H113217   3.555   0.041  12.400  1.1800 -0.3402  0.9893
  902MPD2    H213218   3.515   0.387  12.638 -0.8757 -2.8142  1.7316
  902MPD2    H313219   3.634   0.180  12.586 -1.3966 -1.6780  0.5733
  902MPD2     N13220   3.346   0.085  12.243 -0.1045 -0.5807 -0.3460
  902MPD2    H513221   3.410   0.016  12.205 -0.8520 -1.0338 -0.7729
  902MPD2    N113222   3.326   0.508  12.491 -0.3963  0.1965  0.4129
  902MPD2    H713223   3.389   0.571  12.538 -1.3430  0.7970  0.8899
  903MPD2     C13224   3.005   0.165  11.413 -0.1935 -0.6323 -0.8074
  903MPD2    C113225   2.951   0.126  11.539  0.0636  0.1454 -0.2717
  903MPD2    C213226   2.815   0.114  11.550  0.4167 -0.3244  0.3078
  903MPD2    C313227   2.740   0.105  11.435 -0.4021  0.7277  0.3443
  903MPD2    C413228   2.800   0.131  11.310  0.0816 -0.3556  0.5450
  903MPD2    C513229   2.932   0.166  11.302  0.3681 -0.2303 -0.4834
  903MPD2     H13230   2.769   0.094  11.646 -1.8088  0.1877 -0.6616
  903MPD2    H113231   2.740   0.116  11.221  2.0422 -0.1102 -0.8143
  903MPD2    H213232   3.109   0.194  11.400 -0.0882  0.1910  1.7518
  903MPD2    H313233   2.983   0.177  11.207  1.6332  1.7685  0.4261
  903MPD2     N13234   2.598   0.084  11.450 -0.3422  0.3736 -0.1960
  903MPD2    H513235   2.548   0.086  11.538  2.0630 -1.4559  1.2140
  903MPD2    N113236   3.038   0.100  11.643  0.2824 -0.0746 -0.4979
  903MPD2    H713237   3.138   0.113  11.631  0.2255  1.4184  0.6042
  904MPD2     C13238   3.614   3.819  13.460 -0.2069  0.1360 -0.2074
  904MPD2    C113239   3.597   3.940  13.524  0.1114  0.8401  0.1649
  904MPD2    C213240   3.685   3.975  13.627  0.2180  0.1463  0.8401
  904MPD2    C313241   3.795   3.899  13.665 -0.0465  0.5332  0.0974
  904MPD2    C413242   3.809   3.778  13.601 -0.0386  0.2214  0.6285
  904MPD2    C513243   3.715   3.735  13.513 -0.2236  0.4174  0.1082
  904MPD2     H13244   3.661   4.074  13.665  0.1859  0.0003  1.1942
  904MPD2    H113245   3.893   3.711  13.619 -0.6623 -1.1176 -1.4586
  904MPD2    H213246   3.548   3.783  13.382 -1.8935  1.2995  0.6843
  904MPD2    H313247   3.731   3.639  13.466  0.6090  0.0281  1.1881
  904MPD2     N13248   3.895   3.955  13.757 -0.0930 -0.0030 -0.4442
  904MPD2    H513249   3.884   4.054  13.775  0.2116 -0.5132  2.6784
  904MPD2    N113250   3.511   4.043  13.481 -0.6277  0.0294 -0.2721
  904MPD2    H713251   3.515   4.137  13.521  0.4892  0.9631 -2.5896
  905MPD2     C13252   2.875   4.582  13.078 -0.2800  0.1797 -0.7285
  905MPD2    C113253   2.982   4.509  13.054 -0.1080 -0.3876 -0.7874
  905MPD2    C213254   3.056   4.532  12.943 -0.0010  0.4679 -0.1652
  905MPD2    C313255   3.019   4.627  12.850  0.4010  0.1299 -0.5499
  905MPD2    C413256   2.902   4.695  12.873 -0.1290  0.3908  0.0164
  905MPD2    C513257   2.828   4.678  12.987  0.0127 -0.2581 -0.3255
  905MPD2     H13258   3.149   4.479  12.926 -0.1628  0.4837 -1.0841
  905MPD2    H113259   2.864   0.032  12.791  0.7183 -2.1112 -2.2290
  905MPD2    H213260   2.816   4.560  13.166  1.0578  0.2623  0.1919
  905MPD2    H313261   2.729   4.719  13.003 -1.1935 -4.1285  1.8642
  905MPD2     N13262   3.093   4.656  12.734  0.3148 -0.1336 -0.3245
  905MPD2    H513263   3.071   0.022  12.691 -2.2752  0.8082  2.9326
  905MPD2    N113264   3.021   4.412  13.149 -0.3099 -0.3571  0.1273
  905MPD2    H713265   2.958   4.392  13.227 -0.1565 -0.4405  0.2308
  906MPD2     C13266   0.133   4.383  11.256 -1.1240 -0.6991  0.6710
  906MPD2    C113267   0.123   4.255  11.201 -0.4050  0.3313 -0.2679
  906MPD2    C213268   0.061   4.148  11.268  0.3921  0.0580 -0.1924
  906MPD2    C313269   4.721   4.168  11.390 -0.7710 -0.2649  0.1209
  906MPD2    C413270   0.015   4.294  11.443 -0.5995 -0.3822 -0.3531
  906MPD2    C513271   0.085   4.399  11.382 -0.0248  0.5340  0.3774
  906MPD2     H13272   0.069   4.045  11.236  1.8837  0.6602 -1.7703
  906MPD2    H113273   4.712   4.312  11.547 -1.7341  0.6564 -0.8098
  906MPD2    H213274   0.159   4.475  11.206 -1.6489 -0.3414  1.0510
  906MPD2    H313275   0.090   4.494  11.434 -1.1011 -1.1636  3.6048
  906MPD2     N13276   4.659   4.056  11.454  0.1022 -0.1691  0.5398
  906MPD2    H513277   4.650   3.967  11.406  2.4363  1.1008 -2.3266
  906MPD2    N113278   0.155   4.224  11.070  0.1338  0.2094  0.3953
  906MPD2    H713279   0.120   4.133  11.042  3.1882 -1.1381  1.0243
  907MPD2     C13280   3.833   3.038  14.930  0.1468  0.5945 -0.1742
  907MPD2    C113281   3.898   2.915  14.947 -0.3941 -0.4958 -0.2206
  907MPD2    C213282   3.977   2.897  15.055 -0.0794 -0.1536  1.0413
  907MPD2    C313283   4.001   3.002  15.143 -0.0298  0.3151 -0.4382
  907MPD2    C413284   3.939   3.121  15.127  0.5273  0.2770 -0.4744
  907MPD2    C513285   3.848   3.136  15.024  0.7765 -0.0034  0.0906
  907MPD2     H13286   4.015   2.798  15.080  0.1345 -0.2450  0.3651
  907MPD2    H113287   3.956   3.203  15.195  0.9777  0.5490 -0.9137
  907MPD2    H213288   3.759   3.060  14.854 -1.2112 -3.1737  0.0181
  907MPD2    H313289   3.784   3.223  15.021 -0.8796 -1.1600  1.5746
  907MPD2     N13290   4.095   2.981  15.239 -0.4281 -0.1902  0.1708
  907MPD2    H513291   4.158   2.903  15.225  1.5305  1.1260  1.6178
  907MPD2    N113292   3.894   2.805  14.855 -0.4039  1.1431 -0.1343
  907MPD2    H713293   3.949   2.723  14.877 -0.2262  1.1160 -0.6673
  908MPD2     C13294   2.011   3.406   9.901 -0.6024 -0.0592  0.3967
  908MPD2    C113295   2.046   3.508   9.821  0.0397 -0.7630 -0.8843
  908MPD2    C213296   2.043   3.637   9.866  0.0671 -0.1492  0.3125
  908MPD2    C313297   1.988   3.659   9.989  0.3804 -0.3219 -0.6117
  908MPD2    C413298   1.948   3.555  10.073 -0.3126 -0.0437 -0.1507
  908MPD2    C513299   1.963   3.424  10.029  0.9889 -0.3645 -0.2844
  908MPD2     H13300   2.072   3.717   9.799  0.1400  0.3249  0.9132
  908MPD2    H113301   1.912   3.569  10.175  1.2666  0.8066  0.2965
  908MPD2    H213302   2.011   3.302   9.868  0.1002 -0.0159  0.2559
  908MPD2    H313303   1.930   3.346  10.097  1.2956  0.2957  0.6226
  908MPD2     N13304   1.976   3.788  10.037 -0.8375 -0.2351  0.0361
  908MPD2    H513305   1.942   3.795  10.133  2.5684 -0.2921  1.2429
  908MPD2    N113306   2.110   3.469   9.699 -0.7495  0.2095 -0.2199
  908MPD2    H713307   2.118   3.373   9.668 -0.7322 -0.2273  1.1215
  909MPD2     C13308   2.092   2.211  12.162  0.1538 -0.2061  0.3436
  909MPD2    C113309   2.087   2.294  12.059  0.2651 -0.1078  0.2520
  909MPD2    C213310   2.045   2.425  12.080  0.2579 -0.4473 -0.3340
  909MPD2    C313311   1.992   2.472  12.203 -0.1082 -0.2225 -0.3375
  909MPD2    C413312   1.997   2.384  12.311 -0.2628  0.4258  0.3307
  909MPD2    C513313   2.050   2.256  12.286 -0.2049  0.0904  0.2665
  909MPD2     H13314   2.040   2.491  11.994 -0.3656  1.6618  1.3276
  909MPD2    H113315   1.959   2.410  12.410  1.0685  0.6819  0.7715
  909MPD2    H213316   2.134   2.111  12.164 -1.1982 -0.7585  1.6436
  909MPD2    H313317   2.045   2.183  12.366 -0.0361  2.4909  2.4853
  909MPD2     N13318   1.950   2.604  12.217 -0.1846  0.7184  0.1374
  909MPD2    H513319   1.974   2.673  12.147  0.0447  0.9578  0.4527
  909MPD2    N113320   2.142   2.256  11.931 -0.1406 -0.8346  0.0810
  909MPD2    H713321   2.162   2.333  11.868  1.6468 -1.1304  0.2728
  910MPD2     C13322   3.386   3.506  15.787 -0.3882  0.5222  0.1870
  910MPD2    C113323   3.511   3.516  15.725  0.0231  0.2328 -0.1882
  910MPD2    C213324   3.512   3.589  15.605 -1.0514 -0.0070 -0.2269
  910MPD2    C313325   3.403   3.654  15.553  0.1792  0.3409  0.3574
  910MPD2    C413326   3.293   3.657  15.622 -0.4622 -0.4529 -0.1378
  910MPD2    C513327   3.288   3.587  15.740 -0.0280 -0.4686 -0.6608
  910MPD2     H13328   3.609   3.601  15.558 -0.7211 -2.6253 -0.2474
  910MPD2    H113329   3.203   3.705  15.586 -0.5406 -0.9434 -0.5935
  910MPD2    H213330   3.372   3.452  15.880 -0.8431  2.8501  1.4647
  910MPD2    H313331   3.191   3.585  15.788 -0.0374  1.7921 -0.5906
  910MPD2     N13332   3.393   3.724  15.425  1.2281 -0.1436  0.0620
  910MPD2    H513333   3.307   3.774  15.404  2.2011  1.8519  0.8378
  910MPD2    N113334   3.628   3.448  15.764  0.7304 -0.6862 -0.2514
  910MPD2    H713335   3.710   3.474  15.711  0.5973  0.4975  0.1210
  911MPD2     C13336   1.836   4.655  16.503 -0.1197 -0.5794 -0.0475
  911MPD2    C113337   1.795   4.543  16.439  0.0675  0.7962 -0.0010
  911MPD2    C213338   1.683   4.545  16.359 -0.7462  0.0879 -0.3216
  911MPD2    C313339   1.614   4.665  16.339 -0.0823  0.5318 -0.0320
  911MPD2    C413340   1.658   0.056  16.410  0.0792  0.0305  0.1866
  911MPD2    C513341   1.770   0.049  16.489  0.0372  0.4163  0.0736
  911MPD2     H13342   1.641   4.454  16.318  1.0619 -0.7163 -0.4094
  911MPD2    H113343   1.606   0.151  16.405 -0.0175 -0.0160  0.3154
  911MPD2    H213344   1.922   4.659  16.569 -0.3706  1.1860  0.1731
  911MPD2    H313345   1.802   0.134  16.548  1.6509  0.0689 -0.3060
  911MPD2     N13346   1.510   4.675  16.247 -0.2400  0.4534 -0.5903
  911MPD2    H513347   1.506   4.594  16.186 -0.6764  1.1066 -1.4195
  911MPD2    N113348   1.877   4.430  16.464  0.3766  0.5210 -0.7052
  911MPD2    H713349   1.960   4.445  16.521 -0.4786  1.5383  0.2932
  912MPD2     C13350   1.208   4.320  15.553 -0.0859 -0.1307 -0.2787
  912MPD2    C113351   1.220   4.317  15.695  0.2304  0.3682  0.3563
  912MPD2    C213352   1.198   4.201  15.766  0.2637 -0.1334 -0.4737
  912MPD2    C313353   1.152   4.084  15.708  0.0856  0.3110  0.4848
  912MPD2    C413354   1.132   4.089  15.570 -0.1815 -0.2476  0.7295
  912MPD2    C513355   1.159   4.206  15.493 -0.0573 -0.3344 -0.7041
  912MPD2     H13356   1.227   4.193  15.870 -0.4371 -1.3063 -0.3719
  912MPD2    H113357   1.097   4.001  15.516 -0.7109  0.1798  0.3763
  912MPD2    H213358   1.208   4.413  15.497  1.7754  0.4538  0.7004
  912MPD2    H313359   1.139   4.204  15.386 -1.6547 -2.0867 -0.3865
  912MPD2     N13360   1.125   3.967  15.794 -1.2169 -0.7689 -0.1448
  912MPD2    H513361   1.149   3.976  15.892  0.9682 -2.9085 -0.4821
  912MPD2    N113362   1.265   4.440  15.745  0.1857  0.8372  0.3418
  912MPD2    H713363   1.262   4.521  15.684 -0.7581  0.7200  0.2309
  913MPD2     C13364   1.525   0.676  10.564  0.3920 -0.0535  0.0377
  913MPD2    C113365   1.448   0.670  10.446 -0.3529 -0.4136 -1.1492
  913MPD2    C213366   1.478   0.754  10.340  0.3646 -0.0989  0.2221
  913MPD2    C313367   1.586   0.838  10.345  0.5512 -1.3531 -0.1527
  913MPD2    C413368   1.660   0.844  10.466 -0.4778 -0.4231  0.2213
  913MPD2    C513369   1.631   0.758  10.567  0.5534 -0.3404  0.2288
  913MPD2     H13370   1.423   0.744  10.247  1.7422  0.1447 -0.6100
  913MPD2    H113371   1.745   0.911  10.468  0.3674 -1.5551  2.5015
  913MPD2    H213372   1.507   0.624  10.657 -2.9338 -3.7236 -2.6844
  913MPD2    H313373   1.687   0.759  10.660 -2.0260 -1.5471  1.7709
  913MPD2     N13374   1.625   0.916  10.240 -0.5181 -0.0189  0.3380
  913MPD2    H513375   1.683   0.992  10.275 -0.0978  0.8568 -2.3036
  913MPD2    N113376   1.343   0.585  10.453  0.5462 -0.4902 -1.2612
  913MPD2    H713377   1.347   0.507  10.519 -0.4353  2.2976  2.1015
  914MPD2     C13378   4.081   1.593  11.724  0.6624 -0.3514  0.7714
  914MPD2    C113379   4.057   1.624  11.853  0.8699  0.2044  0.0143
  914MPD2    C213380   4.106   1.546  11.949 -0.2061 -0.5142 -0.4588
  914MPD2    C313381   4.170   1.429  11.919 -0.2717  0.0200  0.2333
  914MPD2    C413382   4.181   1.394  11.790 -0.6880  0.1928 -0.2268
  914MPD2    C513383   4.147   1.477  11.693  0.6832  0.1813  0.5342
  914MPD2     H13384   4.079   1.569  12.052  1.8542 -0.1901  0.0149
  914MPD2    H113385   4.222   1.300  11.754  1.1938  0.2615  1.7695
  914MPD2    H213386   4.065   1.661  11.640 -0.4518  0.9516  2.0487
  914MPD2    H313387   4.163   1.456  11.588  0.6036 -1.2496  0.7970
  914MPD2     N13388   4.211   1.352  12.031  0.7556  0.9614  0.0635
  914MPD2    H513389   4.184   1.396  12.118  1.0786  1.2056  0.0405
  914MPD2    N113390   4.006   1.754  11.877  0.1359  0.5949 -0.1442
  914MPD2    H713391   3.987   1.810  11.794  1.1280 -0.6026 -1.1858
  915MPD2     C13392   2.364   0.811  15.784 -0.1385 -0.4969  0.3304
  915MPD2    C113393   2.286   0.907  15.718 -0.0274  0.0088  0.2656
  915MPD2    C213394   2.216   1.008  15.788 -0.9152 -0.2896 -0.8754
  915MPD2    C313395   2.232   1.031  15.922  0.5278 -1.0105 -0.2503
  915MPD2    C413396   2.322   0.941  15.993 -0.2717 -0.0419  0.5408
  915MPD2    C513397   2.386   0.843  15.920  0.3377  0.5978  0.5157
  915MPD2     H13398   2.157   1.082  15.736 -0.4652  0.7914  0.1538
  915MPD2    H113399   2.350   0.950  16.097  0.1734 -2.4315  0.6301
  915MPD2    H213400   2.424   0.737  15.732 -0.5192 -0.1388 -0.6237
  915MPD2    H313401   2.462   0.789  15.976  0.8787  2.6107  1.7009
  915MPD2     N13402   2.160   1.133  15.988  0.1867  0.4193  0.3408
  915MPD2    H513403   2.100   1.192  15.933 -0.7813  0.4958  1.4930
  915MPD2    N113404   2.271   0.883  15.577  0.0889 -0.1668  0.5995
  915MPD2    H713405   2.307   0.797  15.537 -0.1190  0.1734 -0.3181
  916MPD2     C13406   0.817   4.315  15.899  0.1383  0.5047 -0.1599
  916MPD2    C113407   0.769   4.189  15.923  0.4208  0.1148 -0.3768
  916MPD2    C213408   0.769   4.096  15.818  0.4079 -0.5347  0.5460
  916MPD2    C313409   0.805   4.131  15.685 -1.0723 -0.3446 -0.3030
  916MPD2    C413410   0.862   4.256  15.669  1.3988  0.8979 -0.2821
  916MPD2    C513411   0.867   4.341  15.778 -0.1413 -0.0418  0.1140
  916MPD2     H13412   0.728   3.997  15.836  1.8057 -1.5918 -2.1380
  916MPD2    H113413   0.908   4.300  15.581  1.3519  1.2796 -0.1154
  916MPD2    H213414   0.815   4.391  15.977  1.7399  1.7807 -1.3665
  916MPD2    H313415   0.913   4.439  15.772  1.6935 -1.2539 -5.0121
  916MPD2     N13416   0.802   4.043  15.582 -0.2514  0.3380  0.5241
  916MPD2    H513417   0.782   3.948  15.611 -0.6083  0.3580  0.3341
  916MPD2    N113418   0.714   4.170  16.052  0.2557 -0.0373  0.1396
  916MPD2    H713419   0.711   4.255  16.108 -1.6025  0.7622 -1.1673
  917MPD2     C13420   1.277   1.765  11.120  0.6395  0.5113 -0.4947
  917MPD2    C113421   1.203   1.886  11.155  0.0974 -0.4332  0.1341
  917MPD2    C213422   1.256   2.009  11.102 -0.4170  0.5110 -0.0811
  917MPD2    C313423   1.370   2.004  11.021 -0.3854  0.0098  0.2425
  917MPD2    C413424   1.431   1.885  10.991  0.2976  0.0664  0.1608
  917MPD2    C513425   1.382   1.767  11.035  0.0086  0.3505  0.6327
  917MPD2     H13426   1.208   2.104  11.120 -0.6662  0.4272 -0.3015
  917MPD2    H113427   1.517   1.878  10.926  1.5582 -0.8523  1.9224
  917MPD2    H213428   1.239   1.669  11.156  2.1982  0.5765  1.3223
  917MPD2    H313429   1.430   1.678  10.996 -0.3178  1.2220 -1.7271
  917MPD2     N13430   1.443   2.119  10.988  0.2401 -0.6760 -0.1956
  917MPD2    H513431   1.530   2.104  10.938  0.5230 -1.1112  0.4242
  917MPD2    N113432   1.101   1.883  11.250 -0.0679 -0.5161 -0.0981
  917MPD2    H713433   1.082   1.791  11.289 -0.5490 -1.0645 -1.6397
  918MPD2     C13434   1.122   2.461  12.047 -0.2598 -0.2320 -0.5611
  918MPD2    C113435   1.223   2.414  11.966  0.2446 -0.1195 -0.0101
  918MPD2    C213436   1.184   2.333  11.861  0.4466 -0.5645 -0.9021
  918MPD2    C313437   1.050   2.289  11.849 -0.5814  0.7237 -0.2321
  918MPD2    C413438   0.956   2.331  11.936  0.5752 -0.0719 -0.4118
  918MPD2    C513439   0.997   2.421  12.031 -0.3404  0.4281 -0.3535
  918MPD2     H13440   1.262   2.291  11.797  1.5258  2.4687 -1.5832
  918MPD2    H113441   0.855   2.294  11.940  0.3357  0.6616  0.5305
  918MPD2    H213442   1.143   2.519  12.137 -2.3313 -3.1275  1.7688
  918MPD2    H313443   0.919   2.461  12.095  0.8273 -2.3031  2.7979
  918MPD2     N13444   1.018   2.203  11.745  0.2908  0.0385 -0.1233
  918MPD2    H513445   1.090   2.191  11.674 -0.3714 -0.0793 -0.7719
  918MPD2    N113446   1.361   2.442  11.986  0.0771 -0.8022  0.5394
  918MPD2    H713447   1.425   2.401  11.919 -0.8916  0.3274 -1.0929
  919MPD2     C13448   1.867   1.005  11.329 -0.0823  0.3672  0.1153
  919MPD2    C113449   1.783   0.894  11.331  0.2428 -0.7510  0.3105
  919MPD2    C213450   1.711   0.869  11.215 -0.2781 -0.1211  0.4656
  919MPD2    C313451   1.714   0.957  11.107  0.7288 -0.3030 -0.5069
  919MPD2    C413452   1.799   1.065  11.118 -0.2642 -0.2330  0.0274
  919MPD2    C513453   1.872   1.092  11.224  0.5365 -0.4970 -0.3558
  919MPD2     H13454   1.640   0.788  11.216 -1.1132  0.6374  2.6343
  919MPD2    H113455   1.797   1.144  11.044 -2.9422  1.3875  1.8547
  919MPD2    H213456   1.919   1.031  11.420 -0.3759 -0.5331  0.5408
  919MPD2    H313457   1.915   1.190  11.243  1.4165 -0.4309 -2.6210
  919MPD2     N13458   1.615   0.960  11.000 -0.2529  0.2377  0.2175
  919MPD2    H513459   1.600   1.046  10.947 -0.5702  0.7671  1.1753
  919MPD2    N113460   1.770   0.802  11.435 -0.3746  0.0191  0.3192
  919MPD2    H713461   1.707   0.723  11.421 -2.1125  1.2050  1.4546
  920MPD2     C13462   1.470   1.314  10.101  0.1548  0.5782  0.7134
  920MPD2    C113463   1.374   1.215  10.103 -0.1609 -0.4559 -0.1470
  920MPD2    C213464   1.333   1.162  10.223  0.3034  0.2501 -0.4194
  920MPD2    C313465   1.403   1.182  10.334  0.5843  0.1921  0.5894
  920MPD2    C413466   1.506   1.271  10.339 -0.4010  0.4316 -0.1265
  920MPD2    C513467   1.534   1.343  10.220  0.9484 -1.2191  0.4211
  920MPD2     H13468   1.247   1.097  10.222 -0.3987  1.1948 -0.9126
  920MPD2    H113469   1.556   1.319  10.423  1.9697  1.3786 -2.0762
  920MPD2    H213470   1.488   1.371  10.011 -1.8808  0.7119  0.3957
  920MPD2    H313471   1.605   1.425  10.221 -0.5206  0.0552  0.4962
  920MPD2     N13472   1.355   1.116  10.450  0.0553 -0.0724 -0.1238
  920MPD2    H513473   1.278   1.052  10.434  0.8293 -1.0849  0.2316
  920MPD2    N113474   1.299   1.191   9.983  0.7543 -0.0965  0.6287
  920MPD2    H713475   1.213   1.137   9.990 -0.1692  1.0913 -1.2942
  921MPD2     C13476   2.603   4.469  16.821 -0.1319  0.1586 -0.2591
  921MPD2    C113477   2.626   4.369  16.734 -0.3799 -0.1799  0.1774
  921MPD2    C213478   2.518   4.300  16.683 -0.0216  0.2383 -0.1517
  921MPD2    C313479   2.393   4.335  16.732  0.0459 -0.3115 -0.0105
  921MPD2    C413480   2.373   4.442  16.817 -0.2165  0.3640  0.2002
  921MPD2    C513481   2.479   4.514  16.866  0.1116 -0.6389  0.0681
  921MPD2     H13482   2.536   4.226  16.606 -1.0526 -1.7309  1.5037
  921MPD2    H113483   2.277   4.478  16.853 -1.0834 -0.3072 -1.4386
  921MPD2    H213484   2.692   4.525  16.850  0.0017 -0.3351  0.2743
  921MPD2    H313485   2.475   4.601  16.930 -0.3304  0.4198 -1.4109
  921MPD2     N13486   2.276   4.274  16.698  0.2727 -0.0834 -0.0618
  921MPD2    H513487   2.195   4.328  16.725 -0.5018 -1.0882 -0.3869
  921MPD2    N113488   2.756   4.371  16.675 -0.1346 -0.5847  0.0037
  921MPD2    H713489   2.819   4.443  16.709 -1.5713  0.6609  0.0159
  922MPD2     C13490   3.210   2.242  16.598  0.0223 -0.3340  0.8772
  922MPD2    C113491   3.236   2.264  16.732 -0.0113  0.2495  0.2393
  922MPD2    C213492   3.153   2.194  16.824  0.2009  0.0451 -0.8554
  922MPD2    C313493   3.053   2.112  16.787  0.3068  0.9566  0.2959
  922MPD2    C413494   3.029   2.097  16.652 -0.7916 -0.2340 -0.0085
  922MPD2    C513495   3.113   2.155  16.562 -0.0837 -0.2826  0.5725
  922MPD2     H13496   3.159   2.204  16.931  0.8703  1.0973 -0.9793
  922MPD2    H113497   2.950   2.038  16.607 -2.2816  2.0408 -0.3260
  922MPD2    H213498   3.274   2.278  16.518  0.0249 -2.9188 -0.2773
  922MPD2    H313499   3.093   2.150  16.456 -3.1747  2.7460  1.0058
  922MPD2     N13500   2.983   2.044  16.890  0.3540 -0.4477 -0.2112
  922MPD2    H513501   3.002   2.072  16.986 -3.2376 -0.9425  0.6588
  922MPD2    N113502   3.337   2.348  16.783 -0.3219  0.4788  0.2110
  922MPD2    H713503   3.346   2.351  16.885 -2.1982  1.6529  0.3211
  923MPD2     C13504   0.309   3.040   9.691 -0.5472 -0.5760  0.6817
  923MPD2    C113505   0.264   3.166   9.676 -0.2201 -0.6209 -0.1490
  923MPD2    C213506   0.299   3.254   9.783 -0.2893  0.2746 -1.0530
  923MPD2    C313507   0.378   3.217   9.894 -0.4164 -0.0708 -0.6085
  923MPD2    C413508   0.423   3.088   9.900  0.4130 -0.4449 -0.1970
  923MPD2    C513509   0.389   3.003   9.797  0.2733  0.2331 -0.3477
  923MPD2     H13510   0.265   3.357   9.786 -1.6163 -0.1481 -1.9523
  923MPD2    H113511   0.488   3.044   9.975 -1.1812 -0.2139  1.3049
  923MPD2    H213512   0.274   2.971   9.615 -3.3493 -0.1728  1.6078
  923MPD2    H313513   0.425   2.900   9.798 -0.9202 -0.1795 -0.4353
  923MPD2     N13514   0.402   3.303  10.004  0.0238  0.6778  0.7316
  923MPD2    H513515   0.441   3.253  10.084  3.1163  2.8589  0.5826
  923MPD2    N113516   0.176   3.193   9.568 -0.0761  0.0078 -0.7706
  923MPD2    H713517   0.164   3.113   9.506 -4.1805  1.1048 -1.3920
  924MPD2     C13518   4.662   2.412  15.262  0.7100  0.1512 -0.0016
  924MPD2    C113519   4.532   2.447  15.225  0.5342 -0.5337 -1.3396
  924MPD2    C213520   4.495   2.579  15.236  0.8812  0.0819 -0.3361
  924MPD2    C313521   4.568   2.674  15.293 -0.3849  0.2758  0.8983
  924MPD2    C413522   4.695   2.640  15.338 -0.1649  0.0736  0.3843
  924MPD2    C513523   0.019   2.510  15.313 -0.2587  0.4678 -0.5824
  924MPD2     H13524   4.390   2.603  15.218 -0.0264 -2.9061  0.9602
  924MPD2    H113525   0.045   2.708  15.380 -0.5941  2.5184 -2.8659
  924MPD2    H213526   4.686   2.308  15.246  0.5454  0.0158  0.6253
  924MPD2    H313527   0.110   2.477  15.361 -0.2262 -1.3445 -1.8837
  924MPD2     N13528   4.509   2.801  15.311  0.1815  0.3115 -0.2040
  924MPD2    H513529   4.409   2.809  15.290  0.6994  2.2043 -1.9909
  924MPD2    N113530   4.447   2.337  15.188 -0.1549 -0.7124  0.7064
  924MPD2    H713531   4.472   2.243  15.216 -0.6335 -0.5596  1.6766
  925MPD2     C13532   3.259   0.060  14.826 -0.1626 -0.1884  0.3557
  925MPD2    C113533   3.126   0.078  14.816 -0.4029  0.6494 -0.2117
  925MPD2    C213534   3.052   0.109  14.934  0.5476  0.6283 -0.0790
  925MPD2    C313535   3.134   0.118  15.051  0.1377  0.0143 -0.1168
  925MPD2    C413536   3.265   0.097  15.053 -0.2410  0.0630  0.4922
  925MPD2    C513537   3.329   0.070  14.940 -0.6940 -0.0213 -0.6931
  925MPD2     H13538   2.945   0.123  14.931  0.4799  0.2921  0.7095
  925MPD2    H113539   3.322   0.106  15.145  1.1953  1.1311 -0.5022
  925MPD2    H213540   3.314   0.052  14.733 -0.7400 -2.5245  0.2274
  925MPD2    H313541   3.434   0.048  14.956 -0.9191  1.6725  3.1402
  925MPD2     N13542   3.082   0.155  15.182  0.5328 -0.1302  0.4586
  925MPD2    H513543   3.143   0.150  15.263  1.0879 -0.6279  0.0132
  925MPD2    N113544   3.059   0.078  14.695  0.3042 -0.2806  1.1328
  925MPD2    H713545   2.972   0.130  14.702  1.1367  1.3643 -0.5732
  926MPD2     C13546   2.044   3.583  13.600  0.1995  0.2459  0.5402
  926MPD2    C113547   2.085   3.715  13.606 -0.3485  0.2511 -0.0337
  926MPD2    C213548   2.116   3.781  13.489 -0.0449  0.0174  0.0221
  926MPD2    C313549   2.080   3.726  13.367  0.8760  0.8675 -0.0200
  926MPD2    C413550   2.025   3.602  13.358  0.1928  0.6006  0.3041
  926MPD2    C513551   2.007   3.532  13.472 -0.3572 -0.7232  0.4784
  926MPD2     H13552   2.153   3.883  13.498  1.3337 -0.1430 -3.9034
  926MPD2    H113553   2.005   3.559  13.261  0.1706  0.3884  0.4036
  926MPD2    H213554   2.027   3.520  13.687  0.8000  1.6858  1.7044
  926MPD2    H313555   1.971   3.429  13.468  0.3612 -1.0100  1.3265
  926MPD2     N13556   2.092   3.796  13.244  0.1909 -0.1032 -0.2009
  926MPD2    H513557   2.075   3.742  13.160 -1.1322  1.3618 -0.8681
  926MPD2    N113558   2.132   3.765  13.727 -0.1935  0.1914 -0.5065
  926MPD2    H713559   2.181   3.853  13.719 -1.6483  0.9560 -1.1305
  927MPD2     C13560   1.732   1.443   0.295 -0.7391  0.3559  0.2355
  927MPD2    C113561   1.634   1.495   0.215 -0.6625  0.4666  0.6114
  927MPD2    C213562   1.657   1.518   0.080  0.7172  0.1491  0.3644
  927MPD2    C313563   1.780   1.473   0.027  0.2830  0.5061  0.0092
  927MPD2    C413564   1.876   1.424   0.113  0.6032  0.3406  0.3270
  927MPD2    C513565   1.852   1.412   0.243 -0.0854 -0.3956  0.2076
  927MPD2     H13566   1.575   1.546   0.016 -0.7550  0.4519  2.3831
  927MPD2    H113567   1.977   1.409   0.076  0.9539 -1.5412  2.0036
  927MPD2    H213568   1.725   1.432   0.403  0.4790 -0.9326  0.1798
  927MPD2    H313569   1.915   1.359   0.313  0.7146  0.9704  0.5180
  927MPD2     N13570   1.800   1.488  17.579  0.0582 -0.4421 -0.0728
  927MPD2    H513571   1.720   1.526  17.530  2.5084  2.4049 -1.8298
  927MPD2    N113572   1.509   1.537   0.273  0.2492  0.0141 -0.0585
  927MPD2    H713573   1.495   1.525   0.373 -0.9229  2.0851  0.0267
  928MPD2     C13574   0.012   0.255   1.380 -0.4034  0.2646 -0.3202
  928MPD2    C113575   0.069   0.379   1.359  1.0066 -0.1561 -0.1904
  928MPD2    C213576   0.164   0.385   1.262  0.4417 -0.3528 -0.2452
  928MPD2    C313577   0.194   0.282   1.172 -0.8721 -0.1808 -0.7117
  928MPD2    C413578   0.125   0.165   1.185  0.4616  0.3168 -0.4193
  928MPD2    C513579   0.038   0.148   1.291 -0.4334  0.0368 -0.1738
  928MPD2     H13580   0.221   0.477   1.260 -0.8931  0.4571 -0.4330
  928MPD2    H113581   0.137   0.076   1.125  0.8888 -0.8787  1.4334
  928MPD2    H213582   4.659   0.235   1.455  1.0084 -0.3911  0.9299
  928MPD2    H313583   4.712   0.051   1.296 -0.4648 -0.0939 -2.9593
  928MPD2     N13584   0.283   0.288   1.060 -0.3292 -0.6349 -0.0347
  928MPD2    H513585   0.276   0.208   0.998  0.6375  0.5194 -1.6085
  928MPD2    N113586   0.033   0.491   1.433 -0.0938 -0.0109 -0.0954
  928MPD2    H713587   0.090   0.574   1.420  0.3258 -0.2818 -0.0040
  929MPD2     C13588   4.658   4.080  10.448 -0.0666  0.2110  0.0976
  929MPD2    C113589   4.543   4.011  10.450 -0.0981 -0.4283 -0.4868
  929MPD2    C213590   4.467   3.988  10.337 -0.0735 -0.3825 -0.2219
  929MPD2    C313591   4.504   4.061  10.222  0.1747 -0.9131  0.8171
  929MPD2    C413592   4.627   4.126  10.219 -0.1900  0.5524  0.0908
  929MPD2    C513593   4.706   4.135  10.331  0.2130 -0.1318  0.4372
  929MPD2     H13594   4.363   3.956  10.333  0.5225 -2.3468  0.1067
  929MPD2    H113595   4.668   4.173  10.130  0.2364  0.5375  0.2796
  929MPD2    H213596   4.715   4.095  10.539  0.2125 -1.5627  0.2205
  929MPD2    H313597   0.083   4.178  10.334 -0.4736  1.7512 -3.1247
  929MPD2     N13598   4.418   4.098  10.123 -0.7946 -0.1457  0.3136
  929MPD2    H513599   4.463   4.145  10.045  0.1635  2.8259  2.6126
  929MPD2    N113600   4.506   3.958  10.573  0.2157  0.3526  0.3223
  929MPD2    H713601   4.554   3.990  10.656  0.6414 -2.0370  1.0087
  930MPD2     C13602   1.692   1.285  14.032  0.3026  0.3748 -0.2752
  930MPD2    C113603   1.635   1.414  14.026  0.4668  0.4484  0.0395
  930MPD2    C213604   1.599   1.461  13.902 -0.5564 -0.1436 -0.5459
  930MPD2    C313605   1.618   1.378  13.791  0.8313 -0.2365 -0.1285
  930MPD2    C413606   1.680   1.254  13.796  0.3782  0.6210  0.0684
  930MPD2    C513607   1.713   1.209  13.918  0.4639  0.3869 -0.9247
  930MPD2     H13608   1.559   1.560  13.887 -0.4689 -0.0990 -0.4858
  930MPD2    H113609   1.699   1.202  13.702  1.8712 -0.2938  0.8798
  930MPD2    H213610   1.725   1.232  14.121 -1.1429  0.5698  0.3790
  930MPD2    H313611   1.775   1.121  13.922  0.6673  0.5990  0.5450
  930MPD2     N13612   1.589   1.418  13.660  0.1744  0.6923 -0.1790
  930MPD2    H513613   1.620   1.351  13.590 -1.1383  1.0880 -1.1440
  930MPD2    N113614   1.634   1.490  14.142 -0.2660 -0.2539  0.0126
  930MPD2    H713615   1.692   1.448  14.214 -0.6626  0.1962  0.6058
  931MPD2     C13616   1.575   1.540   0.856 -0.5948  0.4292 -0.0628
  931MPD2    C113617   1.459   1.610   0.842 -0.3667 -0.0939  0.1609
  931MPD2    C213618   1.418   1.679   0.953  0.2103 -0.3032  0.3323
  931MPD2    C313619   1.470   1.664   1.082  0.3184  0.2916 -0.8245
  931MPD2    C413620   1.573   1.575   1.099  0.7044 -0.8240  0.5190
  931MPD2    C513621   1.627   1.518   0.982  0.6768  0.0474 -0.2004
  931MPD2     H13622   1.331   1.744   0.941  2.3567  2.1415 -1.9548
  931MPD2    H113623   1.615   1.550   1.195 -0.2064  0.4055  1.2411
  931MPD2    H213624   1.627   1.501   0.769  0.1189 -2.0541  1.4650
  931MPD2    H313625   1.718   1.459   0.990 -1.1866 -2.7810  0.5121
  931MPD2     N13626   1.424   1.711   1.204  0.3743 -0.1434 -0.9227
  931MPD2    H513627   1.484   1.682   1.280  0.2108 -0.0185 -0.7432
  931MPD2    N113628   1.399   1.620   0.713  0.0490 -0.5522  0.4707
  931MPD2    H713629   1.435   1.560   0.639 -3.1561 -2.3719  0.3798
  932MPD2     C13630   3.123   0.625  10.680 -0.6726 -0.7896  0.1397
  932MPD2    C113631   3.221   0.634  10.774 -0.2121 -0.3345  0.4460
  932MPD2    C213632   3.299   0.525  10.801 -0.6837 -0.0545 -0.5552
  932MPD2    C313633   3.278   0.408  10.735  0.2475  0.2852  0.4312
  932MPD2    C413634   3.178   0.398  10.645  0.4760  0.0267 -0.1473
  932MPD2    C513635   3.111   0.511  10.611 -0.1919 -0.1376 -0.6352
  932MPD2     H13636   3.372   0.535  10.880 -0.6349  1.3347 -0.7842
  932MPD2    H113637   3.143   0.311  10.591  1.4048 -0.6016  0.2504
  932MPD2    H213638   3.059   0.708  10.652  1.0705  0.5086 -0.0108
  932MPD2    H313639   3.027   0.502  10.542  0.6137 -0.9094 -1.5189
  932MPD2     N13640   3.328   0.276  10.765 -0.0723  0.3628  0.2176
  932MPD2    H513641   3.280   0.195  10.728  1.2113 -0.5494  0.5438
  932MPD2    N113642   3.244   0.748  10.855  0.0624 -0.1285  0.6797
  932MPD2    H713643   3.305   0.742  10.936  2.0123  1.6944 -0.6298
  933MPD2     C13644   4.280   1.178   1.797 -0.2617 -0.6015 -0.1397
  933MPD2    C113645   4.295   1.100   1.685  0.6318  0.1019 -0.3765
  933MPD2    C213646   4.214   1.120   1.574  0.1901  0.2773 -0.1336
  933MPD2    C313647   4.125   1.227   1.571  0.5913 -0.6851 -0.1068
  933MPD2    C413648   4.114   1.314   1.683  0.2445  0.1411  0.6718
  933MPD2    C513649   4.184   1.280   1.795 -0.5273 -0.3660 -0.1088
  933MPD2     H13650   4.231   1.071   1.479  3.1661  1.7418 -0.3309
  933MPD2    H113651   4.049   1.401   1.682  1.0457  0.7254  0.0769
  933MPD2    H213652   4.322   1.158   1.895  1.6539  0.1618 -0.8049
  933MPD2    H313653   4.165   1.338   1.885 -0.6051 -1.9956  0.9045
  933MPD2     N13654   4.058   1.258   1.452 -0.6882 -0.4030 -0.7083
  933MPD2    H513655   4.071   1.193   1.375 -1.6850 -1.2398 -0.1799
  933MPD2    N113656   4.383   0.992   1.699  0.5526 -0.3728 -0.3002
  933MPD2    H713657   4.431   0.993   1.788  1.4893 -1.7202 -0.7966
  934MPD2     C13658   0.411   2.151   2.015  0.3385  0.1085 -0.3364
  934MPD2    C113659   0.481   2.228   1.923  0.5948  0.6298 -0.2660
  934MPD2    C213660   0.435   2.235   1.798  0.2869  0.1772 -0.5570
  934MPD2    C313661   0.319   2.179   1.762  0.1829 -0.8572 -0.5433
  934MPD2    C413662   0.245   2.109   1.853 -0.1791 -0.4897  0.9499
  934MPD2    C513663   0.286   2.104   1.982 -0.4845  0.0249  0.0468
  934MPD2     H13664   0.489   2.290   1.722  1.2335 -0.3183 -0.2499
  934MPD2    H113665   0.149   2.063   1.836 -0.7735  1.6559 -1.4367
  934MPD2    H213666   0.444   2.157   2.118  0.9074  1.2536 -0.5889
  934MPD2    H313667   0.221   2.055   2.054  0.8827 -1.4072  0.3042
  934MPD2     N13668   0.280   2.180   1.625 -0.2764  0.3487  0.2822
  934MPD2    H513669   0.188   2.140   1.612 -0.0444 -0.9952  2.6540
  934MPD2    N113670   0.598   2.302   1.955 -0.1582 -0.0365 -0.0126
  934MPD2    H713671   0.637   2.362   1.883  1.9391 -2.4776 -0.9079
  935MPD2     C13672   0.841   1.835   0.859 -0.0032 -0.5627 -0.1210
  935MPD2    C113673   0.711   1.831   0.816 -0.4230 -0.3136 -0.0708
  935MPD2    C213674   0.612   1.887   0.895  0.5209  0.6010  0.3122
  935MPD2    C313675   0.632   1.928   1.028  1.5581 -0.1557 -0.2923
  935MPD2    C413676   0.758   1.910   1.070  0.0999 -0.7788  0.1387
  935MPD2    C513677   0.862   1.868   0.990  0.2274 -0.6178 -0.3504
  935MPD2     H13678   0.523   1.911   0.837  0.0810 -0.6872  0.4632
  935MPD2    H113679   0.792   1.933   1.170  0.0002  0.8633 -0.2064
  935MPD2    H213680   0.928   1.810   0.799  0.0145 -0.0160 -0.3192
  935MPD2    H313681   0.965   1.867   1.026 -0.3670  0.6865  1.4272
  935MPD2     N13682   0.537   1.994   1.108 -0.1082  0.3549 -0.6048
  935MPD2    H513683   0.565   2.047   1.189  2.1139  3.4197 -3.3446
  935MPD2    N113684   0.672   1.791   0.683 -0.3070  0.8684 -0.3950
  935MPD2    H713685   0.575   1.801   0.653  0.7529  1.2675 -3.6800
  936MPD2     C13686   3.452   3.542  12.577 -0.3594 -0.6767  0.7592
  936MPD2    C113687   3.560   3.463  12.586 -0.3738  0.8064 -0.0050
  936MPD2    C213688   3.674   3.521  12.622  0.2839 -0.3932  0.7192
  936MPD2    C313689   3.687   3.659  12.655  0.2061 -0.2244 -0.1414
  936MPD2    C413690   3.576   3.738  12.652  1.0884 -0.8152 -0.1597
  936MPD2    C513691   3.463   3.675  12.612  0.2434 -0.2216  0.4443
  936MPD2     H13692   3.767   3.466  12.627 -1.6064 -3.7996 -1.7745
  936MPD2    H113693   3.584   3.841  12.683 -0.4364 -0.2017 -1.7798
  936MPD2    H213694   3.355   3.511  12.539  0.5167 -0.7009 -1.4484
  936MPD2    H313695   3.370   3.730  12.610  0.4712  0.1971  1.1558
  936MPD2     N13696   3.814   3.695  12.704  0.0631  0.4221 -0.1179
  936MPD2    H513697   3.884   3.623  12.689 -0.5365  0.3213 -2.4384
  936MPD2    N113698   3.562   3.318  12.557 -0.0667 -0.0051  0.2177
  936MPD2    H713699   3.654   3.275  12.553 -0.4433 -0.7361 -0.5043
  937MPD2     C13700   1.831   0.091  11.470  0.6867 -0.5463  0.1547
  937MPD2    C113701   1.905   0.206  11.447 -0.0191 -0.1105  0.1251
  937MPD2    C213702   1.967   0.218  11.324  0.3180  0.4852 -0.3275
  937MPD2    C313703   1.994   0.109  11.242 -0.4523  0.0626 -0.6781
  937MPD2    C413704   1.942   4.713  11.280 -0.1047 -1.0216 -0.4636
  937MPD2    C513705   1.854   4.707  11.386 -0.4237 -0.2448  0.3863
  937MPD2     H13706   2.020   0.309  11.299  2.8835 -0.5973  1.2172
  937MPD2    H113707   1.969   4.620  11.231 -0.2491 -1.8928  1.1276
  937MPD2    H213708   1.758   0.076  11.548  0.8235 -0.4873  0.2937
  937MPD2    H313709   1.803   4.617  11.420 -1.2194 -0.1435 -0.5317
  937MPD2     N13710   2.086   0.125  11.132 -0.3990  0.4083 -0.2777
  937MPD2    H513711   2.130   0.216  11.120  1.6135 -0.5974 -0.6037
  937MPD2    N113712   1.875   0.328  11.510  0.1283 -0.8327  0.0424
  937MPD2    H713713   1.915   0.408  11.463 -3.9242  0.7016 -0.7367
  938MPD2     C13714   4.261   2.179   0.382 -0.1855  0.4886  0.0996
  938MPD2    C113715   4.321   2.167   0.512 -0.1019  0.5576 -0.5601
  938MPD2    C213716   4.247   2.102   0.601 -0.0420 -0.1165 -0.6530
  938MPD2    C313717   4.122   2.046   0.580  0.1197 -0.0861 -0.4171
  938MPD2    C413718   4.073   2.050   0.454  0.3776 -0.0125  0.9436
  938MPD2    C513719   4.141   2.120   0.355 -0.4541 -0.8147  0.2395
  938MPD2     H13720   4.288   2.098   0.701 -0.9497 -1.3277 -0.3276
  938MPD2    H113721   3.978   2.001   0.437  0.4641 -0.1075  0.7191
  938MPD2    H213722   4.321   2.228   0.306  1.2743  0.4983  1.2664
  938MPD2    H313723   4.098   2.110   0.256  1.5510  0.8177 -0.7895
  938MPD2     N13724   4.050   1.970   0.673 -0.4064  0.7507 -0.3412
  938MPD2    H513725   3.960   1.936   0.641 -0.1932 -1.8694  1.8088
  938MPD2    N113726   4.448   2.240   0.540 -0.0489  0.8342  0.3877
  938MPD2    H713727   4.479   2.287   0.456  0.4132 -0.1238  0.0270
  939MPD2     C13728   1.696   2.659   0.849 -0.4263  0.0177 -0.7707
  939MPD2    C113729   1.596   2.658   0.752  0.2488 -0.0004  0.0702
  939MPD2    C213730   1.627   2.636   0.613 -0.2205  0.6632 -0.3833
  939MPD2    C313731   1.753   2.615   0.578 -0.5796  0.3936 -0.3856
  939MPD2    C413732   1.855   2.610   0.675 -0.0029  0.0375  0.0171
  939MPD2    C513733   1.821   2.622   0.806  0.5111  0.3910 -0.0176
  939MPD2     H13734   1.545   2.642   0.543  0.8533 -3.8020 -2.0052
  939MPD2    H113735   1.958   2.609   0.644  0.2586  3.4748  0.7432
  939MPD2    H213736   1.688   2.683   0.954  0.0907 -0.2839 -0.6606
  939MPD2    H313737   1.901   2.625   0.879 -0.4709 -2.2218  1.1687
  939MPD2     N13738   1.785   2.621   0.441 -0.2326 -0.2902  0.7196
  939MPD2    H513739   1.711   2.642   0.374 -0.4342  0.7800  1.2768
  939MPD2    N113740   1.464   2.695   0.801 -0.1269  0.4282 -0.4435
  939MPD2    H713741   1.459   2.711   0.901 -0.2825  1.9982 -0.6954
  940MPD2     C13742   4.433   3.674  13.432 -0.2352  0.8711 -0.1448
  940MPD2    C113743   4.346   3.624  13.334 -0.0757 -0.1443  0.6313
  940MPD2    C213744   4.403   3.597  13.207 -0.1598 -0.4597  0.0809
  940MPD2    C313745   4.536   3.604  13.190 -0.6160  0.6745 -0.3060
  940MPD2    C413746   4.614   3.649  13.290  0.4878 -0.3778  0.4754
  940MPD2    C513747   4.565   3.680  13.410  0.5693 -0.5307 -0.8109
  940MPD2     H13748   4.338   3.562  13.127  0.4276  1.0027 -1.0385
  940MPD2    H113749   4.720   3.651  13.267  0.5400  0.0107  0.7487
  940MPD2    H213750   4.403   3.691  13.535  1.7183  1.0490  0.4068
  940MPD2    H313751   4.638   3.701  13.488 -0.8700  0.8931  0.1398
  940MPD2     N13752   4.602   3.575  13.066 -0.8511  0.3736 -0.0070
  940MPD2    H513753   4.699   3.605  13.061 -0.1465 -1.7926  0.7270
  940MPD2    N113754   4.220   3.600  13.376  0.0941  0.2498 -0.0103
  940MPD2    H713755   4.195   3.608  13.474  0.1550  1.2342 -0.0737
  941MPD2     C13756   4.126   1.726   9.559 -0.1967 -0.0313 -0.1621
  941MPD2    C113757   4.055   1.755   9.676 -0.6952  0.1816 -0.4281
  941MPD2    C213758   3.943   1.679   9.706 -0.3744 -0.2554  0.0636
  941MPD2    C313759   3.898   1.584   9.620  0.4222  0.2521  0.3161
  941MPD2    C413760   3.964   1.565   9.499  0.9575 -0.2358  0.2480
  941MPD2    C513761   4.081   1.628   9.476 -0.1275 -0.2462 -0.4390
  941MPD2     H13762   3.881   1.698   9.793  0.4111 -0.7716  0.7350
  941MPD2    H113763   3.937   1.484   9.431  0.0525 -1.4174  2.0100
  941MPD2    H213764   4.228   1.763   9.556  0.6948 -2.1572  3.5766
  941MPD2    H313765   4.135   1.590   9.391  2.2314  0.0940  0.9245
  941MPD2     N13766   3.771   1.523   9.629  0.5172 -0.9796 -0.5471
  941MPD2    H513767   3.735   1.484   9.543 -1.2787 -1.2834  0.3539
  941MPD2    N113768   4.090   1.855   9.771  0.2271 -0.4534 -0.4396
  941MPD2    H713769   4.037   1.860   9.857 -2.1401  1.1963 -1.9983
  942MPD2     C13770   2.955   3.334  10.140 -0.0604 -0.4088 -0.9609
  942MPD2    C113771   3.020   3.428  10.061  0.5142 -0.5804 -0.0691
  942MPD2    C213772   3.161   3.435  10.059  0.4372 -0.0512  0.0143
  942MPD2    C313773   3.232   3.347  10.140 -0.9502  0.1797  0.1758
  942MPD2    C413774   3.165   3.250  10.212 -0.2535  0.1821 -0.3445
  942MPD2    C513775   3.031   3.248  10.212  0.0857  0.1661  0.3675
  942MPD2     H13776   3.213   3.499   9.988  4.1824 -2.1381  0.9029
  942MPD2    H113777   3.228   3.189  10.276 -0.3921 -0.0384 -0.4221
  942MPD2    H213778   2.848   3.313  10.141  0.0857 -1.2008 -2.4278
  942MPD2    H313779   2.989   3.175  10.280  0.1131 -1.5498 -1.4275
  942MPD2     N13780   3.372   3.347  10.138  0.0354 -0.6397  0.0966
  942MPD2    H513781   3.418   3.262  10.170 -0.3332 -0.0816  2.1195
  942MPD2    N113782   2.958   3.532   9.984 -0.0672 -0.4494 -0.0058
  942MPD2    H713783   3.025   3.584   9.927 -1.4717  2.8424  1.3712
  943MPD2     C13784   2.231   2.471   9.620  0.2698  0.2078  0.1532
  943MPD2    C113785   2.203   2.339   9.599 -0.2235  0.4021  0.2016
  943MPD2    C213786   2.126   2.304   9.494  0.2464 -0.3451 -0.3238
  943MPD2    C313787   2.077   2.401   9.405 -0.0867  0.1489  0.1894
  943MPD2    C413788   2.108   2.535   9.427 -0.2028  0.3369 -0.4801
  943MPD2    C513789   2.184   2.565   9.536 -0.5591 -0.2367  0.6177
  943MPD2     H13790   2.089   2.203   9.489 -0.8277  0.0138  0.3691
  943MPD2    H113791   2.060   2.617   9.375 -3.7195 -0.3497  1.7057
  943MPD2    H213792   2.290   2.501   9.706 -0.4082 -1.2633  1.1433
  943MPD2    H313793   2.210   2.670   9.550 -3.8139  0.6101  0.3952
  943MPD2     N13794   1.980   2.373   9.310  0.3962  0.4455  0.2484
  943MPD2    H513795   1.948   2.445   9.246 -2.4733 -0.7663  0.3089
  943MPD2    N113796   2.249   2.248   9.698  0.0592  0.6310 -0.5353
  943MPD2    H713797   2.286   2.292   9.782  0.8934 -3.0446  1.0306
  944MPD2     C13798   2.061   1.329  10.855 -0.1907  0.3018 -0.4062
  944MPD2    C113799   2.102   1.439  10.771 -0.2806  0.0896  0.0585
  944MPD2    C213800   2.091   1.568  10.821 -0.2612 -0.1479  0.5267
  944MPD2    C313801   2.038   1.597  10.946 -0.0629  0.1545  0.4719
  944MPD2    C413802   1.995   1.488  11.026 -0.7071  0.0434  0.2206
  944MPD2    C513803   2.013   1.359  10.982 -0.0071 -0.1368  0.2890
  944MPD2     H13804   2.126   1.655  10.766  0.4993 -0.9112 -0.1884
  944MPD2    H113805   1.941   1.499  11.119  0.1654  3.9824  0.2662
  944MPD2    H213806   2.070   1.227  10.818 -0.6649  0.2698 -0.4398
  944MPD2    H313807   1.966   1.287  11.048 -2.4217  1.2423  0.0815
  944MPD2     N13808   2.045   1.729  10.987  0.8108  0.2306  0.6791
  944MPD2    H513809   2.112   1.782  10.931 -0.7800  2.3732  0.8342
  944MPD2    N113810   2.154   1.419  10.637  0.3911 -0.2527  0.3230
  944MPD2    H713811   2.157   1.325  10.601  3.2033  0.2118 -0.7059
    1TCq1    O113812   4.561   2.211  14.086 -0.7078 -0.1477  0.3881
    1TCq1    C113813   4.599   2.083  14.095  0.7935 -0.0197  0.0729
    1TCq1    O213814   4.549   2.000  14.021 -0.0457 -0.2125 -0.5285
    1TCq1    C213815   4.634   2.054  14.230 -0.1166  0.0513  0.4346
    1TCq1    C313816   4.611   1.932  14.277 -0.3619  0.2261  0.1175
    1TCq1    C413817   4.661   1.898  14.394  0.7942  0.4352 -0.2187
    1TCq1    C513818   0.006   1.985  14.469 -0.1829  0.5398 -0.3185
    1TCq1    C613819   0.029   2.111  14.419 -0.2077 -0.1706  0.2651
    1TCq1    C713820   4.707   2.150  14.296 -0.2711  0.3265 -0.4686
    1TCq1    C813821   0.101   2.204  14.507 -0.5064 -0.2319 -0.1690
    1TCq1    O413822   0.144   2.158  14.610  0.1992  0.1244  0.1485
    1TCq1    C913823   4.658   1.762  14.440  0.6628 -0.1126  0.1992
    1TCq1    O513824   4.656   1.741  14.563  0.8410  0.4165  0.1463
    1TCq1    O613825   4.616   1.676  14.359 -0.5676 -0.0539 -0.7537
    1TCq1    H113826   4.565   2.275  14.161  0.9872 -0.6829  0.7562
    1TCq1    H213827   4.558   1.861  14.214 -1.0590  0.2579  0.6714
    1TCq1    H313828   0.043   1.967  14.569  1.1310  0.1818 -0.8777
    1TCq1    H413829   0.017   2.244  14.253  0.4813 -0.8282 -2.3937
    2MPD2     C13830   0.284   2.660  14.649  0.3099  0.1782  0.2360
    2MPD2    C113831   0.226   2.674  14.525  0.1014 -0.1670 -0.4298
    2MPD2    C213832   0.156   2.559  14.472  0.5257 -0.0531 -0.4596
    2MPD2    C313833   0.150   2.443  14.544  0.1801 -0.0670 -0.1815
    2MPD2    C413834   0.210   2.437  14.668 -0.5380  0.0477 -0.8209
    2MPD2    C513835   0.278   2.541  14.716  0.1346  0.7088  0.1481
    2MPD2     H13836   0.110   2.565  14.374  0.1238  0.2535 -0.2482
    2MPD2    H113837   0.209   2.346  14.728  2.1716  0.4916 -0.0842
    2MPD2    H213838   0.341   2.742  14.691  1.1153 -0.8422  1.1407
    2MPD2    H313839   0.321   2.530  14.815 -1.9244 -3.2070  0.6010
    2MPD2     N13840   0.088   2.337  14.475  0.3696  0.6905  0.2002
    2MPD2    H513841   0.050   2.358  14.383 -0.6433  0.2689  0.5205
    2MPD2    N113842   0.245   2.797  14.465  0.2528 -0.2486 -0.4040
    2MPD2    H713843   0.309   2.862  14.510 -0.2598  0.9250 -1.3568
    3TMC2    C113844   0.219   2.972  14.303 -0.4980 -0.5482 -0.3710
    3TMC2    C213845   0.273   3.061  14.393  0.1372  0.4613  0.0993
    3TMC2    C313846   0.328   3.177  14.345  0.4360 -0.8214  0.1395
    3TMC2    C413847   0.205   3.005  14.170 -0.3364 -0.6589 -0.5324
    3TMC2    C513848   0.239   3.129  14.133 -0.1862  0.1158 -0.1514
    3TMC2    C613849   0.299   3.219  14.223  0.3409  0.0881 -0.2544
    3TMC2     C13850   0.179   2.845  14.350  0.1038  0.2415  0.1407
    3TMC2     O13851   0.104   2.785  14.279 -0.2850 -0.0962  0.2280
    3TMC2     H13852   0.272   3.042  14.500  1.4607  2.4008  0.4490
    3TMC2    H113853   0.169   2.942  14.089 -2.1449  2.2361 -1.9893
    3TMC2    H213854   0.313   3.323  14.198  0.6373  0.4754  1.5409
    3TMC2    C713855   0.177   3.186  14.016  0.5708 -0.5243  1.0089
    3TMC2    C813856   0.386   3.268  14.432  0.4986 -0.0306  0.1863
    3TMC2    O113857   0.059   3.171  14.004  0.1110 -0.4619  0.6300
    3TMC2    O213858   0.407   3.385  14.393  0.2273 -0.0958 -0.4761
    3TMC2    O513859   0.478   3.195  14.511  0.3146  0.0469 -0.3212
    3TMC2    H513860   0.469   3.097  14.501 -0.0585  0.0557 -0.0330
    4MPD2     C13861   0.113   4.151  13.050 -0.1672  0.4772 -0.8722
    4MPD2    C113862   0.067   4.080  13.154  0.2782  0.3027 -0.1406
    4MPD2    C213863   0.145   4.023  13.248 -0.7674  0.1892  0.8423
    4MPD2    C313864   0.281   4.045  13.235  0.3132 -0.3334  0.0819
    4MPD2    C413865   0.330   4.122  13.134  0.1949 -0.2662 -0.7551
    4MPD2    C513866   0.246   4.178  13.041 -0.8260  0.3955  0.4261
    4MPD2     H13867   0.103   3.960  13.325  0.1754 -0.1690  1.0535
    4MPD2    H113868   0.437   4.134  13.122  0.0812 -0.0371 -1.5174
    4MPD2    H213869   0.057   4.204  12.974  1.4089  0.2048 -2.2272
    4MPD2    H313870   0.282   4.230  12.953  1.6643  1.5314  2.0967
    4MPD2     N13871   0.360   3.977  13.328  0.1726  0.4483 -0.8541
    4MPD2    H513872   0.314   3.930  13.405  0.6711  0.6862 -0.4036
    4MPD2    N113873   4.652   4.058  13.156  0.2712  0.3154 -0.1795
    4MPD2    H713874   4.597   4.096  13.079 -0.2031  0.2776  0.1360
    5TCq2    C113875   0.497   3.982  13.332  0.6167 -0.2651 -0.4091
    5TCq2    O213876   0.580   4.037  13.265 -0.1569  0.3713  0.9053
    5TCq2    C213877   0.555   3.915  13.447  0.4657 -0.2231  0.0857
    5TCq2    C313878   0.682   3.952  13.481 -0.2001 -0.1119  0.0603
    5TCq2    C413879   0.754   3.876  13.563 -0.4755 -1.1486 -0.1840
    5TCq2    C513880   0.698   3.768  13.619  0.2054 -0.2926  0.2289
    5TCq2    C613881   0.577   3.726  13.585  0.9187 -0.2909 -0.8403
    5TCq2    C713882   0.503   3.795  13.489  0.0058  0.7526  0.0349
    5TCq2    C813883   0.513   3.618  13.650 -0.4551 -0.2445 -0.2158
    5TCq2    O413884   0.579   3.529  13.694 -0.0198  0.0491 -0.6151
    5TCq2    C913885   0.885   3.917  13.616  0.6709  0.7414  0.4500
    5TCq2    O513886   0.916   3.866  13.723  0.7817 -0.0186  0.2169
    5TCq2    O613887   0.929   4.029  13.575  0.7127  0.2563 -0.4673
    5TCq2    H213888   0.714   4.055  13.468 -1.7571  0.5520  1.4979
    5TCq2    H313889   0.748   3.708  13.694  0.0593  0.7312  1.1355
    5TCq2    H413890   0.421   3.753  13.431 -1.7559  1.7502  1.7900
    6MPD1     C13891   3.698   0.776  12.980  0.1182 -0.5136  0.1718
    6MPD1    C113892   3.748   0.720  12.868 -0.0046  0.0177  0.1975
    6MPD1    C213893   3.757   0.580  12.852  0.9003  0.7150  0.0138
    6MPD1    C313894   3.716   0.501  12.953  0.1190 -0.2730 -0.4692
    6MPD1    C413895   3.672   0.561  13.068 -0.1158  0.2129 -0.8331
    6MPD1    C513896   3.659   0.694  13.081 -0.1383  0.6024  0.4035
    6MPD1     H13897   3.784   0.534  12.758  1.8102 -0.3730  0.8047
    6MPD1    H113898   3.652   0.496  13.152  1.0136  0.9372 -0.0188
    6MPD1    H213899   3.676   0.881  12.995  1.3812  0.2422 -3.4304
    6MPD1    H313900   3.625   0.730  13.178 -1.0535 -0.1408  0.3581
    6MPD1     N13901   3.710   0.359  12.954 -0.2183  0.4881 -0.1669
    6MPD1    H513902   3.693   0.316  13.045 -0.8739  0.2180 -0.4174
    6MPD1    N113903   3.756   0.803  12.755 -0.4398  0.7342 -0.4908
    6MPD1    H613904   3.829   0.771  12.692  0.1443  0.7222  0.2091
    6MPD1    H713905   3.773   0.903  12.765  1.4179  0.6461 -2.7574
    7MPD2     C13906   3.855   4.459  13.408  0.3326 -0.5294 -1.5879
    7MPD2    C113907   3.896   4.438  13.277 -0.3803 -0.4685  0.3313
    7MPD2    C213908   3.960   4.319  13.250  1.0322  0.1542  0.7213
    7MPD2    C313909   3.993   4.225  13.339 -0.8669 -0.4979 -0.2852
    7MPD2    C413910   3.960   4.248  13.471  0.4461  0.2464 -0.0382
    7MPD2    C513911   3.888   4.361  13.501  0.3858  0.2963 -0.5624
    7MPD2     H13912   4.002   4.308  13.150  0.5209  0.9788  0.4152
    7MPD2    H113913   3.967   4.175  13.551  1.0593  2.4742  1.9484
    7MPD2    H213914   3.802   4.549  13.436  1.2048 -0.3411 -0.5620
    7MPD2    H313915   3.858   4.377  13.604  1.1236  1.9246 -0.6105
    7MPD2     N13916   4.060   4.103  13.302  0.0848 -0.1632  1.0307
    7MPD2    H513917   4.080   4.093  13.203 -4.3920 -0.9810  0.1933
    7MPD2    N113918   3.880   4.519  13.169 -0.3460  0.1329 -0.2502
    7MPD2    H713919   3.892   4.475  13.079 -3.1931 -1.5322  0.1536
    8TMC3    C113920   4.213   3.943  13.304  0.6854 -0.4071 -0.3920
    8TMC3    C213921   4.343   3.985  13.332 -0.2434  0.2018  0.2488
    8TMC3    C313922   4.430   3.995  13.225 -0.0290 -0.2495 -0.2938
    8TMC3    C413923   4.167   3.934  13.176 -0.7739  0.0575 -0.1423
    8TMC3    C513924   4.255   3.957  13.076  1.1996  0.0510  0.1995
    8TMC3    C613925   4.390   3.972  13.098 -0.0473 -0.4440  0.0731
    8TMC3     C13926   4.127   4.020  13.382 -0.4135 -0.4249 -0.1913
    8TMC3     O13927   4.151   4.041  13.498 -0.2670  0.3560  0.1016
    8TMC3     H13928   4.379   4.005  13.432  0.8514  0.5738 -0.2097
    8TMC3    H113929   4.064   3.905  13.157 -0.4177 -2.2334  1.5667
    8TMC3    H213930   4.457   3.992  13.016  0.9931  0.2236  1.0869
    8TMC3    C713931   4.194   4.037  12.971  0.0005  0.2503  0.4828
    8TMC3    C813932   4.570   4.019  13.265  0.0421  0.4632 -0.4361
    8TMC3    O113933   4.082   4.081  13.004 -0.1289  0.3967 -0.0335
    8TMC3    O213934   4.600   4.013  13.381  0.0866  0.4380 -0.4577
    9TMC3    C113935   3.801   0.147  12.876  0.4939 -0.0036  0.7850
    9TMC3    C213936   3.876   0.080  12.788  0.3592 -0.1211  0.2519
    9TMC3    C313937   3.957   4.700  12.822  1.0733 -0.3350  0.1247
    9TMC3    C413938   3.788   0.103  13.002 -0.4941 -0.3242  0.5902
    9TMC3    C513939   3.858   4.717  13.037  0.1679 -0.2773 -0.0121
    9TMC3    C613940   3.947   4.655  12.952 -0.3969 -0.8098  0.3832
    9TMC3     C13941   3.747   0.280  12.846 -0.1805 -0.7891 -0.5334
    9TMC3     O13942   3.769   0.310  12.725  0.3323  0.3641 -0.2164
    9TMC3     H13943   3.894   0.118  12.688 -0.3145  2.4694  1.1125
    9TMC3    H113944   3.721   0.143  13.077 -1.9838 -3.1049  0.7527
    9TMC3    H213945   4.026   4.593  12.990 -2.0105 -2.5105  0.9587
    9TMC3    C713946   3.843   4.657  13.168 -0.3107  0.8372 -0.6879
    9TMC3    C813947   4.032   4.614  12.722  0.3833 -0.4130 -0.0743
    9TMC3    O113948   3.807   0.003  13.265  0.4331  0.7227  0.3313
    9TMC3    O213949   4.058   4.667  12.617 -1.3369 -0.2468  0.9035
   10MPD2     C13950   4.324   4.192  12.658 -0.2281 -0.4404  0.3149
   10MPD2    C113951   4.250   4.175  12.777  0.0144 -0.3299 -0.4967
   10MPD2    C213952   4.154   4.274  12.798  0.2147  0.1106  0.8557
   10MPD2    C313953   4.135   4.385  12.722  0.8522 -0.1783  0.2421
   10MPD2    C413954   4.221   4.397  12.606 -0.0655  0.6904  0.2163
   10MPD2    C513955   4.313   4.297  12.575  0.6733 -0.2290  0.0686
   10MPD2     H13956   4.102   4.273  12.893 -0.8407  0.9098  0.2951
   10MPD2    H113957   4.208   4.477  12.535  0.0466  1.4539  1.0621
   10MPD2    H213958   4.400   4.116  12.643 -1.4345 -1.4358 -0.7245
   10MPD2    H313959   4.378   4.308  12.489  1.2346 -0.6488  0.4491
   10MPD2     N13960   4.054   4.489  12.769 -0.1206 -0.0884 -0.9913
   10MPD2    H513961   3.988   4.466  12.843  0.4040 -0.4170 -0.6190
   10MPD2    N113962   4.281   4.076  12.873 -0.2828  0.2765  0.1081
   10MPD2    H713963   4.362   4.017  12.858  0.3295  0.9205  0.8476
   11MPD2     C13964   0.102   3.367  13.800 -0.0142 -0.4501  0.0512
   11MPD2    C113965   0.227   3.362  13.854 -0.0224 -0.2285  0.1842
   11MPD2    C213966   0.326   3.453  13.812  0.5349 -0.0359 -0.6716
   11MPD2    C313967   0.290   3.540  13.708  0.3154 -0.4431  0.6405
   11MPD2    C413968   0.157   3.556  13.675 -0.1819 -0.2095  0.0595
   11MPD2    C513969   0.069   3.460  13.709  0.5888  0.5024  0.4774
   11MPD2     H13970   0.428   3.448  13.850  0.5435  1.3681 -0.5314
   11MPD2    H113971   0.139   3.636  13.605  1.3294 -0.6543 -0.8546
   11MPD2    H213972   0.019   3.303  13.827  1.1897 -2.2870 -0.5952
   11MPD2    H313973   4.691   3.470  13.671 -0.1395 -1.8666  1.7568
   11MPD2     N13974   0.377   3.625  13.644  0.1921  0.4140  0.1396
   11MPD2    H513975   0.337   3.699  13.587  3.1907  0.9766 -1.2135
   11MPD2    N113976   0.257   3.279  13.962  0.3585 -0.2535  0.1818
   11MPD2    H713977   0.350   3.292  14.000 -0.0793  0.0645  1.1467
    1MPD1     C13978   3.053   4.713  16.606  0.1775 -0.7033  0.4230
    1MPD1    C113979   3.044   4.663  16.733  0.3855 -0.1591 -0.4732
    1MPD1    C213980   3.154   4.653  16.808 -0.0951  0.5772  0.7664
    1MPD1    C313981   3.280   4.697  16.759 -0.4669  0.0590 -0.0748
    1MPD1    C413982   3.286   0.027  16.632 -0.4046  0.0206 -0.2813
    1MPD1    C513983   3.171   0.043  16.566  0.9622  0.8835  0.3635
    1MPD1     H13984   3.152   4.593  16.898  2.5048 -2.5100 -1.2419
    1MPD1    H113985   3.379   0.061  16.588  0.0331 -0.6598  0.1132
    1MPD1    H213986   2.968   4.712  16.539  1.5172 -0.1163 -1.2887
    1MPD1    H313987   3.178   0.092  16.470  2.1158  2.0772  1.0657
    1MPD1     N13988   3.401   4.692  16.835  0.1456 -0.1471  0.3308
    1MPD1    H513989   3.486   4.721  16.789  0.0058 -0.7773 -0.3157
    1MPD1    N113990   2.924   4.601  16.770 -0.1274  0.4593  0.0288
    1MPD1    H613991   2.918   4.599  16.872 -0.5309 -1.1137 -0.0284
    1MPD1    H713992   2.846   4.654  16.732 -0.3933  0.7194  0.9274
    2MPD1     C13993   3.897   4.243   0.022  0.3658  0.4185  0.5502
    2MPD1    C113994   3.995   4.253  17.616 -0.3193  0.4910  1.3258
    2MPD1    C213995   3.948   4.313  17.493 -0.7912 -0.4525  0.2434
    2MPD1    C313996   3.814   4.360  17.475 -0.5790 -0.1276 -0.0184
    2MPD1    C413997   3.728   4.341  17.578  0.1242 -0.2344  0.0960
    2MPD1    C513998   3.771   4.286   0.004  0.1538  0.1607  0.1403
    2MPD1     H13999   4.017   4.317  17.409  0.9764 -1.5732  1.6465
    2MPD1    H114000   3.631   4.390  17.583 -0.8353 -1.8535 -2.5118
    2MPD1    H214001   3.920   4.197   0.117 -1.4323  0.9078  1.2259
    2MPD1    H314002   3.705   4.287   0.090  1.6694  0.8018  1.3092
    2MPD1     N14003   3.788   4.442  17.359 -0.0338  0.1853 -0.5883
    2MPD1    H514004   3.867   4.461  17.299 -1.2453  3.0610 -1.2417
    2MPD1    N114005   4.116   4.194  17.622 -0.0156  0.2699 -0.5302
    2MPD1    H614006   4.162   4.188   0.019 -0.4517 -1.1018 -0.4027
    2MPD1    H714007   4.184   4.239  17.560  0.9713  0.1790  0.4707
    3TMC3    C114008   3.649   4.569  17.219  0.2708 -0.4187 -0.3448
    3TMC3    C214009   3.759   4.634  17.166 -0.3343 -0.6505 -0.5080
    3TMC3    C314010   3.755   4.686  17.036  0.1098  0.3579 -0.1650
    3TMC3    C414011   3.529   4.574  17.149 -0.4915  0.4688 -0.0296
    3TMC3    C514012   3.529   4.632  17.026  0.2662 -0.0108 -0.4089
    3TMC3    C614013   3.637   4.703  16.978  0.4341 -0.3364 -0.3662
    3TMC3     C14014   3.662   4.484  17.332  0.4683  0.0461 -0.2759
    3TMC3     O14015   3.560   4.440  17.375  0.1207  0.0931 -0.2348
    3TMC3     H14016   3.853   4.627  17.220 -1.0642  2.2585  1.1514
    3TMC3    H114017   3.442   4.523  17.189 -0.0580 -0.0533  0.2549
    3TMC3    H214018   3.632   0.052  16.897  0.3430 -1.1747 -1.1146
    3TMC3    C714019   3.399   4.656  16.965  0.4964 -0.1527 -0.2229
    3TMC3    C814020   3.867   0.045  16.992 -0.1939  0.0874  0.3225
    3TMC3    O114021   3.311   4.647  17.051 -0.4124 -0.3155  0.4582
    3TMC3    O214022   3.839   0.141  16.924  0.2523  0.2772 -0.0165
    4MPD1     C14023   4.368   0.109  16.932  0.2990 -0.9257 -0.3833
    4MPD1    C114024   4.351   0.009  17.030 -0.5080 -0.6707  0.4638
    4MPD1    C214025   4.225   4.709  17.061  0.1075  0.0613  0.1327
    4MPD1    C314026   4.116   0.038  16.998  0.2539 -0.5664 -0.2376
    4MPD1    C414027   4.135   0.126  16.899 -0.7583 -0.0609  0.1001
    4MPD1    C514028   4.263   0.161  16.858  0.6060 -0.5470 -0.0627
    4MPD1     H14029   4.211   4.638  17.143  1.3386 -1.5009 -1.0172
    4MPD1    H114030   4.050   0.171  16.850  1.1804  2.7418 -0.6750
    4MPD1    H214031   4.467   0.141  16.899  0.2658 -2.0707 -1.6251
    4MPD1    H314032   4.288   0.230  16.778  3.2285 -0.5825  0.7223
    4MPD1     N14033   3.988   4.713  17.035  0.0948  0.2914  0.3304
    4MPD1    H514034   3.987   4.629  17.093  2.3541 -0.2711 -0.4425
    4MPD1    N114035   4.461   4.677  17.098  0.6197  0.4256 -0.0883
    4MPD1    H614036   4.443   4.577  17.106 -0.7781  0.7351  0.6405
    4MPD1    H714037   4.544   4.683  17.039  1.4388 -0.2667  1.0038
    1TCq1    O114038   3.208   4.324  11.642  0.6879 -0.1949  0.1487
    1TCq1    C114039   3.124   4.401  11.573  0.3996 -0.4336  0.1790
    1TCq1    O214040   3.062   4.493  11.628  0.2300 -0.5311 -0.3203
    1TCq1    C214041   3.162   4.398  11.432 -0.5362  0.1323 -1.0017
    1TCq1    C314042   3.217   4.282  11.378 -0.2719 -0.8575  0.3769
    1TCq1    C414043   3.245   4.294  11.241  0.2308 -0.1603  1.0334
    1TCq1    C514044   3.229   4.409  11.166 -0.3185 -0.4126 -0.0017
    1TCq1    C614045   3.187   4.521  11.236  0.2997  0.1430  0.5397
    1TCq1    C714046   3.150   4.520  11.368  0.2681  0.0229  0.6300
    1TCq1    C814047   3.173   4.640  11.158  0.0339 -0.1992  1.0271
    1TCq1    O414048   3.204   0.019  11.220 -0.0101 -0.1607 -0.5569
    1TCq1    C914049   3.249   4.182  11.154  0.6559 -0.5504 -0.7447
    1TCq1    O514050   3.269   4.079  11.215  0.7820 -0.1876 -0.1101
    1TCq1    O614051   3.258   4.199  11.027 -0.1948 -0.6198  0.5185
    1TCq1    H114052   3.255   4.270  11.575  1.2218  0.5924 -0.1207
    1TCq1    H214053   3.198   4.186  11.425  0.0129 -0.0848  2.0494
    1TCq1    H314054   3.266   4.415  11.064 -1.6207 -0.7252 -0.4963
    1TCq1    H414055   3.096   4.606  11.406  1.8628  0.2847  2.3577
    2MPD1     C14056   2.943   0.190  10.780  0.5115  0.0600 -0.4429
    2MPD1    C114057   2.915   0.052  10.764 -0.4181  0.4562  0.4344
    2MPD1    C214058   2.977   4.686  10.851 -0.1905 -0.5713 -0.2635
    2MPD1    C314059   3.051   0.006  10.962 -0.4730 -0.4429 -0.0305
    2MPD1    C414060   3.088   0.140  10.974 -0.0635 -0.6069 -0.6467
    2MPD1    C514061   3.027   0.229  10.888  0.5059 -0.5221  0.2037
    2MPD1     H14062   2.967   4.579  10.841  2.0497 -0.9487  1.4108
    2MPD1    H114063   3.157   0.182  11.047 -0.6456 -0.5969 -0.0992
    2MPD1    H214064   2.873   0.260  10.738  1.2691 -0.3772 -2.4293
    2MPD1    H314065   3.047   0.334  10.903  1.5520 -0.6764 -0.1173
    2MPD1     N14066   3.098   4.626  11.044  0.3221 -0.1564  0.0443
    2MPD1    H514067   3.063   4.536  11.015  2.0484 -0.1378 -2.0929
    2MPD1    N114068   2.832   0.014  10.659 -0.0327 -0.1712  0.1988
    2MPD1    H614069   2.821   0.100  10.605 -1.5812 -1.2014 -1.1197
    2MPD1    H714070   2.873   4.660  10.607  0.3391  0.1117  0.0709
    1TCq1    O114071   3.225   4.276   0.815  0.1906 -0.0014  0.1943
    1TCq1    C114072   3.175   4.400   0.815  0.0013  0.3994  0.1419
    1TCq1    O214073   3.117   4.457   0.726  0.1035 -0.1422  0.0557
    1TCq1    C214074   3.174   4.466   0.947  0.8509  0.1239  0.3467
    1TCq1    C314075   3.168   4.387   1.056 -0.1208 -0.5540 -0.3269
    1TCq1    C414076   3.141   4.448   1.174 -0.2221  0.2108 -0.7195
    1TCq1    C514077   3.113   4.581   1.185  0.2231  0.2855 -0.4080
    1TCq1    C614078   3.118   4.657   1.069 -0.5695  0.1262 -0.5969
    1TCq1    C714079   3.139   4.597   0.945 -0.2401  0.5585 -0.1782
    1TCq1    C814080   3.081   0.073   1.063 -0.5185  0.9994  0.2944
    1TCq1    O414081   3.026   0.110   0.958  0.0528  0.2487  0.3607
    1TCq1    C914082   3.100   4.370   1.289 -0.0427  0.4365 -0.2990
    1TCq1    O514083   3.062   4.434   1.398 -1.2854  0.2870  0.1119
    1TCq1    O614084   3.135   4.247   1.279  0.1935 -0.4836 -0.4323
    1TCq1    H114085   3.283   4.266   0.894  1.0401 -2.7668 -0.7838
    1TCq1    H214086   3.172   4.279   1.045 -5.1663 -1.0095  2.5913
    1TCq1    H314087   3.086   4.626   1.280 -1.9489 -1.2230 -0.3204
    1TCq1    H414088   3.167   4.650   0.854  0.9456 -1.1367 -0.7841
    2MPD1     C14089   3.036   0.541   1.281  0.3246 -0.1539 -0.3693
    2MPD1    C114090   3.066   0.452   1.372  0.3361 -0.1851  0.1725
    2MPD1    C214091   3.088   0.319   1.336  0.8675 -0.4920 -0.1813
    2MPD1    C314092   3.080   0.274   1.208 -0.7532 -0.6561  0.8236
    2MPD1    C414093   3.032   0.365   1.116  0.1638  0.1753  0.5793
    2MPD1    C514094   3.014   0.495   1.155 -1.7152 -0.0094 -0.3779
    2MPD1     H14095   3.133   0.256   1.413 -1.8610  0.8714  2.4994
    2MPD1    H114096   3.009   0.346   1.012 -2.0316  1.7057  0.8038
    2MPD1    H214097   3.027   0.648   1.299 -0.2339 -0.1851 -0.4755
    2MPD1    H314098   2.963   0.561   1.086  0.4893  1.4143 -0.6497
    2MPD1     N14099   3.107   0.140   1.180 -0.4629 -0.6121 -0.2294
    2MPD1    H514100   3.152   0.088   1.254 -1.1705  1.3080  1.5474
    2MPD1    N114101   3.098   0.492   1.501  0.1229 -0.1733 -0.5581
    2MPD1    H614102   3.083   0.407   1.556 -0.2477 -1.1233 -2.1212
    2MPD1    H714103   3.050   0.571   1.543 -1.2344 -0.2795 -1.9080
    1MPD1     C14104   0.403   0.484  11.761 -0.5171 -0.1502 -0.7730
    1MPD1    C114105   0.450   0.612  11.730  0.5834  0.0668  0.6187
    1MPD1    C214106   0.581   0.645  11.780 -1.1300 -0.0607  0.5195
    1MPD1    C314107   0.663   0.552  11.831 -0.2245 -0.1123  0.3084
    1MPD1    C414108   0.612   0.426  11.844 -0.2518 -0.2224  0.5513
    1MPD1    C514109   0.483   0.389  11.814  0.3964 -0.5283  0.0993
    1MPD1     H14110   0.618   0.747  11.777 -0.2322 -0.3834  0.6430
    1MPD1    H114111   0.664   0.343  11.891  1.8912  1.6146  1.4160
    1MPD1    H214112   0.300   0.451  11.751 -0.7276 -0.3175  1.9547
    1MPD1    H314113   0.437   0.292  11.832 -0.1104 -0.6520 -1.7694
    1MPD1     N14114   0.790   0.592  11.885 -0.5426 -0.3590  0.6825
    1MPD1    H514115   0.802   0.692  11.874 -0.7882 -0.2114  1.8239
    1MPD1    N114116   0.360   0.715  11.699 -0.5014 -0.5361  0.0409
    1MPD1    H614117   0.288   0.678  11.636 -1.0276 -3.8359  2.5402
    1MPD1    H714118   0.406   0.798  11.663  2.6775 -1.4595  1.9894
    2MPD1     C14119   4.384   0.450  11.374 -0.2509 -0.1275 -0.6700
    2MPD1    C114120   4.501   0.514  11.411  0.0685  0.4529  0.0830
    2MPD1    C214121   4.608   0.495  11.327  0.3877  0.4515 -0.2527
    2MPD1    C314122   4.606   0.422  11.209  0.6472  0.2342  0.3807
    2MPD1    C414123   4.488   0.365  11.173 -0.7673  0.3056  0.0081
    2MPD1    C514124   4.377   0.378  11.256  0.0316 -0.1031  0.8307
    2MPD1     H14125   4.704   0.534  11.360  0.2442  1.5545 -1.1199
    2MPD1    H114126   4.475   0.319  11.076 -0.7711  0.6552 -0.1596
    2MPD1    H214127   4.288   0.470  11.420  0.5879  0.2859  0.8777
    2MPD1    H314128   4.287   0.329  11.220  0.4449 -0.6731  0.5737
    2MPD1     N14129   4.716   0.398  11.125  0.2138 -0.1633  0.0709
    2MPD1    H514130   4.692   0.342  11.044  0.0489 -1.4813  1.0370
    2MPD1    N114131   4.507   0.613  11.515 -0.0196 -0.1371 -0.0489
    2MPD1    H614132   4.461   0.576  11.598  1.4875  1.5792  1.5554
    2MPD1    H714133   4.600   0.630  11.551 -1.0361 -0.5721  2.7896
    3MPD1     C14134   4.717   4.466  10.573  0.2928  0.4227 -0.1559
    3MPD1    C114135   4.683   4.487  10.704  0.5211 -0.4106  0.1688
    3MPD1    C214136   0.033   4.576  10.787  0.4326 -0.5950 -0.1243
    3MPD1    C314137   0.118   4.665  10.723 -0.1108 -0.2208  0.2995
    3MPD1    C414138   0.126   4.657  10.587  0.3185 -0.3056  0.3447
    3MPD1    C514139   0.090   4.545  10.517  0.3591  0.7607 -0.3753
    3MPD1     H14140   0.020   4.574  10.895  0.6275 -0.2050 -0.0946
    3MPD1    H114141   0.158   0.017  10.524  2.0075 -2.3101 -1.4362
    3MPD1    H214142   4.675   4.388  10.510  1.5227  0.0401 -0.5120
    3MPD1    H314143   0.098   4.557  10.409 -1.4546  0.4827 -0.5321
    3MPD1     N14144   0.162   0.054  10.798  0.2849 -0.5411 -0.8678
    3MPD1    H514145   0.145   0.055  10.898  3.0748  3.2535 -0.4182
    3MPD1    N114146   4.594   4.391  10.769  0.4348 -0.2355  0.1560
    3MPD1    H614147   4.514   4.381  10.707 -0.2172  0.3279  0.9104
    3MPD1    H714148   4.574   4.430  10.860  2.3624 -0.1032  0.5186
    4MPD2     C14149   1.230   1.135  11.834 -0.4708 -0.4018  0.3458
    4MPD2    C114150   1.158   1.027  11.784  0.3797 -0.1597  0.1318
    4MPD2    C214151   1.149   0.998  11.648 -0.0454 -0.4004 -0.1032
    4MPD2    C314152   1.217   1.081  11.558 -0.8083  0.2603  0.4976
    4MPD2    C414153   1.296   1.185  11.604  0.5267  0.6128 -0.0230
    4MPD2    C514154   1.302   1.209  11.744  0.9552  0.4680  0.2526
    4MPD2     H14155   1.101   0.912  11.604 -0.0868 -0.1469 -0.5546
    4MPD2    H114156   1.359   1.235  11.531 -0.7092  2.2561  0.0290
    4MPD2    H214157   1.250   1.158  11.938  0.9532 -2.3035  0.4751
    4MPD2    H314158   1.371   1.284  11.781  0.7343  0.9410 -0.2852
    4MPD2     N14159   1.235   1.045  11.421  0.3221 -0.2206  0.9404
    4MPD2    H514160   1.303   1.101  11.369 -1.4612 -0.1059 -1.2837
    4MPD2    N114161   1.115   0.921  11.871  0.8155 -0.3106  0.0016
    4MPD2    H714162   1.064   0.845  11.825 -0.8229 -0.6811  2.4132
    5TMC3    C114163   1.128   0.767  12.037  0.1809  0.9645  0.8685
    5TMC3    C214164   1.017   0.714  11.992  0.0974 -0.1203 -0.0915
    5TMC3    C314165   1.008   0.575  11.971  0.3567  0.4304 -1.0593
    5TMC3    C414166   1.240   0.688  12.042 -0.3461  0.0282 -0.7426
    5TMC3    C514167   1.230   0.555  12.008 -0.4022 -0.0281  0.1836
    5TMC3    C614168   1.113   0.489  11.990  0.1020 -0.2451  0.6351
    5TMC3     C14169   1.147   0.902  12.000 -0.1935 -0.1676 -0.5731
    5TMC3     O14170   1.227   0.970  12.066  0.9136  0.6414  0.1986
    5TMC3     H14171   0.935   0.782  11.972 -1.4780 -2.2434 -0.9407
    5TMC3    H114172   1.340   0.729  12.058 -0.0359 -0.6099 -1.0376
    5TMC3    H214173   1.106   0.387  11.954  0.5120 -0.4134  1.0331
    5TMC3    C714174   1.319   0.538  11.895 -0.3680 -0.4549 -1.0283
    5TMC3    C814175   0.884   0.502  11.935 -1.0533 -0.5812  0.7623
    5TMC3    O114176   1.356   0.646  11.849  0.4332  0.3875 -0.7859
    5TMC3    O214177   0.886   0.385  11.977 -0.2084 -0.0662 -0.3071
    6TMC3    C114178   0.205   0.389  11.027  0.0697 -0.0805  0.4893
    6TMC3    C214179   0.170   0.290  10.940  0.1624 -0.0157 -0.5806
    6TMC3    C314180   0.267   0.260  10.838  0.2163  0.0580  0.0038
    6TMC3    C414181   0.329   0.457  11.022  0.4776  0.0188  0.3444
    6TMC3    C514182   0.408   0.419  10.917 -1.0906 -0.3719 -0.9309
    6TMC3    C614183   0.387   0.320  10.826  0.1300 -0.0353  0.2452
    6TMC3     C14184   0.121   0.445  11.137  0.7764 -0.3256 -0.1121
    6TMC3     O14185   0.170   0.525  11.214  0.5178 -0.4160 -0.4321
    6TMC3     H14186   0.071   0.249  10.956 -0.2359  1.0047 -0.3863
    6TMC3    H114187   0.355   0.531  11.096 -1.1565  0.4191  0.5293
    6TMC3    H214188   0.453   0.311  10.740  1.4210 -2.3418  1.4674
    6TMC3    C714189   0.547   0.453  10.933 -0.3833 -0.4417  0.4515
    6TMC3    C814190   0.226   0.162  10.745 -0.2764  0.1589  0.1324
    6TMC3    O114191   0.583   0.542  11.011 -0.4034  0.1683  0.0142
    6TMC3    O214192   0.250   0.196  10.628 -0.4364  0.2063 -0.0224
    7MPD2     C14193   1.410   0.265  11.467  0.7573 -0.5818  0.5555
    7MPD2    C114194   1.416   0.401  11.494 -0.1457 -0.0509 -0.0667
    7MPD2    C214195   1.405   0.451  11.623 -0.5124 -0.3889  0.4031
    7MPD2    C314196   1.374   0.363  11.722 -0.0305  0.4964  0.3918
    7MPD2    C414197   1.375   0.228  11.695 -0.5815  0.4976 -0.6001
    7MPD2    C514198   1.396   0.179  11.573 -0.6962 -0.1334 -0.2964
    7MPD2     H14199   1.408   0.558  11.641  0.1096 -0.3660  0.1614
    7MPD2    H114200   1.345   0.154  11.768 -1.7904  1.4840 -0.0854
    7MPD2    H214201   1.407   0.221  11.369  5.4836 -0.3852  0.3379
    7MPD2    H314202   1.380   0.073  11.560  1.3670 -0.7143  1.8923
    7MPD2     N14203   1.330   0.412  11.848 -0.1589 -0.2745  0.7099
    7MPD2    H514204   1.302   0.333  11.905  1.4609 -1.0494  0.4414
    7MPD2    N114205   1.433   0.480  11.375  0.5033 -0.2047  0.4460
    7MPD2    H714206   1.401   0.431  11.292 -1.5601  0.7948  0.6579
    8TMC3    C114207   1.361   0.680  11.263  0.1881 -0.3167 -0.1357
    8TMC3    C214208   1.268   0.611  11.193 -0.2138 -0.8014 -0.1728
    8TMC3    C314209   1.157   0.681  11.146 -0.1228 -0.1206 -0.0189
    8TMC3    C414210   1.349   0.815  11.283 -0.5448 -0.5903  0.5216
    8TMC3    C514211   1.235   0.888  11.235  0.1991  0.1000  0.5888
    8TMC3    C614212   1.144   0.814  11.163  0.4423 -0.3545 -0.8274
    8TMC3     C14213   1.433   0.618  11.371  0.2256  0.0645 -0.6208
    8TMC3     O14214   1.462   0.696  11.464 -0.3328  0.2228 -0.0238
    8TMC3     H14215   1.268   0.502  11.196 -0.9174 -0.8215 -1.1944
    8TMC3    H114216   1.404   0.879  11.351 -0.2285 -1.9596  1.5696
    8TMC3    H214217   1.055   0.870  11.137  0.3368  1.4389  3.4852
    8TMC3    C714218   1.164   0.950  11.351  0.2267  0.2521 -0.4800
    8TMC3    C814219   1.041   0.613  11.098  0.2858 -0.1091 -0.4930
    8TMC3    O114220   1.075   0.876  11.387  0.4393 -0.0442 -0.0068
    8TMC3    O214221   0.932   0.672  11.099 -0.4233  0.4593  0.0831
    9MPD2     C14222   1.032   0.305  10.894  0.6718 -0.0814  0.6159
    9MPD2    C114223   0.983   0.416  10.961  0.2204 -0.2173  0.0558
    9MPD2    C214224   0.848   0.440  10.948 -0.2792  0.1703 -0.4041
    9MPD2    C314225   0.770   0.345  10.887 -0.7211  0.7564  0.1584
    9MPD2    C414226   0.819   0.225  10.853 -0.6139  0.2168  0.2482
    9MPD2    C514227   0.951   0.201  10.852 -0.4972 -0.0729  0.3605
    9MPD2     H14228   0.807   0.534  10.983 -0.0823 -0.3168  1.1259
    9MPD2    H114229   0.754   0.146  10.819  0.0475 -0.5509  0.7772
    9MPD2    H214230   1.139   0.289  10.882  0.4667 -2.6376  2.3044
    9MPD2    H314231   0.995   0.120  10.795 -0.6076 -1.0026  1.5991
    9MPD2     N14232   0.629   0.352  10.884  0.6133 -0.2246 -0.4966
    9MPD2    H514233   0.586   0.271  10.841 -1.7822  1.1102 -0.6219
    9MPD2    N114234   1.074   0.505  11.027  0.4002  0.1000 -0.8478
    9MPD2    H714235   1.172   0.481  11.019  0.3635 -2.1413  5.0352
    1MPD1     C14236   4.164   4.056  17.224 -0.3166  0.0086  0.0882
    1MPD1    C114237   4.248   4.006  17.133 -0.4646 -0.9474 -1.0052
    1MPD1    C214238   4.318   3.892  17.156 -0.2465 -0.4679  0.2634
    1MPD1    C314239   4.280   3.815  17.259 -0.5877 -0.1423 -0.5043
    1MPD1    C414240   4.185   3.858  17.345  0.1722  0.0279  0.4623
    1MPD1    C514241   4.132   3.980  17.336  0.7132 -0.1917 -0.4799
    1MPD1     H14242   4.389   3.868  17.077  0.2997  0.5853  0.4405
    1MPD1    H114243   4.157   3.786  17.421  0.7307  1.5660  2.1245
    1MPD1    H214244   4.104   4.145  17.208  1.2678  1.6533  3.1540
    1MPD1    H314245   4.057   4.013  17.407  0.0226 -2.3099 -0.2206
    1MPD1     N14246   4.338   3.688  17.279 -0.0525  0.7096 -0.3072
    1MPD1    H514247   4.301   3.633  17.356 -2.2508  1.0841 -1.1071
    1MPD1    N114248   4.280   4.094  17.026 -0.5831 -0.7379  0.1358
    1MPD1    H614249   4.216   4.163  16.988 -1.0168 -0.0367  2.0951
    1MPD1    H714250   4.339   4.053  16.954  1.8442  1.4933  0.8323
    2MPD1     C14251   4.686   2.751  16.860  0.2453  0.2548 -0.0571
    2MPD1    C114252   4.571   2.745  16.932 -0.8488 -0.3089  0.4779
    2MPD1    C214253   4.516   2.862  16.994 -0.3162  0.8171 -0.5159
    2MPD1    C314254   4.586   2.983  16.985 -0.6553 -0.3471  0.5538
    2MPD1    C414255   4.700   2.987  16.914 -0.3037  0.5228  0.4024
    2MPD1    C514256   0.019   2.877  16.838 -0.3628  0.4260  0.4456
    2MPD1     H14257   4.431   2.860  17.060 -0.2381  0.5283 -0.4262
    2MPD1    H114258   0.045   3.072  16.921  1.2737 -0.5871 -1.4883
    2MPD1    H214259   4.716   2.662  16.806 -0.7890 -0.2844  0.2687
    2MPD1    H314260   0.115   2.894  16.791 -0.4237  0.5385  0.3624
    2MPD1     N14261   4.551   3.084  17.074  0.2120 -0.1037 -0.0864
    2MPD1    H514262   4.473   3.068  17.138 -1.6465  0.7293 -2.1350
    2MPD1    N114263   4.489   2.632  16.917  0.2785 -0.3104  0.0071
    2MPD1    H614264   4.539   2.544  16.904 -0.0439 -0.5277  0.2260
    2MPD1    H714265   4.426   2.616  16.996 -0.8976 -1.2959 -1.1249
    3TCq2    C114266   4.599   3.216  17.077  0.3681 -0.3531  0.4736
    3TCq2    O214267   4.655   3.277  16.988 -0.0073  0.0918  0.1348
    3TCq2    C214268   4.554   3.295  17.187  0.2870  0.0049 -0.2191
    3TCq2    C314269   4.516   3.233  17.306  0.3120 -0.1642  0.3826
    3TCq2    C414270   4.481   3.321  17.404  0.3796 -0.0562 -0.3519
    3TCq2    C514271   4.468   3.460  17.379  0.6120 -0.1489 -0.6253
    3TCq2    C614272   4.500   3.511  17.255 -0.2358  0.0534  0.4956
    3TCq2    C714273   4.554   3.433  17.164 -0.2406  0.2482 -0.1496
    3TCq2    C814274   4.441   3.631  17.198 -0.9900  0.5306 -1.1566
    3TCq2    O414275   4.487   3.678  17.094  0.1616 -0.5235  0.6387
    3TCq2    C914276   4.454   3.280  17.539  0.1711  0.5556 -0.7676
    3TCq2    O514277   4.489   3.167  17.567  0.1369  0.4400  0.3837
    3TCq2    O614278   4.399   3.363  17.621 -0.0063 -0.1799  0.3649
    3TCq2    H214279   4.519   3.128  17.333 -0.6493 -0.6628 -1.4835
    3TCq2    H314280   4.450   3.524  17.465  0.6246 -0.2954 -0.5121
    3TCq2    H414281   4.571   3.475  17.066  2.6389  0.8329  0.5819
    1TCq1    O114282   2.867   2.519  12.324  0.3450  0.5480  0.0347
    1TCq1    C114283   2.782   2.583  12.408  0.3431  0.1039 -0.1905
    1TCq1    O214284   2.685   2.652  12.372 -0.1487 -0.2807 -0.0929
    1TCq1    C214285   2.790   2.525  12.540  0.5625  0.2132 -1.0978
    1TCq1    C314286   2.678   2.516  12.613  0.3085 -0.9353  0.2300
    1TCq1    C414287   2.694   2.487  12.745 -0.0379 -0.1455  0.2328
    1TCq1    C514288   2.806   2.434  12.795 -0.3744  0.6570 -0.4504
    1TCq1    C614289   2.916   2.453  12.725 -0.0959 -0.5862  0.0110
    1TCq1    C714290   2.911   2.495  12.595  0.8676 -0.2074 -0.0541
    1TCq1    C814291   3.048   2.456  12.788 -0.1394  0.2526  0.0774
    1TCq1    O414292   3.145   2.452  12.714 -0.3121 -0.6074  0.5696
    1TCq1    C914293   2.582   2.511  12.831  0.1108  0.0883 -0.2361
    1TCq1    O514294   2.487   2.588  12.788  0.0537 -0.4869 -0.3666
    1TCq1    O614295   2.596   2.466  12.946  0.4380 -0.2979 -0.4331
    1TCq1    H114296   2.910   2.452  12.381  1.4419  1.4055  0.2287
    1TCq1    H214297   2.583   2.548  12.572 -0.2476  1.2376  3.2239
    1TCq1    H314298   2.812   2.396  12.896  0.4662  1.4299 -0.2057
    1TCq1    H414299   3.000   2.531  12.545  1.3675 -2.1476 -0.5271
    2MPD2     C14300   3.292   2.404  12.969 -0.1870 -0.2914  0.8965
    2MPD2    C114301   3.163   2.439  13.011  0.3624 -0.0009 -0.2369
    2MPD2    C214302   3.138   2.464  13.144 -0.1560  0.6972  0.1707
    2MPD2    C314303   3.235   2.461  13.237  0.3847 -0.6361 -0.1986
    2MPD2    C414304   3.368   2.431  13.193 -0.6321 -0.0347 -0.3394
    2MPD2    C514305   3.389   2.405  13.058 -0.1325  0.5471 -0.2712
    2MPD2     H14306   3.038   2.492  13.176 -0.5774  0.8052 -1.2288
    2MPD2    H114307   3.452   2.432  13.262  1.0949 -0.2314 -2.4462
    2MPD2    H214308   3.316   2.393  12.864 -3.1748  2.0118 -0.0203
    2MPD2    H314309   3.494   2.386  13.040  0.0462  0.2230  1.1073
    2MPD2     N14310   3.205   2.499  13.369  0.3194  0.5645  0.6622
    2MPD2    H514311   3.105   2.519  13.375  0.4789  1.0441  1.7603
    2MPD2    N114312   3.047   2.452  12.928 -0.0176 -0.4378 -0.0080
    2MPD2    H714313   2.959   2.459  12.978 -1.0719 -2.6857 -1.5746
    3TCq1    O114314   2.926   2.773  13.597 -0.1134 -0.3117 -0.1174
    3TCq1    C114315   2.998   2.799  13.705 -0.9818 -0.5879  0.6664
    3TCq1    O214316   2.967   2.863  13.804  0.1537  1.1434  0.1798
    3TCq1    C214317   3.107   2.705  13.706  0.6204  0.6211 -0.2615
    3TCq1    C314318   3.127   2.653  13.827 -0.5604  0.1260  0.3087
    3TCq1    C414319   3.208   2.543  13.830 -0.4999  0.2964 -0.1759
    3TCq1    C514320   3.259   2.474  13.725  0.2501  0.4894  0.5103
    3TCq1    C614321   3.228   2.528  13.602 -0.0420  0.1308  0.1293
    3TCq1    C714322   3.150   2.643  13.594 -0.3982 -0.0440 -0.3596
    3TCq1    C814323   3.285   2.474  13.477 -0.2536 -1.6307  0.4848
    3TCq1    O414324   3.378   2.390  13.489  0.1221 -0.1175  0.1437
    3TCq1    C914325   3.224   2.480  13.963  0.0019 -0.5422 -0.2427
    3TCq1    O514326   3.318   2.398  13.979 -0.2085  0.4808  0.1336
    3TCq1    O614327   3.146   2.526  14.054 -0.1306 -0.5156  0.4492
    3TCq1    H114328   2.949   2.701  13.535 -0.8381 -1.4157  0.9119
    3TCq1    H214329   3.079   2.695  13.915 -0.5200 -1.0100  0.8814
    3TCq1    H314330   3.327   2.390  13.738  0.3860  0.7535  1.4502
    3TCq1    H414331   3.135   2.697  13.501  0.9214  1.1071  0.0973
    1MPD2     C14332   3.003   3.305  14.963  0.1861  1.0545  0.3394
    1MPD2    C114333   2.956   3.174  14.957  0.0811 -0.1860  0.9287
    1MPD2    C214334   3.049   3.064  14.965  0.0168  1.0020 -0.4911
    1MPD2    C314335   3.184   3.090  14.955  0.3291 -0.5690 -0.2469
    1MPD2    C414336   3.226   3.221  14.953  0.1728 -0.2807 -0.3270
    1MPD2    C514337   3.139   3.325  14.957 -0.1449  0.0955 -1.0164
    1MPD2     H14338   3.018   2.962  14.947  0.5059  0.7416  0.1398
    1MPD2    H114339   3.330   3.247  14.942 -0.4596  1.5451 -1.9092
    1MPD2    H214340   2.936   3.389  14.945 -0.6911  0.8528  2.6628
    1MPD2    H314341   3.175   3.419  14.917  0.6564 -0.3788 -1.4009
    1MPD2     N14342   3.264   2.976  14.952 -0.0997 -0.0687  0.3772
    1MPD2    H514343   3.216   2.887  14.948  0.0768 -0.0726 -1.8494
    1MPD2    N114344   2.817   3.150  14.946  0.5626 -0.2563 -0.0437
    1MPD2    H714345   2.766   3.238  14.952 -0.9331 -1.1463  0.4172
    2TMC3    C114346   2.616   3.038  14.927 -0.5090  0.0456 -0.3995
    2TMC3    C214347   2.563   2.912  14.914 -0.1510  0.0300  0.1337
    2TMC3    C314348   2.486   2.884  14.811  0.7284 -0.6496  0.3770
    2TMC3    C414349   2.576   3.138  14.839  0.4365 -0.6793 -1.0039
    2TMC3    C514350   2.490   3.109  14.736 -0.0211 -0.9637 -1.1482
    2TMC3    C614351   2.448   2.980  14.723 -0.1794  0.0360 -0.0497
    2TMC3     C14352   2.757   3.035  14.964 -0.0407  0.1993  0.6841
    2TMC3     O14353   2.797   2.925  15.001  0.5101  0.9697  0.5051
    2TMC3     H14354   2.568   2.836  14.992  1.7967  0.8519  0.8175
    2TMC3    H114355   2.617   3.237  14.852  0.1623 -0.8212  0.9978
    2TMC3    H214356   2.391   2.954  14.635  0.4024  1.5132 -0.8705
    2TMC3    C714357   2.415   3.215  14.669  0.7548  0.1649  0.5490
    2TMC3    C814358   2.551   2.771  14.738 -0.1016 -0.0214 -0.4005
    2TMC3    O114359   2.312   3.184  14.613 -0.9923 -0.1744 -0.2432
    2TMC3    O214360   2.498   2.736  14.637 -0.5266 -0.5110 -0.2954
    3TCq1    O114361   3.050   4.010  14.746  0.0952  0.2202 -0.5077
    3TCq1    C114362   2.927   4.027  14.700  0.7346  0.2618 -0.3729
    3TCq1    O214363   2.893   4.075  14.592  0.2523 -0.2811 -0.3486
    3TCq1    C214364   2.843   3.994  14.806  0.3988  0.3262 -0.3328
    3TCq1    C314365   2.869   4.052  14.928 -0.2746  0.4807 -0.3675
    3TCq1    C414366   2.761   4.065  15.011  0.5531  0.1934  0.7812
    3TCq1    C514367   2.631   4.050  14.963 -0.9648 -0.3464  1.1171
    3TCq1    C614368   2.613   4.006  14.831  0.2731  0.1165 -0.4892
    3TCq1    C714369   2.719   3.967  14.757 -0.7471  0.0826 -0.0205
    3TCq1    C814370   2.498   3.920  14.806 -0.4384  0.2561  0.6297
    3TCq1    O414371   2.386   3.967  14.831 -0.2990  0.1623 -0.5179
    3TCq1    C914372   2.783   4.116  15.142  0.0646 -0.2932  0.4021
    3TCq1    O514373   2.898   4.106  15.190 -0.3317 -0.5583  0.7615
    3TCq1    O614374   2.688   4.161  15.208 -0.4331  0.4888  0.3829
    3TCq1    H114375   3.049   3.944  14.818 -2.2146  0.2273 -0.5222
    3TCq1    H214376   2.972   4.077  14.951  0.2873 -2.7418  0.6922
    3TCq1    H314377   2.553   4.073  15.035 -2.3145  1.1418 -0.8352
    3TCq1    H414378   2.711   3.912  14.664  1.1732 -1.9337  1.0095
    4MPD2     C14379   2.312   3.703  14.682 -0.3070 -0.6012 -0.1187
    4MPD2    C114380   2.440   3.688  14.735 -0.0746  1.2201  0.2952
    4MPD2    C214381   2.489   3.561  14.730  0.0048  0.1790 -1.2377
    4MPD2    C314382   2.415   3.460  14.678 -0.3436  0.0955  0.0193
    4MPD2    C414383   2.290   3.480  14.630 -0.4743  0.2256 -0.2869
    4MPD2    C514384   2.234   3.600  14.636  0.1813  0.6839  0.5940
    4MPD2     H14385   2.595   3.549  14.754 -0.5284  0.5418  1.3023
    4MPD2    H114386   2.230   3.394  14.602  1.1409 -0.7791 -0.6315
    4MPD2    H214387   2.274   3.804  14.671 -0.7641 -0.2812  4.1251
    4MPD2    H314388   2.134   3.622  14.600  0.1925  1.1768  0.8639
    4MPD2     N14389   2.473   3.333  14.690  0.1504 -0.3898 -0.4581
    4MPD2    H514390   2.569   3.328  14.724 -0.8039  1.5262  2.4651
    4MPD2    N114391   2.529   3.791  14.779 -0.0702  1.2999 -0.2978
    4MPD2    H714392   2.626   3.774  14.802  0.1571  2.6195 -0.3114
    5TMC2    C114393   3.327   2.651  14.868  0.1756 -0.2748  0.0058
    5TMC2    C214394   3.375   2.638  14.736 -0.5506 -0.2524  0.1129
    5TMC2    C314395   3.468   2.736  14.698 -0.5175 -0.3561  0.4058
    5TMC2    C414396   3.378   2.750  14.952  0.3789 -0.1987  0.4678
    5TMC2    C514397   3.457   2.847  14.906 -0.5255 -0.5740 -0.1104
    5TMC2    C614398   3.497   2.844  14.773  1.1171  0.7175 -0.3598
    5TMC2     C14399   3.180   2.646  14.876  0.0802 -0.1089  0.1083
    5TMC2     O14400   3.135   2.727  14.960  0.1480 -0.9207 -0.0554
    5TMC2     H14401   3.339   2.577  14.654  3.6670 -3.0600  0.3475
    5TMC2    H114402   3.350   2.750  15.057  2.4193 -4.3603  0.9829
    5TMC2    H214403   3.563   2.920  14.733  0.8670  0.7232 -0.7590
    5TMC2    C714404   3.402   2.982  14.932  0.4291 -0.3613  0.0898
    5TMC2    C814405   3.511   2.739  14.564  0.2938 -0.1697 -0.4010
    5TMC2    O114406   3.479   3.077  14.903  0.3469 -0.1705 -0.0301
    5TMC2    O214407   3.554   2.637  14.523 -0.4134  0.3084  0.6748
    5TMC2    O514408   3.432   2.828  14.494  0.1608  0.0711  0.3992
    5TMC2    H514409   3.393   2.894  14.556 -0.4421 -0.3664  0.4853
    6MPD2     C14410   2.735   2.549  14.652 -0.4888 -0.2153  0.8958
    6MPD2    C114411   2.769   2.649  14.742  0.8700  0.0007 -0.4155
    6MPD2    C214412   2.896   2.654  14.790  0.3299  0.0859 -0.0316
    6MPD2    C314413   2.981   2.553  14.753  0.0271  0.1395 -0.3126
    6MPD2    C414414   2.947   2.453  14.667 -0.0401  0.4121 -0.4465
    6MPD2    C514415   2.820   2.452  14.612  0.2699 -0.7626  0.3933
    6MPD2     H14416   2.927   2.735  14.854  0.9905  1.1093 -1.6489
    6MPD2    H114417   3.023   2.387  14.626  1.4782  2.0264 -0.1925
    6MPD2    H214418   2.636   2.532  14.613 -1.0653  0.9286  1.8276
    6MPD2    H314419   2.789   2.365  14.555 -0.6996 -1.7330  2.3859
    6MPD2     N14420   3.121   2.555  14.791  0.2685 -0.1932  0.5970
    6MPD2    H514421   3.173   2.478  14.750  1.8851  0.8602  0.6664
    6MPD2    N114422   2.681   2.751  14.792  0.4454  0.9169 -0.0348
    6MPD2    H714423   2.705   2.793  14.881 -1.3383 -1.1390  1.4131
  945NH4     N114424   3.068   0.053   7.452 -0.2196  0.0685  0.4249
  945NH4     H214425   3.038   0.125   7.520 -0.0649 -1.2928  1.9502
  945NH4     H314426   3.166   0.037   7.483 -0.6559  0.6793  2.1204
  945NH4     H414427   3.050   0.074   7.352  1.7079 -0.9137 -0.1349
  945NH4     H514428   3.019   4.689   7.480 -1.0850  0.0241 -1.2230
  946SOD     NA14429   3.919   2.308   2.869 -0.0614  0.1584  0.0762
  947SOD     NA14430   1.126   4.322   2.106  1.2015 -0.1435 -0.2950
  948SOD     NA14431   0.365   2.884   0.077 -0.3388  0.3544  0.0610
  949SOD     NA14432   2.736   0.962   1.399 -0.1380 -0.3841  0.1356
  950SOD     NA14433   4.025   3.700   0.292  0.0956 -0.1019  0.0965
  951SOD     NA14434   2.655   2.215  10.292  0.6279 -0.0638  0.6612
  952SOD     NA14435   1.894   2.809   2.711 -0.2598 -0.8667  0.1998
  953SOD     NA14436   4.407   2.959  11.433  0.1338 -0.2421  0.1171
  954SOD     NA14437   3.865   2.765  13.365 -0.5210 -0.4823  0.0434
  955SOD     NA14438   4.661   1.825   0.833 -0.5597 -0.1161  0.5367
  956SOD     NA14439   0.722   3.610  14.787  0.1335 -0.1669 -0.1416
  957SOD     NA14440   1.604   1.839   2.611  0.7861 -0.5005  0.4699
  958SOD     NA14441   3.881   0.170   7.727  0.3123  0.0454 -0.0912
  959SOD     NA14442   2.026   0.011  14.903 -0.8610 -0.3944 -0.2764
  960SOD     NA14443   1.878   3.013   5.713 -0.2897 -0.1167 -0.1116
  961SOD     NA14444   2.518   3.421   9.940  0.2734  0.1127 -0.6177
  962SOD     NA14445   2.370   0.938  10.565 -0.0579  0.4725 -0.4580
  963SOD     NA14446   3.966   1.853   2.432 -0.0528  0.2608  0.2975
  964SOD     NA14447   3.425   4.199  10.912  0.3752 -0.7922  0.2285
  965SOD     NA14448   0.027   2.335  13.609  0.0595 -0.5823  0.3777
  966SOD     NA14449   4.628   2.711   0.223 -0.1932  0.1974 -0.3338
  967SOD     NA14450   3.569   0.573   6.095 -0.0244 -0.4269  0.0046
  968SOD     NA14451   2.974   2.323  10.376  0.1759 -0.1521 -0.2620
  969SOD     NA14452   2.094   2.455  12.924  0.1616 -0.2469  0.0933
  970SOD     NA14453   4.715   1.440  17.633 -0.0982 -0.1689  0.0635
  971SOD     NA14454   1.210   4.310  13.779  0.4392  0.6424 -0.2986
  972SOD     NA14455   4.522   3.718  14.820 -0.2073 -0.3002  0.0644
  973SOD     NA14456   1.937   2.774  11.112 -0.2651 -0.4498  0.0630
  974SOD     NA14457   2.605   1.823  10.288  0.4469  0.3566  0.2913
  975SOD     NA14458   4.059   4.470  15.489 -0.1907 -0.0685  0.5231
  976SOD     NA14459   1.660   0.953  12.141 -0.1344  0.1569 -0.1236
  977SOD     NA14460   3.993   1.106  16.727  0.3279  0.8690 -0.0221
  978SOD     NA14461   3.769   4.086  12.350  0.0678 -0.2663 -0.1669
  979SOD     NA14462   0.088   3.742   7.140  0.3194  0.4526 -0.4862
  980SOD     NA14463   1.028   1.527  13.469 -0.1357 -0.8104 -0.2361
  981SOD     NA14464   1.686   0.791   1.356 -0.0878 -0.0805 -0.0915
  982SOD     NA14465   1.184   1.321  17.263  0.1490  0.3018 -0.4948
  983SOD     NA14466   4.551   3.989   3.462 -0.1328 -0.0445 -0.2700
  984SOD     NA14467   4.003   2.466  12.896  0.1339 -0.6711 -0.3605
  985SOD     NA14468   3.487   3.170  11.524  0.2218  0.1744  0.4656
  986SOD     NA14469   3.547   3.248  15.364 -0.1662 -0.5930 -0.4780
  987SOD     NA14470   0.758   3.658   9.154  0.0949  0.7142 -0.2065
  988SOD     NA14471   1.733   2.635  11.331 -0.3124 -0.2945 -0.4562
  989SOD     NA14472   3.638   2.860   9.438 -0.3060  0.3113 -0.5840
  990SOD     NA14473   2.922   2.023  10.337 -0.0543  0.3601  0.0190
  991SOD     NA14474   4.096   2.395  14.157  0.3732  0.1634  0.1843
  992SOD     NA14475   3.000   2.562  14.202  0.0799 -0.1571 -0.0119
  993SOD     NA14476   0.006   1.477  14.377  0.3085  0.2705 -0.0863
  994SOD     NA14477   2.997   3.953  15.297 -0.0543 -0.2092 -0.0105
  995SOD     NA14478   3.868   2.230  11.235  0.2273 -0.2319  0.0180
  996SOD     NA14479   2.584   2.263  13.017 -0.0429  0.2745 -0.1659
  997SOD     NA14480   3.738   3.604   0.174  0.0006 -0.3497 -0.1341
  998SOD     NA14481   2.483   3.691  11.000  0.1115  0.2639 -0.0189
  999SOD     NA14482   2.509   0.902  10.281  0.7124  0.1605 -0.2933
 1000SOD     NA14483   3.420   2.895  11.597  0.6213  0.0793 -0.0151
 1001SOD     NA14484   3.356   1.280   2.787  0.2245  0.8456  0.1416
 1002SOD     NA14485   2.858   1.541   5.296 -0.2193 -0.3036  0.4584
 1003SOD     NA14486   3.192   2.619   0.366  0.2249 -0.4225 -0.1697
 1004SOD     NA14487   0.868   3.902  13.925 -0.2932  0.2076 -0.0526
 1005SOD     NA14488   1.615   2.346  12.642 -0.5395 -0.2677  0.2681
 1006SOD     NA14489   1.726   3.293  13.925 -0.2064 -0.5442  0.2871
 1007SOD     NA14490   0.498   0.059   8.910  0.5654  0.0786  0.0408
 1008SOD     NA14491   2.085   4.019  15.693  0.1463  0.1341 -0.2053
 1009SOD     NA14492   4.714   3.425  10.885  0.2148  0.4046  0.3296
 1010SOD     NA14493   1.531   3.307  12.422  0.3515  0.0166 -0.3287
 1011SOL     OW14494   0.912   0.003  13.754  0.5364  0.5086 -0.4589
 1011SOL    HW114495   0.828   0.023  13.712  0.4707  0.1581 -0.4928
 1011SOL    HW214496   0.885   4.710  13.844  1.8391 -0.6288 -0.2808
 1012SOL     OW14497   2.442   0.906   7.414 -0.2210 -0.2712  0.5216
 1012SOL    HW114498   2.507   0.970   7.442 -1.0358  1.0579 -0.6167
 1012SOL    HW214499   2.495   0.840   7.369  0.0653 -0.5453  1.2583
 1013SOL     OW14500   0.204   3.319  11.738 -0.8640 -0.6242  0.2057
 1013SOL    HW114501   0.131   3.289  11.792  0.6249 -1.4696  1.7526
 1013SOL    HW214502   0.278   3.310  11.798 -0.7771 -1.0330  0.0403
 1014SOL     OW14503   0.191   4.299   7.531  0.2554 -0.9628  0.5566
 1014SOL    HW114504   0.261   4.237   7.511  0.3869 -0.1345 -1.5196
 1014SOL    HW214505   0.233   4.350   7.601 -0.3643 -0.6793  0.7274
 1015SOL     OW14506   0.797   0.817   7.123  0.0509 -0.8873  0.0363
 1015SOL    HW114507   0.791   0.905   7.087 -0.2514 -0.6650  0.6489
 1015SOL    HW214508   0.703   0.803   7.137 -0.3186  1.6258  0.0104
 1016SOL     OW14509   1.018   0.113   5.022 -0.9380 -0.0353  0.3750
 1016SOL    HW114510   1.031   0.207   5.026  1.3747 -0.3022 -0.5569
 1016SOL    HW214511   1.031   0.101   4.927  0.5250  1.4121  0.4095
 1017SOL     OW14512   4.052   3.006   1.517  0.5613  0.5830  0.1676
 1017SOL    HW114513   4.107   3.014   1.439  0.6125  1.2867  0.2777
 1017SOL    HW214514   4.008   2.924   1.495 -0.9723  1.1020  1.3277
 1018SOL     OW14515   0.982   0.844   8.860 -0.0328  0.0383  0.1608
 1018SOL    HW114516   0.889   0.832   8.877 -0.1233 -0.6700 -0.7989
 1018SOL    HW214517   1.012   0.870   8.947  0.5645 -2.5411  0.7150
 1019SOL     OW14518   2.008   3.231   4.147  0.3793  0.0518  0.0044
 1019SOL    HW114519   1.941   3.279   4.098  0.8506 -0.9988 -1.6499
 1019SOL    HW214520   2.087   3.246   4.095  0.6634  1.4213  0.8259
 1020SOL     OW14521   2.920   1.808   4.345 -0.4482 -0.1125 -0.4756
 1020SOL    HW114522   2.993   1.814   4.407 -1.7900  1.8326  0.9333
 1020SOL    HW214523   2.853   1.774   4.405  0.4188 -1.0160 -0.0095
 1021SOL     OW14524   1.660   4.081   3.519 -0.0066  0.5395 -0.4221
 1021SOL    HW114525   1.707   4.014   3.469  0.1780 -0.3866  0.9969
 1021SOL    HW214526   1.650   4.153   3.456  2.1321  0.9055 -0.3290
 1022SOL     OW14527   4.505   2.071  10.502 -0.3481  0.1617  0.4688
 1022SOL    HW114528   4.535   1.981  10.494 -2.9020 -0.5490 -1.1754
 1022SOL    HW214529   4.442   2.072  10.430 -2.1350 -0.7883  2.0355
 1023SOL     OW14530   0.559   0.997   6.521  0.0123 -0.0696 -0.2200
 1023SOL    HW114531   0.491   1.028   6.462 -1.4137 -0.6008  1.1311
 1023SOL    HW214532   0.601   0.926   6.474 -0.6858 -1.5456  1.3707
 1024SOL     OW14533   0.288   0.176   4.835 -0.3092 -0.2951  0.1839
 1024SOL    HW114534   0.285   0.128   4.918 -1.7877  2.0527  1.4844
 1024SOL    HW214535   0.362   0.132   4.793  0.7088  0.1606  1.5201
 1025SOL     OW14536   0.822   2.125   2.654 -0.0494 -0.2255  0.6478
 1025SOL    HW114537   0.729   2.148   2.662 -0.1384 -0.1741 -0.5660
 1025SOL    HW214538   0.818   2.036   2.620 -2.3918  0.2270 -0.2724
 1026SOL     OW14539   1.440   0.255   2.718  0.1075  0.2117 -0.0845
 1026SOL    HW114540   1.365   0.289   2.766  0.4297  0.3981  0.2883
 1026SOL    HW214541   1.424   0.280   2.627 -0.6733  0.8877  0.2391
 1027SOL     OW14542   3.179   1.785   9.170 -0.5381 -0.3281  0.3295
 1027SOL    HW114543   3.110   1.850   9.180 -1.4032 -1.3456  0.9482
 1027SOL    HW214544   3.171   1.748   9.258 -0.4071  2.1290  1.3649
 1028SOL     OW14545   2.149   2.114   2.577  0.6397  0.4207 -0.3340
 1028SOL    HW114546   2.198   2.189   2.544 -1.4266  1.3993 -1.2061
 1028SOL    HW214547   2.090   2.112   2.502  1.9013  2.7513 -1.3811
 1029SOL     OW14548   3.763   3.531   6.467  0.4497 -0.0237  0.5571
 1029SOL    HW114549   3.858   3.524   6.477  0.7456  2.3532 -0.6618
 1029SOL    HW214550   3.751   3.473   6.392  2.2242  0.9696 -0.4983
 1030SOL     OW14551   1.642   0.278  15.477 -0.4059  0.4294 -0.1485
 1030SOL    HW114552   1.617   0.365  15.508 -0.2205  0.9522 -1.4493
 1030SOL    HW214553   1.630   0.232  15.560 -0.2528  0.7526  0.0556
 1031SOL     OW14554   1.920   2.144  13.484 -0.2335 -0.2509 -0.1483
 1031SOL    HW114555   1.832   2.137  13.521  0.1668 -2.3397  0.4167
 1031SOL    HW214556   1.942   2.054  13.505 -0.1847  0.8211  4.3401
 1032SOL     OW14557   4.109   3.485   2.110 -0.1792  0.4327 -0.4704
 1032SOL    HW114558   4.176   3.428   2.071 -1.2098 -1.0919 -0.0354
 1032SOL    HW214559   4.028   3.476   2.060  1.1111  1.0700 -2.7099
 1033SOL     OW14560   0.246   2.333   2.365 -0.6492 -0.1115 -0.6475
 1033SOL    HW114561   0.295   2.259   2.400 -0.0188  1.4186  1.7006
 1033SOL    HW214562   0.168   2.336   2.421 -0.3290 -0.2349 -0.2057
 1034SOL     OW14563   4.045   0.805   2.902 -0.4660  0.0799 -0.1806
 1034SOL    HW114564   4.075   0.740   2.965 -0.5703 -0.6748 -0.9081
 1034SOL    HW214565   4.011   0.743   2.838 -2.8449 -2.0099  3.0909
 1035SOL     OW14566   4.567   2.213   1.836  0.1004 -0.0521 -0.0901
 1035SOL    HW114567   4.474   2.233   1.832  0.0384 -0.3575 -0.2063
 1035SOL    HW214568   4.587   2.260   1.917 -2.1559  1.6023 -0.5137
 1036SOL     OW14569   1.501   1.689   5.785  0.1107  0.0711  0.3539
 1036SOL    HW114570   1.522   1.782   5.792  0.3203  0.0267  0.3190
 1036SOL    HW214571   1.407   1.679   5.799  0.3507 -0.4661  1.6321
 1037SOL     OW14572   2.647   4.309   4.373 -0.4284  0.7402 -0.1341
 1037SOL    HW114573   2.684   4.292   4.460  0.7006  1.3912 -0.4863
 1037SOL    HW214574   2.695   4.248   4.318  1.1353  0.2411  1.7745
 1038SOL     OW14575   3.597   0.319   3.200 -0.4514  0.9256  0.3402
 1038SOL    HW114576   3.632   0.266   3.129  1.3593  0.3339  1.6483
 1038SOL    HW214577   3.503   0.317   3.186 -0.5054  1.1436  0.6684
 1039SOL     OW14578   2.413   1.101   8.467 -0.1918  0.0306  0.2664
 1039SOL    HW114579   2.450   1.015   8.486  0.0279  0.3362  1.2118
 1039SOL    HW214580   2.485   1.149   8.427 -0.3254  0.5628  0.6748
 1040SOL     OW14581   3.965   3.279   8.705 -0.4874  0.3998  0.3686
 1040SOL    HW114582   3.882   3.324   8.721 -1.8884 -2.1803  0.4267
 1040SOL    HW214583   4.018   3.354   8.730  0.0537  0.2203 -0.2347
 1041SOL     OW14584   4.586   1.893   7.041 -0.2333 -0.1086  0.1541
 1041SOL    HW114585   4.641   1.840   6.984 -2.8128  0.2508 -2.6283
 1041SOL    HW214586   4.543   1.831   7.099  0.5804 -1.8130 -1.0908
 1042SOL     OW14587   0.242   3.611   8.850  0.1374 -0.5467  0.2096
 1042SOL    HW114588   0.176   3.681   8.848 -0.1991 -0.8443  0.8387
 1042SOL    HW214589   0.315   3.651   8.803  1.0781 -3.2237 -0.5705
 1043SOL     OW14590   2.613   2.284   2.711 -0.2948  0.4096  0.3802
 1043SOL    HW114591   2.567   2.275   2.794 -0.5601  2.0518  0.4167
 1043SOL    HW214592   2.591   2.211   2.654  0.6181 -0.1711  0.7665
 1044SOL     OW14593   4.330   2.749  17.328  0.1417  0.6121  0.8399
 1044SOL    HW114594   4.313   2.831  17.280  1.2083  0.2445 -0.1533
 1044SOL    HW214595   4.264   2.744  17.397 -0.2867  1.9911  0.5447
 1045SOL     OW14596   2.749   2.138   5.749  0.0237 -0.4619 -0.5051
 1045SOL    HW114597   2.698   2.127   5.829  0.9408  0.1060  0.1601
 1045SOL    HW214598   2.826   2.082   5.762  0.1917  0.5692  3.1755
 1046SOL     OW14599   2.742   1.521   2.980 -0.5369 -0.3501 -0.2152
 1046SOL    HW114600   2.806   1.451   2.972  0.9977  0.7590  2.2232
 1046SOL    HW214601   2.795   1.586   2.933 -1.2204  0.1118 -0.3498
 1047SOL     OW14602   3.746   4.173   3.569  0.2741 -0.2102 -0.6196
 1047SOL    HW114603   3.754   4.255   3.521  1.0331  2.0739  3.4142
 1047SOL    HW214604   3.778   4.202   3.654  0.0035  0.7108 -0.8365
 1048SOL     OW14605   3.415   2.196   7.079  0.9923 -0.1143  0.2747
 1048SOL    HW114606   3.378   2.108   7.088  3.2941 -1.1969 -0.7211
 1048SOL    HW214607   3.415   2.202   6.984  1.6672  0.0566  0.2838
 1049SOL     OW14608   4.256   1.371   4.148 -0.4621  0.0312 -0.2431
 1049SOL    HW114609   4.238   1.277   4.147 -0.6976  0.0700  0.4527
 1049SOL    HW214610   4.249   1.395   4.056  0.0080 -0.6441 -0.4520
 1050SOL     OW14611   1.744   4.079   6.032 -0.3504  0.6675  0.0568
 1050SOL    HW114612   1.676   4.125   5.983 -1.8866 -1.0941  0.5182
 1050SOL    HW214613   1.797   4.036   5.965 -1.3969  2.2464 -1.7679
 1051SOL     OW14614   2.732   3.495   4.831  0.8627  0.0751 -0.3973
 1051SOL    HW114615   2.692   3.430   4.773  0.4304 -0.6733  0.7533
 1051SOL    HW214616   2.749   3.576   4.782  2.7591  0.2564  0.5466
 1052SOL     OW14617   2.530   2.243  16.407 -0.5915 -0.2585  0.2420
 1052SOL    HW114618   2.455   2.245  16.466  0.0129  0.8575  0.9781
 1052SOL    HW214619   2.501   2.169  16.354  0.1116  1.3452 -2.3971
 1053SOL     OW14620   2.609   4.140   2.979 -0.1448  0.0930  0.4480
 1053SOL    HW114621   2.542   4.195   3.018  1.4411  1.8556  0.6964
 1053SOL    HW214622   2.555   4.063   2.962  0.4338 -0.2561  0.1854
 1054SOL     OW14623   2.678   1.098   9.756 -0.4238  0.4633 -0.3615
 1054SOL    HW114624   2.671   1.185   9.716 -2.5915  0.2133 -0.5156
 1054SOL    HW214625   2.629   1.105   9.837 -1.2402  3.0446 -1.0874
 1055SOL     OW14626   4.431   3.892   1.821 -0.3651  0.0858  0.5342
 1055SOL    HW114627   4.402   3.974   1.781 -0.9791  0.2156  1.2238
 1055SOL    HW214628   4.499   3.920   1.883  0.0399  1.5549 -0.6008
 1056SOL     OW14629   2.598   3.889   3.975 -0.1063 -0.6700 -0.6714
 1056SOL    HW114630   2.647   3.890   4.057 -1.8064 -0.1656  0.3384
 1056SOL    HW214631   2.505   3.894   3.998  0.5262  0.5268  1.5797
 1057SOL     OW14632   3.221   4.222   5.480  0.3793 -0.8715  0.7401
 1057SOL    HW114633   3.154   4.240   5.546  0.0576  0.5737  0.0212
 1057SOL    HW214634   3.237   4.314   5.457  1.4232 -1.8110 -2.2420
 1058SOL     OW14635   3.142   1.461   7.224 -0.2255  0.1687  0.3077
 1058SOL    HW114636   3.116   1.504   7.142  2.9197 -1.3199 -1.4357
 1058SOL    HW214637   3.107   1.373   7.210 -2.2466  1.0587 -0.3024
 1059SOL     OW14638   4.010   3.713   3.840 -0.3773 -0.4449 -0.2065
 1059SOL    HW114639   3.962   3.702   3.922  0.5556 -0.6584  0.3147
 1059SOL    HW214640   4.080   3.647   3.840  0.6506  0.6624 -0.5858
 1060SOL     OW14641   2.015   0.196   2.712  0.2840 -0.3586 -0.1081
 1060SOL    HW114642   2.091   0.241   2.674  1.3245 -0.6268  1.6578
 1060SOL    HW214643   1.940   0.242   2.675  0.5505  2.3327  2.6821
 1061SOL     OW14644   3.478   4.142  13.863  0.4588 -0.2243 -0.1334
 1061SOL    HW114645   3.432   4.072  13.818 -1.2179 -0.2225  1.6058
 1061SOL    HW214646   3.459   4.129  13.956 -1.9601  0.3322 -0.5545
 1062SOL     OW14647   1.647   0.312  10.887  0.1520 -0.0629 -0.0172
 1062SOL    HW114648   1.597   0.274  10.959  0.3242  2.9218  1.6685
 1062SOL    HW214649   1.729   0.338  10.930  0.8630 -0.9696 -0.7980
 1063SOL     OW14650   4.599   0.641   6.918  0.1381  0.6020 -0.0947
 1063SOL    HW114651   4.513   0.659   6.957  0.7948  2.3816  0.5167
 1063SOL    HW214652   4.575   0.566   6.863 -0.0082 -0.9524  2.0822
 1064SOL     OW14653   0.561   2.446   7.969 -0.1151  0.3983  0.7845
 1064SOL    HW114654   0.648   2.417   7.941 -0.5872 -1.4417  1.2372
 1064SOL    HW214655   0.573   2.458   8.063 -1.0340  4.9317  0.3032
 1065SOL     OW14656   0.714   3.830   1.966 -0.3746 -0.3896 -0.7588
 1065SOL    HW114657   0.771   3.844   1.891  0.2760  0.2331 -0.1594
 1065SOL    HW214658   0.777   3.789   2.025  0.0238  1.1256 -0.1185
 1066SOL     OW14659   0.755   0.237   3.163 -0.6548 -0.4676 -0.7999
 1066SOL    HW114660   0.814   0.312   3.167  1.3602 -2.1993  1.8798
 1066SOL    HW214661   0.673   0.285   3.167  1.2631  2.8752 -2.2974
 1067SOL     OW14662   3.326   1.528   4.705 -0.0933 -0.7527  0.0448
 1067SOL    HW114663   3.253   1.470   4.686 -1.6111  0.2724  2.8247
 1067SOL    HW214664   3.383   1.478   4.763  1.2572  0.0936 -0.5398
 1068SOL     OW14665   3.560   1.702   7.374  0.8158 -0.2372  0.6377
 1068SOL    HW114666   3.576   1.762   7.300 -1.2221 -1.4096 -0.7427
 1068SOL    HW214667   3.475   1.676   7.340  1.9287 -1.9776 -0.8013
 1069SOL     OW14668   1.870   4.236  17.546 -0.0693 -0.0540  0.3509
 1069SOL    HW114669   1.856   4.232  17.640 -0.8401 -0.3226  0.2255
 1069SOL    HW214670   1.914   4.152  17.533  0.4665  0.2307  0.3422
 1070SOL     OW14671   1.109   4.706   6.777  0.2363 -0.4850 -0.1522
 1070SOL    HW114672   1.088   4.617   6.748 -0.6031  0.6111 -2.9127
 1070SOL    HW214673   1.022   0.023   6.778 -0.4928 -2.0504 -0.0654
 1071SOL     OW14674   1.055   0.444   0.569  0.6731  0.6327  0.1077
 1071SOL    HW114675   0.962   0.448   0.592  0.7463  1.3639  0.2651
 1071SOL    HW214676   1.066   0.349   0.556 -1.8124  0.2644  0.5773
 1072SOL     OW14677   0.376   2.454  13.718 -0.2551  0.7919  0.1140
 1072SOL    HW114678   0.300   2.469  13.662  0.7017  1.5223 -0.9767
 1072SOL    HW214679   0.369   2.361  13.739  0.1797  0.8964  0.7176
 1073SOL     OW14680   0.452   0.560   2.284  0.5986 -0.1288  0.2179
 1073SOL    HW114681   0.433   0.491   2.220 -1.1600  0.4391  0.1240
 1073SOL    HW214682   0.410   0.637   2.247 -0.6802 -0.0629  1.8049
 1074SOL     OW14683   1.601   1.795   3.114  0.4307 -0.1196  0.2228
 1074SOL    HW114684   1.587   1.754   3.199 -0.1226  0.7352  0.5376
 1074SOL    HW214685   1.514   1.771   3.080  1.2960  1.1427 -2.9349
 1075SOL     OW14686   1.278   1.505  17.611  0.1087 -0.0767  0.4197
 1075SOL    HW114687   1.320   1.576  17.659 -2.0787  0.3409  1.7559
 1075SOL    HW214688   1.195   1.500  17.660  0.3604 -0.1139  0.8427
 1076SOL     OW14689   2.536   2.104   9.164 -0.5416  0.1053  0.4508
 1076SOL    HW114690   2.489   2.144   9.237  1.4700  0.6319  1.4458
 1076SOL    HW214691   2.543   2.014   9.196  0.6821  0.3136  0.7565
 1077SOL     OW14692   4.496   0.506   2.183  0.0551  0.0479  0.7157
 1077SOL    HW114693   4.588   0.482   2.178 -0.1026 -0.1302 -1.2154
 1077SOL    HW214694   4.490   0.574   2.251  4.6298  0.7468  0.4343
 1078SOL     OW14695   3.379   1.662   8.024  0.2379  0.2897  0.5215
 1078SOL    HW114696   3.440   1.608   8.074 -1.4649 -0.0479  2.2516
 1078SOL    HW214697   3.312   1.674   8.092 -0.8775  1.9952 -0.9013
 1079SOL     OW14698   2.288   3.127   3.639 -0.3288  0.1301  0.6185
 1079SOL    HW114699   2.382   3.129   3.657 -0.0986  1.9783 -0.7671
 1079SOL    HW214700   2.268   3.218   3.664  1.2909  0.6891 -0.1219
 1080SOL     OW14701   0.214   3.859  14.685 -0.0648 -0.1097 -0.1044
 1080SOL    HW114702   0.262   3.776  14.686 -2.1262 -1.3014  3.2047
 1080SOL    HW214703   0.174   3.851  14.599 -1.7301  1.1285  0.5672
 1081SOL     OW14704   3.003   3.929   6.562 -0.4409 -0.9447 -0.5373
 1081SOL    HW114705   2.977   3.929   6.654  1.8212 -0.4131  0.0874
 1081SOL    HW214706   3.097   3.939   6.573 -1.0210  0.5001  3.0847
 1082SOL     OW14707   0.530   1.269  14.830  0.1131 -1.2242 -0.2480
 1082SOL    HW114708   0.464   1.284  14.898  1.2836 -2.4241  1.1465
 1082SOL    HW214709   0.509   1.184  14.791 -0.5892 -0.2912 -1.9373
 1083SOL     OW14710   4.455   1.911  11.729  0.9576 -0.1660  0.8720
 1083SOL    HW114711   4.412   1.836  11.771  0.5165  0.5238  1.6540
 1083SOL    HW214712   4.381   1.964  11.697  2.0881  0.3380 -0.9042
 1084SOL     OW14713   2.488   3.144   8.836 -0.5340  0.4639 -0.0220
 1084SOL    HW114714   2.566   3.198   8.821 -0.0547 -0.5718 -1.3722
 1084SOL    HW214715   2.412   3.201   8.829 -2.7367 -2.7874 -2.7030
 1085SOL     OW14716   1.639   0.493  16.375  0.9009 -0.3326  0.0490
 1085SOL    HW114717   1.553   0.472  16.410 -0.1861 -0.8502 -2.9336
 1085SOL    HW214718   1.684   0.533  16.450 -1.8152  1.1603  0.8637
 1086SOL     OW14719   3.833   3.411   3.112 -0.1210 -0.7864  0.2671
 1086SOL    HW114720   3.770   3.420   3.041  1.8383  0.5740 -1.2945
 1086SOL    HW214721   3.900   3.475   3.087  1.5394 -1.5056  2.8305
 1087SOL     OW14722   2.485   0.259   7.223 -0.2137 -0.3036  0.1799
 1087SOL    HW114723   2.423   0.322   7.261 -1.8285 -0.6794 -1.8841
 1087SOL    HW214724   2.565   0.306   7.247 -1.3199  1.8621 -0.3793
 1088SOL     OW14725   4.322   0.303   9.286 -0.3927  0.5391  0.7022
 1088SOL    HW114726   4.391   0.236   9.286 -0.8060  0.1100 -1.4343
 1088SOL    HW214727   4.294   0.307   9.194 -1.6752  2.6234  1.1854
 1089SOL     OW14728   0.538   0.035  12.091 -0.0430 -0.0872  0.2505
 1089SOL    HW114729   0.485   4.681  12.110 -0.3140  0.1905  0.5958
 1089SOL    HW214730   0.470   0.095  12.121  1.0411  0.4823  1.5328
 1090SOL     OW14731   1.300   3.606   3.311 -0.2171  0.3577  0.1067
 1090SOL    HW114732   1.211   3.584   3.340 -0.0540  0.8587  0.9872
 1090SOL    HW214733   1.285   3.601   3.217 -2.0796  0.1502  0.4096
 1091SOL     OW14734   3.437   4.149   0.623 -0.0668 -0.2456  0.8782
 1091SOL    HW114735   3.360   4.178   0.671  0.0041 -1.8903  1.9704
 1091SOL    HW214736   3.499   4.110   0.685 -0.1633 -0.2782  0.9535
 1092SOL     OW14737   3.828   3.410   7.690 -0.1645  0.5197 -0.2183
 1092SOL    HW114738   3.896   3.426   7.755 -0.7659  0.2533  0.4768
 1092SOL    HW214739   3.877   3.424   7.609  0.3715 -1.9078 -0.3055
 1093SOL     OW14740   0.112   0.732   4.669  0.1767 -0.3417 -0.1262
 1093SOL    HW114741   0.082   0.769   4.752  0.1693 -0.0162 -0.2750
 1093SOL    HW214742   0.179   0.667   4.693 -1.0919 -0.8969  1.8877
 1094SOL     OW14743   4.139   1.122   4.094  0.2011  0.0356 -0.3527
 1094SOL    HW114744   4.148   1.098   4.002 -0.6052 -1.1652 -0.1233
 1094SOL    HW214745   4.045   1.107   4.111  0.3730 -4.7358 -3.7901
 1095SOL     OW14746   2.027   1.286  15.776  0.7599 -0.0005 -0.2543
 1095SOL    HW114747   2.040   1.335  15.695  0.3106 -0.3681 -0.5490
 1095SOL    HW214748   1.973   1.212  15.749 -0.7653  1.1820 -0.4019
 1096SOL     OW14749   4.471   4.368   0.083 -0.6065 -0.2293 -0.1029
 1096SOL    HW114750   4.524   4.443   0.057 -0.4291 -0.3648 -0.1294
 1096SOL    HW214751   4.470   4.313   0.005 -0.7290 -1.7912  0.9799
 1097SOL     OW14752   4.539   4.412   9.943  0.1916  0.3363 -0.1425
 1097SOL    HW114753   4.619   4.444   9.901  0.3866  0.7423  0.5510
 1097SOL    HW214754   4.527   4.328   9.899 -0.7702  0.9867 -1.1325
 1098SOL     OW14755   0.640   3.046   2.311  0.1882  0.0508 -0.5883
 1098SOL    HW114756   0.669   2.984   2.378 -2.5425 -1.2264 -0.5561
 1098SOL    HW214757   0.545   3.037   2.324  0.2098  0.3383 -0.2543
 1099SOL     OW14758   1.316   1.285  17.463  0.1330 -0.2201 -0.0139
 1099SOL    HW114759   1.306   1.367  17.513  3.1605  0.5007 -0.5875
 1099SOL    HW214760   1.285   1.218  17.524  1.9004 -1.2058 -0.2205
 1100SOL     OW14761   0.274   0.236   3.535 -0.0705  0.0453  0.0274
 1100SOL    HW114762   0.237   0.192   3.611  0.4449  2.0132  1.4409
 1100SOL    HW214763   0.254   0.327   3.557  1.9271  0.1598  1.3510
 1101SOL     OW14764   3.871   1.689   1.544  0.0765 -0.1489  0.3809
 1101SOL    HW114765   3.895   1.596   1.541  1.4682  0.2536 -1.0242
 1101SOL    HW214766   3.896   1.721   1.457 -1.6535 -1.9940 -0.8139
 1102SOL     OW14767   2.368   0.422  16.979  0.1585 -0.2630 -0.4166
 1102SOL    HW114768   2.454   0.418  16.937 -1.6523 -1.0735 -3.9964
 1102SOL    HW214769   2.320   0.458  16.905  0.1999  2.4215  0.8423
 1103SOL     OW14770   4.523   3.869   0.549 -0.1562 -0.7672  0.6133
 1103SOL    HW114771   4.560   3.956   0.563  2.3950 -1.5853 -1.2015
 1103SOL    HW214772   4.454   3.855   0.614 -1.1595  0.9850 -0.0522
 1104SOL     OW14773   1.588   1.635   7.800 -0.0482 -0.0920  0.3623
 1104SOL    HW114774   1.512   1.666   7.848  0.0958 -0.6212  0.9276
 1104SOL    HW214775   1.594   1.547   7.838 -1.4406 -0.7095 -0.8354
 1105SOL     OW14776   3.810   3.517   0.807  0.0327 -0.7897  0.3621
 1105SOL    HW114777   3.885   3.488   0.756 -0.6567 -1.3599 -0.3400
 1105SOL    HW214778   3.831   3.499   0.898  0.7202 -4.2827 -0.4689
 1106SOL     OW14779   1.197   1.419   0.870  0.5036 -0.0788  0.0048
 1106SOL    HW114780   1.157   1.434   0.784 -0.2896  1.1217  0.5771
 1106SOL    HW214781   1.146   1.479   0.924 -0.3676 -1.3107  0.5333
 1107SOL     OW14782   4.511   2.060   7.343  0.7920  0.2493  0.1643
 1107SOL    HW114783   4.438   2.056   7.405  0.4145 -0.0913 -0.3030
 1107SOL    HW214784   4.487   2.138   7.294  2.4166  0.3436 -0.4743
 1108SOL     OW14785   0.285   3.514  12.739  0.2151 -0.0174  0.5316
 1108SOL    HW114786   0.254   3.478  12.655 -0.0202 -1.4754  1.2443
 1108SOL    HW214787   0.380   3.517  12.734  0.0851 -0.5459 -2.7574
 1109SOL     OW14788   0.496   4.080  13.791  0.2597  0.0917  0.3757
 1109SOL    HW114789   0.425   4.110  13.734  0.5278  1.5711  0.8074
 1109SOL    HW214790   0.570   4.124  13.749  0.4249  0.4388  1.0252
 1110SOL     OW14791   3.854   1.188  14.666  0.3210  0.3929  0.0935
 1110SOL    HW114792   3.850   1.104  14.620 -2.4000  1.0845 -0.9230
 1110SOL    HW214793   3.944   1.217  14.653  0.2234  0.7972  0.3337
 1111SOL     OW14794   2.781   0.492   5.934 -0.4422  0.7996  0.0054
 1111SOL    HW114795   2.691   0.469   5.911 -0.7754 -0.1566  2.2702
 1111SOL    HW214796   2.781   0.582   5.901  0.0278 -0.1461 -2.6249
 1112SOL     OW14797   2.951   2.379   4.044 -0.2575  0.2345 -0.1862
 1112SOL    HW114798   2.868   2.421   4.024  1.6041  2.5581 -3.1384
 1112SOL    HW214799   2.963   2.328   3.963  2.7110  0.0023  0.4127
 1113SOL     OW14800   0.771   1.232   4.877  0.2596  0.4466 -0.4992
 1113SOL    HW114801   0.827   1.304   4.849 -1.3993  1.7786 -0.4186
 1113SOL    HW214802   0.772   1.177   4.798  2.3768  1.1576 -0.9684
 1114SOL     OW14803   1.723   0.625   2.371 -0.1410  0.3112  0.4836
 1114SOL    HW114804   1.659   0.569   2.326  0.9676  0.8126 -1.7022
 1114SOL    HW214805   1.673   0.646   2.450 -2.0792  0.4297 -0.7720
 1115SOL     OW14806   2.909   2.030  11.789  0.2637 -0.3773  0.0853
 1115SOL    HW114807   2.972   1.960  11.770  0.4003  0.2470 -1.7623
 1115SOL    HW214808   2.933   2.053  11.879 -1.6743  1.6177  0.0794
 1116SOL     OW14809   0.617   2.464   0.239 -0.2279 -0.6794  0.0412
 1116SOL    HW114810   0.582   2.490   0.324 -1.1450 -0.5885 -0.3657
 1116SOL    HW214811   0.647   2.550   0.209  1.7683 -0.8011  1.7557
 1117SOL     OW14812   1.496   1.704   6.654 -0.2876 -0.2372  0.8874
 1117SOL    HW114813   1.489   1.613   6.683 -3.1071  0.7781  3.4495
 1117SOL    HW214814   1.578   1.709   6.604 -0.5202 -0.7367  0.4546
 1118SOL     OW14815   4.537   2.381  14.288  0.2976 -0.1681 -0.3431
 1118SOL    HW114816   4.543   2.474  14.309  2.2487  0.0164 -1.6589
 1118SOL    HW214817   4.466   2.366  14.351  0.0308 -0.9833 -0.8372
 1119SOL     OW14818   4.133   4.529   7.861  0.0179  0.5249  0.2972
 1119SOL    HW114819   4.053   4.484   7.832  0.3961  1.1036 -1.6238
 1119SOL    HW214820   4.176   4.455   7.904 -0.6656 -0.0551 -0.0231
 1120SOL     OW14821   1.566   2.681   0.221 -0.0504 -0.3138 -0.4269
 1120SOL    HW114822   1.515   2.659   0.144  0.8041  0.0263 -1.0928
 1120SOL    HW214823   1.536   2.772   0.226 -1.1362 -0.8201  2.2498
 1121SOL     OW14824   2.109   2.175   8.398 -0.2975 -0.3354 -0.3986
 1121SOL    HW114825   2.055   2.105   8.435  1.2390 -0.8239  0.9106
 1121SOL    HW214826   2.190   2.169   8.449 -0.1245  1.2438 -0.4989
 1122SOL     OW14827   2.235   2.986   8.992 -0.0101  0.1732  0.6935
 1122SOL    HW114828   2.316   3.033   8.973  0.6065 -1.0780  0.2019
 1122SOL    HW214829   2.196   2.947   8.913  0.5307 -0.8767  0.9365
 1123SOL     OW14830   2.714   2.273   1.888 -1.1299  0.3381  0.0981
 1123SOL    HW114831   2.774   2.223   1.834  2.6290  2.8132  2.0151
 1123SOL    HW214832   2.632   2.223   1.877 -2.0183  2.1381 -1.5354
 1124SOL     OW14833   0.669   2.844  11.234 -0.4341  0.0335 -0.6208
 1124SOL    HW114834   0.753   2.879  11.264 -0.2060  1.5819 -3.0948
 1124SOL    HW214835   0.672   2.859  11.140 -0.5160 -0.3844 -0.6894
 1125SOL     OW14836   0.750   0.193  12.154  0.1212  0.1142  0.3404
 1125SOL    HW114837   0.796   0.239  12.084  1.9878  2.3336  3.0762
 1125SOL    HW214838   0.692   0.133  12.107  0.7638  0.1275 -0.4742
 1126SOL     OW14839   4.299   0.325   5.927  0.1339  0.7830  0.5667
 1126SOL    HW114840   4.322   0.418   5.924  1.5590  0.4542  1.2367
 1126SOL    HW214841   4.330   0.303   6.015 -0.4455 -1.5865  0.1838
 1127SOL     OW14842   1.412   0.535   3.612 -0.0640 -0.0977 -0.4055
 1127SOL    HW114843   1.442   0.521   3.702  1.0392 -0.7914 -0.8814
 1127SOL    HW214844   1.339   0.474   3.617  0.5792 -0.6059  2.7255
 1128SOL     OW14845   3.603   3.248   2.408 -0.2886 -0.3037  0.0323
 1128SOL    HW114846   3.580   3.339   2.393  1.0665  0.0358 -0.0173
 1128SOL    HW214847   3.527   3.196   2.381  1.1466 -1.3707 -1.9841
 1129SOL     OW14848   3.308   4.650   3.118 -0.4285  0.0995 -0.3079
 1129SOL    HW114849   3.280   4.564   3.086 -0.1096 -0.5324  1.1179
 1129SOL    HW214850   3.387   4.626   3.166 -0.6246 -0.2493 -0.1605
 1130SOL     OW14851   4.308   3.265   3.959 -0.1516 -0.2876 -0.5140
 1130SOL    HW114852   4.296   3.257   3.865 -0.1742  0.1155 -0.5445
 1130SOL    HW214853   4.237   3.219   4.004 -0.5455 -0.3410 -1.1988
 1131SOL     OW14854   3.236   3.285  13.841  0.1793  0.3228 -0.0338
 1131SOL    HW114855   3.245   3.351  13.772 -0.9810 -0.1473 -0.6169
 1131SOL    HW214856   3.195   3.331  13.915 -0.2178 -0.4728  0.2355
 1132SOL     OW14857   1.554   2.627   6.784  0.0566  0.1580 -0.3579
 1132SOL    HW114858   1.520   2.567   6.850  0.1120  1.7018  1.0691
 1132SOL    HW214859   1.623   2.671   6.833 -1.2313 -0.3505  1.9449
 1133SOL     OW14860   4.268   0.199   8.304 -0.6390 -0.9229  0.4441
 1133SOL    HW114861   4.315   0.135   8.251  1.2980  1.3312 -0.5394
 1133SOL    HW214862   4.341   0.252   8.335 -2.0741  1.7357 -0.8093
 1134SOL     OW14863   0.624   4.538   2.211  0.1576  0.6812 -0.4743
 1134SOL    HW114864   0.529   4.539   2.224 -0.0108  1.0796 -1.7437
 1134SOL    HW214865   0.640   4.614   2.155 -0.3832 -0.6686 -2.4367
 1135SOL     OW14866   3.771   3.983   4.977  0.1019  0.7890  0.0240
 1135SOL    HW114867   3.832   4.018   4.911  1.1688  1.5042  1.4017
 1135SOL    HW214868   3.715   3.929   4.920  1.3047  0.0553 -0.4528
 1136SOL     OW14869   3.098   1.372   1.865  0.5178  0.7403 -0.6403
 1136SOL    HW114870   3.106   1.325   1.782 -0.4947 -0.1383 -0.2459
 1136SOL    HW214871   3.163   1.441   1.856  2.3776 -0.9119  0.1037
 1137SOL     OW14872   2.775   2.097   2.442  0.7031  0.1530  0.3786
 1137SOL    HW114873   2.803   2.146   2.519  0.9375  0.4922  0.0759
 1137SOL    HW214874   2.862   2.079   2.407 -1.2498 -4.7361 -2.0027
 1138SOL     OW14875   1.277   1.890   3.765  0.2666 -0.5165  0.4050
 1138SOL    HW114876   1.202   1.945   3.788  0.4273  0.3684 -1.2060
 1138SOL    HW214877   1.337   1.902   3.839 -0.5369 -0.6067  1.0762
 1139SOL     OW14878   4.625   1.568   3.519  0.1929 -0.6193 -0.0053
 1139SOL    HW114879   4.695   1.631   3.536 -0.0047  0.4839 -3.2640
 1139SOL    HW214880   4.587   1.612   3.443 -0.1608  0.9980  1.0972
 1140SOL     OW14881   0.288   0.346   2.994  0.1593 -0.2406 -0.3158
 1140SOL    HW114882   0.267   0.331   3.086 -0.1477 -2.0219 -0.6759
 1140SOL    HW214883   0.373   0.304   2.987  0.4298  0.2519  0.0833
 1141SOL     OW14884   2.239   2.351   4.776  0.2495  0.5074  0.6978
 1141SOL    HW114885   2.181   2.342   4.851  0.6465  0.1161  0.9578
 1141SOL    HW214886   2.182   2.403   4.720 -0.4651  1.6302  2.4896
 1142SOL     OW14887   3.531   0.876   2.370  0.3199  0.1456  0.4823
 1142SOL    HW114888   3.458   0.931   2.340 -0.1654 -0.8755 -0.1930
 1142SOL    HW214889   3.548   0.828   2.289  0.9753  1.3202 -0.0818
 1143SOL     OW14890   3.335   1.694   4.141  0.1711 -0.6387 -0.3401
 1143SOL    HW114891   3.329   1.763   4.207 -3.5480 -1.0828 -0.2037
 1143SOL    HW214892   3.414   1.650   4.172 -0.7416 -1.1448  1.2719
 1144SOL     OW14893   4.648   4.556   3.199  0.3198 -0.3194 -0.3689
 1144SOL    HW114894   4.685   4.539   3.112 -0.2256 -0.2111 -0.6230
 1144SOL    HW214895   4.584   4.485   3.193 -0.7636  0.4958  1.4051
 1145SOL     OW14896   1.705   2.763   6.259  0.4271  0.4300 -0.2624
 1145SOL    HW114897   1.753   2.844   6.236 -0.5899  1.1689  0.2336
 1145SOL    HW214898   1.757   2.684   6.247 -1.8635 -0.6312 -3.0541
 1146SOL     OW14899   4.429   4.400  11.618  0.6149 -0.2599  0.7056
 1146SOL    HW114900   4.390   4.386  11.532 -0.8650  0.7471  1.2076
 1146SOL    HW214901   4.352   4.424  11.671  0.6833  1.9356 -0.1972
 1147SOL     OW14902   3.702   4.583   8.564  0.2200  0.1156  0.3243
 1147SOL    HW114903   3.719   4.577   8.658 -0.6084 -0.1301  0.4583
 1147SOL    HW214904   3.648   4.661   8.562  1.1846  0.7944  0.4131
 1148SOL     OW14905   3.584   3.274   2.113  0.8049 -0.0192 -0.2770
 1148SOL    HW114906   3.559   3.183   2.099  2.4051 -0.1454 -2.2226
 1148SOL    HW214907   3.668   3.258   2.155 -0.2885  2.2313  2.8701
 1149SOL     OW14908   0.963   1.718   8.228 -0.0417 -0.7279  0.3995
 1149SOL    HW114909   0.990   1.764   8.149 -0.3320 -0.3633  0.5137
 1149SOL    HW214910   1.018   1.757   8.296 -0.4914  1.0326 -0.2578
 1150SOL     OW14911   0.917   3.697   3.710  0.0323  0.0329  0.1014
 1150SOL    HW114912   0.948   3.681   3.799 -1.2230  1.3287  0.7895
 1150SOL    HW214913   0.898   3.609   3.677  0.2012 -0.6566  1.8409
 1151SOL     OW14914   3.062   2.152   2.073 -0.0821 -0.2134  0.2280
 1151SOL    HW114915   3.067   2.186   1.983 -1.5702  0.0521  0.2562
 1151SOL    HW214916   3.143   2.188   2.109 -0.1975  1.4381 -1.1330
 1152SOL     OW14917   1.063   1.606   7.149 -0.0602  0.9065 -0.0538
 1152SOL    HW114918   1.027   1.684   7.192 -0.1880  0.1304  1.2564
 1152SOL    HW214919   1.100   1.565   7.227 -0.2469  1.6597  0.4375
 1153SOL     OW14920   2.603   3.146   2.226 -0.4222 -0.1644 -0.0050
 1153SOL    HW114921   2.556   3.093   2.162 -2.8837  0.5677  1.2037
 1153SOL    HW214922   2.553   3.149   2.308  1.9623 -1.0284  1.4808
 1154SOL     OW14923   1.017   3.164   3.455 -0.3391  0.0343  0.2998
 1154SOL    HW114924   1.024   3.072   3.431  2.7197  0.4319 -0.2391
 1154SOL    HW214925   0.993   3.209   3.374  0.1248  0.0464  0.1735
 1155SOL     OW14926   4.716   4.711   6.628 -0.3795 -0.0985  0.6096
 1155SOL    HW114927   0.063   4.656   6.593 -1.3450 -0.5018 -0.6763
 1155SOL    HW214928   0.032   0.074   6.646  0.7475 -0.3980 -0.4348
 1156SOL     OW14929   0.350   2.626   7.552 -0.3656  0.1932  0.5356
 1156SOL    HW114930   0.411   2.696   7.575  0.9281 -0.2987 -1.3086
 1156SOL    HW214931   0.357   2.605   7.459  0.7022 -0.1117  0.6812
 1157SOL     OW14932   1.906   3.775   9.389 -0.2247  0.4116  0.0988
 1157SOL    HW114933   2.000   3.760   9.383 -0.1977 -0.0625  1.7226
 1157SOL    HW214934   1.896   3.823   9.307  0.4290 -0.3758 -0.4370
 1158SOL     OW14935   2.945   1.153  12.952 -0.5472  1.0236 -0.3040
 1158SOL    HW114936   2.920   1.233  12.905 -1.2114  0.0259 -1.6102
 1158SOL    HW214937   3.024   1.126  12.905 -1.6860 -1.5736 -0.6746
 1159SOL     OW14938   0.002   3.344   6.901  0.2523  0.0099 -0.3142
 1159SOL    HW114939   0.095   3.324   6.906  0.0088 -0.7311  1.0621
 1159SOL    HW214940   4.701   3.363   6.991 -0.3388  0.8312 -0.6373
 1160SOL     OW14941   1.773   2.640   2.282 -0.0989  0.4810  0.0421
 1160SOL    HW114942   1.776   2.569   2.218 -0.2034 -0.7969  1.4328
 1160SOL    HW214943   1.680   2.663   2.277  0.0120  1.3092  1.5416
 1161SOL     OW14944   2.807   0.417   5.078  0.1943  0.0943  0.0775
 1161SOL    HW114945   2.756   0.480   5.027  0.4532 -0.7726 -1.2521
 1161SOL    HW214946   2.894   0.454   5.061  0.3036  0.6751  1.8731
 1162SOL     OW14947   3.369   4.535  14.419  0.2303 -0.3265  0.0489
 1162SOL    HW114948   3.337   4.610  14.469 -1.7504  0.9412 -3.0943
 1162SOL    HW214949   3.353   4.469  14.486 -0.0248 -1.5079 -1.1875
 1163SOL     OW14950   4.603   3.515   6.731  0.0174  0.0706  0.3804
 1163SOL    HW114951   4.636   3.439   6.778  0.6951  0.3531  0.3573
 1163SOL    HW214952   4.686   3.557   6.708 -0.4125  0.6055 -0.2284
 1164SOL     OW14953   2.107   4.245   6.077 -0.0136 -0.3396  0.1947
 1164SOL    HW114954   2.119   4.159   6.115  0.3862 -0.3916 -0.0480
 1164SOL    HW214955   2.180   4.245   6.015  1.5814 -0.0973  2.0729
 1165SOL     OW14956   1.742   1.645   9.992  0.0216 -0.0453  0.2754
 1165SOL    HW114957   1.816   1.651  10.053 -1.5695  1.2610  2.0598
 1165SOL    HW214958   1.685   1.715  10.024 -0.8720 -0.2890 -0.7861
 1166SOL     OW14959   2.917   3.396   6.907 -0.3723 -0.4300  0.7347
 1166SOL    HW114960   2.965   3.323   6.946 -2.0907 -1.2652  1.2558
 1166SOL    HW214961   2.924   3.380   6.812 -1.6160 -1.8936  0.8879
 1167SOL     OW14962   1.424   3.999  16.252 -0.1155 -0.1834 -0.2563
 1167SOL    HW114963   1.470   3.929  16.205 -0.7355 -0.1475 -0.9121
 1167SOL    HW214964   1.497   4.024  16.309 -0.0601 -2.4872  0.6494
 1168SOL     OW14965   3.922   1.283   6.659 -0.2045 -0.4914  0.3958
 1168SOL    HW114966   3.855   1.302   6.593  0.9339  0.7110 -0.4139
 1168SOL    HW214967   3.873   1.229   6.721 -1.8503  0.8665  0.2834
 1169SOL     OW14968   2.375   2.804   2.704 -0.6831 -0.5861 -0.3197
 1169SOL    HW114969   2.369   2.713   2.731 -2.4857  0.0807  1.5152
 1169SOL    HW214970   2.349   2.805   2.612 -0.7692 -1.9918 -0.3125
 1170SOL     OW14971   0.614   3.746   3.640  0.0436  0.3395  0.2222
 1170SOL    HW114972   0.598   3.721   3.549 -1.3919 -0.2117  0.6310
 1170SOL    HW214973   0.710   3.744   3.646 -0.0235 -0.2454  1.0608
 1171SOL     OW14974   4.574   4.211   8.970 -0.4212 -0.6288 -0.1093
 1171SOL    HW114975   4.515   4.238   8.900 -0.6940  1.1986  0.8126
 1171SOL    HW214976   4.651   4.261   8.942 -0.1887 -0.5549  0.6452
 1172SOL     OW14977   4.014   4.525   7.520 -0.4128  0.2872 -0.3423
 1172SOL    HW114978   4.095   4.551   7.475  0.2754  0.9007  1.2214
 1172SOL    HW214979   4.037   4.448   7.571 -2.1853  0.9725  1.5110
 1173SOL     OW14980   4.066   1.244   2.153 -0.1323 -0.4943 -0.1883
 1173SOL    HW114981   4.085   1.194   2.232 -0.9378 -1.1278 -0.3943
 1173SOL    HW214982   3.975   1.223   2.130  0.4329 -2.8723 -0.1835
 1174SOL     OW14983   4.261   3.513   4.038 -0.7016  0.2524 -0.3747
 1174SOL    HW114984   4.279   3.424   4.008 -0.1826 -0.8281  3.1354
 1174SOL    HW214985   4.271   3.560   3.955  1.0356 -0.3697 -0.5147
 1175SOL     OW14986   2.769   2.133   4.110 -0.0008 -0.1242 -0.3379
 1175SOL    HW114987   2.682   2.172   4.123 -0.1404 -0.5473  0.0085
 1175SOL    HW214988   2.823   2.210   4.132  0.6279 -0.0985 -2.0080
 1176SOL     OW14989   3.868   2.322   7.351  0.0948  0.1132 -0.0985
 1176SOL    HW114990   3.904   2.244   7.393  1.3737  0.4979 -0.4736
 1176SOL    HW214991   3.813   2.275   7.289  0.8750  0.7406 -1.2794
 1177SOL     OW14992   3.365   4.216   5.123  0.4245  0.4195 -0.2308
 1177SOL    HW114993   3.386   4.154   5.054 -1.0280 -0.5444  0.1972
 1177SOL    HW214994   3.441   4.193   5.177 -1.7516  1.8542  3.4870
 1178SOL     OW14995   1.199   2.956   7.405 -0.4859  0.2898 -0.2983
 1178SOL    HW114996   1.290   2.970   7.433 -1.1902  0.4592  1.8693
 1178SOL    HW214997   1.206   2.864   7.378 -0.4166  0.1644  0.1407
 1179SOL     OW14998   1.123   3.111  11.257  0.1165 -0.3044  0.4506
 1179SOL    HW114999   1.062   3.154  11.318 -0.5831  1.3437 -1.4283
 1179SOL    HW215000   1.196   3.173  11.264 -0.1141 -0.0664  0.7620
 1180SOL     OW15001   4.528   2.219  13.239  0.5141 -0.5197 -0.4073
 1180SOL    HW115002   4.563   2.265  13.162 -2.2453  0.4183 -1.1009
 1180SOL    HW215003   4.437   2.202  13.215  0.5357 -0.1085 -0.7836
 1181SOL     OW15004   4.066   0.141   8.116  0.1742  0.2881  0.2987
 1181SOL    HW115005   4.140   0.190   8.150  0.9934  0.4179 -1.7386
 1181SOL    HW215006   3.995   0.205   8.121 -0.1785 -0.1332  0.8140
 1182SOL     OW15007   3.187   3.846  17.688 -0.2350 -0.3298 -0.5161
 1182SOL    HW115008   3.241   3.888   0.061  1.4661  0.9318 -2.7104
 1182SOL    HW215009   3.101   3.874   0.024 -0.4710 -2.7125  1.0557
 1183SOL     OW15010   0.326   2.740   2.293  0.5003 -0.1810  0.3451
 1183SOL    HW115011   0.379   2.660   2.285  0.7687  0.0583 -0.2240
 1183SOL    HW215012   0.328   2.772   2.203 -0.1467  0.6050  0.6108
 1184SOL     OW15013   1.514   1.323   7.598 -0.2099  0.2040  0.1337
 1184SOL    HW115014   1.444   1.367   7.645 -1.1191 -1.1562  0.0553
 1184SOL    HW215015   1.560   1.396   7.557 -1.9354 -0.3070 -2.6856
 1185SOL     OW15016   3.173   1.253   7.904 -0.4622 -0.2115 -0.6857
 1185SOL    HW115017   3.126   1.318   7.852 -0.6708  0.7528  0.6960
 1185SOL    HW215018   3.167   1.287   7.994 -0.4362 -0.7715 -0.4766
 1186SOL     OW15019   0.357   3.319   2.964  0.1015  0.3871 -0.1060
 1186SOL    HW115020   0.379   3.247   3.023  3.3944  1.3857 -0.0686
 1186SOL    HW215021   0.415   3.297   2.891  0.3010 -1.1868  0.5387
 1187SOL     OW15022   3.971   0.024   7.879  0.5494  0.1168 -0.2890
 1187SOL    HW115023   3.980   0.035   7.974  0.3141 -0.7216 -0.1638
 1187SOL    HW215024   4.047   4.689   7.868 -0.8170 -2.1759  2.1803
 1188SOL     OW15025   4.573   0.162   6.398  0.8470 -0.2652 -0.3705
 1188SOL    HW115026   4.664   0.186   6.381  0.9130 -0.8020 -0.7548
 1188SOL    HW215027   4.574   0.190   6.490  2.7875  1.5600 -0.9567
 1189SOL     OW15028   0.969   0.291  11.615 -0.1009  0.1853 -0.1445
 1189SOL    HW115029   0.993   0.266  11.704  1.5105  4.5957  0.6612
 1189SOL    HW215030   1.033   0.362  11.608  2.2035 -2.0219 -1.0450
 1190SOL     OW15031   4.696   4.380   6.950  0.3438  0.1505  0.4404
 1190SOL    HW115032   4.627   4.364   7.014 -2.3097 -0.5437 -2.5737
 1190SOL    HW215033   4.723   4.466   6.982 -0.9468  0.5294  0.5112
 1191SOL     OW15034   0.823   4.605  12.714 -0.1291  0.2419 -0.5122
 1191SOL    HW115035   0.756   4.586  12.648  0.0247 -1.6777 -0.0969
 1191SOL    HW215036   0.893   4.603  12.648 -2.6274 -0.6156 -3.1489
 1192SOL     OW15037   1.966   0.704   6.818  0.2939  0.0465  0.6010
 1192SOL    HW115038   1.935   0.795   6.816  1.1378  0.3481  1.1202
 1192SOL    HW215039   2.060   0.710   6.839 -0.1634 -0.5772  2.8697
 1193SOL     OW15040   1.303   1.964  16.051  0.3294  0.2300 -0.4359
 1193SOL    HW115041   1.300   1.983  15.957 -0.7682  0.5845 -0.3232
 1193SOL    HW215042   1.398   1.952  16.058  0.3299  0.2714 -0.3687
 1194SOL     OW15043   0.513   1.413  15.238  0.0774 -0.1728 -0.1427
 1194SOL    HW115044   0.548   1.501  15.246  3.0653 -1.3561 -0.1199
 1194SOL    HW215045   0.426   1.439  15.268  0.0335 -0.2819 -0.1766
 1195SOL     OW15046   2.009   1.661   9.288 -0.1809  0.1843 -0.0417
 1195SOL    HW115047   1.965   1.625   9.365 -0.7759 -0.0459 -0.4899
 1195SOL    HW215048   2.052   1.741   9.318 -0.0075 -0.4983  1.5274
 1196SOL     OW15049   1.580   3.291  11.006 -0.2061 -0.7037  0.1448
 1196SOL    HW115050   1.513   3.242  11.053 -1.8710  0.3320 -1.1460
 1196SOL    HW215051   1.630   3.341  11.071 -0.6288  1.7347 -1.4199
 1197SOL     OW15052   2.421   2.443   2.086  0.9538 -0.1739 -0.4388
 1197SOL    HW115053   2.438   2.516   2.146  0.6363 -0.5867  0.1462
 1197SOL    HW215054   2.450   2.473   2.000  2.0676  2.0949  0.7256
 1198SOL     OW15055   3.491   0.362   9.326  0.0050  0.1361 -0.2677
 1198SOL    HW115056   3.562   0.396   9.271 -0.0985 -2.1872 -1.8240
 1198SOL    HW215057   3.429   0.434   9.311 -0.1588  0.3209  1.2767
 1199SOL     OW15058   1.297   1.463  13.893 -0.1519 -0.5483 -0.2736
 1199SOL    HW115059   1.381   1.493  13.859 -0.5092 -0.7590 -1.3767
 1199SOL    HW215060   1.269   1.544  13.936 -0.4775 -0.1292 -1.2656
 1200SOL     OW15061   3.792   0.300   7.883  0.0120 -0.3253 -0.6115
 1200SOL    HW115062   3.735   0.376   7.897  2.7775  1.3560  1.6782
 1200SOL    HW215063   3.839   0.321   7.964 -0.7543  1.2737 -0.5873
 1201SOL     OW15064   1.973   3.248   9.399 -0.0868 -0.1947 -0.0306
 1201SOL    HW115065   2.056   3.224   9.360  0.2188  2.4135 -0.9641
 1201SOL    HW215066   1.916   3.192   9.346 -1.9556  0.0523  1.6695
 1202SOL     OW15067   0.025   4.151   0.091 -0.3147  0.4692  0.2839
 1202SOL    HW115068   0.007   4.143  17.691 -1.1345 -2.1931  0.6722
 1202SOL    HW215069   4.659   4.130   0.121 -0.9916  0.0896 -2.0253
 1203SOL     OW15070   0.993   2.638   8.964  0.2668 -0.4112  0.3808
 1203SOL    HW115071   0.968   2.663   9.053 -1.0362 -2.3907  0.5745
 1203SOL    HW215072   1.041   2.713   8.927 -0.8349  0.3106  0.3980
 1204SOL     OW15073   2.686   1.295   9.067  0.4406  0.1785 -0.5865
 1204SOL    HW115074   2.676   1.203   9.092  0.2806  0.4764  0.4564
 1204SOL    HW215075   2.679   1.343   9.150 -1.8266 -0.5358 -0.3811
 1205SOL     OW15076   3.725   1.651  15.861  0.4091 -1.1205 -0.0755
 1205SOL    HW115077   3.656   1.589  15.838 -0.2185  0.3043 -2.0302
 1205SOL    HW215078   3.712   1.653  15.956 -1.3045 -1.8518 -0.2963
 1206SOL     OW15079   3.260   2.365  14.548  0.0382  0.1541  0.5364
 1206SOL    HW115080   3.279   2.379  14.455  0.0296 -1.5918  0.2636
 1206SOL    HW215081   3.290   2.274  14.549  0.3177  0.2479  0.4778
 1207SOL     OW15082   3.599   4.401  15.589 -0.0897  0.1397 -0.2340
 1207SOL    HW115083   3.610   4.487  15.549  1.2039  0.1317  0.0898
 1207SOL    HW215084   3.504   4.394  15.596 -0.0186  0.5085  1.1803
 1208SOL     OW15085   3.247   2.650  17.334 -0.4966 -0.0967 -0.0132
 1208SOL    HW115086   3.308   2.684  17.399 -0.7221  1.2540 -0.5151
 1208SOL    HW215087   3.313   2.628  17.269  0.4503 -0.4516  1.0822
 1209SOL     OW15088   2.735   1.659   3.330  0.4804  0.0337  0.4384
 1209SOL    HW115089   2.689   1.665   3.414  1.6561 -0.4009  1.1185
 1209SOL    HW215090   2.791   1.582   3.341  0.9097  0.2666 -0.1069
 1210SOL     OW15091   3.111   3.153   3.165 -0.1052 -0.1169 -0.8173
 1210SOL    HW115092   3.142   3.080   3.219  0.9527  1.3387  0.5572
 1210SOL    HW215093   3.031   3.113   3.131  0.8198 -1.7005 -1.1051
 1211SOL     OW15094   1.206   3.943   8.324 -0.6251  0.2376  0.2974
 1211SOL    HW115095   1.196   4.038   8.318  1.4393  0.4665  0.4636
 1211SOL    HW215096   1.253   3.936   8.241 -2.7382 -2.1091 -0.6840
 1212SOL     OW15097   2.295   1.243   4.489  0.0829 -0.2172 -0.2175
 1212SOL    HW115098   2.382   1.234   4.528  0.1069 -1.8801 -0.6371
 1212SOL    HW215099   2.245   1.243   4.570 -1.4753 -2.7485 -1.1854
 1213SOL     OW15100   4.312   2.280   1.949  0.1986 -0.0530  0.2131
 1213SOL    HW115101   4.342   2.275   2.039 -1.0021 -2.4836  0.4869
 1213SOL    HW215102   4.218   2.298   1.956 -0.0190 -1.4112  0.8635
 1214SOL     OW15103   0.108   0.235   6.338  0.1371 -0.2914  0.1466
 1214SOL    HW115104   0.193   0.219   6.380  0.9495 -0.6930 -1.6541
 1214SOL    HW215105   0.107   0.330   6.340  4.4791 -0.2054 -0.0622
 1215SOL     OW15106   4.531   0.814   4.985 -0.2023 -0.6774  0.5675
 1215SOL    HW115107   4.557   0.748   5.049  2.4655  0.5075  0.7127
 1215SOL    HW215108   4.466   0.857   5.039  0.2675  0.0560  0.5486
 1216SOL     OW15109   2.651   0.918  15.615 -0.1717 -0.7318 -0.5469
 1216SOL    HW115110   2.740   0.948  15.632 -0.0208 -1.7092  0.4079
 1216SOL    HW215111   2.587   0.989  15.610  1.5196  0.7963 -0.1808
 1217SOL     OW15112   3.323   2.294  17.256 -0.0483  0.3601 -0.2672
 1217SOL    HW115113   3.335   2.360  17.324  1.4224 -0.1749  0.0031
 1217SOL    HW215114   3.269   2.345  17.196 -2.0656 -2.5896 -0.9484
 1218SOL     OW15115   1.166   0.847   0.780 -0.1225 -0.3850 -0.0811
 1218SOL    HW115116   1.148   0.935   0.747  1.2786 -0.8353 -2.0156
 1218SOL    HW215117   1.219   0.873   0.855 -2.0970  2.3427  0.3459
 1219SOL     OW15118   2.534   0.567   9.814  0.2527  0.4391 -0.7422
 1219SOL    HW115119   2.570   0.629   9.750 -0.6456  1.0989 -0.6113
 1219SOL    HW215120   2.601   0.558   9.882 -0.6087 -0.8239 -0.0691
 1220SOL     OW15121   3.009   3.587   5.276 -0.1783  0.4813 -0.0815
 1220SOL    HW115122   2.957   3.570   5.197 -2.0718 -1.4307  1.6137
 1220SOL    HW215123   3.097   3.572   5.241 -0.1022  1.8380 -0.5029
 1221SOL     OW15124   4.335   4.386   0.717 -0.1259  0.1835 -0.0655
 1221SOL    HW115125   4.386   4.376   0.636 -2.2656 -0.8674 -1.2685
 1221SOL    HW215126   4.312   4.294   0.723  0.3051  0.0741 -0.0627
 1222SOL     OW15127   1.403   3.200   7.695 -0.0444 -0.5858 -0.0035
 1222SOL    HW115128   1.335   3.266   7.711 -1.6174 -1.4384 -3.2381
 1222SOL    HW215129   1.422   3.183   7.787 -3.9473 -1.1425  0.7101
 1223SOL     OW15130   3.273   0.880   1.653  0.6644  0.2888 -0.4360
 1223SOL    HW115131   3.270   0.945   1.583 -0.1651 -1.2181 -1.7941
 1223SOL    HW215132   3.299   0.801   1.606 -0.8419 -0.5092  0.0853
 1224SOL     OW15133   1.900   1.389   6.680  0.0025 -0.0577 -0.3913
 1224SOL    HW115134   1.823   1.379   6.623 -0.5476 -1.2402  0.5569
 1224SOL    HW215135   1.916   1.479   6.649  0.7431 -0.2297 -0.4925
 1225SOL     OW15136   4.482   0.062  16.231  0.6979  0.0446 -0.4506
 1225SOL    HW115137   4.429   0.079  16.153  0.0383 -2.4067 -0.5236
 1225SOL    HW215138   4.422   0.036  16.300  0.0893 -0.0970 -1.0333
 1226SOL     OW15139   4.056   1.202  11.506 -0.0189 -0.3072 -0.2681
 1226SOL    HW115140   4.126   1.168  11.561 -0.3650 -0.1558  0.2628
 1226SOL    HW215141   4.114   1.212  11.430 -0.5406  0.4281 -0.5703
 1227SOL     OW15142   3.901   0.685   9.605  0.2712  0.1232  0.8237
 1227SOL    HW115143   3.845   0.622   9.650 -0.5586 -0.1250 -0.5823
 1227SOL    HW215144   3.903   0.643   9.519  0.9704 -0.1502  0.9777
 1228SOL     OW15145   1.389   2.363   5.565 -0.7395 -0.2527  0.0850
 1228SOL    HW115146   1.351   2.342   5.650  0.6982  3.3230  1.6145
 1228SOL    HW215147   1.344   2.441   5.535  2.6317 -0.0655 -4.4464
 1229SOL     OW15148   1.946   4.531  14.820  0.6022 -0.1606  0.1107
 1229SOL    HW115149   1.883   4.511  14.750 -0.0286  0.3235  0.5418
 1229SOL    HW215150   1.966   4.447  14.862 -0.2257  1.0940  2.9885
 1230SOL     OW15151   3.802   3.213   1.262  0.2575 -0.7140 -0.7076
 1230SOL    HW115152   3.888   3.173   1.275  1.3735  1.5970 -1.1119
 1230SOL    HW215153   3.759   3.146   1.208  1.1497 -0.3246 -1.8905
 1231SOL     OW15154   3.394   0.486   7.385  1.0539  0.0165  0.1577
 1231SOL    HW115155   3.311   0.457   7.423  1.5042 -2.6512 -0.8611
 1231SOL    HW215156   3.412   0.566   7.434 -0.1239  0.7415 -0.6189
 1232SOL     OW15157   0.431   0.606  14.785  1.2196  0.9034 -0.0984
 1232SOL    HW115158   0.471   0.639  14.865 -0.6463 -0.3449  1.3567
 1232SOL    HW215159   0.407   0.685  14.737  0.4765 -0.1068 -1.4035
 1233SOL     OW15160   2.675   1.885   3.197 -0.4268  0.0465  0.1701
 1233SOL    HW115161   2.692   1.952   3.263  1.5500 -2.8345  2.5617
 1233SOL    HW215162   2.701   1.810   3.250 -0.9290 -0.7576 -0.7135
 1234SOL     OW15163   3.498   0.895   6.945 -0.0983 -0.7522  0.8730
 1234SOL    HW115164   3.431   0.898   7.013  0.7955 -0.4853  1.7450
 1234SOL    HW215165   3.528   0.807   6.965 -1.9495 -2.5093 -4.1529
 1235SOL     OW15166   2.213   0.192   7.734  1.0160  0.2028  0.3104
 1235SOL    HW115167   2.179   0.178   7.646 -1.5993  1.7027  1.0975
 1235SOL    HW215168   2.204   0.287   7.740 -1.4905 -0.0413  0.2689
 1236SOL     OW15169   3.058   2.348   6.239 -0.0245 -0.5268  0.0357
 1236SOL    HW115170   3.075   2.407   6.166  2.5248 -1.4141 -0.1081
 1236SOL    HW215171   3.121   2.390   6.298 -0.1874 -0.5187  0.2027
 1237SOL     OW15172   3.824   1.676   3.440 -0.0662  0.2250 -0.4373
 1237SOL    HW115173   3.764   1.748   3.461  0.3162  0.3454  0.2414
 1237SOL    HW215174   3.846   1.639   3.525  2.3798  0.7820 -0.8426
 1238SOL     OW15175   0.216   1.256  15.661  0.6207  0.1125  0.0883
 1238SOL    HW115176   0.278   1.206  15.714  0.3115 -1.7898 -1.3063
 1238SOL    HW215177   0.160   1.184  15.630 -1.6805  1.0485  2.1176
 1239SOL     OW15178   0.326   3.009   4.238 -0.4504  0.0726 -0.6483
 1239SOL    HW115179   0.404   3.012   4.182  1.5162 -1.5893  1.9796
 1239SOL    HW215180   0.255   3.012   4.174 -1.5760 -2.5842  0.4798
 1240SOL     OW15181   0.655   1.683   4.412  0.0647  0.5897 -0.9137
 1240SOL    HW115182   0.680   1.615   4.349 -1.0842  0.5382 -1.3061
 1240SOL    HW215183   0.580   1.651   4.461  0.1920 -1.2777 -1.9457
 1241SOL     OW15184   1.702   2.057  10.819 -0.1162 -0.1509 -0.1544
 1241SOL    HW115185   1.785   2.015  10.795 -0.6595  0.5328 -3.1768
 1241SOL    HW215186   1.707   2.142  10.776 -1.6407  0.3417  0.6386
 1242SOL     OW15187   4.720   4.030  13.611  0.1146  0.0338 -0.2443
 1242SOL    HW115188   4.673   4.049  13.530  1.5157  1.9736 -0.6260
 1242SOL    HW215189   4.667   4.081  13.672 -0.9395  0.7782 -1.7873
 1243SOL     OW15190   4.058   0.275   5.796 -0.1086  0.5143  0.3841
 1243SOL    HW115191   4.044   0.363   5.759  0.2315 -1.2675 -3.9287
 1243SOL    HW215192   4.147   0.284   5.831 -0.5896  1.7735  1.3026
 1244SOL     OW15193   1.707   2.081   4.878 -0.2619  0.8785  0.3539
 1244SOL    HW115194   1.631   2.073   4.936  0.0771 -0.7625  0.5735
 1244SOL    HW215195   1.723   2.175   4.888  3.9265  0.2994 -0.8818
 1245SOL     OW15196   3.880   1.066   3.120 -0.3685  0.8406  0.4708
 1245SOL    HW115197   3.819   1.095   3.052  1.0428  0.6930 -0.8443
 1245SOL    HW215198   3.901   1.148   3.164  1.5959 -0.1420  1.3420
 1246SOL     OW15199   4.619   3.775  16.218  0.9212 -0.7662  0.4106
 1246SOL    HW115200   4.591   3.707  16.280 -1.3016 -0.6010 -0.4412
 1246SOL    HW215201   4.645   3.719  16.145 -2.5235  0.0991 -1.4717
 1247SOL     OW15202   3.598   3.751   1.230  0.9732 -0.3761  0.4442
 1247SOL    HW115203   3.565   3.661   1.225  2.4732 -0.7363 -2.7993
 1247SOL    HW215204   3.540   3.779   1.301  3.5571  3.0852  1.1826
 1248SOL     OW15205   1.264   4.368   5.543 -0.5024  0.6697  0.1128
 1248SOL    HW115206   1.292   4.447   5.498  0.7027 -0.6921 -1.5467
 1248SOL    HW215207   1.171   4.359   5.523 -0.0914 -2.0262 -0.6860
 1249SOL     OW15208   0.715   2.720   0.204  0.2357 -0.0207 -0.4380
 1249SOL    HW115209   0.626   2.755   0.213  0.0807 -0.5458  0.1114
 1249SOL    HW215210   0.742   2.750   0.117 -0.3389  0.1038 -0.5737
 1250SOL     OW15211   3.520   0.851   6.475 -0.5949  0.0730 -0.4934
 1250SOL    HW115212   3.445   0.911   6.475 -1.0372 -0.4672 -0.1876
 1250SOL    HW215213   3.505   0.818   6.564 -1.3082  0.7314 -0.3684
 1251SOL     OW15214   1.092   2.982   2.837 -0.2300  0.7694 -0.7238
 1251SOL    HW115215   1.008   2.986   2.791 -0.4799  0.7767 -0.2686
 1251SOL    HW215216   1.082   2.940   2.923 -2.0943  0.1786 -1.2325
 1252SOL     OW15217   2.066   0.840   2.297 -0.1274  0.0656  0.1948
 1252SOL    HW115218   2.022   0.919   2.268  0.2134  0.1114 -0.2036
 1252SOL    HW215219   2.000   0.776   2.269  0.6634  0.4284 -2.4848
 1253SOL     OW15220   1.921   1.942   3.585 -0.1865 -0.3945 -0.0224
 1253SOL    HW115221   1.916   2.013   3.521 -0.0151  1.2042  1.7536
 1253SOL    HW215222   2.013   1.917   3.583 -0.1773 -0.2099 -1.7212
 1254SOL     OW15223   0.438   0.929   4.957 -0.4716 -0.1038  0.1225
 1254SOL    HW115224   0.489   0.868   4.905 -1.8413 -1.1408 -0.0032
 1254SOL    HW215225   0.488   1.010   4.946 -3.5046  1.7256 -0.2012
 1255SOL     OW15226   1.998   0.936   8.919 -0.5144  0.8139 -0.5948
 1255SOL    HW115227   2.087   0.908   8.899 -0.7617 -0.5100  0.1882
 1255SOL    HW215228   1.976   0.879   8.993  0.3822  0.1746 -0.8283
 1256SOL     OW15229   0.439   1.998  13.350  0.2851  0.3128  0.2775
 1256SOL    HW115230   0.432   2.035  13.262  3.3031  0.4840  0.1114
 1256SOL    HW215231   0.347   1.979  13.372  0.1276  0.7068 -0.0548
 1257SOL     OW15232   2.996   2.106  12.035  0.2765 -0.4823 -0.4845
 1257SOL    HW115233   2.929   2.093  12.102 -1.4196  2.4679 -1.6242
 1257SOL    HW215234   3.034   2.018  12.032 -1.3915 -1.1982 -0.5396
 1258SOL     OW15235   4.702   1.660   4.122 -0.0331  0.3934 -0.7891
 1258SOL    HW115236   4.705   1.673   4.027  3.1298  2.0237 -0.4729
 1258SOL    HW215237   0.024   1.576   4.118  1.5270  1.1833  0.5317
 1259SOL     OW15238   3.370   2.434  11.927  0.0159 -0.0913 -0.5074
 1259SOL    HW115239   3.340   2.518  11.960 -1.1102 -1.1553  1.1783
 1259SOL    HW215240   3.329   2.372  11.987  1.3173  0.2829  0.7671
 1260SOL     OW15241   1.690   4.288  10.976  0.3260 -0.2536 -0.8316
 1260SOL    HW115242   1.731   4.369  10.947 -3.2232  1.8754  0.0647
 1260SOL    HW215243   1.771   4.242  10.996  0.3035 -1.3652 -3.2238
 1261SOL     OW15244   0.376   1.734  10.696 -0.4209  0.4327  0.0797
 1261SOL    HW115245   0.356   1.786  10.774  0.3717 -0.1969  0.6992
 1261SOL    HW215246   0.315   1.663  10.713 -0.6373  0.6703  0.2770
 1262SOL     OW15247   3.805   0.301   6.296 -0.4411 -0.2656 -0.0725
 1262SOL    HW115248   3.854   0.335   6.221  0.9570  0.1225  1.0092
 1262SOL    HW215249   3.768   0.219   6.264  0.3327  0.1013 -1.9097
 1263SOL     OW15250   1.943   3.840   8.323  0.8354 -0.5567  0.5865
 1263SOL    HW115251   1.853   3.807   8.316  0.0964  1.6250 -0.1372
 1263SOL    HW215252   1.931   3.932   8.344 -1.5490 -0.8892  0.7769
 1264SOL     OW15253   4.531   0.756   7.455 -0.2921 -0.1904  0.0080
 1264SOL    HW115254   4.518   0.784   7.546  1.7851  3.2763 -0.7810
 1264SOL    HW215255   4.446   0.715   7.435 -0.4577 -0.8068  1.9447
 1265SOL     OW15256   2.627   2.058   0.465  0.0179  0.0858 -0.0793
 1265SOL    HW115257   2.559   2.097   0.520  0.6595 -1.1575  1.6184
 1265SOL    HW215258   2.588   2.065   0.378  0.3512 -0.8303 -0.3106
 1266SOL     OW15259   0.132   1.368   5.399  0.0404  0.3840  0.6220
 1266SOL    HW115260   0.059   1.361   5.337  0.0039  0.2969  0.6761
 1266SOL    HW215261   0.201   1.337   5.341  1.3631 -0.5099  2.6928
 1267SOL     OW15262   2.317   4.667   7.787  0.5690  0.2801  0.1584
 1267SOL    HW115263   2.378   4.678   7.860 -0.4669  0.5853  0.9891
 1267SOL    HW215264   2.299   0.035   7.766 -1.2802 -0.1265 -0.0289
 1268SOL     OW15265   0.939   4.174  13.363 -0.0790 -0.2648 -0.4636
 1268SOL    HW115266   0.941   4.122  13.444 -1.5934 -0.7285 -0.7272
 1268SOL    HW215267   0.997   4.249  13.373  0.9194 -1.0052 -0.5920
 1269SOL     OW15268   1.419   3.480  15.679 -0.3727 -0.0562  0.5310
 1269SOL    HW115269   1.412   3.556  15.735 -0.2091  1.1904 -1.1329
 1269SOL    HW215270   1.493   3.426  15.710  0.5086 -0.1927 -1.7851
 1270SOL     OW15271   2.018   4.047   9.517  0.0919 -0.2471 -0.4517
 1270SOL    HW115272   1.946   3.995   9.482 -0.8956  0.0475  1.1528
 1270SOL    HW215273   2.089   3.983   9.518 -0.8715 -1.2989  0.3697
 1271SOL     OW15274   1.041   3.803   9.590  0.2206 -0.2621  0.2433
 1271SOL    HW115275   1.109   3.818   9.656  1.7005 -1.5900 -0.9619
 1271SOL    HW215276   0.983   3.754   9.648  0.7750 -1.3776 -0.1350
 1272SOL     OW15277   3.454   4.450   2.343  0.2491  0.3279  0.2664
 1272SOL    HW115278   3.498   4.420   2.422  0.3521  0.5904  0.3114
 1272SOL    HW215279   3.525   4.440   2.280 -0.0451  0.7257 -0.1279
 1273SOL     OW15280   0.162   1.917   5.338 -0.0550  0.4100 -0.5055
 1273SOL    HW115281   0.234   1.930   5.400  0.4922  0.1668 -1.0953
 1273SOL    HW215282   0.120   2.003   5.332  0.9421  0.7729 -2.4341
 1274SOL     OW15283   0.747   1.054  14.972  0.7628  0.2191 -0.5985
 1274SOL    HW115284   0.711   0.969  14.946 -3.3415  1.3301  1.4331
 1274SOL    HW215285   0.677   1.087  15.028  2.8545  1.0533  1.5083
 1275SOL     OW15286   3.395   3.777   9.191  0.5692  0.3192  0.2241
 1275SOL    HW115287   3.449   3.796   9.268 -0.4175  0.7590  0.8118
 1275SOL    HW215288   3.367   3.863   9.159  0.7695 -0.1052 -1.0622
 1276SOL     OW15289   0.567   3.466  14.657  0.8852  0.0245 -0.3798
 1276SOL    HW115290   0.516   3.509  14.588  0.0320 -1.7641 -0.8810
 1276SOL    HW215291   0.495   3.413  14.690  0.6656  2.5318  3.1600
 1277SOL     OW15292   3.197   2.992   9.507 -0.0399 -0.4668 -0.0429
 1277SOL    HW115293   3.228   3.079   9.481  0.3124 -0.2540  1.0984
 1277SOL    HW215294   3.109   2.989   9.470  1.3522  0.0799 -3.4436
 1278SOL     OW15295   3.773   4.061   9.533 -0.3705  0.0316 -0.0100
 1278SOL    HW115296   3.835   4.037   9.602 -0.8263  0.2075  0.4713
 1278SOL    HW215297   3.789   3.992   9.469 -1.5045  1.8075 -2.1735
 1279SOL     OW15298   1.138   2.607  13.618 -0.2828 -0.5581  0.3283
 1279SOL    HW115299   1.230   2.604  13.594 -0.7486 -0.7302 -1.4100
 1279SOL    HW215300   1.097   2.627  13.534  2.1905  3.3066  0.0536
 1280SOL     OW15301   1.723   0.922   4.983  0.0014  0.4881 -0.3607
 1280SOL    HW115302   1.724   0.836   5.024 -3.6881 -0.6286 -2.5851
 1280SOL    HW215303   1.815   0.929   4.957 -0.4746  3.0166 -1.3376
 1281SOL     OW15304   1.376   0.037   3.098 -0.4999  0.0359  0.4253
 1281SOL    HW115305   1.365   4.665   3.104  1.8454 -0.2844 -0.1758
 1281SOL    HW215306   1.355   0.046   3.005 -0.9942 -0.3308  0.4991
 1282SOL     OW15307   4.035   2.422   0.119 -0.2707 -0.2956  0.0922
 1282SOL    HW115308   3.992   2.353   0.169  1.4014 -1.4930 -0.1519
 1282SOL    HW215309   4.125   2.391   0.125  1.4105  4.5393  0.4562
 1283SOL     OW15310   2.632   4.233   5.714 -0.2052 -0.0376  0.0737
 1283SOL    HW115311   2.658   4.243   5.806  0.0384 -2.2146  0.2338
 1283SOL    HW215312   2.715   4.225   5.667  0.2606 -0.1734  0.9199
 1284SOL     OW15313   1.503   0.142   5.426 -0.7384 -0.3998  0.1579
 1284SOL    HW115314   1.484   0.124   5.518  0.8507 -2.4806  0.0711
 1284SOL    HW215315   1.586   0.095   5.419 -0.7540 -0.1906 -1.3895
 1285SOL     OW15316   0.065   3.978   5.910 -0.1640  0.0317 -0.2303
 1285SOL    HW115317   0.100   3.893   5.882  1.2523  0.7792 -0.7033
 1285SOL    HW215318   0.147   4.022   5.931  0.1716 -0.2213 -1.0298
 1286SOL     OW15319   1.149   0.099  17.242 -0.3484 -0.0209  0.0962
 1286SOL    HW115320   1.221   0.101  17.179 -0.4490 -1.4136 -0.0568
 1286SOL    HW215321   1.095   0.029  17.204 -1.3392 -0.3028  2.0256
 1287SOL     OW15322   1.719   1.684   2.767  0.2470 -0.0860 -0.0736
 1287SOL    HW115323   1.656   1.614   2.785 -0.9768  0.9248 -0.3845
 1287SOL    HW215324   1.797   1.665   2.818 -0.1433 -0.9248  0.2095
 1288SOL     OW15325   1.310   3.546   2.348  0.1415  0.5180  0.2540
 1288SOL    HW115326   1.334   3.638   2.341 -0.5973  0.6131 -0.9161
 1288SOL    HW215327   1.357   3.500   2.278 -0.6256  0.5314 -0.2645
 1289SOL     OW15328   4.382   3.009   0.171 -0.4302  0.1954 -0.0109
 1289SOL    HW115329   4.379   2.960   0.089  2.1520 -0.1540  0.0873
 1289SOL    HW215330   4.354   3.097   0.146 -0.0455 -0.1264 -1.5460
 1290SOL     OW15331   0.337   1.153  16.210 -0.0495 -0.7321 -0.8047
 1290SOL    HW115332   0.388   1.077  16.182  1.3042  0.1671 -0.7863
 1290SOL    HW215333   0.407   1.219  16.212 -1.5981  0.8825  0.0375
 1291SOL     OW15334   2.372   1.385   7.332 -0.1245 -0.0827 -0.2576
 1291SOL    HW115335   2.319   1.463   7.348  2.1090  1.0083  1.7453
 1291SOL    HW215336   2.312   1.317   7.363  0.1805  1.0211  2.7565
 1292SOL     OW15337   0.592   4.522  15.995 -0.0996 -0.2741 -0.0143
 1292SOL    HW115338   0.541   4.595  15.961 -0.1919 -0.5863 -0.5612
 1292SOL    HW215339   0.548   4.453  15.945  1.8905 -1.2889 -0.3664
 1293SOL     OW15340   1.716   1.772   8.057 -0.2503 -0.9160  0.3428
 1293SOL    HW115341   1.746   1.681   8.055 -0.3490 -0.9458  0.1588
 1293SOL    HW215342   1.669   1.783   8.140 -0.6455  1.8370 -0.2423
 1294SOL     OW15343   1.196   4.542  11.833 -0.0080  0.2707  0.0577
 1294SOL    HW115344   1.170   4.471  11.891  4.9113  0.0850  2.0076
 1294SOL    HW215345   1.273   4.581  11.875 -0.2232  1.4570 -0.6366
 1295SOL     OW15346   0.019   1.996  17.340  0.0982  0.5123 -0.1397
 1295SOL    HW115347   0.110   1.992  17.311  0.4461 -1.9333  1.2322
 1295SOL    HW215348   4.688   1.972  17.264  0.6624 -1.2781  0.0150
 1296SOL     OW15349   2.412   3.794   6.302 -0.0962  0.5266 -0.0881
 1296SOL    HW115350   2.483   3.797   6.238 -1.0039  1.2412 -1.0526
 1296SOL    HW215351   2.343   3.747   6.255  1.3122 -1.9550  0.3190
 1297SOL     OW15352   2.226   1.144   5.765  0.1800 -0.3739  0.9904
 1297SOL    HW115353   2.189   1.064   5.727  2.8608 -1.6134  0.9609
 1297SOL    HW215354   2.151   1.189   5.803  0.2381 -0.6576  1.4425
 1298SOL     OW15355   4.469   1.931   2.275 -0.1226  0.0816  0.4204
 1298SOL    HW115356   4.398   1.907   2.215 -0.4393 -0.5084  1.0330
 1298SOL    HW215357   4.500   1.844   2.300  0.1772 -0.2064 -0.9336
 1299SOL     OW15358   0.367   3.525   4.152  0.1890 -0.9489  0.5547
 1299SOL    HW115359   0.362   3.575   4.071 -2.2497 -2.0664  0.0095
 1299SOL    HW215360   0.282   3.543   4.192  0.2060 -0.0231  0.1587
 1300SOL     OW15361   2.451   3.146   5.487  0.5105 -0.4215 -0.3447
 1300SOL    HW115362   2.467   3.239   5.500  1.0814 -0.5414 -0.1820
 1300SOL    HW215363   2.470   3.116   5.576 -0.4711  0.3514  0.1194
 1301SOL     OW15364   0.463   2.511   0.464 -0.6382  0.0755  0.3697
 1301SOL    HW115365   0.373   2.530   0.439 -1.0544 -2.2749  0.0883
 1301SOL    HW215366   0.471   2.551   0.551 -1.0023 -1.0206  0.9064
 1302SOL     OW15367   1.335   0.829   7.266 -0.1342 -0.0417 -0.1154
 1302SOL    HW115368   1.363   0.787   7.185  1.1628 -0.3175  0.4736
 1302SOL    HW215369   1.331   0.924   7.259 -1.0293 -0.1324 -0.7859
 1303SOL     OW15370   4.110   4.084   8.436  0.0995  0.4462  0.1449
 1303SOL    HW115371   4.092   4.177   8.422 -0.3529  0.4775  0.9868
 1303SOL    HW215372   4.045   4.056   8.500 -0.5233  1.3542 -0.0934
 1304SOL     OW15373   1.059   0.937   0.057 -0.2711 -0.2345  0.0103
 1304SOL    HW115374   1.001   1.010   0.079  1.0783  0.9064 -0.2282
 1304SOL    HW215375   1.000   0.864   0.076  0.2868 -0.7026 -0.0675
 1305SOL     OW15376   3.540   4.097  12.421 -0.0602  0.4805 -0.4144
 1305SOL    HW115377   3.538   4.070  12.513  1.0794 -1.9830 -1.1071
 1305SOL    HW215378   3.451   4.133  12.417 -0.1331  0.3685  0.2782
 1306SOL     OW15379   2.241   3.631  10.506  0.2567  0.6021  0.4512
 1306SOL    HW115380   2.189   3.558  10.539  2.9327 -0.7940  1.5368
 1306SOL    HW215381   2.181   3.703  10.487  1.0192  1.6329  1.9157
 1307SOL     OW15382   1.663   2.227   7.120 -0.3511  0.2026  0.2426
 1307SOL    HW115383   1.585   2.182   7.089  1.0929 -0.2030 -2.7342
 1307SOL    HW215384   1.653   2.238   7.215 -0.2001  1.6952  0.0882
 1308SOL     OW15385   3.830   0.001   5.826  0.5046  0.0452 -0.4562
 1308SOL    HW115386   3.876   0.006   5.742 -1.8260 -0.4834 -1.7703
 1308SOL    HW215387   3.769   0.070   5.803 -1.3212 -1.6212 -0.6137
 1309SOL     OW15388   1.606   2.426  15.788 -0.2714 -0.0366 -0.4209
 1309SOL    HW115389   1.670   2.387  15.848  0.3950  2.5399  0.5551
 1309SOL    HW215390   1.657   2.435  15.708 -0.4006  0.9976 -0.3804
 1310SOL     OW15391   2.121   2.159  10.583  0.0328  0.0608  0.5218
 1310SOL    HW115392   2.104   2.180  10.675  0.2339  1.7678  0.1613
 1310SOL    HW215393   2.207   2.120  10.596  0.2741  0.0962 -0.9658
 1311SOL     OW15394   2.843   1.221   9.455  0.8346  0.0871  0.0379
 1311SOL    HW115395   2.767   1.170   9.428  0.4563  0.8929 -0.4062
 1311SOL    HW215396   2.844   1.292   9.390 -3.6017  1.1690  1.1810
 1312SOL     OW15397   0.423   3.173  17.491 -0.0282  0.1274  0.0548
 1312SOL    HW115398   0.504   3.148  17.535 -1.4158 -1.4200  1.7640
 1312SOL    HW215399   0.357   3.120  17.536 -1.4147  0.1589 -1.9415
 1313SOL     OW15400   2.968   0.755   1.562  0.1855 -0.2388  0.1819
 1313SOL    HW115401   2.959   0.713   1.476 -1.3313  1.4933 -0.5029
 1313SOL    HW215402   2.894   0.816   1.560  1.5670  1.4154 -0.4019
 1314SOL     OW15403   2.620   4.532  15.561 -0.3463 -0.5549 -0.0508
 1314SOL    HW115404   2.654   4.473  15.628  2.0715  1.2417  0.2886
 1314SOL    HW215405   2.636   4.474  15.486 -1.6136  0.3596 -1.0313
 1315SOL     OW15406   0.110   2.433   2.745  0.2558  0.1891 -0.6406
 1315SOL    HW115407   0.084   2.460   2.657  2.2935  1.5835 -0.8268
 1315SOL    HW215408   0.131   2.341   2.724  1.6917 -0.0862  2.0507
 1316SOL     OW15409   1.952   3.778   6.231  0.2021 -0.1178 -0.3889
 1316SOL    HW115410   1.910   3.853   6.272 -0.6492 -0.3827 -0.7627
 1316SOL    HW215411   1.939   3.711   6.299 -0.6943  1.8789  1.3882
 1317SOL     OW15412   4.198   4.512   5.877 -0.1182  0.5506 -0.1736
 1317SOL    HW115413   4.221   4.466   5.957  0.4141  0.0205 -0.6358
 1317SOL    HW215414   4.188   4.436   5.819 -2.7403  2.0422 -1.6981
 1318SOL     OW15415   3.099   2.214   6.003 -0.2102 -0.0761  0.0560
 1318SOL    HW115416   3.042   2.270   5.950 -1.9139 -0.6772  1.2577
 1318SOL    HW215417   3.094   2.244   6.094  2.3192  1.3163 -0.2502
 1319SOL     OW15418   3.402   1.612  15.892  0.7736  0.1388 -0.0298
 1319SOL    HW115419   3.336   1.639  15.828  1.0114  2.9627  0.9128
 1319SOL    HW215420   3.437   1.698  15.911  1.4153 -0.2830  0.6999
 1320SOL     OW15421   2.049   2.163   7.191 -0.1484 -0.0877 -0.2308
 1320SOL    HW115422   1.959   2.134   7.208  0.0649 -0.6332 -0.0159
 1320SOL    HW215423   2.104   2.100   7.239  0.0616 -1.0979 -1.7993
 1321SOL     OW15424   0.725   1.633  10.468  0.0635 -1.1593  0.3118
 1321SOL    HW115425   0.703   1.710  10.521 -1.2078 -0.2657 -1.4844
 1321SOL    HW215426   0.751   1.581  10.544  0.1571  1.6950  2.2333
 1322SOL     OW15427   4.187   1.065   8.781  0.2193 -0.5202  0.1414
 1322SOL    HW115428   4.133   1.006   8.833 -1.0708  1.5776  1.1669
 1322SOL    HW215429   4.128   1.141   8.779  0.2257 -0.5173  0.0515
 1323SOL     OW15430   0.164   2.218  14.909  0.7821 -0.9465  0.2096
 1323SOL    HW115431   0.200   2.177  14.830  1.4035  1.4259 -0.7325
 1323SOL    HW215432   0.101   2.159  14.951  0.5631 -0.7614  0.1403
 1324SOL     OW15433   1.904   1.898   2.306  0.5074 -0.0842 -0.1142
 1324SOL    HW115434   1.924   1.992   2.312 -0.2471 -0.0917  2.3083
 1324SOL    HW215435   1.992   1.863   2.298  0.1710 -1.1050  0.6215
 1325SOL     OW15436   0.726   0.115   1.262  0.1214  0.3118  0.1922
 1325SOL    HW115437   0.776   0.041   1.295 -1.0176  0.0444  1.3135
 1325SOL    HW215438   0.710   0.091   1.171  1.3134  1.8471 -0.4158
 1326SOL     OW15439   1.138   3.845   4.964  0.1039  0.3694 -0.2591
 1326SOL    HW115440   1.218   3.879   4.924  1.3343 -0.8383  1.2166
 1326SOL    HW215441   1.138   3.888   5.049 -0.9051  1.0526 -0.5989
 1327SOL     OW15442   3.161   2.153   4.795  0.0186 -0.5943 -0.1438
 1327SOL    HW115443   3.117   2.172   4.878  1.5511  1.5878  0.1808
 1327SOL    HW215444   3.250   2.181   4.815 -0.4429  0.7138  0.0866
 1328SOL     OW15445   3.639   3.988   6.904 -0.6061 -0.0764  0.3738
 1328SOL    HW115446   3.678   4.074   6.920  1.5095 -1.5536  3.0220
 1328SOL    HW215447   3.552   4.021   6.881 -1.3412 -1.0402  1.8040
 1329SOL     OW15448   4.328   1.934  12.998 -0.1461  0.1079  0.0580
 1329SOL    HW115449   4.311   1.865  13.063 -2.6485  1.3266  0.7024
 1329SOL    HW215450   4.422   1.946  12.986 -0.4169  0.9058 -1.2514
 1330SOL     OW15451   2.084   1.907   9.421  0.8157 -0.8593  0.7609
 1330SOL    HW115452   2.113   1.944   9.505 -1.6320  2.3244  0.2074
 1330SOL    HW215453   2.040   1.982   9.381  3.0570 -0.9207 -1.8509
 1331SOL     OW15454   3.046   2.739   4.521  0.8696 -0.4706 -0.4782
 1331SOL    HW115455   3.029   2.683   4.596 -1.1580 -0.2460 -0.7788
 1331SOL    HW215456   3.016   2.673   4.459 -3.3245  0.4585  0.5888
 1332SOL     OW15457   0.219   0.526   3.518 -0.0096 -0.1120 -0.4707
 1332SOL    HW115458   0.184   0.571   3.441  1.5561  0.6027 -0.7614
 1332SOL    HW215459   0.216   0.600   3.580  3.0711 -0.5325  0.1697
 1333SOL     OW15460   2.128   0.250  10.325 -0.1766  0.2238  0.3329
 1333SOL    HW115461   2.178   0.188  10.272 -1.2314 -1.0110  0.7648
 1333SOL    HW215462   2.043   0.212  10.303  0.9389 -1.4687 -1.0767
 1334SOL     OW15463   0.393   2.986   1.638  0.0999  0.0590 -0.4600
 1334SOL    HW115464   0.382   3.072   1.678  0.7496  1.0681 -2.4079
 1334SOL    HW215465   0.445   2.939   1.702 -1.9743 -1.2505  0.2468
 1335SOL     OW15466   3.782   0.403  16.828 -0.8003  0.2306  0.0802
 1335SOL    HW115467   3.811   0.313  16.842  0.1147  1.0892  3.5812
 1335SOL    HW215468   3.706   0.400  16.886 -1.3960 -0.0777 -0.7281
 1336SOL     OW15469   2.790   3.194   5.432  0.5138  0.0034 -0.8763
 1336SOL    HW115470   2.751   3.186   5.519  1.6703  1.4432 -0.2238
 1336SOL    HW215471   2.862   3.253   5.453 -0.0509  0.3540  0.1023
 1337SOL     OW15472   3.095   2.783   4.901 -0.1473  0.8341  0.2457
 1337SOL    HW115473   3.141   2.715   4.852  0.9074  0.0510  2.3206
 1337SOL    HW215474   3.140   2.778   4.985 -0.8090  1.1459  0.6161
 1338SOL     OW15475   4.364   0.267   1.679  0.1980 -0.1148  0.2316
 1338SOL    HW115476   4.446   0.310   1.654  0.6554 -0.5324  1.0300
 1338SOL    HW215477   4.377   0.177   1.649  0.6944  0.0683 -0.1082
 1339SOL     OW15478   1.664   0.250   4.817  0.1029 -0.7974 -0.5251
 1339SOL    HW115479   1.657   0.342   4.793  0.4746 -0.9380 -1.2032
 1339SOL    HW215480   1.627   0.257   4.904  0.2652  1.9542 -0.6915
 1340SOL     OW15481   4.051   1.893   6.513 -0.2938  0.1682  0.6943
 1340SOL    HW115482   3.981   1.854   6.565 -0.2207 -1.8332 -0.6758
 1340SOL    HW215483   4.046   1.983   6.544 -0.0118 -0.1838  1.7845
 1341SOL     OW15484   2.735   2.400   8.524 -0.2648  0.0237 -0.4833
 1341SOL    HW115485   2.775   2.487   8.526  0.1724 -0.1829 -0.0479
 1341SOL    HW215486   2.650   2.422   8.561 -0.2959 -1.4887  0.3271
 1342SOL     OW15487   1.794   2.177  16.406 -0.4212 -1.2164 -0.5307
 1342SOL    HW115488   1.758   2.132  16.329 -0.9846 -0.9780 -0.4053
 1342SOL    HW215489   1.718   2.174  16.464 -1.8560 -1.9668 -2.4398
 1343SOL     OW15490   3.943   0.577  16.712  0.2777 -0.0078  0.0185
 1343SOL    HW115491   3.987   0.499  16.680  0.3384 -0.2102  0.5924
 1343SOL    HW215492   3.907   0.546  16.795 -0.1612  0.7068  0.0985
 1344SOL     OW15493   1.617   0.353   5.912 -0.1368  0.0100 -0.6281
 1344SOL    HW115494   1.664   0.284   5.866  2.1524  0.7290  0.6262
 1344SOL    HW215495   1.655   0.333   5.998  2.6085  0.5612 -1.7345
 1345SOL     OW15496   2.040   4.475   0.107 -0.6194  0.0777  0.3810
 1345SOL    HW115497   2.100   4.520   0.167  1.0119 -3.5429  1.4298
 1345SOL    HW215498   1.973   4.544   0.104 -0.2689  0.4674  1.4140
 1346SOL     OW15499   0.817   0.944   7.821 -1.0124  0.3659  0.0490
 1346SOL    HW115500   0.888   0.910   7.767 -0.0976  0.2598  1.3421
 1346SOL    HW215501   0.853   0.941   7.910  2.2141 -2.2937 -1.3540
 1347SOL     OW15502   1.445   1.226  13.434 -0.3476 -0.4072 -0.6114
 1347SOL    HW115503   1.444   1.130  13.435  0.9621 -0.3989  0.8601
 1347SOL    HW215504   1.367   1.247  13.383  1.1906  2.3717 -1.8323
 1348SOL     OW15505   3.960   4.445  11.372 -0.0496  0.5843  0.1178
 1348SOL    HW115506   3.928   4.368  11.324  0.1197 -0.5038  1.7244
 1348SOL    HW215507   4.037   4.414  11.421  1.2722  0.7217 -1.8746
 1349SOL     OW15508   1.105   3.444  14.404  0.3849 -0.3796 -0.1462
 1349SOL    HW115509   1.120   3.421  14.312 -0.6204  1.3818 -0.7611
 1349SOL    HW215510   1.035   3.510  14.399 -0.3847 -1.2743 -1.2147
 1350SOL     OW15511   1.627   0.441  15.221 -0.0804  0.2836  0.3488
 1350SOL    HW115512   1.684   0.491  15.280 -2.0700  2.5351  0.3504
 1350SOL    HW215513   1.571   0.413  15.294  0.0358  0.9007  0.6766
 1351SOL     OW15514   3.730   2.395   3.533 -0.7546 -0.3164 -0.0710
 1351SOL    HW115515   3.821   2.407   3.560 -0.8686 -0.6556  0.4754
 1351SOL    HW215516   3.716   2.479   3.489 -2.4035  1.7230  4.3100
 1352SOL     OW15517   3.271   3.227   6.239 -0.1877 -0.1306 -0.3835
 1352SOL    HW115518   3.333   3.296   6.215 -0.8039  1.0750  1.4678
 1352SOL    HW215519   3.281   3.175   6.160  3.2144  0.5097 -0.3646
 1353SOL     OW15520   0.245   3.523   9.114 -0.7134 -0.1144 -0.0399
 1353SOL    HW115521   0.212   3.608   9.143  1.2715  1.4933 -2.4693
 1353SOL    HW215522   0.228   3.530   9.020 -0.4116 -0.3548 -0.1123
 1354SOL     OW15523   0.462   2.775   0.310  0.6191 -0.1558 -0.2817
 1354SOL    HW115524   0.454   2.788   0.405 -0.2373 -1.4379 -0.1882
 1354SOL    HW215525   0.404   2.700   0.299  0.2447  0.2821 -1.3357
 1355SOL     OW15526   3.899   4.412   4.738  0.2854 -0.1772  0.9142
 1355SOL    HW115527   3.829   4.349   4.757  0.9626 -1.2894 -0.2471
 1355SOL    HW215528   3.907   4.404   4.643 -0.0852 -3.2172  1.1480
 1356SOL     OW15529   0.828   1.050   7.423  0.2807 -0.2345  0.2646
 1356SOL    HW115530   0.812   0.956   7.412  2.7899 -0.8430  1.7809
 1356SOL    HW215531   0.835   1.076   7.332  0.0003 -0.4394  0.1855
 1357SOL     OW15532   1.640   3.124   8.713 -0.2158  0.3321 -0.4280
 1357SOL    HW115533   1.581   3.198   8.727 -0.3874  0.2580 -0.7548
 1357SOL    HW215534   1.687   3.107   8.794 -0.9293 -0.6393 -0.2134
 1358SOL     OW15535   1.408   2.408  12.612 -0.4748  0.5157  1.0085
 1358SOL    HW115536   1.411   2.499  12.641 -0.3046  0.7539  0.2417
 1358SOL    HW215537   1.367   2.421  12.527  4.0029 -0.6840 -1.3497
 1359SOL     OW15538   2.202   0.835   7.502 -0.2780 -0.3948 -0.1736
 1359SOL    HW115539   2.281   0.857   7.452 -0.5021 -0.4646 -0.5615
 1359SOL    HW215540   2.196   0.739   7.501  1.6309 -0.4952 -1.6844
 1360SOL     OW15541   1.044   1.461   8.786  0.2175 -0.6848  0.1773
 1360SOL    HW115542   1.050   1.425   8.697 -2.5877 -1.0303  0.1178
 1360SOL    HW215543   0.958   1.428   8.811 -0.6867  2.0152  0.6414
 1361SOL     OW15544   3.053   1.807  11.709 -0.2351 -0.3691 -0.2667
 1361SOL    HW115545   3.047   1.749  11.634 -0.3087  0.7887 -1.1613
 1361SOL    HW215546   3.041   1.754  11.788  0.4153  1.9802  1.4105
 1362SOL     OW15547   2.835   2.951   6.901 -0.4475  0.5478 -0.2466
 1362SOL    HW115548   2.786   2.947   6.983  1.1646  1.1001  0.7271
 1362SOL    HW215549   2.814   2.866   6.862  1.8784  0.3800 -1.1585
 1363SOL     OW15550   2.491   2.597   3.486  0.0437 -0.7855  0.4062
 1363SOL    HW115551   2.554   2.613   3.557  0.3602 -2.0412  0.4128
 1363SOL    HW215552   2.412   2.634   3.525  0.5808 -1.1362  1.8614
 1364SOL     OW15553   1.682   0.120   5.748 -0.2367 -0.4423 -0.2334
 1364SOL    HW115554   1.590   0.104   5.727 -0.0364  0.6410 -1.9721
 1364SOL    HW215555   1.712   0.036   5.782  0.1378 -0.7934 -1.3959
 1365SOL     OW15556   0.937   1.136   5.594 -0.2528  0.0994  0.3452
 1365SOL    HW115557   0.999   1.181   5.536 -2.2830  0.0054 -1.9160
 1365SOL    HW215558   0.872   1.105   5.531 -1.4811 -0.1057  1.7163
 1366SOL     OW15559   1.583   1.114   1.928 -0.3889  0.0981  0.4071
 1366SOL    HW115560   1.645   1.172   1.973 -1.8284  0.9483  1.2865
 1366SOL    HW215561   1.592   1.032   1.976  0.3238  0.0666  0.2253
 1367SOL     OW15562   4.321   1.483   3.098  0.1704 -0.5207  0.0302
 1367SOL    HW115563   4.323   1.401   3.050 -1.0229  0.2851 -1.3980
 1367SOL    HW215564   4.344   1.543   3.027  1.3047 -0.7514  0.1990
 1368SOL     OW15565   1.432   1.337   4.715  0.6497  0.3362  0.4783
 1368SOL    HW115566   1.374   1.397   4.667  1.9525  2.7104  1.8747
 1368SOL    HW215567   1.372   1.262   4.725  0.8989  0.0158 -0.4782
 1369SOL     OW15568   3.546   1.026   1.191  0.5791  0.1619  0.1709
 1369SOL    HW115569   3.593   1.014   1.108 -2.5587 -2.1858 -1.2523
 1369SOL    HW215570   3.508   1.112   1.174  1.0980  0.2556 -0.5813
 1370SOL     OW15571   3.149   2.408   6.721 -0.6462 -0.5180 -0.4954
 1370SOL    HW115572   3.098   2.364   6.788 -0.8829  0.1942 -0.2050
 1370SOL    HW215573   3.149   2.499   6.750 -0.3232 -0.5630 -0.3500
 1371SOL     OW15574   0.035   3.302  10.442  0.1761  0.2299 -0.0505
 1371SOL    HW115575   0.085   3.245  10.384  1.8791 -0.9568  2.6098
 1371SOL    HW215576   0.025   3.382  10.391 -0.0835  1.8565  2.5438
 1372SOL     OW15577   3.595   0.392   1.481  0.2952  0.1557 -0.3615
 1372SOL    HW115578   3.568   0.315   1.530 -1.0554  1.5532  1.1041
 1372SOL    HW215579   3.506   0.420   1.459 -0.7248 -0.0562  3.4337
 1373SOL     OW15580   2.345   0.930   0.275 -0.0575 -0.2155 -0.3756
 1373SOL    HW115581   2.253   0.957   0.268  0.3467  1.5360  1.1778
 1373SOL    HW215582   2.383   0.977   0.201 -0.9039  3.7398  1.6914
 1374SOL     OW15583   2.908   0.176   5.185 -0.2650  0.1515  0.7418
 1374SOL    HW115584   2.885   0.262   5.150  0.3857 -0.1253 -0.3370
 1374SOL    HW215585   2.865   0.170   5.271 -0.3836  3.6480  0.9516
 1375SOL     OW15586   4.556   0.674   1.945 -0.3700 -0.2430  0.2718
 1375SOL    HW115587   4.577   0.582   1.929 -1.0648 -0.6485  1.6867
 1375SOL    HW215588   4.462   0.663   1.927 -0.1738 -0.9326 -0.3454
 1376SOL     OW15589   3.890   1.540   3.696  0.3247  0.0458  0.8522
 1376SOL    HW115590   3.841   1.457   3.705  0.2172  0.1177  0.9343
 1376SOL    HW215591   3.893   1.579   3.784  0.0599 -0.0296  0.8956
 1377SOL     OW15592   1.049   2.613   5.964 -0.0356  0.2796  0.2237
 1377SOL    HW115593   1.136   2.588   5.995  0.2172  0.0811 -0.6475
 1377SOL    HW215594   1.001   2.529   5.965  1.3267 -0.4682  3.2958
 1378SOL     OW15595   2.636   2.523   0.168 -0.0929 -0.1378  0.0529
 1378SOL    HW115596   2.649   2.600   0.223  3.4165  0.1446 -1.1268
 1378SOL    HW215597   2.562   2.476   0.206 -0.1548 -0.1060 -0.0274
 1379SOL     OW15598   1.966   3.029   3.030  0.9627  0.6867 -0.0142
 1379SOL    HW115599   1.882   3.073   3.042  0.7288  0.5130 -0.9967
 1379SOL    HW215600   2.006   3.064   3.109  1.4060 -1.8919  0.8729
 1380SOL     OW15601   0.497   3.983   1.722  0.4962 -0.0752  0.4999
 1380SOL    HW115602   0.492   4.078   1.717  0.1246 -0.1285 -0.1438
 1380SOL    HW215603   0.485   3.970   1.816 -3.2013  2.5578  0.3731
 1381SOL     OW15604   3.139   2.782   3.667  0.1795  0.3536 -0.3285
 1381SOL    HW115605   3.121   2.869   3.704  1.1347  0.7130 -0.7008
 1381SOL    HW215606   3.059   2.758   3.620  1.6824 -2.4070 -1.4586
 1382SOL     OW15607   3.153   0.788   4.565 -0.3515 -0.5046 -0.2265
 1382SOL    HW115608   3.111   0.855   4.511 -2.6607 -1.6615  0.1252
 1382SOL    HW215609   3.245   0.798   4.540  0.1983 -1.0723  1.5738
 1383SOL     OW15610   0.892   2.398  11.032 -0.4879  0.0875 -0.6273
 1383SOL    HW115611   0.961   2.417  10.968 -0.3643 -1.4418 -0.9388
 1383SOL    HW215612   0.820   2.443  10.989 -1.9839 -0.9787  0.7957
 1384SOL     OW15613   1.463   0.935   7.778  0.3484  0.3483 -0.6629
 1384SOL    HW115614   1.553   0.950   7.805  0.2830  1.2400 -0.9476
 1384SOL    HW215615   1.480   0.860   7.721  2.0559 -1.2412  1.9242
 1385SOL     OW15616   0.104   2.417   5.932  0.3571  0.3480 -0.4714
 1385SOL    HW115617   0.015   2.422   5.896  0.0059  0.5490  0.4344
 1385SOL    HW215618   0.096   2.484   6.001  0.8172  1.3265 -1.3568
 1386SOL     OW15619   0.545   3.041   0.092  0.0050  0.0841  0.3518
 1386SOL    HW115620   0.574   3.124   0.132 -1.9207  0.0457  1.8215
 1386SOL    HW215621   0.614   3.038   0.025 -0.8825  2.0448 -0.6487
 1387SOL     OW15622   2.905   0.361  13.586 -0.3364 -0.6682 -0.1145
 1387SOL    HW115623   2.830   0.411  13.619  1.1429  1.4746 -0.0234
 1387SOL    HW215624   2.924   0.305  13.661 -2.2040 -0.2636  0.6831
 1388SOL     OW15625   1.075   3.685   2.499  0.2110  0.5749 -0.3585
 1388SOL    HW115626   1.122   3.625   2.441  0.2148 -0.9851  1.2399
 1388SOL    HW215627   0.990   3.705   2.460  0.0782  2.1484  0.7464
 1389SOL     OW15628   1.417   2.174  15.828 -0.1396 -0.3336  0.4489
 1389SOL    HW115629   1.504   2.212  15.842 -0.5114  0.4832  0.5310
 1389SOL    HW215630   1.449   2.145  15.742  1.6387  0.0154  0.9883
 1390SOL     OW15631   1.482   1.628   3.335 -0.3088  0.2632  0.1672
 1390SOL    HW115632   1.403   1.588   3.370  0.8879 -0.3590  2.2039
 1390SOL    HW215633   1.507   1.683   3.409 -1.1984 -0.2469  0.8465
 1391SOL     OW15634   3.858   0.951   8.263  0.1576 -0.0620 -0.2804
 1391SOL    HW115635   3.935   1.009   8.264  0.4216 -0.4138  0.3005
 1391SOL    HW215636   3.818   0.957   8.177 -2.5389 -0.9469  0.9068
 1392SOL     OW15637   2.422   4.191   8.439  0.2576 -0.3523 -0.3329
 1392SOL    HW115638   2.374   4.218   8.518  1.9317  1.1780  0.1693
 1392SOL    HW215639   2.356   4.204   8.372 -0.0783 -0.9652 -0.1253
 1393SOL     OW15640   3.749   4.240   2.501  0.1760  0.1090  0.0668
 1393SOL    HW115641   3.658   4.215   2.515 -0.2464  1.1778 -0.7804
 1393SOL    HW215642   3.724   4.281   2.418  3.1461 -0.4891 -1.0967
 1394SOL     OW15643   3.431   1.939   6.502 -0.1345 -0.1319  0.2432
 1394SOL    HW115644   3.396   2.027   6.510 -0.9149 -0.4417  0.2537
 1394SOL    HW215645   3.351   1.899   6.536 -1.1821  1.8154  0.0482
 1395SOL     OW15646   1.242   4.652  15.548  0.3793  0.1076 -0.1616
 1395SOL    HW115647   1.308   4.688  15.489  0.9268  0.8869  0.9246
 1395SOL    HW215648   1.174   4.720  15.539  1.3104  1.3082  1.8461
 1396SOL     OW15649   2.197   3.386   1.212 -0.4907  0.4140  0.9467
 1396SOL    HW115650   2.229   3.356   1.127  0.7863 -0.3173  1.6672
 1396SOL    HW215651   2.168   3.474   1.190  3.3837  1.3321 -0.5073
 1397SOL     OW15652   1.007   4.319   5.471  0.6158 -0.2484 -0.2794
 1397SOL    HW115653   0.943   4.388   5.450 -0.3842 -1.4702 -1.2542
 1397SOL    HW215654   0.984   4.247   5.413  1.2003 -0.6545 -0.0041
 1398SOL     OW15655   3.252   4.300  10.570 -0.0947 -0.5142 -0.0181
 1398SOL    HW115656   3.300   4.377  10.600 -2.8240  1.2141 -0.0761
 1398SOL    HW215657   3.288   4.245  10.639  1.0964 -2.4591 -2.1979
 1399SOL     OW15658   4.077   1.808   8.544 -0.3521  0.0221  0.2511
 1399SOL    HW115659   4.120   1.784   8.626  1.1994  0.6476 -0.3798
 1399SOL    HW215660   3.987   1.804   8.576 -0.9505  2.4622 -1.1141
 1400SOL     OW15661   3.392   3.402   7.609 -0.0207 -0.5115 -0.1422
 1400SOL    HW115662   3.471   3.455   7.620 -0.5260 -0.0197  1.1863
 1400SOL    HW215663   3.322   3.446   7.658  3.2314  1.8126  2.4898
 1401SOL     OW15664   0.850   3.434   3.638 -0.4488  0.4338  0.5872
 1401SOL    HW115665   0.814   3.361   3.586 -2.6447  2.1287 -0.2738
 1401SOL    HW215666   0.912   3.393   3.698  0.2895 -0.0326 -0.5029
 1402SOL     OW15667   0.592   2.615  13.719 -0.2634  1.1281 -0.2476
 1402SOL    HW115668   0.539   2.656  13.787  0.3369 -3.9974  3.3225
 1402SOL    HW215669   0.542   2.534  13.712  0.6791  0.4239  1.1969
 1403SOL     OW15670   1.324   3.790   5.672  0.1395  0.7136 -0.3020
 1403SOL    HW115671   1.353   3.748   5.754 -0.0090 -1.3290 -1.2904
 1403SOL    HW215672   1.393   3.852   5.651 -0.1457  0.4875 -1.9004
 1404SOL     OW15673   3.504   3.372   6.160 -0.1701  0.1855 -0.4532
 1404SOL    HW115674   3.569   3.340   6.222  0.3035  0.1602 -0.9652
 1404SOL    HW215675   3.545   3.448   6.118  2.0264 -0.3912  0.6664
 1405SOL     OW15676   3.867   0.536  12.241 -0.1668  0.1421  0.2136
 1405SOL    HW115677   3.928   0.466  12.266  0.7237  0.7364 -0.2762
 1405SOL    HW215678   3.886   0.535  12.147  0.1604  0.5812  0.2775
 1406SOL     OW15679   1.957   2.076   5.105  0.3737 -0.4324  0.2947
 1406SOL    HW115680   1.919   1.995   5.140  0.2720 -0.5329 -0.0528
 1406SOL    HW215681   1.995   2.033   5.028  3.7283  0.8198  1.2521
 1407SOL     OW15682   1.053   2.990   8.621  0.1051  0.0603  0.0735
 1407SOL    HW115683   1.139   2.993   8.579  0.3749 -2.3491  0.4692
 1407SOL    HW215684   1.065   2.928   8.693  1.1192 -1.6703 -1.5884
 1408SOL     OW15685   2.789   3.091   4.780 -0.0373 -0.3243 -0.7021
 1408SOL    HW115686   2.798   2.998   4.759 -0.5020 -1.0387  2.3967
 1408SOL    HW215687   2.851   3.130   4.718  1.8321 -1.6582  0.3320
 1409SOL     OW15688   4.654   4.716   8.168 -0.8859 -0.0952  0.2218
 1409SOL    HW115689   4.722   4.649   8.168 -0.5371  0.2563 -0.1104
 1409SOL    HW215690   4.693   0.060   8.225 -0.2659 -1.1900  1.0747
 1410SOL     OW15691   1.038   0.168   0.574 -0.3669  0.6517  0.5550
 1410SOL    HW115692   0.943   0.165   0.581 -0.7689  3.0212 -4.0537
 1410SOL    HW215693   1.058   0.087   0.621 -1.3308 -0.1037 -0.3237
 1411SOL     OW15694   1.323   2.279   7.819  0.2340  0.4874  0.4993
 1411SOL    HW115695   1.396   2.220   7.836 -0.2073  0.3641  2.0060
 1411SOL    HW215696   1.249   2.219   7.818  1.1779 -0.5927 -2.5085
 1412SOL     OW15697   0.025   4.327   5.279  0.4866  0.4174  0.6530
 1412SOL    HW115698   0.057   4.257   5.336 -0.4698  0.5519  1.3533
 1412SOL    HW215699   4.657   4.300   5.295  0.6222  0.3779  1.3337
 1413SOL     OW15700   2.451   3.575  13.528  0.0948  0.2609 -0.0178
 1413SOL    HW115701   2.439   3.588  13.434 -0.6694 -0.3899 -0.0138
 1413SOL    HW215702   2.454   3.667  13.555  0.2619  0.0221  0.7925
 1414SOL     OW15703   1.887   0.300   5.794  0.0468 -0.5100 -0.0486
 1414SOL    HW115704   1.909   0.255   5.876  2.7077  0.9423  0.0412
 1414SOL    HW215705   1.837   0.236   5.744  0.6056  0.7995 -2.2737
 1415SOL     OW15706   4.317   0.931   3.228  0.1638  0.0668  0.2535
 1415SOL    HW115707   4.342   0.863   3.165 -1.7115  0.1247 -0.5453
 1415SOL    HW215708   4.268   0.888   3.298 -0.2207  1.7115  1.0107
 1416SOL     OW15709   3.047   4.160   9.232  0.5929  0.0087  0.4476
 1416SOL    HW115710   3.051   4.253   9.255  3.1767 -0.1357  0.5913
 1416SOL    HW215711   3.105   4.125   9.299 -0.5448  1.9091  2.4382
 1417SOL     OW15712   2.444   2.192  12.840  0.5793  0.4190 -0.1781
 1417SOL    HW115713   2.434   2.176  12.747 -1.6799 -2.7636  0.6212
 1417SOL    HW215714   2.439   2.101  12.869  3.8168 -0.1587 -1.5075
 1418SOL     OW15715   2.445   4.666   8.017  0.3581  0.2496  0.2351
 1418SOL    HW115716   2.409   4.627   8.097  1.4007  1.3888  1.2532
 1418SOL    HW215717   2.503   0.007   8.058 -0.6098  0.8582  0.6579
 1419SOL     OW15718   2.143   0.510   6.663 -0.3184 -0.3828  0.6013
 1419SOL    HW115719   2.115   0.464   6.584  0.1062  0.3403  0.0300
 1419SOL    HW215720   2.059   0.542   6.695  0.2155  2.7095 -1.1303
 1420SOL     OW15721   1.477   3.965  13.081 -0.4901 -0.3905  0.0086
 1420SOL    HW115722   1.413   3.908  13.121 -0.7856  1.7482  2.5893
 1420SOL    HW215723   1.528   3.981  13.161 -0.7431  0.4101  0.0156
 1421SOL     OW15724   0.025   3.801   8.777 -0.3460 -0.2856  0.3939
 1421SOL    HW115725   4.692   3.822   8.852  1.4380  2.5623  0.9272
 1421SOL    HW215726   4.694   3.836   8.706  1.6550 -0.1292 -1.0455
 1422SOL     OW15727   3.110   3.496   2.001  0.4008 -0.4013 -0.3709
 1422SOL    HW115728   3.018   3.511   2.021  0.5968 -0.5306  0.6453
 1422SOL    HW215729   3.136   3.577   1.957  0.9109 -1.5649 -2.2262
 1423SOL     OW15730   2.770   0.471  12.091 -0.2060 -0.7062  0.1864
 1423SOL    HW115731   2.761   0.564  12.072 -0.0811 -0.6744  0.2786
 1423SOL    HW215732   2.685   0.432  12.073 -0.8328  0.6506  0.2038
 1424SOL     OW15733   3.759   2.802   2.167 -0.1241 -0.8858 -0.0941
 1424SOL    HW115734   3.796   2.713   2.166  0.0185 -0.7681 -3.2341
 1424SOL    HW215735   3.836   2.849   2.137 -0.6543 -0.3759 -0.6397
 1425SOL     OW15736   1.680   3.989   4.267 -0.6524  0.1192 -0.0277
 1425SOL    HW115737   1.697   4.032   4.183 -1.5114 -2.2064 -1.4073
 1425SOL    HW215738   1.688   3.901   4.232  2.2877 -0.0258  1.0107
 1426SOL     OW15739   3.693   4.342   2.265  0.3025  0.2228  0.3513
 1426SOL    HW115740   3.764   4.400   2.237 -0.5344  1.0229 -0.0904
 1426SOL    HW215741   3.719   4.265   2.214  2.2671  1.1770 -0.0897
 1427SOL     OW15742   0.229   0.857   8.280  0.3008  0.2468 -0.1051
 1427SOL    HW115743   0.227   0.924   8.348 -0.7436  0.6553 -0.5301
 1427SOL    HW215744   0.267   0.902   8.205 -1.3025  1.0563 -0.4231
 1428SOL     OW15745   1.893   4.078   4.499  0.3095  1.0888  0.8430
 1428SOL    HW115746   1.871   4.147   4.436  0.5774 -0.8610 -1.3862
 1428SOL    HW215747   1.949   4.017   4.452 -1.9508  0.3541 -0.9147
 1429SOL     OW15748   4.517   1.392  13.977 -0.0515 -0.5308 -0.3026
 1429SOL    HW115749   4.600   1.397  13.927  0.6678 -1.9189  0.7636
 1429SOL    HW215750   4.509   1.487  13.988 -0.1703 -0.4512 -1.0537
 1430SOL     OW15751   2.250   4.267   8.920 -0.4097  0.0589  0.1272
 1430SOL    HW115752   2.198   4.191   8.946  1.7665 -0.0596  4.2080
 1430SOL    HW215753   2.289   4.301   9.001 -0.7383 -0.7516  0.6278
 1431SOL     OW15754   0.717   4.650   0.357 -0.0992 -0.0430  0.6223
 1431SOL    HW115755   0.691   4.557   0.354  2.4849 -0.7788  0.7455
 1431SOL    HW215756   0.639   4.699   0.330 -0.4485 -2.2251 -2.4249
 1432SOL     OW15757   3.324   3.698   8.274 -0.4894 -0.8061 -0.1295
 1432SOL    HW115758   3.404   3.744   8.300 -1.3282 -0.0395  1.1058
 1432SOL    HW215759   3.252   3.723   8.331  1.1385 -0.8596  1.9598
 1433SOL     OW15760   0.119   3.012   1.119 -0.0314 -0.0596 -0.9313
 1433SOL    HW115761   0.099   2.963   1.198 -1.3094  0.5078 -0.8904
 1433SOL    HW215762   0.050   2.979   1.060 -2.7484  3.6510  0.1597
 1434SOL     OW15763   4.336   4.078   0.380  0.1967 -0.2805  0.4656
 1434SOL    HW115764   4.339   4.014   0.452  0.6152 -2.3447 -1.3686
 1434SOL    HW215765   4.418   4.056   0.335  0.0727  1.3857 -0.5511
 1435SOL     OW15766   1.322   1.538  11.398  0.1133 -0.1518  0.0543
 1435SOL    HW115767   1.395   1.599  11.404 -0.4136  0.6055 -1.2444
 1435SOL    HW215768   1.285   1.532  11.486  1.9073  2.1121  0.9676
 1436SOL     OW15769   2.178   3.352   4.582 -0.2809  0.8588  0.5524
 1436SOL    HW115770   2.135   3.432   4.550 -1.0644  0.3156  0.2390
 1436SOL    HW215771   2.257   3.395   4.613 -0.0563  0.2749  0.7701
 1437SOL     OW15772   4.358   1.755   5.673 -0.6749  0.1215  0.2707
 1437SOL    HW115773   4.406   1.767   5.591 -0.4719  1.2218  0.5581
 1437SOL    HW215774   4.425   1.705   5.720  0.6029  0.4545 -1.1963
 1438SOL     OW15775   3.270   4.131  12.457  0.3850 -0.2449 -0.3075
 1438SOL    HW115776   3.189   4.145  12.507  0.2308  1.1657 -0.9525
 1438SOL    HW215777   3.248   4.148  12.366 -0.7849 -1.4179 -0.2518
 1439SOL     OW15778   1.942   0.683   2.592  0.1981  0.1259 -0.3649
 1439SOL    HW115779   1.867   0.741   2.601  1.6593  1.7477  1.3102
 1439SOL    HW215780   2.011   0.748   2.585 -0.5880  0.5803 -4.0352
 1440SOL     OW15781   3.644   0.250   5.029  0.7271  0.4223  0.5410
 1440SOL    HW115782   3.698   0.172   5.016  0.5341  0.3957 -0.0984
 1440SOL    HW215783   3.558   0.215   5.003 -0.7617  1.7967  3.6875
 1441SOL     OW15784   3.423   3.002   1.389  0.5444 -0.0884 -0.1521
 1441SOL    HW115785   3.340   2.978   1.346 -0.7450  1.6714  1.3476
 1441SOL    HW215786   3.423   3.095   1.366  0.9833  0.7176  3.2218
 1442SOL     OW15787   3.313   0.754   9.598 -0.6717  0.3051  0.0405
 1442SOL    HW115788   3.233   0.803   9.581 -0.6578 -0.0127 -0.9307
 1442SOL    HW215789   3.308   0.729   9.690 -2.7565 -0.1051 -0.1945
 1443SOL     OW15790   1.117   1.037   6.514  0.1293  0.7698  0.2153
 1443SOL    HW115791   1.208   1.025   6.541  0.8426  1.6611 -1.8710
 1443SOL    HW215792   1.086   1.122   6.546 -2.7265  0.4140 -1.6085
 1444SOL     OW15793   3.905   0.253   2.936 -0.0999  0.3081  0.6293
 1444SOL    HW115794   3.850   0.307   2.878  1.2488  0.0543 -0.8924
 1444SOL    HW215795   3.833   0.194   2.958  1.8158 -1.4801  2.0818
 1445SOL     OW15796   0.682   4.070  14.734 -0.1118  0.4677  0.0972
 1445SOL    HW115797   0.753   4.037  14.679  0.6055  0.9538  0.7479
 1445SOL    HW215798   0.715   4.059  14.823  0.6463  1.8490 -0.0183
 1446SOL     OW15799   1.848   3.088   4.902 -0.4406 -0.4074  0.9363
 1446SOL    HW115800   1.914   3.111   4.837 -0.1678 -2.7588  0.3787
 1446SOL    HW215801   1.798   3.023   4.852  0.0746  0.0178 -0.1258
 1447SOL     OW15802   3.119   1.746   2.876  0.6572  0.2965  0.0220
 1447SOL    HW115803   3.163   1.780   2.798  0.6827 -1.1237 -0.5835
 1447SOL    HW215804   3.053   1.690   2.835  0.2903 -0.3073  1.4486
 1448SOL     OW15805   0.491   0.555   7.403  0.6346 -0.0572 -0.1602
 1448SOL    HW115806   0.477   0.638   7.450  1.2518 -0.2839  0.4359
 1448SOL    HW215807   0.550   0.507   7.462 -0.0626  1.5939  1.9134
 1449SOL     OW15808   0.155   1.534   0.077 -0.3610 -0.2435  0.6277
 1449SOL    HW115809   0.189   1.587   0.149 -0.0881 -0.9239  1.0048
 1449SOL    HW215810   0.233   1.526   0.022 -0.5817 -0.6726  0.3798
 1450SOL     OW15811   1.624   1.540   7.422  0.0566 -0.7922  0.2711
 1450SOL    HW115812   1.590   1.627   7.445 -0.7054 -1.5430  2.0083
 1450SOL    HW215813   1.585   1.532   7.335  2.5759  2.8385 -1.1773
 1451SOL     OW15814   2.283   2.156   7.477  0.2010  0.3488  0.1631
 1451SOL    HW115815   2.355   2.216   7.459  0.3749  0.5208  1.4680
 1451SOL    HW215816   2.284   2.096   7.402 -1.1649  2.0421 -1.2179
 1452SOL     OW15817   1.912   0.779  16.997  0.6123 -0.0209 -0.1477
 1452SOL    HW115818   1.895   0.731  17.078  1.7808  2.0736  1.3349
 1452SOL    HW215819   2.002   0.809  17.013  0.4072  1.5702 -2.0189
 1453SOL     OW15820   1.382   4.303   4.199 -0.0597  0.1484 -0.6220
 1453SOL    HW115821   1.423   4.262   4.275 -0.6882 -0.6203 -0.7049
 1453SOL    HW215822   1.327   4.235   4.161  0.1174  0.1617 -0.8977
 1454SOL     OW15823   0.219   4.306   1.972 -0.6323  0.1700 -0.0539
 1454SOL    HW115824   0.251   4.256   2.048 -0.4945  2.6747  1.5349
 1454SOL    HW215825   0.196   4.235   1.912 -0.5980  1.3391 -1.4177
 1455SOL     OW15826   4.231   4.595   7.407 -0.1161 -0.2330  0.5876
 1455SOL    HW115827   4.213   4.684   7.438  1.6407 -0.2256  1.5797
 1455SOL    HW215828   4.324   4.608   7.388 -0.2874 -0.0422 -0.1144
 1456SOL     OW15829   2.132   1.158   3.379 -0.2054 -0.2118 -0.6237
 1456SOL    HW115830   2.227   1.151   3.372  0.0211  1.3907  1.0811
 1456SOL    HW215831   2.115   1.228   3.315  0.4320  0.7624  0.2767
 1457SOL     OW15832   2.809   0.254   0.876 -0.6592  0.2110  0.2119
 1457SOL    HW115833   2.867   0.208   0.936 -0.2908  0.8718  0.3591
 1457SOL    HW215834   2.752   0.187   0.838  1.0281  0.3690 -2.5934
 1458SOL     OW15835   3.292   4.381   7.299  0.2014  0.1190  0.4763
 1458SOL    HW115836   3.323   4.390   7.389 -3.0651  0.6367  1.5521
 1458SOL    HW215837   3.354   4.439   7.255 -1.2356  0.8825 -0.5502
 1459SOL     OW15838   0.917   2.850   3.868  0.5177 -0.3516 -0.1347
 1459SOL    HW115839   0.844   2.910   3.882  1.2210  0.0620  1.7685
 1459SOL    HW215840   0.951   2.828   3.955 -0.1913  0.6158  0.3870
 1460SOL     OW15841   3.797   1.082  11.533 -0.3015 -0.4700  0.0195
 1460SOL    HW115842   3.890   1.103  11.531 -0.6516  1.1426  0.0321
 1460SOL    HW215843   3.789   1.012  11.469  0.1639  0.6118 -1.2057
 1461SOL     OW15844   0.014   0.635   8.745 -0.0352 -0.1682  0.1204
 1461SOL    HW115845   0.001   0.677   8.659  0.5778 -1.3019 -0.5330
 1461SOL    HW215846   4.678   0.561   8.755 -0.0887 -0.1557 -0.0956
 1462SOL     OW15847   4.186   0.283  12.013 -0.7178  0.3456  0.1244
 1462SOL    HW115848   4.197   0.236  12.095  2.0849 -1.7459 -1.4769
 1462SOL    HW215849   4.267   0.256  11.971 -1.3468 -1.3774  0.0175
 1463SOL     OW15850   3.710   2.953   8.630  0.1254 -0.1800 -0.6128
 1463SOL    HW115851   3.723   2.873   8.680  2.8652  1.5653  1.4183
 1463SOL    HW215852   3.756   2.938   8.547 -0.9585 -2.5438 -0.8082
 1464SOL     OW15853   4.150   0.623   2.425 -0.0480  0.4070 -0.2736
 1464SOL    HW115854   4.126   0.651   2.513 -0.9567  1.7434 -0.9548
 1464SOL    HW215855   4.245   0.615   2.439  0.0117 -0.7892 -1.3235
 1465SOL     OW15856   2.461   0.755   4.618  0.0026 -0.2924  0.5934
 1465SOL    HW115857   2.435   0.819   4.685  1.1004  3.4492 -2.5972
 1465SOL    HW215858   2.413   0.792   4.544 -1.5158 -0.2880  1.5746
 1466SOL     OW15859   3.267   1.827   6.042  0.1617  0.3487  0.4092
 1466SOL    HW115860   3.264   1.731   6.036  0.2245  0.4929 -2.1004
 1466SOL    HW215861   3.327   1.850   6.112 -1.5621  3.5234  0.8222
 1467SOL     OW15862   3.794   1.928  16.880 -0.3955  0.6243 -0.1723
 1467SOL    HW115863   3.731   1.983  16.834 -0.7526  0.3144 -0.0549
 1467SOL    HW215864   3.819   1.867  16.810  0.8446  2.5456 -1.3992
 1468SOL     OW15865   3.248   2.677   0.940 -0.6767 -0.3859  0.3722
 1468SOL    HW115866   3.207   2.597   0.906 -1.1054 -0.8031  1.8699
 1468SOL    HW215867   3.245   2.659   1.034  1.9006  0.1446  0.5743
 1469SOL     OW15868   2.124   0.295   4.106  0.4439 -0.4346  0.4747
 1469SOL    HW115869   2.200   0.238   4.090 -0.2984 -1.3025  0.0539
 1469SOL    HW215870   2.174   0.362   4.152 -1.3186 -0.0637  1.8134
 1470SOL     OW15871   1.181   3.805   2.766 -0.3580  0.1329  0.5965
 1470SOL    HW115872   1.116   3.773   2.704  1.2595 -1.3541 -0.3103
 1470SOL    HW215873   1.264   3.810   2.719 -1.9777  1.8195 -2.1588
 1471SOL     OW15874   3.568   2.550  12.813 -0.2953  0.7921  0.5730
 1471SOL    HW115875   3.605   2.637  12.825 -0.6979  0.9430  0.7513
 1471SOL    HW215876   3.475   2.562  12.792  0.1742  0.3124 -1.7585
 1472SOL     OW15877   4.606   2.128   4.723 -0.0889 -0.6761 -0.2389
 1472SOL    HW115878   4.690   2.103   4.762  1.4294  2.1473 -1.6961
 1472SOL    HW215879   4.549   2.159   4.794  0.6531  0.2343 -0.0446
 1473SOL     OW15880   0.184   3.885   9.519  0.2124  0.1449  0.3425
 1473SOL    HW115881   0.254   3.950   9.523 -0.2751  0.8754 -3.3369
 1473SOL    HW215882   0.158   3.903   9.429  0.9212 -0.8221 -0.0603
 1474SOL     OW15883   4.156   3.004  17.486  0.1639 -0.7763 -0.4519
 1474SOL    HW115884   4.109   2.941  17.431  1.1185 -0.4022 -1.7012
 1474SOL    HW215885   4.090   3.067  17.515  0.7341  1.2444 -3.5791
 1475SOL     OW15886   1.223   2.979   5.224  0.3363 -0.1220  0.0235
 1475SOL    HW115887   1.276   3.007   5.150 -0.6405  1.0061 -0.2441
 1475SOL    HW215888   1.228   2.884   5.212  3.0982  0.0279 -0.0178
 1476SOL     OW15889   0.834   2.422   3.856 -0.2204  0.2138 -0.0235
 1476SOL    HW115890   0.788   2.340   3.837  0.2481 -0.2024  0.6452
 1476SOL    HW215891   0.773   2.452   3.923  0.9986  0.6437  0.8754
 1477SOL     OW15892   1.201   2.216   3.502  0.1844 -0.8361 -0.2514
 1477SOL    HW115893   1.265   2.197   3.434  0.2224  0.1754 -0.5046
 1477SOL    HW215894   1.174   2.125   3.512  0.3967 -1.0042 -1.1946
 1478SOL     OW15895   3.799   3.175   5.318  0.6033 -0.3385  0.3064
 1478SOL    HW115896   3.721   3.202   5.366 -0.5632 -1.7700 -0.8048
 1478SOL    HW215897   3.873   3.218   5.362  0.2271 -0.7626  1.3615
 1479SOL     OW15898   3.565   4.683   8.121  0.1459 -0.5368 -0.0017
 1479SOL    HW115899   3.566   0.045   8.166 -0.9223 -0.6700  0.2625
 1479SOL    HW215900   3.660   4.675   8.108  0.4208  1.9116  0.5089
 1480SOL     OW15901   4.098   3.136   4.827 -0.2200  0.1774 -0.1971
 1480SOL    HW115902   4.166   3.074   4.801  0.3934  0.6860  0.1888
 1480SOL    HW215903   4.076   3.092   4.910  0.5386 -0.9196 -0.5811
 1481SOL     OW15904   2.507   3.848   2.960 -0.7468 -0.6627 -0.3355
 1481SOL    HW115905   2.492   3.802   3.043 -1.4157  0.2845  0.0656
 1481SOL    HW215906   2.551   3.787   2.901  1.2428 -1.0074  1.4893
 1482SOL     OW15907   4.381   3.149   7.097  0.2194 -0.0718  0.0409
 1482SOL    HW115908   4.427   3.081   7.147 -0.6520 -1.7612 -1.4318
 1482SOL    HW215909   4.293   3.112   7.102  0.0455  0.2861 -0.4443
 1483SOL     OW15910   3.994   3.906  16.947  0.0715 -0.2351  0.4085
 1483SOL    HW115911   4.076   3.936  16.909 -0.8756 -0.9186 -2.1936
 1483SOL    HW215912   3.967   3.991  16.983  1.3194  0.0082  0.7659
 1484SOL     OW15913   3.995   3.267   6.173  0.7746  0.0223 -0.1950
 1484SOL    HW115914   3.949   3.272   6.090 -0.4251 -1.4307  0.3884
 1484SOL    HW215915   4.048   3.188   6.160  1.8194  0.9261 -1.4281
 1485SOL     OW15916   3.120   2.016  17.153 -0.1788 -0.2479 -0.2850
 1485SOL    HW115917   3.211   2.018  17.125 -0.0930 -0.4321 -0.0211
 1485SOL    HW215918   3.120   2.072  17.231  0.5118 -0.0240 -0.4465
 1486SOL     OW15919   3.539   2.632   2.375 -0.7030 -0.1288 -0.4197
 1486SOL    HW115920   3.612   2.688   2.349 -0.4530 -0.7461 -1.0347
 1486SOL    HW215921   3.474   2.674   2.319 -0.3606  0.5264 -0.3179
 1487SOL     OW15922   0.736   1.328   6.025  0.0811  0.1826  0.0037
 1487SOL    HW115923   0.715   1.290   5.940 -1.0425 -1.0512  0.8378
 1487SOL    HW215924   0.667   1.394   6.033  0.0942  0.5621 -3.1876
 1488SOL     OW15925   4.539   3.661   3.617 -0.6104  0.3238 -0.4369
 1488SOL    HW115926   4.620   3.616   3.592 -2.5998 -2.7135 -1.4390
 1488SOL    HW215927   4.478   3.592   3.589 -0.7159 -1.1660  3.4866
 1489SOL     OW15928   3.058   1.005   1.832  0.2209  0.0994 -0.4580
 1489SOL    HW115929   3.129   0.978   1.773  0.6304 -0.5180  0.3210
 1489SOL    HW215930   3.016   0.922   1.854  0.4426 -0.0444 -0.5671
 1490SOL     OW15931   2.632   4.400  10.647 -0.3165  0.6217 -0.4078
 1490SOL    HW115932   2.652   4.362  10.562 -1.1054  1.6601 -1.0536
 1490SOL    HW215933   2.718   4.382  10.686  0.0849  2.6245 -0.3495
 1491SOL     OW15934   0.435   3.042  16.419 -0.1045 -0.2922  0.4080
 1491SOL    HW115935   0.403   3.036  16.329 -0.9990 -0.1472  0.7138
 1491SOL    HW215936   0.528   3.062  16.413  0.1876 -1.1854  1.7976
 1492SOL     OW15937   0.592   3.004   5.922  0.4139  0.4889  0.0656
 1492SOL    HW115938   0.515   3.053   5.893 -0.3943 -1.6023 -1.2850
 1492SOL    HW215939   0.556   2.917   5.936  0.2754  0.9774  2.8022
 1493SOL     OW15940   1.529   0.949   3.499 -0.1871  0.5873 -0.0212
 1493SOL    HW115941   1.459   0.983   3.444 -0.8301  1.4958  1.3425
 1493SOL    HW215942   1.612   0.979   3.462  0.3633  0.0170  0.7521
 1494SOL     OW15943   1.236   2.179   0.347  0.2573  0.3146  0.3074
 1494SOL    HW115944   1.205   2.266   0.321 -1.4765 -0.7275 -1.1202
 1494SOL    HW215945   1.155   2.133   0.370 -0.8088  2.0689  0.0390
 1495SOL     OW15946   3.304   0.222   1.990 -0.2801 -0.2065  0.0726
 1495SOL    HW115947   3.229   0.165   2.006 -0.4459  0.0468  0.2067
 1495SOL    HW215948   3.274   0.293   1.933 -0.1348 -0.2073 -0.0039
 1496SOL     OW15949   1.851   2.362  15.969 -0.1695  0.2115  0.6421
 1496SOL    HW115950   1.865   2.412  16.049  1.0628 -0.1696  0.6545
 1496SOL    HW215951   1.923   2.385  15.911  0.0446  3.0433  2.0345
 1497SOL     OW15952   4.650   0.588   8.003 -0.2640  0.5625  0.4758
 1497SOL    HW115953   4.668   0.547   7.919 -1.3072  1.4378 -0.1700
 1497SOL    HW215954   4.717   0.656   8.004  0.8147 -0.5194  1.1144
 1498SOL     OW15955   3.064   0.998   3.345  0.0754 -0.1565 -0.2466
 1498SOL    HW115956   3.111   1.053   3.408 -2.5828  1.7517  0.0766
 1498SOL    HW215957   3.123   1.001   3.271 -0.1700  1.1216 -0.3838
 1499SOL     OW15958   4.446   3.244   6.837  0.1815  0.6776 -0.1016
 1499SOL    HW115959   4.417   3.232   6.927 -0.8780 -3.6910 -0.9931
 1499SOL    HW215960   4.536   3.273   6.849 -0.3975  1.8756  1.3903
 1500SOL     OW15961   4.252   1.490   2.409  0.4407  0.0323  0.5714
 1500SOL    HW115962   4.217   1.448   2.488 -0.9636  1.6065  0.7901
 1500SOL    HW215963   4.326   1.534   2.451 -0.5236  2.0016  0.1824
 1501SOL     OW15964   1.461   3.441  10.739  0.4828  0.5788  0.0271
 1501SOL    HW115965   1.399   3.370  10.754  0.5840  0.4372 -0.2150
 1501SOL    HW215966   1.451   3.491  10.820 -1.1356  1.9578 -1.0298
 1502SOL     OW15967   3.575   3.050   2.999 -0.1358 -0.5032 -0.2449
 1502SOL    HW115968   3.655   3.014   2.960 -1.3801 -3.6199  0.1569
 1502SOL    HW215969   3.609   3.085   3.082 -1.0122 -0.4648  0.0949
 1503SOL     OW15970   1.053   1.000  14.777  0.3965 -0.4762  0.1166
 1503SOL    HW115971   1.050   0.949  14.857  1.8129  1.6752  1.5417
 1503SOL    HW215972   0.998   1.076  14.795 -1.5175 -1.9752  0.6171
 1504SOL     OW15973   3.107   2.554   5.163  0.5327  0.0229 -0.0549
 1504SOL    HW115974   3.157   2.627   5.125 -0.6177  0.4820 -0.7089
 1504SOL    HW215975   3.176   2.517   5.218 -0.0000 -0.7316  0.0896
 1505SOL     OW15976   3.161   0.776   4.824  0.5579  0.3698  0.1155
 1505SOL    HW115977   3.138   0.775   4.731  2.5283  0.5064 -0.3960
 1505SOL    HW215978   3.255   0.796   4.823  0.4708  0.7869  0.3210
 1506SOL     OW15979   1.860   1.716  16.477  0.1187 -0.5620 -0.3959
 1506SOL    HW115980   1.814   1.792  16.441  0.9882  0.8288  1.4037
 1506SOL    HW215981   1.907   1.751  16.553  0.9943  1.6713 -1.9557
 1507SOL     OW15982   3.918   2.301   5.454 -0.6207 -0.4832 -0.4399
 1507SOL    HW115983   3.992   2.289   5.395 -0.0484 -1.9994  0.5995
 1507SOL    HW215984   3.865   2.365   5.405 -2.4453 -2.3028 -0.8513
 1508SOL     OW15985   2.898   3.234   9.750 -0.4382  0.1213 -0.2817
 1508SOL    HW115986   2.898   3.149   9.793  1.2981  0.3477  0.1479
 1508SOL    HW215987   2.990   3.234   9.723 -0.6230 -0.4023 -0.9041
 1509SOL     OW15988   1.514   0.031   5.090 -0.4439 -0.1426  0.1144
 1509SOL    HW115989   1.436   0.087   5.088  0.4658  1.0477 -1.3173
 1509SOL    HW215990   1.587   0.092   5.103 -1.7528  1.5146 -0.3819
 1510SOL     OW15991   3.377   0.679   1.207 -0.1149 -0.5319 -0.1993
 1510SOL    HW115992   3.327   0.712   1.132 -2.8941  0.0303  1.8669
 1510SOL    HW215993   3.411   0.764   1.236 -0.1122 -1.0070  1.2057
 1511SOL     OW15994   1.613   1.063   6.354  0.0866 -0.3888  0.4601
 1511SOL    HW115995   1.683   1.128   6.353 -0.4595  0.2250  1.1501
 1511SOL    HW215996   1.563   1.089   6.277  1.8848  0.3545 -0.4520
 1512SOL     OW15997   1.857   4.492   7.972  0.2337 -0.4765  0.1399
 1512SOL    HW115998   1.865   4.517   8.064 -0.1716  3.1497 -0.8456
 1512SOL    HW215999   1.764   4.473   7.973  0.2577 -0.6151 -0.1694
 1513SOL     OW16000   1.502   1.490   2.849  0.4451 -0.2975  0.2078
 1513SOL    HW116001   1.436   1.465   2.913 -0.4905  0.4612 -0.4814
 1513SOL    HW216002   1.580   1.440   2.875  0.0535 -1.3201 -0.5580
 1514SOL     OW16003   2.007   0.939   0.146 -0.1960  0.4766 -0.1137
 1514SOL    HW116004   2.011   0.990   0.226  1.6574  1.2560 -0.7085
 1514SOL    HW216005   1.938   0.983   0.095  1.2864 -0.0298 -2.5614
 1515SOL     OW16006   0.114   3.875   5.513  0.8651  0.2771 -0.5123
 1515SOL    HW116007   0.207   3.873   5.494  0.5591  1.8045 -2.1867
 1515SOL    HW216008   0.069   3.812   5.456  1.7178 -1.1886  0.4102
 1516SOL     OW16009   0.055   3.138   1.674  0.3834 -0.2663 -0.3714
 1516SOL    HW116010   4.708   3.172   1.618  1.2469  2.2956  0.1220
 1516SOL    HW216011   0.076   3.056   1.630 -1.4070  0.0514 -1.8085
 1517SOL     OW16012   4.089   0.587   1.354  0.1660 -0.5427 -0.4531
 1517SOL    HW116013   4.165   0.640   1.330  1.4162 -2.0830  0.1569
 1517SOL    HW216014   4.056   0.655   1.413  1.6362 -0.3702  0.1768
 1518SOL     OW16015   2.277   3.835  10.169  0.2545  0.4916 -0.7221
 1518SOL    HW116016   2.358   3.886  10.175 -0.6517  1.8549 -0.2521
 1518SOL    HW216017   2.227   3.858  10.247  1.6767 -0.3116  0.4156
 1519SOL     OW16018   0.708   2.191   4.744  0.0924  0.0752 -0.5803
 1519SOL    HW116019   0.614   2.204   4.735  0.4060  2.4835 -0.4912
 1519SOL    HW216020   0.743   2.280   4.745 -0.5452  0.3266 -0.9917
 1520SOL     OW16021   3.938   2.913   7.985 -0.2730  0.1199 -0.3811
 1520SOL    HW116022   3.980   2.860   7.917 -0.2449  1.2580 -1.2499
 1520SOL    HW216023   4.014   2.959   8.021  0.1736 -0.7315 -0.2443
 1521SOL     OW16024   1.500   3.743  16.544 -0.2468 -0.2175 -0.0106
 1521SOL    HW116025   1.585   3.784  16.558  1.0378 -2.7526 -0.2982
 1521SOL    HW216026   1.480   3.700  16.627 -3.9606  0.9550 -0.2821
 1522SOL     OW16027   4.041   2.707  10.398  0.1681  0.0468 -0.2180
 1522SOL    HW116028   4.025   2.775  10.464  2.9162  1.3537 -0.8721
 1522SOL    HW216029   3.975   2.643  10.423  1.5725 -0.9803  0.8726
 1523SOL     OW16030   4.339   1.583  17.300 -0.3213 -0.1311  0.0085
 1523SOL    HW116031   4.284   1.660  17.313  0.8572  0.5021  1.2050
 1523SOL    HW216032   4.341   1.550  17.390  0.1128  1.8223  0.7131
 1524SOL     OW16033   1.655   3.364  15.805 -0.4270  0.1816 -0.0304
 1524SOL    HW116034   1.727   3.418  15.836 -0.0409 -0.3231 -0.0522
 1524SOL    HW216035   1.687   3.275  15.819  1.7949  0.9660 -0.1190
 1525SOL     OW16036   1.222   1.593   5.476  0.2854 -0.5195 -0.1640
 1525SOL    HW116037   1.169   1.602   5.397 -0.4500  2.5577  0.6623
 1525SOL    HW216038   1.152   1.601   5.541  0.3126 -1.9948  0.0455
 1526SOL     OW16039   2.581   3.306  11.622  0.3010 -0.5482  0.6727
 1526SOL    HW116040   2.557   3.362  11.548  1.8149  0.5844  1.0431
 1526SOL    HW216041   2.558   3.216  11.602  0.1383 -0.4811  0.5549
 1527SOL     OW16042   4.031   0.801   4.881 -0.3344 -0.3440 -0.4522
 1527SOL    HW116043   4.089   0.763   4.814  0.7040  0.1667  0.1666
 1527SOL    HW216044   3.953   0.750   4.857 -1.5935  1.2901  0.1688
 1528SOL     OW16045   4.619   4.571  15.590 -0.1831  0.5432  0.4112
 1528SOL    HW116046   4.551   4.610  15.536  0.0030 -1.5620 -1.3696
 1528SOL    HW216047   4.567   4.494  15.615 -0.8149  0.8461  0.0275
 1529SOL     OW16048   1.596   0.945   5.649  0.1625 -0.0563  0.1827
 1529SOL    HW116049   1.673   0.954   5.593 -0.2344 -4.2686 -1.0424
 1529SOL    HW216050   1.580   1.038   5.665 -0.6862  0.0299 -1.2274
 1530SOL     OW16051   3.683   1.529   4.766 -0.8358 -0.0375 -0.8097
 1530SOL    HW116052   3.682   1.518   4.671 -2.2120 -1.9317 -0.5712
 1530SOL    HW216053   3.764   1.483   4.785 -0.0020  1.8668  0.2874
 1531SOL     OW16054   0.393   0.252   6.012  0.1899 -0.4497  0.0724
 1531SOL    HW116055   0.451   0.294   5.948  1.9783 -1.3357  1.0806
 1531SOL    HW216056   0.373   0.170   5.967 -0.6610  0.2880 -0.8751
 1532SOL     OW16057   3.954   1.695   6.311  0.2616 -0.4286 -0.1617
 1532SOL    HW116058   4.014   1.747   6.363 -1.0397  0.5869  0.3361
 1532SOL    HW216059   3.996   1.609   6.310 -0.9011 -1.0353  2.6549
 1533SOL     OW16060   4.037   0.790   5.377  0.6840 -0.6577 -0.2684
 1533SOL    HW116061   4.022   0.885   5.377  4.2538 -0.0887 -0.3098
 1533SOL    HW216062   4.054   0.783   5.283 -1.9586 -0.5320 -0.7508
 1534SOL     OW16063   0.911   4.305   1.232  0.0757  0.3188 -0.5239
 1534SOL    HW116064   0.929   4.241   1.300  1.7070  0.2129 -1.0479
 1534SOL    HW216065   0.964   4.276   1.158  1.0852  0.5488  0.1133
 1535SOL     OW16066   1.154   4.145  13.620  0.5752  0.0820  0.8541
 1535SOL    HW116067   1.070   4.114  13.586 -0.0922  1.1286  1.5240
 1535SOL    HW216068   1.202   4.169  13.541 -1.5437 -0.3203 -0.5640
 1536SOL     OW16069   4.518   3.759   4.723  0.0245  0.1394 -0.3563
 1536SOL    HW116070   4.443   3.733   4.669 -1.0294 -0.7490  1.5035
 1536SOL    HW216071   4.466   3.810   4.785 -0.1450  0.3090 -0.6414
 1537SOL     OW16072   1.516   1.670  11.526 -0.2066 -0.2325  0.0223
 1537SOL    HW116073   1.556   1.749  11.488  0.8805 -0.5576  0.4939
 1537SOL    HW216074   1.525   1.693  11.619  0.2384  0.7625 -0.2607
 1538SOL     OW16075   2.686   1.429   4.554  0.4425  0.5711  0.1826
 1538SOL    HW116076   2.757   1.405   4.495  0.3870 -1.1826  0.8420
 1538SOL    HW216077   2.623   1.467   4.493  0.7815 -0.8906 -1.0578
 1539SOL     OW16078   1.139   4.694   2.332 -0.3138  0.2573  0.0361
 1539SOL    HW116079   1.071   0.025   2.292 -0.7240  0.2344  0.7079
 1539SOL    HW216080   1.217   0.025   2.318 -0.8744  0.6204 -1.6354
 1540SOL     OW16081   0.074   4.386  17.259  0.1866  0.4357  0.8480
 1540SOL    HW116082   0.011   4.375  17.187 -0.0574 -3.0402  1.5590
 1540SOL    HW216083   0.112   4.471  17.238  0.4290  0.3322  0.8623
 1541SOL     OW16084   3.593   3.588   8.600 -0.6992 -0.1651  0.0977
 1541SOL    HW116085   3.612   3.659   8.662 -0.0740  0.0546 -0.3480
 1541SOL    HW216086   3.669   3.575   8.543 -0.0903  1.4147  0.5368
 1542SOL     OW16087   1.404   2.801   8.472  0.0835 -0.3337  0.0026
 1542SOL    HW116088   1.335   2.739   8.494 -1.8562  1.4518 -1.0488
 1542SOL    HW216089   1.412   2.853   8.551  1.2702  0.2138 -0.4749
 1543SOL     OW16090   3.711   0.682  10.554  0.1226  0.7427 -0.2349
 1543SOL    HW116091   3.623   0.682  10.516 -0.3347  1.8368  0.8374
 1543SOL    HW216092   3.700   0.633  10.635 -0.4879  1.7832  0.3175
 1544SOL     OW16093   3.421   3.355  14.077  0.5562  0.5279  0.0597
 1544SOL    HW116094   3.501   3.309  14.053  1.1134  1.0371  0.9445
 1544SOL    HW216095   3.355   3.313  14.022 -1.4475  0.5763  2.3762
 1545SOL     OW16096   1.400   4.649   8.070 -0.0187  0.3022 -0.0192
 1545SOL    HW116097   1.448   0.001   8.105  0.6331  1.2851 -2.9995
 1545SOL    HW216098   1.358   4.685   7.992  3.7857  1.7662 -1.4089
 1546SOL     OW16099   0.501   0.338  16.122 -0.2207 -0.4404 -0.4650
 1546SOL    HW116100   0.551   0.362  16.201  1.7633  0.3575 -1.9609
 1546SOL    HW216101   0.549   0.259  16.097 -0.2536 -1.3007  2.2087
 1547SOL     OW16102   0.445   0.520   8.023  0.4944  0.4372  0.1791
 1547SOL    HW116103   0.431   0.492   7.932 -0.1486 -0.9152  0.7006
 1547SOL    HW216104   0.526   0.570   8.009  0.1564  1.4929  2.0611
 1548SOL     OW16105   0.320   0.054   2.746  0.0238  0.6207  0.1876
 1548SOL    HW116106   0.338   4.703   2.804  1.1789 -0.6668 -1.8080
 1548SOL    HW216107   0.268   0.112   2.802 -0.3405  0.7289 -0.2708
 1549SOL     OW16108   2.766   3.048   7.804  0.5731 -0.1947  0.5106
 1549SOL    HW116109   2.842   3.082   7.851 -0.2741  1.1669  0.9029
 1549SOL    HW216110   2.698   3.059   7.871  1.3650  2.5909  0.8515
 1550SOL     OW16111   0.216   0.420   6.123 -0.0389  0.3255  0.2488
 1550SOL    HW116112   0.283   0.385   6.065  1.2929  2.1875  0.6861
 1550SOL    HW216113   0.182   0.341   6.165  2.3088 -1.3561 -1.0374
 1551SOL     OW16114   0.988   3.787   4.529  0.3270 -0.3245 -0.5265
 1551SOL    HW116115   1.003   3.869   4.482 -1.5978 -0.4620 -1.3746
 1551SOL    HW216116   0.898   3.773   4.499 -0.3712 -2.3922  2.5682
 1552SOL     OW16117   1.187   1.583  13.641  0.0573 -0.1354  0.5422
 1552SOL    HW116118   1.231   1.562  13.723 -1.9457 -0.2083  1.6088
 1552SOL    HW216119   1.184   1.679  13.640  1.9494 -0.0809  1.2569
 1553SOL     OW16120   4.409   2.305   7.228  0.7697  0.0432 -0.3666
 1553SOL    HW116121   4.328   2.331   7.183 -0.4503 -1.4164  0.9735
 1553SOL    HW216122   4.451   2.383   7.264  1.5583 -0.9908  0.9555
 1554SOL     OW16123   0.914   3.847   6.388 -0.2232 -0.5576 -0.0678
 1554SOL    HW116124   0.994   3.889   6.357 -0.8308  1.1900  0.7257
 1554SOL    HW216125   0.916   3.856   6.483 -0.6509 -0.2598 -0.0864
 1555SOL     OW16126   4.414   0.318   5.408 -0.4319 -0.3110  0.4275
 1555SOL    HW116127   4.509   0.330   5.402 -0.7783  1.2243 -2.0958
 1555SOL    HW216128   4.385   0.385   5.346 -0.2860 -0.7497 -0.1219
 1556SOL     OW16129   4.513   1.180   2.340  0.2854 -0.0111  0.3729
 1556SOL    HW116130   4.594   1.227   2.324  0.2660 -0.0016  0.2999
 1556SOL    HW216131   4.452   1.223   2.279  0.8455 -0.0416 -0.2022
 1557SOL     OW16132   1.104   1.103  13.934 -0.2231  0.0385 -0.1611
 1557SOL    HW116133   1.194   1.132  13.949  0.2681 -0.8124 -1.5121
 1557SOL    HW216134   1.101   1.025  13.990 -0.3277  0.0521 -0.1481
 1558SOL     OW16135   0.200   4.522   1.586  0.3229  0.1185  0.0106
 1558SOL    HW116136   0.178   4.447   1.530 -0.3169 -0.6815  1.3069
 1558SOL    HW216137   0.274   4.563   1.542  0.9392 -0.6312  0.3356
 1559SOL     OW16138   1.838   0.314   6.675  0.0181 -0.3550 -0.4895
 1559SOL    HW116139   1.868   0.302   6.765  1.8430 -0.3534 -1.0752
 1559SOL    HW216140   1.857   0.226   6.641 -0.4227 -0.6893  0.1439
 1560SOL     OW16141   1.325   3.573   4.798  0.0225 -0.1320 -0.1027
 1560SOL    HW116142   1.379   3.652   4.810 -1.4722  1.0059 -0.8605
 1560SOL    HW216143   1.262   3.576   4.869 -0.6932  1.4346 -0.8106
 1561SOL     OW16144   4.073   4.133   6.847 -0.5846 -0.8125 -0.0492
 1561SOL    HW116145   4.010   4.067   6.820 -1.1212  0.3933 -1.7976
 1561SOL    HW216146   4.087   4.176   6.763 -1.4635 -1.1905 -0.3818
 1562SOL     OW16147   3.481   4.270   3.326  0.7031 -0.6521  0.4582
 1562SOL    HW116148   3.503   4.261   3.418  2.1514 -2.3552 -0.0471
 1562SOL    HW216149   3.398   4.223   3.319 -0.4401  1.0688  2.3545
 1563SOL     OW16150   2.011   1.728   5.480 -0.5985 -0.0677 -0.1908
 1563SOL    HW116151   2.043   1.697   5.395  1.6181  0.9782  0.2753
 1563SOL    HW216152   2.002   1.640   5.517  0.8651  0.3294  1.1215
 1564SOL     OW16153   4.676   2.670   6.869 -0.7439 -0.1149  0.1977
 1564SOL    HW116154   4.600   2.638   6.917 -1.7086 -0.9806 -1.9496
 1564SOL    HW216155   0.010   2.699   6.941 -0.0395  1.8666 -1.1445
 1565SOL     OW16156   1.069   4.036   2.607 -0.1757  0.0763  0.0445
 1565SOL    HW116157   1.139   3.985   2.648 -0.8625 -2.1745 -1.5389
 1565SOL    HW216158   0.987   4.028   2.656  0.3354 -0.5497  0.8112
 1566SOL     OW16159   1.960   4.449   6.180  0.0728  0.5534 -0.1807
 1566SOL    HW116160   2.020   4.381   6.152 -0.3845  0.0236  0.1140
 1566SOL    HW216161   1.869   4.423   6.161 -0.1173  0.8058  0.3763
 1567SOL     OW16162   1.294   2.371   4.503  0.4614 -0.8338 -1.0463
 1567SOL    HW116163   1.262   2.283   4.482 -0.5049 -1.0876  1.4110
 1567SOL    HW216164   1.285   2.421   4.422  1.1065  1.9181  0.5630
 1568SOL     OW16165   2.214   0.553   2.992 -0.3801 -0.1555 -0.4385
 1568SOL    HW116166   2.208   0.586   2.903 -2.0433 -4.2651 -1.8385
 1568SOL    HW216167   2.138   0.495   2.999 -0.0173 -0.7313 -1.2341
 1569SOL     OW16168   3.587   1.929   7.558 -0.7671 -0.5348 -0.1871
 1569SOL    HW116169   3.577   1.865   7.487  0.1069  0.5201 -1.2680
 1569SOL    HW216170   3.541   2.005   7.524 -0.2690 -1.2269 -2.4331
 1570SOL     OW16171   2.809   1.921  11.554 -0.7452  0.0630  0.1060
 1570SOL    HW116172   2.796   1.882  11.640 -2.1172  2.2718  0.8635
 1570SOL    HW216173   2.864   1.990  11.590 -4.4354  2.3660  1.2505
 1571SOL     OW16174   0.153   3.240  17.393 -0.2307  0.6185  0.2407
 1571SOL    HW116175   0.102   3.176  17.444 -0.8657  1.8027  1.0953
 1571SOL    HW216176   0.244   3.215  17.413 -0.1190  0.0471 -0.9993
 1572SOL     OW16177   1.090   0.815  15.411  0.5774  0.1401  0.0114
 1572SOL    HW116178   1.031   0.847  15.480  1.8306  1.4397  0.4855
 1572SOL    HW216179   1.044   0.869  15.347  1.8284 -1.0775 -1.8949
 1573SOL     OW16180   2.365   2.358   6.131  0.4071  0.0876  0.5712
 1573SOL    HW116181   2.366   2.288   6.197 -2.3196  1.2196  1.8179
 1573SOL    HW216182   2.449   2.352   6.086 -0.4033 -1.5115 -0.7032
 1574SOL     OW16183   0.557   1.849   8.118  0.6754  0.0708 -0.2324
 1574SOL    HW116184   0.495   1.835   8.190 -0.6273  0.6850 -1.2217
 1574SOL    HW216185   0.627   1.894   8.164 -0.0738  0.0880  0.9098
 1575SOL     OW16186   4.434   0.370  12.956 -0.0338  0.5672 -0.3533
 1575SOL    HW116187   4.519   0.330  12.938 -0.3785  0.5979 -1.9965
 1575SOL    HW216188   4.458   0.454  12.996 -1.3498  0.4578  0.6743
 1576SOL     OW16189   0.965   0.901   8.035 -0.2277  0.1865  0.3745
 1576SOL    HW116190   1.046   0.914   7.985 -0.8356 -0.0564 -0.6807
 1576SOL    HW216191   0.982   0.812   8.066 -0.9257  0.1654  0.7126
 1577SOL     OW16192   2.891   4.584   5.312 -0.1076 -0.6786 -0.1971
 1577SOL    HW116193   2.923   4.607   5.399  0.5700 -2.2599 -0.0329
 1577SOL    HW216194   2.808   4.631   5.310 -0.3555 -1.0616  1.2916
 1578SOL     OW16195   3.969   3.420   7.166  0.0673  0.1289  0.2671
 1578SOL    HW116196   4.046   3.392   7.116  1.6942  1.4383  2.0459
 1578SOL    HW216197   3.894   3.365   7.144  1.4821 -1.4530 -0.5604
 1579SOL     OW16198   2.175   4.371   1.725 -0.7732  0.2061  0.0240
 1579SOL    HW116199   2.172   4.453   1.775  0.5301  0.6996 -0.7069
 1579SOL    HW216200   2.214   4.308   1.786  0.6625 -0.4796 -1.6161
 1580SOL     OW16201   1.161   2.065   7.838  0.2637  0.4688  0.5917
 1580SOL    HW116202   1.180   1.974   7.817 -0.2473  0.3186  0.7803
 1580SOL    HW216203   1.120   2.056   7.924 -1.3872  0.9087 -0.1436
 1581SOL     OW16204   0.886   3.777   0.172  0.0894  0.5358  0.0497
 1581SOL    HW116205   0.954   3.820   0.119  2.4790 -1.9479  1.1409
 1581SOL    HW216206   0.943   3.736   0.236  2.0158 -0.2914 -2.2103
 1582SOL     OW16207   4.213   4.596  15.596  0.5955 -0.0814  0.5359
 1582SOL    HW116208   4.271   4.614  15.670  1.4502 -0.0076 -0.1497
 1582SOL    HW216209   4.268   4.641  15.532 -1.3985  1.0529 -0.3978
 1583SOL     OW16210   0.057   0.586   1.063  0.3492 -0.8926  0.7514
 1583SOL    HW116211   0.127   0.586   1.128  2.0469 -1.1232 -1.0867
 1583SOL    HW216212   4.707   0.629   1.107  2.7716  3.1967  0.8206
 1584SOL     OW16213   3.851   1.346   2.473 -0.3098  0.3153 -0.6964
 1584SOL    HW116214   3.775   1.355   2.415 -1.1760  0.1385  0.4003
 1584SOL    HW216215   3.820   1.268   2.520  0.7461  0.4290  0.1864
 1585SOL     OW16216   2.460   0.559  12.122 -0.4011  0.0496  0.0764
 1585SOL    HW116217   2.373   0.574  12.085 -1.1101 -1.2472  1.2151
 1585SOL    HW216218   2.496   0.491  12.065 -0.6552  0.9660 -1.1913
 1586SOL     OW16219   2.500   0.328   4.952  0.5774 -0.7493  0.0636
 1586SOL    HW116220   2.516   0.423   4.950 -0.6525 -0.6096 -2.8579
 1586SOL    HW216221   2.407   0.331   4.972  1.1774 -2.7416  3.1935
 1587SOL     OW16222   4.020   0.375  12.377  0.5169  0.3729 -0.1421
 1587SOL    HW116223   3.997   0.367  12.470 -0.4765  1.2637 -0.3265
 1587SOL    HW216224   4.116   0.381  12.379  0.6400 -1.7311  0.0373
 1588SOL     OW16225   3.731   0.683  11.792  0.9788 -0.1071 -0.2242
 1588SOL    HW116226   3.652   0.720  11.832  1.3409 -0.5775  0.9543
 1588SOL    HW216227   3.798   0.685  11.861  0.0294 -1.4767  0.7378
 1589SOL     OW16228   4.092   3.096  12.537  0.4165  0.0475  0.0379
 1589SOL    HW116229   4.170   3.124  12.586  0.2965  0.2199  0.1281
 1589SOL    HW216230   4.115   3.136  12.453 -0.3744 -1.4578 -0.8994
 1590SOL     OW16231   0.653   3.838   4.677  0.4620  0.0085 -0.2582
 1590SOL    HW116232   0.735   3.887   4.689  1.1686 -1.0187 -0.8714
 1590SOL    HW216233   0.642   3.846   4.582 -0.7143  2.4397  0.0699
 1591SOL     OW16234   2.880   0.710   8.617  0.3365  0.8220 -0.1915
 1591SOL    HW116235   2.807   0.725   8.677  0.5591  0.2610  0.2200
 1591SOL    HW216236   2.917   0.633   8.660 -1.8589 -0.6089 -0.8827
 1592SOL     OW16237   1.267   0.617  15.354  0.0846 -0.0067 -0.7216
 1592SOL    HW116238   1.211   0.678  15.401  0.7798  0.1867 -0.1399
 1592SOL    HW216239   1.258   0.658  15.268 -0.7844 -3.3441 -2.2052
 1593SOL     OW16240   0.080   4.464  12.038 -0.1599 -0.6609 -0.2067
 1593SOL    HW116241   0.100   4.422  11.954 -2.3406  1.1464 -1.6277
 1593SOL    HW216242   4.720   4.423  12.063  0.5766 -1.2294  1.2849
 1594SOL     OW16243   3.031   1.915   6.779 -0.0395  0.3295 -0.2794
 1594SOL    HW116244   2.964   1.847   6.772 -0.5866  0.7264  1.1745
 1594SOL    HW216245   2.993   1.954   6.858 -0.0969  0.3062 -0.2961
 1595SOL     OW16246   4.024   3.520   5.132  0.1396 -0.0991 -0.4476
 1595SOL    HW116247   3.997   3.472   5.054  1.5625 -1.3058 -0.1714
 1595SOL    HW216248   4.068   3.588   5.080  0.1148  0.2615  0.0024
 1596SOL     OW16249   1.394   4.581   1.019  0.1980  0.1617  0.2617
 1596SOL    HW116250   1.422   4.644   1.085  0.1203  1.0123 -0.5218
 1596SOL    HW216251   1.477   4.545   0.987 -0.3399 -0.7540 -0.0854
 1597SOL     OW16252   1.385   4.231   0.329 -0.6923  0.3280 -0.1567
 1597SOL    HW116253   1.374   4.252   0.237 -0.9183  0.2662 -0.1460
 1597SOL    HW216254   1.325   4.156   0.331 -0.3802  0.0940  0.6425
 1598SOL     OW16255   2.992   3.401   6.126  0.0782 -0.5307  0.0045
 1598SOL    HW116256   3.088   3.406   6.118 -0.0015  0.4560 -0.4010
 1598SOL    HW216257   2.991   3.339   6.198  0.1126  1.6103  1.8638
 1599SOL     OW16258   4.648   4.402   6.285  0.1825  0.4550 -0.2727
 1599SOL    HW116259   4.641   4.376   6.193 -1.7611  1.8780 -0.5291
 1599SOL    HW216260   4.685   4.490   6.286  1.3983 -0.0388 -1.5993
 1600SOL     OW16261   2.088   3.595   3.477  0.6549 -0.1342  0.6144
 1600SOL    HW116262   2.122   3.629   3.394 -2.1252 -0.3559 -0.5857
 1600SOL    HW216263   2.166   3.599   3.533 -2.3726 -0.2033  4.8084
 1601SOL     OW16264   2.552   0.488   6.703  0.5927  0.7165  0.6424
 1601SOL    HW116265   2.585   0.400   6.689 -0.7036  0.2510  0.4520
 1601SOL    HW216266   2.510   0.518   6.622 -0.8066  0.5938  1.3096
 1602SOL     OW16267   2.268   1.603   7.462 -0.2188  0.2330  0.4854
 1602SOL    HW116268   2.242   1.556   7.541  1.1127 -0.0312  0.7619
 1602SOL    HW216269   2.287   1.690   7.497 -0.2944  0.8458 -0.9943
 1603SOL     OW16270   1.737   2.840  16.039  0.1357 -0.2119 -0.4590
 1603SOL    HW116271   1.698   2.842  15.951  2.7155  2.2352 -1.5402
 1603SOL    HW216272   1.661   2.845  16.096  0.0977 -0.2510 -0.5063
 1604SOL     OW16273   4.489   1.920  17.508  0.2204  0.6111  0.5025
 1604SOL    HW116274   4.563   1.913  17.447 -1.3851 -2.9003 -1.0439
 1604SOL    HW216275   4.531   1.954  17.587  1.3722 -0.1488  0.2190
 1605SOL     OW16276   1.463   0.627   7.406  0.2228  0.8336 -0.4738
 1605SOL    HW116277   1.417   0.695   7.357  1.6614  1.7784 -0.4882
 1605SOL    HW216278   1.466   0.564   7.335  2.1631  2.2992 -1.6653
 1606SOL     OW16279   1.716   1.374   3.317  0.2493 -0.3930  0.1015
 1606SOL    HW116280   1.785   1.359   3.381  0.8788  0.4082 -0.3810
 1606SOL    HW216281   1.634   1.371   3.366 -0.2665 -0.9280 -0.7978
 1607SOL     OW16282   0.680   2.792   7.082 -0.7225 -0.1142  0.2563
 1607SOL    HW116283   0.742   2.726   7.051 -0.4678 -0.3801  1.3334
 1607SOL    HW216284   0.631   2.743   7.148 -0.0495 -0.7638  0.2692
 1608SOL     OW16285   1.025   1.459   0.055 -0.1361  0.3724  0.2358
 1608SOL    HW116286   0.987   1.456   0.143  2.0270  0.2934  1.1776
 1608SOL    HW216287   0.967   1.399   0.008 -0.4928  1.1620 -0.3152
 1609SOL     OW16288   3.184   2.147   3.610 -0.0376 -0.1544  0.2555
 1609SOL    HW116289   3.097   2.172   3.578  0.1876 -0.0258 -0.2500
 1609SOL    HW216290   3.235   2.227   3.599  0.4889 -0.6926 -1.1982
 1610SOL     OW16291   2.905   4.270  16.971  0.4996  1.0042  0.1107
 1610SOL    HW116292   2.968   4.234  17.033  0.9506 -0.8732 -1.4415
 1610SOL    HW216293   2.839   4.323  17.015 -1.2251 -0.4966 -0.6762
 1611SOL     OW16294   3.499   0.442  11.164  0.0687  0.0241 -0.3421
 1611SOL    HW116295   3.418   0.393  11.174 -0.2849  0.7645  0.4725
 1611SOL    HW216296   3.543   0.398  11.091  1.8472 -1.6320  1.7388
 1612SOL     OW16297   0.779   2.808   4.562 -0.0030 -0.1219 -0.7411
 1612SOL    HW116298   0.684   2.823   4.568  0.5755  2.2386  2.1644
 1612SOL    HW216299   0.799   2.818   4.654 -1.2960 -0.7535 -0.3799
 1613SOL     OW16300   0.694   0.648   1.314 -0.3523 -0.2502  0.2965
 1613SOL    HW116301   0.687   0.726   1.259  1.5786 -0.1537  0.1796
 1613SOL    HW216302   0.713   0.698   1.394  2.6407 -1.3589  0.2832
 1614SOL     OW16303   0.589   0.473   0.378  0.4027  0.0750  0.2909
 1614SOL    HW116304   0.520   0.530   0.412 -0.7160 -1.1611  0.0568
 1614SOL    HW216305   0.652   0.541   0.354  0.5828 -0.6259 -1.1839
 1615SOL     OW16306   4.292   0.982   1.147  0.0437  0.3072  0.6652
 1615SOL    HW116307   4.284   1.067   1.105  0.2389  0.9075  1.8358
 1615SOL    HW216308   4.202   0.975   1.181 -0.7662  1.0918 -1.3642
 1616SOL     OW16309   0.796   1.015  12.913 -0.0600  0.8031  0.0464
 1616SOL    HW116310   0.860   0.962  12.959 -1.0389 -1.5065 -1.2307
 1616SOL    HW216311   0.852   1.083  12.877  0.7345  0.8664  1.4117
 1617SOL     OW16312   0.816   4.407  14.082  0.1201 -0.2919  0.2791
 1617SOL    HW116313   0.786   4.468  14.149 -2.1027  0.8257 -1.7473
 1617SOL    HW216314   0.735   4.394  14.033  0.1944 -1.3372  0.4372
 1618SOL     OW16315   0.708   0.825   6.356 -0.4635 -0.0634  0.9140
 1618SOL    HW116316   0.729   0.734   6.333 -0.8135 -0.3723  1.8302
 1618SOL    HW216317   0.615   0.803   6.356 -0.3550 -0.5567  0.4259
 1619SOL     OW16318   3.674   3.199   7.765  0.5585  0.3546  0.1272
 1619SOL    HW116319   3.731   3.269   7.734 -0.4044  0.5957 -1.0553
 1619SOL    HW216320   3.667   3.138   7.692 -0.2704  1.2285 -0.5209
 1620SOL     OW16321   0.647   2.957  16.016  0.2550  0.2813  0.6371
 1620SOL    HW116322   0.641   2.958  15.920 -1.0034  1.1979  0.7216
 1620SOL    HW216323   0.560   2.921  16.033  1.0843 -1.7326  0.5723
 1621SOL     OW16324   2.739   1.556  13.437 -0.1089  0.0208 -0.1310
 1621SOL    HW116325   2.673   1.503  13.483 -1.1122  1.3151 -0.0784
 1621SOL    HW216326   2.715   1.639  13.478  0.2951  1.8911 -3.7033
 1622SOL     OW16327   1.012   1.756   2.599  0.1104 -0.4807  0.1644
 1622SOL    HW116328   1.051   1.833   2.557  1.5714 -0.8407  0.8616
 1622SOL    HW216329   0.921   1.782   2.611  0.1023 -0.1662 -0.5869
 1623SOL     OW16330   1.185   3.497  16.333  0.5542 -0.3477 -0.5463
 1623SOL    HW116331   1.234   3.448  16.399 -1.2012 -1.4658 -0.0633
 1623SOL    HW216332   1.223   3.584  16.348  0.6368 -0.6993  1.2201
 1624SOL     OW16333   3.280   0.614   6.243 -0.1119  0.4785  0.9041
 1624SOL    HW116334   3.287   0.620   6.338  0.9402 -0.7416  0.8893
 1624SOL    HW216335   3.281   0.707   6.218  3.0231  0.0302 -0.6715
 1625SOL     OW16336   1.964   1.079   6.564 -0.0946 -0.5033  0.3566
 1625SOL    HW116337   1.991   1.145   6.628  1.8860  0.1159 -1.0863
 1625SOL    HW216338   2.015   1.107   6.487 -2.7128  0.0137 -1.2134
 1626SOL     OW16339   0.638   1.877   6.117  0.4476  0.1645  0.0971
 1626SOL    HW116340   0.732   1.859   6.116  0.6807  1.3788 -0.9823
 1626SOL    HW216341   0.608   1.814   6.051  1.4302 -1.6411  1.3838
 1627SOL     OW16342   3.419   0.416  13.417  0.4666  0.2900  0.3119
 1627SOL    HW116343   3.363   0.370  13.479  1.1275  0.7425  1.2385
 1627SOL    HW216344   3.369   0.495  13.394  0.3961  0.9452  2.7497
 1628SOL     OW16345   2.715   3.225   8.097 -0.3996  0.0266  1.0129
 1628SOL    HW116346   2.797   3.185   8.067 -0.6231  1.5346 -1.5581
 1628SOL    HW216347   2.730   3.231   8.191 -0.9656  1.3766  1.0046
 1629SOL     OW16348   4.457   0.558   3.951 -0.2397 -0.2193  0.0676
 1629SOL    HW116349   4.541   0.582   3.990 -0.1219 -1.3128  0.5140
 1629SOL    HW216350   4.491   0.481   3.905  0.8236  0.2758  0.0297
 1630SOL     OW16351   4.122   3.266  17.575 -0.0980  0.0581 -0.5252
 1630SOL    HW116352   4.212   3.257  17.605 -0.3481  0.3744  0.3132
 1630SOL    HW216353   4.093   3.355  17.596 -0.1636 -0.1527  0.2725
 1631SOL     OW16354   0.560   4.310  14.703  0.4592  0.0524 -0.2064
 1631SOL    HW116355   0.604   4.232  14.737  1.0567  0.0420 -1.0048
 1631SOL    HW216356   0.591   4.310  14.612  0.7466 -1.0816 -0.1162
 1632SOL     OW16357   3.381   1.242   9.046  0.6539 -0.2006 -0.0890
 1632SOL    HW116358   3.300   1.271   9.089  0.1988 -3.0807  1.0085
 1632SOL    HW216359   3.442   1.240   9.120  0.2970  2.0355  0.2753
 1633SOL     OW16360   0.628   3.878  13.934 -0.2225  0.3269 -0.1649
 1633SOL    HW116361   0.590   3.937  13.869  1.6256  1.3496 -0.3271
 1633SOL    HW216362   0.559   3.907  13.994 -0.2014  1.8879 -0.8929
 1634SOL     OW16363   0.141   1.479  14.170 -0.1921 -0.1066  0.0546
 1634SOL    HW116364   0.231   1.460  14.196 -0.9051 -3.8622 -0.2407
 1634SOL    HW216365   0.133   1.410  14.104  0.4836 -2.1868  2.1353
 1635SOL     OW16366   0.816   4.301   1.567 -0.0666 -0.5452  0.0263
 1635SOL    HW116367   0.743   4.345   1.522 -1.5774  0.7376  3.7300
 1635SOL    HW216368   0.873   4.371   1.597 -0.8755 -0.7714  2.0551
 1636SOL     OW16369   1.083   0.402   2.381 -0.3793 -0.1110 -0.2301
 1636SOL    HW116370   1.010   0.444   2.427 -0.1646  0.4029 -0.3638
 1636SOL    HW216371   1.047   0.394   2.293 -0.4625  0.3631 -0.2409
 1637SOL     OW16372   4.180   2.031   5.462  0.3884  0.2651 -0.3554
 1637SOL    HW116373   4.140   1.979   5.393  0.4070 -1.0293  0.6029
 1637SOL    HW216374   4.133   2.000   5.540  1.1905  2.6567  1.0750
 1638SOL     OW16375   3.583   2.520   9.224 -0.6704 -0.1258  0.2835
 1638SOL    HW116376   3.624   2.605   9.241 -0.9088  0.0365  0.0426
 1638SOL    HW216377   3.647   2.469   9.273  0.3277  2.4066  1.6068
 1639SOL     OW16378   4.229   0.143   7.459 -0.2041 -0.1759 -0.4167
 1639SOL    HW116379   4.271   0.228   7.471  0.8122 -0.7754  0.2177
 1639SOL    HW216380   4.140   0.167   7.486  0.2997  2.2634 -0.8997
 1640SOL     OW16381   0.100   1.748  15.555 -0.4033  0.2934  0.5732
 1640SOL    HW116382   0.039   1.677  15.575 -1.0289  0.4204 -0.8737
 1640SOL    HW216383   0.186   1.707  15.547 -1.2759 -1.5380  0.6727
 1641SOL     OW16384   0.165   0.715  11.438 -0.2997 -0.0094  0.5110
 1641SOL    HW116385   0.164   0.646  11.371 -1.7266  1.1395 -0.6609
 1641SOL    HW216386   0.195   0.789  11.385  2.0752 -0.4851  1.2141
 1642SOL     OW16387   2.513   3.303   6.108  0.3415  0.0425  0.1906
 1642SOL    HW116388   2.550   3.333   6.191 -0.7702  0.8764  0.3799
 1642SOL    HW216389   2.520   3.389   6.066  1.1740 -2.0702 -4.0161
 1643SOL     OW16390   4.010   2.904   2.094  0.3357  0.0759  0.3267
 1643SOL    HW116391   4.040   2.972   2.154  2.8401  0.2102 -1.0924
 1643SOL    HW216392   4.038   2.945   2.012 -2.1766  1.0685 -0.0298
 1644SOL     OW16393   0.537   4.312   1.447 -0.1768 -0.1171 -0.0636
 1644SOL    HW116394   0.570   4.352   1.366 -1.3930 -1.2553 -1.1146
 1644SOL    HW216395   0.535   4.218   1.431  0.5303 -0.0516 -0.5810
 1645SOL     OW16396   0.090   0.682   3.795  0.0642 -0.7949 -0.4453
 1645SOL    HW116397   0.064   0.681   3.887  0.4833  1.7413 -0.2893
 1645SOL    HW216398   0.009   0.658   3.751 -0.6834 -1.1689  1.1424
 1646SOL     OW16399   0.403   1.904   5.435  0.6106  0.1456  0.1546
 1646SOL    HW116400   0.485   1.925   5.481 -0.4339  3.5483  0.4788
 1646SOL    HW216401   0.442   1.833   5.384 -1.7235  0.0088 -1.4132
 1647SOL     OW16402   1.352   3.253   5.975  0.2241 -0.4168 -0.4857
 1647SOL    HW116403   1.377   3.234   5.885  1.3113 -2.3255  0.2196
 1647SOL    HW216404   1.260   3.274   5.960 -0.2128 -0.7154  1.7670
 1648SOL     OW16405   0.552   2.786   1.188 -0.3087 -0.3132  0.7562
 1648SOL    HW116406   0.550   2.860   1.249  2.3275  0.8302 -0.5347
 1648SOL    HW216407   0.642   2.787   1.155 -0.2460 -1.0187  0.9066
 1649SOL     OW16408   2.733   0.214   8.942  0.0183  0.2218  1.0197
 1649SOL    HW116409   2.813   0.237   8.894 -1.5201 -1.2579 -2.2836
 1649SOL    HW216410   2.721   0.294   8.992 -0.1316  0.6901  0.2405
 1650SOL     OW16411   0.269   3.754   2.024 -0.7518 -0.0740  0.5448
 1650SOL    HW116412   0.317   3.834   2.001  0.1566 -1.1585 -1.3455
 1650SOL    HW216413   0.334   3.700   2.069  0.8984  0.9817 -0.5131
 1651SOL     OW16414   1.422   4.315  11.056  0.5503  0.1836  0.1125
 1651SOL    HW116415   1.515   4.309  11.032  0.3499 -2.1346 -0.0865
 1651SOL    HW216416   1.420   4.260  11.134 -0.2529  0.7407  0.4876
 1652SOL     OW16417   3.136   3.855  13.189 -0.3822  0.2586  0.3713
 1652SOL    HW116418   3.231   3.856  13.200 -0.2694  0.1607 -0.6625
 1652SOL    HW216419   3.109   3.871  13.280  1.7176 -1.8227  1.3864
 1653SOL     OW16420   2.648   3.528   6.006  0.0247  0.5165 -0.1899
 1653SOL    HW116421   2.595   3.603   6.033 -0.7944 -0.0883 -0.0930
 1653SOL    HW216422   2.729   3.576   5.990  0.6209 -0.7275 -0.8263
 1654SOL     OW16423   2.121   3.427   8.293  0.8016 -0.1525 -0.0846
 1654SOL    HW116424   2.061   3.368   8.248  0.6841  0.8366 -1.2266
 1654SOL    HW216425   2.123   3.382   8.378 -0.2227 -2.8743 -1.5186
 1655SOL     OW16426   0.758   0.385  14.975  0.7036  0.4590 -0.3077
 1655SOL    HW116427   0.667   0.357  14.990  0.7912  0.6028  0.4680
 1655SOL    HW216428   0.754   0.478  14.953 -0.1060  0.6922  0.7877
 1656SOL     OW16429   2.798   3.695   8.832 -0.3396 -0.2747  0.1157
 1656SOL    HW116430   2.730   3.664   8.772  0.1315 -0.6353 -0.2295
 1656SOL    HW216431   2.842   3.762   8.780 -1.2316  0.2662  0.0531
 1657SOL     OW16432   0.925   0.597   2.494  0.0672 -0.2829  0.2245
 1657SOL    HW116433   0.931   0.594   2.590  0.6077 -1.6053  0.1561
 1657SOL    HW216434   0.830   0.601   2.484 -0.0134 -0.6553  0.8092
 1658SOL     OW16435   2.492   3.566   9.774  0.3264  0.1085 -0.2252
 1658SOL    HW116436   2.515   3.570   9.681  0.3459  0.3646 -0.2089
 1658SOL    HW216437   2.460   3.656   9.782 -1.8468 -0.6659 -0.1889
 1659SOL     OW16438   4.586   1.327  16.063 -0.1516 -0.3309  0.2378
 1659SOL    HW116439   4.638   1.267  16.117 -0.5427 -1.3015 -0.4654
 1659SOL    HW216440   4.501   1.328  16.107  0.2182  0.6498  0.9242
 1660SOL     OW16441   4.311   3.457   0.429 -1.4204 -0.9389 -0.3484
 1660SOL    HW116442   4.216   3.473   0.427 -1.4086 -0.7649  0.4953
 1660SOL    HW216443   4.332   3.490   0.517  0.1907  0.6433 -1.3262
 1661SOL     OW16444   1.407   4.132   6.131  0.0199  0.9735 -0.2158
 1661SOL    HW116445   1.440   4.071   6.196 -1.0628  0.2999 -0.2977
 1661SOL    HW216446   1.395   4.217   6.173  0.2664  0.2348  1.3252
 1662SOL     OW16447   2.337   1.579   8.620 -0.0812  0.1765  0.4561
 1662SOL    HW116448   2.413   1.564   8.676 -0.3322 -2.0491  0.2019
 1662SOL    HW216449   2.324   1.489   8.589 -0.6207  0.3652  0.1517
 1663SOL     OW16450   0.428   4.198   8.650 -0.0327 -0.6451  0.1360
 1663SOL    HW116451   0.397   4.246   8.574  1.5461  0.3224  0.0992
 1663SOL    HW216452   0.480   4.265   8.695 -0.7384 -0.7054  1.0565
 1664SOL     OW16453   2.333   1.125   7.959  0.4007 -0.5329 -0.2636
 1664SOL    HW116454   2.295   1.082   7.883 -0.6210 -0.1972  0.0593
 1664SOL    HW216455   2.258   1.169   7.998 -0.7184 -1.4005 -1.4316
 1665SOL     OW16456   1.415   0.089  15.408 -0.4181 -0.0944  0.1783
 1665SOL    HW116457   1.457   0.093  15.494 -0.7653 -2.0489  0.4395
 1665SOL    HW216458   1.413   0.181  15.381 -1.0182 -0.5447 -1.3283
 1666SOL     OW16459   3.127   1.083   4.087  0.1520 -0.5741 -0.9475
 1666SOL    HW116460   3.045   1.033   4.089  1.2770 -2.3687  0.1364
 1666SOL    HW216461   3.167   1.072   4.001  1.3250  0.0223 -0.4725
 1667SOL     OW16462   4.409   2.113   6.130  0.2903 -0.1889 -0.0647
 1667SOL    HW116463   4.368   2.049   6.188  1.6631 -1.5886 -0.6445
 1667SOL    HW216464   4.493   2.113   6.176  0.2545  1.9200  0.0377
 1668SOL     OW16465   3.215   4.435   3.342 -0.4851 -0.4440 -0.0442
 1668SOL    HW116466   3.217   4.340   3.335  1.6131 -0.2925 -1.5519
 1668SOL    HW216467   3.233   4.448   3.435 -0.4589 -1.4704  0.0915
 1669SOL     OW16468   2.725   1.976   4.763 -0.3082  0.0248 -0.6897
 1669SOL    HW116469   2.794   1.911   4.777  3.9762  4.4071 -1.5049
 1669SOL    HW216470   2.720   1.988   4.668 -0.6852  0.0899 -0.6634
 1670SOL     OW16471   3.973   4.500   9.084 -0.4756 -0.3109  0.0511
 1670SOL    HW116472   3.949   4.419   9.128 -0.6907 -0.4542 -0.3304
 1670SOL    HW216473   3.973   4.478   8.991 -0.7761 -0.0299 -0.0131
 1671SOL     OW16474   3.528   3.709  14.622 -0.2617  0.5284 -0.0584
 1671SOL    HW116475   3.473   3.676  14.551 -0.0215  1.2992 -0.6010
 1671SOL    HW216476   3.522   3.644  14.692  1.7923  2.8631  2.2973
 1672SOL     OW16477   1.346   2.808   8.185 -0.4451 -0.1201  0.2515
 1672SOL    HW116478   1.425   2.862   8.183 -0.9851  0.5931 -2.2058
 1672SOL    HW216479   1.351   2.776   8.275 -0.2783 -1.4694 -0.2430
 1673SOL     OW16480   1.290   2.175   8.518 -0.2044 -0.1929  0.7130
 1673SOL    HW116481   1.243   2.093   8.535 -1.5386  0.5246  0.4947
 1673SOL    HW216482   1.379   2.150   8.544  0.5010 -1.4555 -2.9211
 1674SOL     OW16483   3.911   3.795   7.793  0.0417 -0.1475  0.0672
 1674SOL    HW116484   3.953   3.880   7.806 -0.5206 -0.1221  1.7193
 1674SOL    HW216485   3.899   3.797   7.698  1.9407 -0.9556 -0.1858
 1675SOL     OW16486   2.867   1.204   1.683  0.4837  0.3791  0.2480
 1675SOL    HW116487   2.818   1.263   1.740  0.9927 -0.6492  1.7592
 1675SOL    HW216488   2.937   1.171   1.740  0.4129  0.2193  0.2442
 1676SOL     OW16489   1.349   0.782   8.148  0.3258  0.4714 -0.0642
 1676SOL    HW116490   1.403   0.860   8.160  3.1131 -1.1546 -1.7865
 1676SOL    HW216491   1.328   0.761   8.239  0.8955 -1.5755 -0.4021
 1677SOL     OW16492   3.601   4.285  13.318 -0.3786 -0.1599 -0.3329
 1677SOL    HW116493   3.683   4.244  13.290 -0.0825  0.4589 -0.3690
 1677SOL    HW216494   3.564   4.335  13.245 -0.7303  0.8391  0.5383
 1678SOL     OW16495   3.450   4.711   4.757 -0.2801  0.8237  0.8972
 1678SOL    HW116496   3.420   4.676   4.841 -1.8258 -0.3568 -0.1349
 1678SOL    HW216497   3.395   0.067   4.757 -1.2125  0.1723 -2.1682
 1679SOL     OW16498   4.608   3.701  15.028 -0.2486 -0.1920 -0.2455
 1679SOL    HW116499   4.552   3.708  15.106  1.1101 -1.8816  0.8831
 1679SOL    HW216500   4.691   3.733  15.064  1.1420 -1.1639 -2.6519
 1680SOL     OW16501   0.012   3.620  15.319 -0.7865 -0.3434  0.2780
 1680SOL    HW116502   0.014   3.615  15.414 -4.4548  2.3856  0.5248
 1680SOL    HW216503   4.710   3.532  15.290  0.7063 -0.3754 -0.9033
 1681SOL     OW16504   0.401   4.583   2.897 -0.2966  0.1082  0.2154
 1681SOL    HW116505   0.414   4.506   2.841 -1.9159  0.9568 -1.3494
 1681SOL    HW216506   0.378   4.539   2.978  0.0300  0.8744  0.7232
 1682SOL     OW16507   4.660   4.614   5.249  0.2599 -0.0008 -0.0976
 1682SOL    HW116508   4.621   4.572   5.326  0.4421 -1.2728 -0.6914
 1682SOL    HW216509   0.005   4.550   5.229 -0.9088 -0.2284 -3.3018
 1683SOL     OW16510   3.428   2.134   2.811 -0.3148 -0.1573 -0.1482
 1683SOL    HW116511   3.336   2.116   2.829 -0.3076 -1.1940 -1.1591
 1683SOL    HW216512   3.470   2.115   2.895  0.1388  1.1718 -0.0749
 1684SOL     OW16513   1.852   3.717   5.962 -0.5141 -0.3115  0.1872
 1684SOL    HW116514   1.887   3.732   6.050  1.0646 -1.7580 -0.2011
 1684SOL    HW216515   1.895   3.632   5.948 -0.6537 -0.1040 -1.4669
 1685SOL     OW16516   0.110   3.781   3.175 -0.0730  0.2367 -0.2610
 1685SOL    HW116517   0.115   3.877   3.176  1.1385  0.1603  0.6366
 1685SOL    HW216518   0.109   3.768   3.080 -2.5896 -0.0997 -0.1907
 1686SOL     OW16519   3.984   2.613  17.227 -0.1754 -0.4130 -0.4172
 1686SOL    HW116520   3.931   2.671  17.172  1.3155  0.3910 -1.0431
 1686SOL    HW216521   4.047   2.577  17.163 -0.3117 -0.3707 -0.5751
 1687SOL     OW16522   3.227   3.106  13.520  0.3193  0.9143  0.0835
 1687SOL    HW116523   3.227   3.082  13.612  0.6109 -0.1442 -0.1912
 1687SOL    HW216524   3.271   3.190  13.535  0.1564  0.7231  1.5542
 1688SOL     OW16525   0.940   0.436   6.859 -0.0959 -0.4196 -0.5760
 1688SOL    HW116526   0.984   0.430   6.944 -0.1283 -0.4168 -0.5589
 1688SOL    HW216527   1.016   0.404   6.811  0.8936  2.1389 -0.7059
 1689SOL     OW16528   4.404   2.429   4.752  0.4287 -0.0474 -0.4561
 1689SOL    HW116529   4.359   2.421   4.836  1.2159 -1.0641 -0.1211
 1689SOL    HW216530   4.358   2.360   4.704  0.4184 -0.6052  0.3414
 1690SOL     OW16531   1.844   0.782   4.557 -0.2243  0.5006 -0.1552
 1690SOL    HW116532   1.914   0.843   4.577 -0.4898  0.3005  1.3444
 1690SOL    HW216533   1.874   0.730   4.482  0.8834  1.2012 -0.1890
 1691SOL     OW16534   0.097   2.182   5.527  0.5262  0.3942  0.5619
 1691SOL    HW116535   0.100   2.277   5.531  0.5034  0.4934 -1.8456
 1691SOL    HW216536   0.080   2.154   5.617  1.9526 -1.1745  0.3484
 1692SOL     OW16537   2.612   0.964  10.484  0.0214  0.0973  0.6219
 1692SOL    HW116538   2.677   0.921  10.540  0.2900 -0.6945 -0.2991
 1692SOL    HW216539   2.650   1.052  10.485 -1.4671  0.7510 -0.1252
 1693SOL     OW16540   1.424   3.709   0.497  0.6134 -0.0230  0.0329
 1693SOL    HW116541   1.392   3.637   0.550 -1.9325  0.7405 -0.4604
 1693SOL    HW216542   1.480   3.748   0.564 -0.8465  2.1636 -0.0182
 1694SOL     OW16543   0.520   0.141  10.187  0.1875 -0.1719 -0.2490
 1694SOL    HW116544   0.605   0.163  10.226  0.1716 -1.6647  0.6156
 1694SOL    HW216545   0.457   0.170  10.254  1.6788  1.0158  0.6671
 1695SOL     OW16546   1.294   1.634   2.144 -0.3515  0.0278  0.3637
 1695SOL    HW116547   1.336   1.568   2.199 -1.0461 -0.6141  0.1088
 1695SOL    HW216548   1.254   1.677   2.220 -0.3768  0.2557  0.2228
 1696SOL     OW16549   4.040   1.019   1.907  0.9425  0.2229  0.5468
 1696SOL    HW116550   4.110   0.963   1.941  0.3110  0.1078  1.6313
 1696SOL    HW216551   4.087   1.071   1.842 -0.6935  0.8645 -0.1234
 1697SOL     OW16552   1.207   0.134  11.143  0.0004 -0.3684 -0.1208
 1697SOL    HW116553   1.131   0.083  11.114  2.2498 -2.6814 -2.1052
 1697SOL    HW216554   1.163   0.188  11.208  1.7987 -0.0582  0.8271
 1698SOL     OW16555   2.179   1.315   6.252  0.0732  0.4431 -0.3639
 1698SOL    HW116556   2.186   1.264   6.333  0.3046 -1.4914 -1.5973
 1698SOL    HW216557   2.108   1.261   6.216  1.7011 -1.1106 -1.2535
 1699SOL     OW16558   2.754   3.563   5.617  0.0321 -0.5286 -0.2002
 1699SOL    HW116559   2.671   3.601   5.588 -1.0972 -0.2925  3.2617
 1699SOL    HW216560   2.717   3.489   5.667 -1.6406  0.6729  0.3503
 1700SOL     OW16561   2.863   3.192  14.598 -0.4452  0.2671  0.4330
 1700SOL    HW116562   2.947   3.189  14.554  0.1586 -0.8610  1.6747
 1700SOL    HW216563   2.840   3.099  14.602 -0.7519  0.3055 -0.3752
 1701SOL     OW16564   1.320   4.178   5.719  0.3952 -0.2100 -0.0400
 1701SOL    HW116565   1.371   4.147   5.645  1.8391 -2.3899  1.8770
 1701SOL    HW216566   1.288   4.261   5.683 -0.0842 -0.0815  0.6702
 1702SOL     OW16567   2.376   3.654   6.648 -0.1301 -0.4820  1.0160
 1702SOL    HW116568   2.400   3.597   6.722 -0.2950 -0.3562  1.1674
 1702SOL    HW216569   2.459   3.676   6.606 -1.5979  0.8762 -1.1644
 1703SOL     OW16570   1.067   3.308  14.825  0.6584 -0.3142  0.1812
 1703SOL    HW116571   1.117   3.376  14.779  2.3605 -1.3601  0.4873
 1703SOL    HW216572   0.978   3.321  14.792  0.9908  1.7175  0.1165
 1704SOL     OW16573   2.831   3.701  14.555  0.2023 -0.2872 -0.3130
 1704SOL    HW116574   2.908   3.729  14.506  2.6181 -3.2883  1.7902
 1704SOL    HW216575   2.872   3.656  14.629 -0.6708  0.8061  0.8576
 1705SOL     OW16576   2.450   4.401   5.600 -0.2348  0.1545 -0.7853
 1705SOL    HW116577   2.530   4.370   5.642 -1.6859  0.0670  1.8907
 1705SOL    HW216578   2.453   4.332   5.534 -1.8531 -1.4507  0.8092
 1706SOL     OW16579   2.037   0.493   2.379 -0.4090 -0.2256 -0.6266
 1706SOL    HW116580   2.102   0.556   2.347  0.7192 -2.5554 -2.8731
 1706SOL    HW216581   1.972   0.550   2.421  0.4774 -0.5623  1.1685
 1707SOL     OW16582   1.558   0.749   6.534  0.3196  0.4754 -0.1614
 1707SOL    HW116583   1.515   0.704   6.606  2.5387 -1.3805  0.0245
 1707SOL    HW216584   1.496   0.731   6.463 -2.3352  3.1135  1.5102
 1708SOL     OW16585   4.126   0.550   4.637  0.3122 -0.5248  0.9657
 1708SOL    HW116586   4.169   0.621   4.590  0.6305 -1.1314  0.3475
 1708SOL    HW216587   4.039   0.552   4.596  0.4963  1.8382  0.6629
 1709SOL     OW16588   4.336   0.792   3.889 -0.0190  0.0676 -0.2812
 1709SOL    HW116589   4.389   0.713   3.904  0.2482  0.1387 -0.8628
 1709SOL    HW216590   4.384   0.852   3.946  0.9923 -0.6189 -0.4030
 1710SOL     OW16591   0.940   3.412   6.390  0.1901 -0.2896 -0.0681
 1710SOL    HW116592   0.904   3.330   6.424  0.2375  0.6822  2.3572
 1710SOL    HW216593   0.989   3.443   6.467 -0.7869 -0.6057  0.6846
 1711SOL     OW16594   2.792   1.498  16.678 -0.2466  0.5446 -0.1107
 1711SOL    HW116595   2.698   1.481  16.683  0.2336 -1.5976  1.4448
 1711SOL    HW216596   2.785   1.550  16.598 -1.1060 -1.3223 -1.2423
 1712SOL     OW16597   1.948   0.234   2.258 -0.6606  0.2621  0.4848
 1712SOL    HW116598   1.853   0.244   2.265 -0.7380 -0.6412  0.7302
 1712SOL    HW216599   1.985   0.306   2.309  1.9243 -1.9923  1.7587
 1713SOL     OW16600   4.122   3.896   4.185  1.0195  0.3341  0.2567
 1713SOL    HW116601   4.089   3.978   4.151 -0.5926 -0.3509  0.1857
 1713SOL    HW216602   4.063   3.840   4.135  1.2744  1.3332 -1.1619
 1714SOL     OW16603   1.754   2.113   1.194 -0.5613 -0.0681 -0.1369
 1714SOL    HW116604   1.773   2.192   1.144 -1.1579  2.1323  3.1357
 1714SOL    HW216605   1.844   2.081   1.192  0.2810  2.4052 -0.5088
 1715SOL     OW16606   1.867   2.511  10.762  0.7939 -0.2788 -0.1488
 1715SOL    HW116607   1.961   2.519  10.748  0.5780  0.1072 -1.3741
 1715SOL    HW216608   1.832   2.581  10.706  2.6500  0.1916 -0.7051
 1716SOL     OW16609   3.166   1.532   5.554 -0.5884 -0.4404 -0.3960
 1716SOL    HW116610   3.087   1.478   5.555 -0.6534 -0.3209  1.2940
 1716SOL    HW216611   3.130   1.600   5.497  0.0650  0.2075 -0.0319
 1717SOL     OW16612   0.929   0.175   9.456 -0.2608 -0.8402 -0.1388
 1717SOL    HW116613   0.948   0.235   9.383 -3.1014  1.6516  1.1485
 1717SOL    HW216614   0.896   0.098   9.409  0.6149 -0.0109 -2.1249
 1718SOL     OW16615   1.430   1.050   3.262 -0.0512  0.0037  0.5406
 1718SOL    HW116616   1.515   1.077   3.226 -0.1957  0.5714  0.6272
 1718SOL    HW216617   1.399   0.992   3.192  1.6510  0.1551 -0.3338
 1719SOL     OW16618   2.879   0.046   3.354 -0.6435 -0.0748 -0.1549
 1719SOL    HW116619   2.935   0.021   3.427 -1.3095  0.4260  0.5338
 1719SOL    HW216620   2.917   4.715   3.286 -0.1715 -1.1893  0.9842
 1720SOL     OW16621   0.249   4.705  12.598  0.3282  0.5357  0.8191
 1720SOL    HW116622   0.166   4.701  12.646 -0.2918 -4.1272 -0.6947
 1720SOL    HW216623   0.283   4.617  12.615  0.1434  0.4375  0.6852
 1721SOL     OW16624   2.683   0.824   5.141 -0.0814 -0.3359  0.0958
 1721SOL    HW116625   2.771   0.834   5.103  0.2696  0.4690  1.1402
 1721SOL    HW216626   2.648   0.912   5.129  1.4152  0.5774  2.5648
 1722SOL     OW16627   1.099   3.958   5.787 -0.2161  0.2694  0.0156
 1722SOL    HW116628   1.165   3.900   5.748  1.4510  0.7935  2.0063
 1722SOL    HW216629   1.132   4.046   5.770  0.3922 -0.0739 -0.5790
 1723SOL     OW16630   2.804   0.516   3.065  0.6101  0.0414  0.3787
 1723SOL    HW116631   2.724   0.473   3.034  1.3903 -1.1062 -0.0394
 1723SOL    HW216632   2.794   0.486   3.155  0.3873 -0.3660  0.2214
 1724SOL     OW16633   1.137   0.792   6.400  0.3047 -0.2850  0.1385
 1724SOL    HW116634   1.227   0.820   6.382  0.0344  0.2885 -0.3102
 1724SOL    HW216635   1.098   0.872   6.435 -0.0212  1.1252 -3.4464
 1725SOL     OW16636   2.663   1.266   8.364  0.5932  0.0357  0.3666
 1725SOL    HW116637   2.670   1.307   8.278  0.5514 -2.3514 -0.7444
 1725SOL    HW216638   2.738   1.209   8.352  0.4707  0.2694 -1.4487
 1726SOL     OW16639   4.350   1.078   4.451 -0.1658 -0.4146 -0.1503
 1726SOL    HW116640   4.266   1.124   4.456  0.2259  0.0307  2.2643
 1726SOL    HW216641   4.402   1.153   4.479 -0.2096 -1.6235  3.1430
 1727SOL     OW16642   1.142   2.788   2.548  0.2180 -0.0845 -0.3970
 1727SOL    HW116643   1.070   2.832   2.594 -0.0285 -0.3088 -0.5647
 1727SOL    HW216644   1.094   2.730   2.489  1.2425  0.0725 -1.3867
 1728SOL     OW16645   4.667   3.613   8.145 -0.3473 -0.5224 -0.3629
 1728SOL    HW116646   0.039   3.618   8.160 -0.9336  2.0361  2.4031
 1728SOL    HW216647   4.655   3.524   8.177 -0.6108 -0.6952 -0.9386
 1729SOL     OW16648   1.249   1.346   3.308 -0.5676  0.0978  0.0693
 1729SOL    HW116649   1.257   1.288   3.384  0.5236 -1.1823 -1.0333
 1729SOL    HW216650   1.254   1.431   3.352  0.7330  0.2853 -0.4377
 1730SOL     OW16651   1.133   4.438   2.376 -0.4548  0.0150 -0.3022
 1730SOL    HW116652   1.210   4.407   2.329  0.6760  2.4001 -0.0226
 1730SOL    HW216653   1.149   4.530   2.355 -0.3907  0.2885  0.9475
 1731SOL     OW16654   0.160   0.762   1.346  0.0190  0.3921 -0.3637
 1731SOL    HW116655   0.078   0.793   1.309 -1.5426 -0.4699  2.3468
 1731SOL    HW216656   0.208   0.845   1.352 -0.6392  0.9171 -2.6673
 1732SOL     OW16657   2.710   3.017  12.452 -0.5416 -0.7734  0.4751
 1732SOL    HW116658   2.745   3.089  12.505 -0.8661 -0.9494  0.9279
 1732SOL    HW216659   2.747   2.943  12.501  0.0203 -1.8973 -1.6834
 1733SOL     OW16660   1.850   3.540   2.552 -0.6328 -0.4277 -0.5132
 1733SOL    HW116661   1.932   3.581   2.579 -0.3519 -0.7164 -0.9381
 1733SOL    HW216662   1.844   3.560   2.459  0.0775  1.0296 -0.2543
 1734SOL     OW16663   2.468   2.937  12.360  0.2974 -0.2826  0.0479
 1734SOL    HW116664   2.534   2.992  12.403 -3.2211  1.3653  3.3567
 1734SOL    HW216665   2.468   2.857  12.412  1.0250 -1.7368 -2.1698
 1735SOL     OW16666   0.134   3.161   0.838 -0.1308 -0.1018  0.1422
 1735SOL    HW116667   0.091   3.097   0.895  2.4437 -2.2547 -0.3007
 1735SOL    HW216668   0.207   3.105   0.809  0.2499  0.5275 -0.1150
 1736SOL     OW16669   0.905   3.717   2.126 -0.7142  0.4635  0.1096
 1736SOL    HW116670   0.987   3.717   2.076 -0.7265  3.0786  0.0923
 1736SOL    HW216671   0.895   3.624   2.146 -1.1319  0.6081  0.5743
 1737SOL     OW16672   2.776   1.654   8.967  0.5042 -0.0086 -0.0683
 1737SOL    HW116673   2.716   1.672   8.894  1.0757  2.4476  0.0439
 1737SOL    HW216674   2.822   1.738   8.977  0.3579 -0.0891  1.2758
 1738SOL     OW16675   4.380   4.180   4.557  0.6351 -0.0403  0.0910
 1738SOL    HW116676   4.412   4.113   4.496 -1.2774 -1.1637  0.3177
 1738SOL    HW216677   4.319   4.231   4.503 -0.3848  1.9993  3.1776
 1739SOL     OW16678   1.975   4.299   7.584 -0.3178  0.4795 -0.2110
 1739SOL    HW116679   1.882   4.313   7.600 -0.3297 -0.9398  0.9346
 1739SOL    HW216680   1.979   4.211   7.621 -0.1086  0.4669 -0.2641
 1740SOL     OW16681   0.044   1.151   4.238 -0.2984 -0.0100 -0.1677
 1740SOL    HW116682   0.010   1.146   4.328 -1.3800  1.4697 -0.4850
 1740SOL    HW216683   4.688   1.163   4.185 -2.4655 -0.0148  3.0515
 1741SOL     OW16684   0.010   0.393   3.219 -0.1407 -0.0851 -0.5349
 1741SOL    HW116685   0.049   0.480   3.211 -1.9522  0.4144 -3.9343
 1741SOL    HW216686   0.085   0.335   3.228 -1.8158 -2.0409  0.8705
 1742SOL     OW16687   1.548   1.206  12.125  0.7370 -0.4655  0.2206
 1742SOL    HW116688   1.490   1.143  12.082  1.8741 -1.2181 -0.2132
 1742SOL    HW216689   1.591   1.239  12.047 -3.5497  1.3379 -1.3656
 1743SOL     OW16690   4.240   3.579  12.326 -0.1472 -0.0224  0.2794
 1743SOL    HW116691   4.214   3.658  12.279  0.1382  0.1771  0.4609
 1743SOL    HW216692   4.173   3.568  12.393  0.8394  2.0595  1.5911
 1744SOL     OW16693   0.055   2.235  13.397  0.4012  0.1149  0.0861
 1744SOL    HW116694   0.120   2.194  13.339 -0.7856 -2.0512  0.2744
 1744SOL    HW216695   4.694   2.233  13.351  0.3771  0.3428  0.1229
 1745SOL     OW16696   0.083   3.710   0.315 -0.0404  0.1258  0.0227
 1745SOL    HW116697   4.716   3.725   0.288  0.0563  0.0927 -0.3172
 1745SOL    HW216698   0.114   3.799   0.332 -1.5912  0.2161  2.2430
 1746SOL     OW16699   2.094   2.938   3.528 -0.2425  1.0501 -0.3918
 1746SOL    HW116700   2.159   2.992   3.573 -1.6789  3.7388 -1.5412
 1746SOL    HW216701   2.100   2.984   3.445 -1.0158 -1.4004 -1.8167
 1747SOL     OW16702   0.470   3.989   4.434 -0.5110 -0.1427 -0.1607
 1747SOL    HW116703   0.378   3.963   4.427  0.3112 -2.8992 -0.8196
 1747SOL    HW216704   0.485   4.020   4.523  2.3641 -1.6297 -0.1283
 1748SOL     OW16705   4.697   4.602  13.323  0.1159 -0.3941 -0.0380
 1748SOL    HW116706   4.674   4.533  13.261 -0.9646 -2.0084  2.1561
 1748SOL    HW216707   0.049   4.562  13.367 -0.0176  0.8068  1.2986
 1749SOL     OW16708   3.145   3.357   3.609  0.3733  0.3359 -0.3180
 1749SOL    HW116709   3.107   3.416   3.544 -0.3852  0.0864 -0.0984
 1749SOL    HW216710   3.179   3.286   3.556 -1.7700 -0.8100 -0.1650
 1750SOL     OW16711   1.535   2.365   8.697 -0.2260 -0.4131  0.1639
 1750SOL    HW116712   1.452   2.330   8.731 -0.4953 -2.3347 -2.4640
 1750SOL    HW216713   1.552   2.424   8.770  0.6487 -1.5621  0.8730
 1751SOL     OW16714   1.133   1.728   3.576  0.3230 -0.6627  0.1219
 1751SOL    HW116715   1.198   1.770   3.632  1.4165 -2.0972 -0.0641
 1751SOL    HW216716   1.052   1.725   3.628 -2.3692 -2.9435 -4.2678
 1752SOL     OW16717   3.618   0.062   7.404  0.6126 -0.4199  0.0638
 1752SOL    HW116718   3.634   4.691   7.398 -0.4441 -0.6829  1.3136
 1752SOL    HW216719   3.652   0.083   7.491  0.4784  1.4018 -0.3338
 1753SOL     OW16720   3.962   1.416   4.778 -0.1358  0.2311  0.1978
 1753SOL    HW116721   4.013   1.418   4.698 -0.1615  0.2939  0.1831
 1753SOL    HW216722   3.977   1.503   4.814 -2.2117  1.5338 -2.0714
 1754SOL     OW16723   1.093   2.571   3.090 -0.1708 -0.2171  0.3413
 1754SOL    HW116724   1.033   2.496   3.090 -1.3033  0.6823  1.3702
 1754SOL    HW216725   1.047   2.634   3.035  0.9140  0.4591  0.1981
 1755SOL     OW16726   0.690   2.470  10.087  0.2610  0.2199 -1.1575
 1755SOL    HW116727   0.704   2.564  10.093 -1.6793  0.3171  1.6657
 1755SOL    HW216728   0.741   2.449  10.009  2.1449 -2.2685  0.7372
 1756SOL     OW16729   3.995   1.937   4.023  0.3184  0.5619 -0.2660
 1756SOL    HW116730   4.057   1.984   3.966  0.7149 -0.1814 -0.4543
 1756SOL    HW216731   4.050   1.869   4.061  0.6999  1.3227  0.5498
 1757SOL     OW16732   3.011   4.269   8.586  0.4555  0.1365  0.2267
 1757SOL    HW116733   2.928   4.316   8.582  1.1855  1.2821 -1.6132
 1757SOL    HW216734   3.036   4.252   8.495 -1.3906  0.4891 -0.3338
 1758SOL     OW16735   4.628   3.433   4.348 -0.1324  0.3703 -0.8712
 1758SOL    HW116736   4.631   3.444   4.443  1.1130 -0.5853 -0.7923
 1758SOL    HW216737   4.571   3.358   4.335  1.6531 -1.1574  0.1592
 1759SOL     OW16738   3.191   0.693   1.873  0.0595  0.0889  0.2271
 1759SOL    HW116739   3.108   0.740   1.886 -1.3167 -1.7573 -1.7159
 1759SOL    HW216740   3.206   0.708   1.779 -2.6108  1.2459 -0.0248
 1760SOL     OW16741   3.957   3.578  12.474  0.2366  0.0432  0.0476
 1760SOL    HW116742   3.989   3.499  12.516 -1.0926 -1.0275 -0.9634
 1760SOL    HW216743   3.907   3.553  12.396  0.3921  1.0361 -0.3758
 1761SOL     OW16744   2.063   4.241  16.033 -0.1259 -0.2850  0.0610
 1761SOL    HW116745   1.990   4.231  16.093  0.1981 -3.0115  0.0032
 1761SOL    HW216746   2.129   4.270  16.096 -2.6136  0.9133  2.1370
 1762SOL     OW16747   3.787   4.085   6.343  0.1231  0.2365  0.1337
 1762SOL    HW116748   3.866   4.043   6.308 -0.1256 -2.7254  3.1515
 1762SOL    HW216749   3.726   4.012   6.351 -1.3066  1.4407  0.2328
 1763SOL     OW16750   2.097   2.808  16.019  0.8178 -0.0564  0.6317
 1763SOL    HW116751   2.063   2.780  16.104  4.9340 -2.3882  1.5333
 1763SOL    HW216752   2.056   2.894  16.021 -0.7121 -0.8021  0.7083
 1764SOL     OW16753   4.230   3.705   3.295  0.5983 -0.0976  0.3186
 1764SOL    HW116754   4.159   3.759   3.260  0.2834  0.0378  1.1722
 1764SOL    HW216755   4.291   3.721   3.223 -0.8781 -0.1823 -0.9665
 1765SOL     OW16756   2.096   1.189   4.085  0.1431 -0.7140 -0.5547
 1765SOL    HW116757   2.159   1.197   4.156  2.0394 -0.7693 -2.2159
 1765SOL    HW216758   2.111   1.098   4.057 -1.7058 -1.5783  1.2844
 1766SOL     OW16759   2.932   2.563  13.425 -0.3922 -0.0535 -0.2682
 1766SOL    HW116760   2.895   2.483  13.461 -1.4252  1.1261  1.3169
 1766SOL    HW216761   2.864   2.588  13.363 -1.9394  0.5571  1.6709
 1767SOL     OW16762   0.255   1.745   5.627 -0.4601 -0.0685 -0.0876
 1767SOL    HW116763   0.324   1.811   5.630  1.2202 -1.8924  1.0805
 1767SOL    HW216764   0.199   1.771   5.701 -0.3839  2.5625 -0.9558
 1768SOL     OW16765   2.133   1.967  13.136 -0.3168 -0.0941  0.2633
 1768SOL    HW116766   2.096   1.905  13.198 -0.9120 -0.7144 -0.7151
 1768SOL    HW216767   2.223   1.942  13.153 -0.5621 -0.1400  1.4645
 1769SOL     OW16768   0.285   0.251   3.257  0.1391 -0.3775 -0.2145
 1769SOL    HW116769   0.298   0.157   3.247  1.4680 -0.3160  1.0072
 1769SOL    HW216770   0.251   0.255   3.346  2.8001  5.4247  0.5554
 1770SOL     OW16771   2.448   2.911   7.925  0.1077  0.1246 -0.2727
 1770SOL    HW116772   2.357   2.938   7.934 -0.9414 -4.3640  2.5041
 1770SOL    HW216773   2.435   2.816   7.920  0.9300  0.0500 -1.0315
 1771SOL     OW16774   1.211   2.508  12.439  0.0379  0.0047  0.6412
 1771SOL    HW116775   1.236   2.522  12.347  1.2572 -0.0059  0.9770
 1771SOL    HW216776   1.147   2.440  12.420 -0.2097  0.5885 -0.6127
 1772SOL     OW16777   3.237   3.350   8.984 -0.4359 -0.2734 -0.1169
 1772SOL    HW116778   3.159   3.402   8.965 -0.9062 -0.4906  1.2073
 1772SOL    HW216779   3.303   3.420   8.989 -0.0003 -0.7072  0.2385
 1773SOL     OW16780   3.189   1.478   8.364  0.4730 -0.5491 -0.3004
 1773SOL    HW116781   3.248   1.552   8.377  0.7934 -0.7888 -0.3904
 1773SOL    HW216782   3.220   1.426   8.438 -0.4681 -0.0773  0.4252
 1774SOL     OW16783   0.691   1.491   8.248 -0.0596 -0.0409  0.3896
 1774SOL    HW116784   0.727   1.561   8.193 -0.0035  0.1832  0.7119
 1774SOL    HW216785   0.778   1.457   8.270  0.2579 -0.1072 -0.9828
 1775SOL     OW16786   1.617   0.684   1.539  0.1259  0.5102  0.7400
 1775SOL    HW116787   1.577   0.603   1.508  0.6736 -0.7426  3.2695
 1775SOL    HW216788   1.666   0.656   1.617  2.9388  1.0161 -0.8212
 1776SOL     OW16789   0.717   3.022   1.108 -0.2145 -0.2785  0.6625
 1776SOL    HW116790   0.729   2.931   1.084 -1.4626 -1.1228  3.1831
 1776SOL    HW216791   0.783   3.044   1.174  1.2708  0.2260 -0.9826
 1777SOL     OW16792   0.113   3.501  17.314 -0.1696  0.2921  0.5931
 1777SOL    HW116793   0.200   3.532  17.289 -0.7117  0.2874 -1.2498
 1777SOL    HW216794   0.119   3.410  17.346 -0.5680  0.1913  0.3730
 1778SOL     OW16795   4.403   0.432   0.922  0.0641 -0.1566  0.2717
 1778SOL    HW116796   4.449   0.397   0.998  0.1838  1.0755  0.7705
 1778SOL    HW216797   4.391   0.356   0.865  0.6435 -0.0845  0.0614
 1779SOL     OW16798   4.586   4.508   1.123  0.1299  0.4118 -0.2778
 1779SOL    HW116799   4.527   4.433   1.116  0.5713  0.0989 -0.7338
 1779SOL    HW216800   4.580   4.546   1.035 -3.0082  0.1659 -0.1513
 1780SOL     OW16801   2.113   1.419   7.200 -0.0018 -0.4872 -0.2121
 1780SOL    HW116802   2.017   1.417   7.196 -0.1448  1.7058  1.9917
 1780SOL    HW216803   2.125   1.369   7.281 -0.1165 -2.1960 -1.2470
 1781SOL     OW16804   3.977   0.102   5.601 -0.5676  0.3827 -0.8010
 1781SOL    HW116805   4.014   0.168   5.660 -1.1656  0.3539 -0.3906
 1781SOL    HW216806   4.050   0.094   5.539 -0.8882  1.3708 -1.2971
 1782SOL     OW16807   2.718   0.009   7.744 -0.1789  0.2607 -0.3889
 1782SOL    HW116808   2.684   4.643   7.752 -0.6706  0.4136 -0.7619
 1782SOL    HW216809   2.810   4.705   7.754  0.6121  2.1266 -2.6498
 1783SOL     OW16810   2.922   3.137   3.998 -0.1541  0.2170  0.1817
 1783SOL    HW116811   2.880   3.215   4.036  0.6780  1.5052 -1.5648
 1783SOL    HW216812   2.931   3.082   4.076 -0.6055  1.7932  1.3500
 1784SOL     OW16813   2.390   4.678  15.540  0.9236  0.2192  0.1150
 1784SOL    HW116814   2.425   0.043  15.555 -1.9234  1.2043  0.9442
 1784SOL    HW216815   2.468   4.624  15.554 -2.2457 -4.2108  0.6893
 1785SOL     OW16816   2.555   3.369   7.419 -0.4237  0.5384 -0.0054
 1785SOL    HW116817   2.606   3.350   7.340  0.2145  1.2504  0.2325
 1785SOL    HW216818   2.629   3.373   7.480 -2.1748  1.7240  2.0413
 1786SOL     OW16819   3.894   3.094   1.715  0.3968 -0.3186  0.0440
 1786SOL    HW116820   3.946   3.064   1.789 -0.3248 -0.1728  0.6107
 1786SOL    HW216821   3.951   3.066   1.643 -1.2216 -0.5090 -1.1814
 1787SOL     OW16822   0.315   2.677   2.771  0.3723  0.6123  0.3581
 1787SOL    HW116823   0.225   2.642   2.775  0.7998 -0.5464 -0.0299
 1787SOL    HW216824   0.306   2.772   2.773  0.1061  0.6535 -2.9476
 1788SOL     OW16825   3.248   1.029   1.409  0.1155 -0.0527  0.0252
 1788SOL    HW116826   3.186   0.979   1.355 -0.7837  0.2255  0.8008
 1788SOL    HW216827   3.311   1.056   1.342 -0.3554  0.3930 -0.2322
 1789SOL     OW16828   2.385   0.641  15.459 -1.0910 -0.2204  0.3283
 1789SOL    HW116829   2.330   0.564  15.444  0.7229 -1.1660 -1.4815
 1789SOL    HW216830   2.405   0.668  15.369  2.9031  3.5314  2.3610
 1790SOL     OW16831   0.160   4.327   1.096 -0.2180  0.2355  0.5784
 1790SOL    HW116832   0.098   4.380   1.046 -0.3677 -1.8786 -1.4617
 1790SOL    HW216833   0.234   4.385   1.113  0.2136  0.9786 -4.0445
 1791SOL     OW16834   4.636   3.913   2.613 -0.3086 -0.4227  0.2547
 1791SOL    HW116835   4.622   4.007   2.622  0.6952 -0.4477  2.0749
 1791SOL    HW216836   4.682   3.895   2.694 -0.4684  0.2816  0.5035
 1792SOL     OW16837   1.072   0.770  15.739 -0.4964 -0.2895 -0.2861
 1792SOL    HW116838   1.146   0.830  15.736 -0.2814 -0.4074  2.5696
 1792SOL    HW216839   1.056   0.779  15.833 -1.3991 -0.3127 -0.4348
 1793SOL     OW16840   1.698   1.551   6.081 -0.3525  0.5739 -0.9601
 1793SOL    HW116841   1.787   1.558   6.114 -1.2742  4.7099  0.6985
 1793SOL    HW216842   1.687   1.624   6.019  0.1267  1.0509 -0.4842
 1794SOL     OW16843   0.994   0.842  13.713 -0.1927  0.5470  0.0148
 1794SOL    HW116844   0.907   0.859  13.747 -0.3474 -1.9629  0.8480
 1794SOL    HW216845   1.022   0.925  13.674  1.4859 -0.1829 -0.3658
 1795SOL     OW16846   0.254   4.065   4.848  0.0138 -0.0120  0.3791
 1795SOL    HW116847   0.203   3.994   4.808  0.1722 -0.7699  1.5082
 1795SOL    HW216848   0.195   4.115   4.905 -0.3842 -3.0030  2.5892
 1796SOL     OW16849   3.787   4.066   1.476 -0.0201 -0.1443 -0.6591
 1796SOL    HW116850   3.879   4.081   1.498  0.2048 -2.0198 -0.2575
 1796SOL    HW216851   3.752   4.047   1.563  3.0055  2.4726  1.1240
 1797SOL     OW16852   4.583   2.799  16.070 -0.2416 -0.3897 -0.3068
 1797SOL    HW116853   4.676   2.785  16.050 -0.5522 -1.1618 -1.2085
 1797SOL    HW216854   4.578   2.892  16.045  1.7672 -0.8265 -2.3160
 1798SOL     OW16855   3.029   2.774   1.216 -0.1199  0.3849  0.9670
 1798SOL    HW116856   3.003   2.743   1.303  1.0575 -1.2834  0.7184
 1798SOL    HW216857   2.952   2.752   1.163  1.8144 -1.0003 -1.2219
 1799SOL     OW16858   3.020   1.578   6.988  0.3198 -0.1409 -0.0223
 1799SOL    HW116859   3.000   1.499   6.938  1.2831 -1.1358  1.1630
 1799SOL    HW216860   2.942   1.633   6.981  0.1013 -0.7180 -2.0387
 1800SOL     OW16861   1.827   2.823   9.055  0.0751 -0.3825  0.8955
 1800SOL    HW116862   1.801   2.832   9.147 -1.3938 -0.3669  0.4823
 1800SOL    HW216863   1.782   2.739   9.044 -0.8738  0.3246 -0.5874
 1801SOL     OW16864   0.587   3.331   2.195  0.3117 -0.1182 -0.0634
 1801SOL    HW116865   0.591   3.241   2.228 -1.9099 -0.6775 -1.3477
 1801SOL    HW216866   0.675   3.350   2.164  0.3633  0.1533  0.2492
 1802SOL     OW16867   2.583   1.935   5.856  0.2748  1.1254 -0.3088
 1802SOL    HW116868   2.639   1.968   5.926  1.4573  0.9691 -1.1855
 1802SOL    HW216869   2.569   1.848   5.894 -3.0333  1.5297 -0.5655
 1803SOL     OW16870   3.650   0.046   0.497 -0.3314 -0.5299 -0.5027
 1803SOL    HW116871   3.686   0.124   0.539  0.6009 -0.8884 -0.6424
 1803SOL    HW216872   3.658   0.065   0.404 -1.2413 -2.7488 -1.0441
 1804SOL     OW16873   1.717   4.195   8.873  0.2296  0.0922  0.4742
 1804SOL    HW116874   1.728   4.289   8.858  1.1559  0.1264  1.3682
 1804SOL    HW216875   1.626   4.182   8.847 -0.2364 -0.0618  2.1899
 1805SOL     OW16876   3.079   0.694   6.025 -0.1280 -0.3346  0.7675
 1805SOL    HW116877   3.025   0.639   6.081 -1.8647  0.0395 -0.5394
 1805SOL    HW216878   3.099   0.769   6.081 -0.9807  1.1616 -0.9201
 1806SOL     OW16879   1.630   4.537   2.491 -0.4284 -0.5817 -0.3538
 1806SOL    HW116880   1.707   4.554   2.436  1.1396 -2.0089  1.4046
 1806SOL    HW216881   1.581   4.473   2.439 -1.1196  0.2017 -0.6584
 1807SOL     OW16882   1.533   0.489   4.316  0.2144 -0.1895  0.5478
 1807SOL    HW116883   1.514   0.396   4.302  0.0537  0.1727 -1.6070
 1807SOL    HW216884   1.558   0.520   4.229 -1.5962 -1.1776 -0.3263
 1808SOL     OW16885   2.625   0.089  10.089 -0.0339 -0.1547  0.2482
 1808SOL    HW116886   2.574   0.040  10.024  0.5570 -0.6694  0.1727
 1808SOL    HW216887   2.571   0.160  10.124 -1.1687 -0.3841 -1.0182
 1809SOL     OW16888   2.342   0.377  10.433  0.1925 -0.8786  0.1190
 1809SOL    HW116889   2.388   0.387  10.350  0.8659  0.2757  0.6337
 1809SOL    HW216890   2.272   0.314  10.414  0.5051 -0.6912 -1.6805
 1810SOL     OW16891   3.693   1.375   6.522 -0.0565  0.2912  0.2253
 1810SOL    HW116892   3.711   1.446   6.584  3.5045  0.7066 -1.2902
 1810SOL    HW216893   3.645   1.426   6.457 -2.3800 -0.7418  1.1283
 1811SOL     OW16894   0.825   1.720  10.239 -0.0845 -0.1091 -0.2146
 1811SOL    HW116895   0.754   1.716  10.175  1.3101 -2.8993 -1.6376
 1811SOL    HW216896   0.772   1.692  10.313  0.0786  0.0736 -0.0314
 1812SOL     OW16897   0.825   3.427   2.104 -0.0366 -0.0567 -0.4714
 1812SOL    HW116898   0.921   3.422   2.108  0.0511 -1.3055 -4.5041
 1812SOL    HW216899   0.793   3.473   2.027 -0.9411  2.2309  1.2636
 1813SOL     OW16900   3.713   1.332   7.570 -0.0208  0.3118 -0.0457
 1813SOL    HW116901   3.696   1.393   7.642  2.7032 -1.9654  2.5288
 1813SOL    HW216902   3.782   1.270   7.595  0.6382  0.5080 -1.3763
 1814SOL     OW16903   2.764   1.794   6.044  0.0489 -0.4831  0.0775
 1814SOL    HW116904   2.859   1.805   6.046 -0.1610  1.3100  0.3315
 1814SOL    HW216905   2.744   1.838   6.126  0.5388  0.9193 -0.5542
 1815SOL     OW16906   4.526   0.683   9.002  0.1677  0.1151  0.0443
 1815SOL    HW116907   4.582   0.690   9.078  1.0048  0.6102 -0.6164
 1815SOL    HW216908   4.566   0.617   8.946 -0.5170 -0.5889  0.3868
 1816SOL     OW16909   0.639   3.866   0.284 -0.1042  0.1634 -0.1977
 1816SOL    HW116910   0.563   3.826   0.242  0.7965 -1.2374 -0.4826
 1816SOL    HW216911   0.719   3.834   0.243  0.1191 -0.1236  0.4739
 1817SOL     OW16912   3.973   4.464   2.229  0.1905  0.4212  0.3474
 1817SOL    HW116913   3.991   4.558   2.223 -1.5016  0.7769  0.7542
 1817SOL    HW216914   4.051   4.428   2.189  1.0039  0.9127  1.5051
 1818SOL     OW16915   1.698   0.538   0.915  0.3729  0.3833 -0.1347
 1818SOL    HW116916   1.619   0.484   0.914  0.5292  0.1398  0.5512
 1818SOL    HW216917   1.715   0.531   0.821 -1.0683  1.5180 -0.4722
 1819SOL     OW16918   0.713   4.489   5.528 -0.4421 -0.2599 -0.5438
 1819SOL    HW116919   0.729   4.583   5.536 -0.5167 -0.3196  0.2889
 1819SOL    HW216920   0.744   4.467   5.440  1.9493 -1.3639  0.5466
 1820SOL     OW16921   0.043   1.757   1.997  0.1443 -0.3618 -0.4037
 1820SOL    HW116922   4.705   1.757   1.923 -3.4689 -0.0453  2.5655
 1820SOL    HW216923   0.122   1.771   1.945  1.5386  0.7209  1.9917
 1821SOL     OW16924   2.383   4.291   3.963  0.1185 -0.5057  0.2415
 1821SOL    HW116925   2.394   4.197   3.946 -2.9775 -0.4491 -1.9890
 1821SOL    HW216926   2.382   4.331   3.876 -0.3991 -1.4253 -0.1725
 1822SOL     OW16927   0.439   4.290   6.103 -0.6815 -0.2175 -0.0880
 1822SOL    HW116928   0.533   4.305   6.089 -1.2072  1.0558 -2.1694
 1822SOL    HW216929   0.427   4.305   6.197 -1.2364  1.4762 -0.4248
 1823SOL     OW16930   4.282   2.346   6.400 -0.6688  0.4744  0.1661
 1823SOL    HW116931   4.314   2.428   6.437  1.2868 -0.1292 -0.1920
 1823SOL    HW216932   4.328   2.348   6.316 -1.4260 -1.2152 -0.2895
 1824SOL     OW16933   2.761   2.244   9.087  0.3785 -0.5757 -0.3554
 1824SOL    HW116934   2.688   2.214   9.142 -0.1275 -0.4412 -0.9450
 1824SOL    HW216935   2.759   2.336   9.112 -2.6779 -0.0278 -2.4750
 1825SOL     OW16936   2.698   1.324   5.895  0.5646 -0.0787 -1.0143
 1825SOL    HW116937   2.682   1.417   5.878  0.1935  0.5754  2.8190
 1825SOL    HW216938   2.613   1.289   5.868  0.1654 -0.0986  0.2835
 1826SOL     OW16939   0.416   2.091  13.087  0.1517 -0.0236  0.6048
 1826SOL    HW116940   0.497   2.111  13.041 -0.7781  1.5311 -0.3801
 1826SOL    HW216941   0.369   2.039  13.021  2.3215 -1.9180  0.5895
 1827SOL     OW16942   1.079   4.259   1.014  0.8841  0.5848  0.1987
 1827SOL    HW116943   1.167   4.223   1.015 -0.4420 -2.6156 -0.2053
 1827SOL    HW216944   1.098   4.345   0.975  2.0606 -0.0398 -0.5858
 1828SOL     OW16945   1.287   0.387   6.323  0.0391 -0.3608 -0.2913
 1828SOL    HW116946   1.240   0.319   6.275  1.3342 -2.3281  1.2336
 1828SOL    HW216947   1.305   0.449   6.252  0.8423  1.2167  1.2662
 1829SOL     OW16948   0.279   2.146   2.657  0.5621  0.2367  0.2979
 1829SOL    HW116949   0.363   2.149   2.610 -1.0695 -2.8587 -2.8082
 1829SOL    HW216950   0.233   2.087   2.598  1.5292 -1.9053  1.6669
 1830SOL     OW16951   1.038   4.631   4.436  0.1520 -0.5686  0.6239
 1830SOL    HW116952   1.075   4.587   4.512  1.7652 -0.8331 -0.3148
 1830SOL    HW216953   1.107   4.606   4.375  2.3115  2.3676  1.8632
 1831SOL     OW16954   1.693   1.221   0.628  0.5148  0.4912 -0.3994
 1831SOL    HW116955   1.652   1.140   0.599 -2.7537  2.9437 -2.6511
 1831SOL    HW216956   1.729   1.193   0.712 -0.4050  0.2153 -0.0889
 1832SOL     OW16957   1.703   3.082   5.862 -0.0780  0.8483 -0.3870
 1832SOL    HW116958   1.633   3.032   5.904  0.3165  0.2295 -0.4524
 1832SOL    HW216959   1.659   3.159   5.827  0.4715  1.1762 -0.3636
 1833SOL     OW16960   4.212   1.270  14.984  0.3551 -1.0196  0.0612
 1833SOL    HW116961   4.119   1.250  14.975  0.9484 -3.3415 -0.9392
 1833SOL    HW216962   4.210   1.364  14.972 -2.4243 -1.2075 -1.0254
 1834SOL     OW16963   2.731   1.730   4.523  0.0680 -0.3175 -0.3133
 1834SOL    HW116964   2.659   1.677   4.488 -0.5469  0.9239 -0.9539
 1834SOL    HW216965   2.708   1.716   4.615 -1.8438  1.0039 -0.5920
 1835SOL     OW16966   3.982   2.460   1.893  0.0963 -0.2145 -0.5234
 1835SOL    HW116967   4.004   2.546   1.929  0.9550 -0.4712 -0.4241
 1835SOL    HW216968   3.918   2.483   1.826  1.0076  0.7471 -1.0713
 1836SOL     OW16969   0.956   3.519   8.741  0.5460  0.0809  0.1582
 1836SOL    HW116970   0.907   3.505   8.659  1.0144 -0.9784  0.0569
 1836SOL    HW216971   1.037   3.553   8.704  0.0223  2.0060  0.8207
 1837SOL     OW16972   3.430   2.296   8.305 -0.3393 -0.4955 -0.0348
 1837SOL    HW116973   3.523   2.300   8.285 -0.8543  0.8557 -2.1803
 1837SOL    HW216974   3.425   2.311   8.400  0.0912 -0.5209 -0.0108
 1838SOL     OW16975   4.342   1.641   8.135 -0.8792  0.0487 -0.0006
 1838SOL    HW116976   4.297   1.717   8.172  1.0563  0.8380  0.7327
 1838SOL    HW216977   4.336   1.676   8.046 -0.1129  1.3853  0.4648
 1839SOL     OW16978   3.750   3.602   1.610  0.0859 -0.2891  0.4229
 1839SOL    HW116979   3.688   3.581   1.680 -1.5392  0.1479 -0.8933
 1839SOL    HW216980   3.812   3.530   1.607 -1.4515 -1.5086 -2.3514
 1840SOL     OW16981   3.376   0.135   9.204 -0.4346 -0.2251  0.2790
 1840SOL    HW116982   3.405   0.217   9.245  0.6707  0.2525 -1.4784
 1840SOL    HW216983   3.301   0.109   9.258  0.4849 -2.0471  0.6960
 1841SOL     OW16984   1.326   2.301  12.869 -0.0514  0.0116 -0.1712
 1841SOL    HW116985   1.385   2.291  12.943 -1.4628  0.7285  1.0703
 1841SOL    HW216986   1.378   2.320  12.791  2.1715 -0.3590  1.2532
 1842SOL     OW16987   0.508   1.241  15.514  0.3234 -0.2384 -0.3237
 1842SOL    HW116988   0.482   1.266  15.426  0.7037 -2.0478 -0.9554
 1842SOL    HW216989   0.556   1.162  15.488 -1.5592 -0.3453 -3.5224
 1843SOL     OW16990   2.987   1.977   4.104  0.1912 -0.1369  0.2127
 1843SOL    HW116991   2.982   1.945   4.194 -0.4335  0.8404  0.5219
 1843SOL    HW216992   2.915   2.040   4.101  0.9133  0.5141 -3.0742
 1844SOL     OW16993   3.628   4.708   2.124 -0.2483  0.1457  0.0212
 1844SOL    HW116994   3.608   0.039   2.047 -0.6400  0.3339  0.2532
 1844SOL    HW216995   3.709   0.022   2.160  0.1143  1.9396 -2.6154
 1845SOL     OW16996   1.410   0.954   3.734  0.0945  0.2332 -0.4739
 1845SOL    HW116997   1.331   0.929   3.687  1.5234  0.8336 -3.2110
 1845SOL    HW216998   1.467   0.962   3.657  1.5806 -2.1893  0.3779
 1846SOL     OW16999   3.490   2.620   6.602  0.2268  0.3176 -0.5688
 1846SOL    HW117000   3.438   2.680   6.656 -1.2745  0.5004 -2.2209
 1846SOL    HW217001   3.467   2.640   6.511 -0.4184 -2.0774 -0.9231
 1847SOL     OW17002   0.810   4.021   0.487 -0.0659  0.2664 -0.2466
 1847SOL    HW117003   0.760   3.947   0.452  1.5445 -0.8179 -0.2791
 1847SOL    HW217004   0.891   3.976   0.511  0.8717  1.7056 -0.7191
 1848SOL     OW17005   2.908   0.320   5.773 -0.5205  0.1423  0.7137
 1848SOL    HW117006   2.841   0.368   5.822 -0.1966  0.9254  0.3873
 1848SOL    HW217007   2.975   0.299   5.839  0.1242  1.0586  0.3552
 1849SOL     OW17008   2.715   1.205  14.325 -0.0973  0.2260  0.0538
 1849SOL    HW117009   2.706   1.280  14.265  0.6800 -0.6230 -1.1245
 1849SOL    HW217010   2.743   1.129  14.275  3.1504  1.1336  0.5274
 1850SOL     OW17011   4.176   1.384   4.578  0.4367 -0.2892 -0.6677
 1850SOL    HW117012   4.136   1.454   4.527 -0.2220 -0.3800 -0.2726
 1850SOL    HW217013   4.267   1.413   4.591  0.3882 -0.9406  1.1658
 1851SOL     OW17014   4.365   1.355   8.916 -0.4209 -0.2035  0.0216
 1851SOL    HW117015   4.437   1.316   8.965 -2.2933 -0.7469  2.3313
 1851SOL    HW217016   4.288   1.315   8.955  0.3022 -0.0844  1.5448
 1852SOL     OW17017   3.462   3.565   9.038  0.1556 -0.2113 -0.2598
 1852SOL    HW117018   3.474   3.608   8.953 -1.8211 -1.0617 -0.9703
 1852SOL    HW217019   3.469   3.643   9.094 -0.2325 -1.2487  1.2390
 1853SOL     OW17020   1.516   2.941   0.215 -0.4969 -0.6409 -0.3696
 1853SOL    HW117021   1.487   2.955   0.125 -0.7322  0.4253 -0.1301
 1853SOL    HW217022   1.601   2.986   0.212 -0.0449 -1.3523  1.6050
 1854SOL     OW17023   2.093   0.544  11.479  0.4101 -0.0595  0.1281
 1854SOL    HW117024   2.115   0.613  11.417  1.4064 -1.3987 -1.0010
 1854SOL    HW217025   2.179   0.522  11.515 -0.9480  0.8193  3.8911
 1855SOL     OW17026   3.958   3.504   7.450  0.9643 -0.0936 -0.3057
 1855SOL    HW117027   3.953   3.478   7.358 -1.3375 -2.5496  0.5067
 1855SOL    HW217028   4.045   3.539   7.466 -0.2010  2.4811  0.5367
 1856SOL     OW17029   4.401   3.265  14.421  0.3755  0.3572  0.4605
 1856SOL    HW117030   4.336   3.230  14.360 -0.0727  1.4160  0.3341
 1856SOL    HW217031   4.382   3.198  14.488  1.9947 -1.1233 -0.5812
 1857SOL     OW17032   0.067   0.863   4.890 -0.3210 -0.4244 -0.0794
 1857SOL    HW117033   0.111   0.819   4.963 -1.6738  2.1999  2.3085
 1857SOL    HW217034   4.702   0.849   4.926 -1.1519  1.4088 -1.4209
 1858SOL     OW17035   3.195   3.012   4.791 -0.4712  0.4024  0.5561
 1858SOL    HW117036   3.122   2.960   4.826 -0.1164 -2.6610 -3.2058
 1858SOL    HW217037   3.261   2.946   4.770 -1.0751 -1.1641  3.5310
 1859SOL     OW17038   0.355   1.101   9.055 -0.1989  0.5586 -0.4578
 1859SOL    HW117039   0.378   1.162   9.126 -2.1468 -0.3139  0.9268
 1859SOL    HW217040   0.376   1.017   9.095  0.2748 -0.1397 -2.1917
 1860SOL     OW17041   0.097   1.522  13.170 -0.4524 -0.6554  0.0857
 1860SOL    HW117042   0.010   1.536  13.206 -0.6867  1.2262 -1.2211
 1860SOL    HW217043   0.150   1.583  13.222  0.1235 -0.7355 -0.3928
 1861SOL     OW17044   2.520   4.667   5.596  0.0626 -0.1958 -0.3309
 1861SOL    HW117045   2.499   4.690   5.687  0.0573  0.3447 -0.4689
 1861SOL    HW217046   2.478   4.581   5.589  0.1639 -0.3549  0.9563
 1862SOL     OW17047   4.705   4.335   2.254 -0.0749 -0.3081 -0.2964
 1862SOL    HW117048   0.052   4.338   2.189  1.5184 -0.4216  1.4065
 1862SOL    HW217049   4.667   4.422   2.238  0.8471 -0.5260 -3.5736
 1863SOL     OW17050   3.003   3.163   6.311  0.0348  0.6342  0.6088
 1863SOL    HW117051   3.088   3.204   6.328  0.1739  0.3012  0.7030
 1863SOL    HW217052   3.024   3.116   6.230 -1.2624  0.2770  0.4725
 1864SOL     OW17053   2.384   3.399   1.438  0.3384  0.6269  0.4948
 1864SOL    HW117054   2.314   3.416   1.374  1.0456 -1.3673 -0.7979
 1864SOL    HW217055   2.388   3.303   1.441  0.4490  0.6412  0.8030
 1865SOL     OW17056   2.974   4.446   9.556 -0.2365 -0.1348 -0.3114
 1865SOL    HW117057   3.055   4.485   9.588 -0.3415  0.7628 -1.1292
 1865SOL    HW217058   2.971   4.367   9.609 -1.4004  0.7331  0.9269
 1866SOL     OW17059   1.259   1.918   7.165 -0.2376  0.1954 -0.1590
 1866SOL    HW117060   1.293   1.935   7.253  0.5622 -2.7203  0.0985
 1866SOL    HW217061   1.168   1.912   7.192 -0.0628  0.2916  0.4438
 1867SOL     OW17062   1.546   0.588   4.048 -0.1224 -0.0309  0.4873
 1867SOL    HW117063   1.548   0.531   3.971  2.3164 -1.2287  1.4461
 1867SOL    HW217064   1.638   0.614   4.048  0.0519 -0.6554 -1.5264
 1868SOL     OW17065   0.964   3.407   1.674 -0.4530 -0.1466  0.9428
 1868SOL    HW117066   0.952   3.313   1.689 -1.7433 -0.0488  0.4716
 1868SOL    HW217067   0.890   3.447   1.718 -0.3155  0.4453  0.6376
 1869SOL     OW17068   1.318   4.103   4.031  0.1472 -0.2477 -0.1545
 1869SOL    HW117069   1.244   4.042   4.022  0.7327 -1.1122  0.8774
 1869SOL    HW217070   1.387   4.038   4.045 -2.2006 -2.9024 -0.6811
 1870SOL     OW17071   4.220   3.872   7.664 -0.6701 -0.3718  0.5737
 1870SOL    HW117072   4.193   3.782   7.646 -0.2695 -0.3620 -0.0789
 1870SOL    HW217073   4.214   3.905   7.574  2.1026  1.5172  1.0764
 1871SOL     OW17074   3.826   4.593  16.289 -0.3484 -0.3381  0.3789
 1871SOL    HW117075   3.752   4.540  16.259  0.2136  1.1612 -3.7591
 1871SOL    HW217076   3.899   4.535  16.266 -2.4711 -3.1717  0.7120
 1872SOL     OW17077   2.873   0.437   4.673  0.5021 -0.9611 -0.0494
 1872SOL    HW117078   2.834   0.492   4.605  0.7296  2.0468  2.3007
 1872SOL    HW217079   2.797   0.383   4.696 -0.0680 -0.3011 -0.3939
 1873SOL     OW17080   0.682   2.035   8.826 -0.7453  0.4568  0.5513
 1873SOL    HW117081   0.678   1.979   8.904 -0.1731 -0.6912 -0.2438
 1873SOL    HW217082   0.762   1.997   8.789 -0.7331  2.5645 -1.6123
 1874SOL     OW17083   0.750   4.203   5.303  0.0427  0.5354  0.2828
 1874SOL    HW117084   0.661   4.216   5.272 -1.1350 -1.1691  2.9367
 1874SOL    HW217085   0.782   4.124   5.259 -0.4264  0.5625 -0.1061
 1875SOL     OW17086   4.073   0.387   8.388  0.1177 -0.8774 -0.4318
 1875SOL    HW117087   4.005   0.365   8.452 -0.9520  0.7923 -1.0035
 1875SOL    HW217088   4.128   0.310   8.370  1.3993 -0.3030  1.0151
 1876SOL     OW17089   1.101   1.046   2.559 -0.4097  0.4636 -0.5997
 1876SOL    HW117090   1.030   1.005   2.510 -1.4027 -1.5748  2.5674
 1876SOL    HW217091   1.050   1.113   2.606  0.7632  1.4480 -0.7245
 1877SOL     OW17092   2.166   3.329   3.747  0.5516  0.4332 -0.2994
 1877SOL    HW117093   2.179   3.302   3.838 -1.0214 -0.1101 -0.2458
 1877SOL    HW217094   2.087   3.383   3.753 -0.1943 -0.6697 -0.2063
 1878SOL     OW17095   0.002   4.494   1.924 -0.8396 -0.3534  0.1885
 1878SOL    HW117096   0.076   4.434   1.911  0.6414  1.4886  0.1339
 1878SOL    HW217097   4.660   4.443   1.972 -1.9235  1.1281  0.2801
 1879SOL     OW17098   3.485   4.132  10.422 -0.0283  0.2301  0.1944
 1879SOL    HW117099   3.493   4.059  10.360  1.3003 -0.3551  1.0528
 1879SOL    HW217100   3.495   4.208  10.364 -0.3523 -0.3224 -0.5898
 1880SOL     OW17101   0.930   0.912   2.129  0.2397 -0.2687  1.0057
 1880SOL    HW117102   0.969   0.906   2.042 -2.7975 -1.6913 -0.2453
 1880SOL    HW217103   0.924   0.821   2.160 -0.3058 -1.0079 -1.2949
 1881SOL     OW17104   1.421   4.025   7.552  0.1256 -0.6135  0.3949
 1881SOL    HW117105   1.405   3.964   7.480  0.4730  1.0283 -1.0375
 1881SOL    HW217106   1.499   3.975   7.580  1.7741  1.6604 -0.1477
 1882SOL     OW17107   0.302   0.833  14.643  0.3853  0.8364  0.0363
 1882SOL    HW117108   0.209   0.828  14.667  0.7223  2.8517  1.7689
 1882SOL    HW217109   0.298   0.852  14.550 -2.7020 -0.8225 -0.1933
 1883SOL     OW17110   4.248   3.706   5.014  0.4252  0.0867 -0.7002
 1883SOL    HW117111   4.228   3.652   4.938  2.0286 -1.2009 -0.1947
 1883SOL    HW217112   4.277   3.783   4.965 -0.6083 -0.1152 -1.6518
 1884SOL     OW17113   0.942   1.685   4.271  0.4501 -0.3546 -0.4066
 1884SOL    HW117114   0.991   1.665   4.191 -2.8634  2.0899 -3.0515
 1884SOL    HW217115   0.861   1.635   4.259 -1.2396  1.8808  1.7254
 1885SOL     OW17116   3.613   2.389   0.449  0.0819  0.1089  0.1000
 1885SOL    HW117117   3.583   2.321   0.389  0.3366 -0.1300  0.2455
 1885SOL    HW217118   3.707   2.372   0.437  0.1080  2.0512 -2.5907
 1886SOL     OW17119   0.231   1.360   9.447  0.0292  0.4649  0.6937
 1886SOL    HW117120   0.256   1.276   9.408 -0.9980  0.6495 -0.3638
 1886SOL    HW217121   0.313   1.408   9.456  1.8748 -1.8718 -3.9542
 1887SOL     OW17122   2.176   3.960   5.130  0.9552 -0.2938 -0.7200
 1887SOL    HW117123   2.093   3.961   5.177  0.0027 -1.4019 -2.3613
 1887SOL    HW217124   2.224   4.040   5.154 -1.1466 -0.1882  3.1339
 1888SOL     OW17125   4.311   2.928   9.009  0.7070 -0.4756 -0.7823
 1888SOL    HW117126   4.283   2.837   9.021 -0.6134 -0.1846 -1.5887
 1888SOL    HW217127   4.330   2.958   9.098  0.9536  0.7312 -1.2329
 1889SOL     OW17128   0.096   4.055   1.043  0.5507 -0.0830  0.3573
 1889SOL    HW117129   0.007   4.071   1.074  0.0447 -1.4787 -0.3688
 1889SOL    HW217130   0.140   4.139   1.058  1.2024 -0.5235  0.9244
 1890SOL     OW17131   1.206   3.016   4.026 -0.1312  0.0208 -0.1278
 1890SOL    HW117132   1.161   2.942   4.067 -0.3836 -0.0836 -0.5995
 1890SOL    HW217133   1.148   3.088   4.049  0.3263 -0.6696  3.1424
 1891SOL     OW17134   3.439   3.590   5.470 -0.1011  0.2770  0.0703
 1891SOL    HW117135   3.441   3.672   5.422 -2.7206  0.0128 -0.4876
 1891SOL    HW217136   3.528   3.560   5.453  0.1827  1.2608 -0.1777
 1892SOL     OW17137   1.759   1.951   8.527  0.1809  0.0956  0.6254
 1892SOL    HW117138   1.828   1.969   8.463 -1.9841  1.8708 -1.1912
 1892SOL    HW217139   1.822   1.941   8.599 -0.7264  1.6755  1.6281
 1893SOL     OW17140   2.026   2.572  15.843 -0.0595 -0.2089  0.4112
 1893SOL    HW117141   2.030   2.662  15.876  0.2119 -0.7457  1.8639
 1893SOL    HW217142   2.087   2.532  15.905  1.3963 -1.0875 -1.5824
 1894SOL     OW17143   3.782   1.514   5.574  0.1331 -0.1440  0.6772
 1894SOL    HW117144   3.715   1.579   5.593 -0.9249 -1.4893  1.5381
 1894SOL    HW217145   3.851   1.558   5.622  2.2102 -1.5804 -0.9804
 1895SOL     OW17146   4.277   3.534   5.947  0.3585 -0.3042  0.2429
 1895SOL    HW117147   4.310   3.446   5.962  1.7307  0.1284 -0.2849
 1895SOL    HW217148   4.324   3.597   6.001  1.3200  0.1959 -1.1824
 1896SOL     OW17149   2.090   0.322   6.190  0.0763  0.2912 -0.2818
 1896SOL    HW117150   2.059   0.327   6.280 -0.3725  3.2865 -0.6027
 1896SOL    HW217151   2.141   0.403   6.190  2.1161 -0.9997  0.0393
 1897SOL     OW17152   1.864   1.515   1.298  0.7651 -0.2112 -0.8109
 1897SOL    HW117153   1.821   1.461   1.365  1.0155 -0.0382 -0.5122
 1897SOL    HW217154   1.878   1.452   1.228 -1.6829 -2.4948  0.7178
 1898SOL     OW17155   2.407   0.379   2.350  0.0955  0.0034  0.2807
 1898SOL    HW117156   2.363   0.294   2.356 -0.2950  0.3227  1.8262
 1898SOL    HW217157   2.471   0.356   2.283  1.0923  0.2702  1.1420
 1899SOL     OW17158   1.815   4.197   2.371  0.0421  0.2511 -0.0795
 1899SOL    HW117159   1.746   4.146   2.330  0.2969  0.2686 -0.5224
 1899SOL    HW217160   1.788   4.205   2.463  0.5685  0.8336  0.0267
 1900SOL     OW17161   3.834   0.071  17.453  0.0386  0.0466  0.0996
 1900SOL    HW117162   3.914   0.094  17.407  0.9212 -0.3049  1.4547
 1900SOL    HW217163   3.785   0.153  17.448 -0.6281 -0.4104 -1.0787
 1901SOL     OW17164   0.965   3.101   1.221  0.7315 -0.1755 -0.2927
 1901SOL    HW117165   1.045   3.133   1.180  1.1365  0.3678  0.9018
 1901SOL    HW217166   0.983   3.136   1.309  0.4600 -0.3232 -0.1793
 1902SOL     OW17167   0.422   1.778   3.490 -0.5673  0.2145 -0.3213
 1902SOL    HW117168   0.420   1.786   3.395  0.2117  0.7396 -0.2984
 1902SOL    HW217169   0.495   1.716   3.488  1.2730  2.3334  0.8364
 1903SOL     OW17170   0.711   2.503   4.066  0.3796  0.2046  0.3860
 1903SOL    HW117171   0.705   2.576   4.128 -2.8227  0.1318  0.1891
 1903SOL    HW217172   0.624   2.506   4.026 -0.1931 -2.2601  1.4085
 1904SOL     OW17173   1.585   0.972   0.028 -0.2956  0.3879 -0.1383
 1904SOL    HW117174   1.526   0.910  17.679 -1.4641  2.1264 -1.0076
 1904SOL    HW217175   1.568   0.967   0.122  0.2671  0.0604 -0.0527
 1905SOL     OW17176   2.954   4.092   8.144  0.5536  0.4563  0.7803
 1905SOL    HW117177   2.898   4.015   8.154  0.5357  0.4609  0.7145
 1905SOL    HW217178   2.917   4.138   8.068 -1.3282 -2.0300  0.1922
 1906SOL     OW17179   2.390   0.675  15.113 -0.3104  0.7713 -0.2676
 1906SOL    HW117180   2.386   0.587  15.077 -0.8688  0.2775  1.0047
 1906SOL    HW217181   2.478   0.704  15.090 -0.0776 -0.0943 -0.4319
 1907SOL     OW17182   0.205   4.553  12.329  0.6661 -0.0462 -0.8067
 1907SOL    HW117183   0.153   4.477  12.356 -0.2805 -0.0310 -2.5450
 1907SOL    HW217184   0.194   4.544  12.234  2.3845 -0.6603 -0.9483
 1908SOL     OW17185   3.742   4.275   4.199  0.3744  0.2193 -0.1951
 1908SOL    HW117186   3.828   4.256   4.236 -0.9335 -3.0551  1.2510
 1908SOL    HW217187   3.713   4.357   4.239  1.1316  0.3820  0.0165
 1909SOL     OW17188   1.715   3.019  16.957 -0.2591 -0.1148  0.0289
 1909SOL    HW117189   1.632   3.058  16.985  1.0467  0.5827  2.9591
 1909SOL    HW217190   1.779   3.090  16.962 -2.0526  1.5721 -1.0160
 1910SOL     OW17191   0.050   3.435   5.673 -0.1041  0.1960  0.4145
 1910SOL    HW117192   0.032   3.406   5.763 -0.5766  2.6844  1.1109
 1910SOL    HW217193   4.686   3.469   5.653 -1.1635 -3.4610 -1.3203
 1911SOL     OW17194   0.676   4.017   6.231 -0.3924 -0.8173 -0.2689
 1911SOL    HW117195   0.725   4.059   6.161 -0.4441 -0.3458 -0.0234
 1911SOL    HW217196   0.750   3.965   6.261  2.4665  3.5886  0.3528
 1912SOL     OW17197   1.282   2.446   3.672  0.0224 -0.6037 -0.3989
 1912SOL    HW117198   1.205   2.472   3.723  0.5056  2.0121 -1.0382
 1912SOL    HW217199   1.254   2.360   3.640  0.6206 -0.5762 -0.9917
 1913SOL     OW17200   3.423   0.197   6.826  0.0412 -0.1850 -0.5447
 1913SOL    HW117201   3.355   0.172   6.763  0.5845 -1.1026 -0.7642
 1913SOL    HW217202   3.463   0.273   6.785  0.1857  0.5782  0.9983
 1914SOL     OW17203   2.385   3.094   2.961  0.1841 -0.1279  0.4318
 1914SOL    HW117204   2.355   3.060   3.046 -2.6167 -0.2808 -0.6337
 1914SOL    HW217205   2.381   3.014   2.909  1.0170  0.5708 -0.6964
 1915SOL     OW17206   1.828   0.400   2.615 -0.5227  0.4523  0.0357
 1915SOL    HW117207   1.810   0.402   2.521  1.6907  3.5524 -0.3175
 1915SOL    HW217208   1.822   0.495   2.622  0.4604  0.4100  1.3078
 1916SOL     OW17209   0.163   2.112   9.453  0.1609 -0.4985 -0.5711
 1916SOL    HW117210   0.161   2.131   9.547  0.4137 -1.1063 -0.4440
 1916SOL    HW217211   0.190   2.020   9.451 -0.6809 -0.7497 -0.5338
 1917SOL     OW17212   2.040   2.880   8.779 -0.0055  0.0841  0.3313
 1917SOL    HW117213   1.966   2.860   8.835  0.5249 -0.4844  0.8231
 1917SOL    HW217214   2.034   2.798   8.730 -0.2229  1.6790 -2.3147
 1918SOL     OW17215   2.659   3.974   8.067  0.2315 -0.1647  0.9013
 1918SOL    HW117216   2.631   3.986   8.157 -3.5689  1.2385 -0.4691
 1918SOL    HW217217   2.590   3.915   8.035 -0.4926  1.5330 -0.6760
 1919SOL     OW17218   3.613   0.971   8.098 -0.3561 -0.2734 -0.3416
 1919SOL    HW117219   3.536   1.027   8.087  0.0428  0.4559  0.5886
 1919SOL    HW217220   3.611   0.965   8.193 -0.5579 -1.5021 -0.4251
 1920SOL     OW17221   0.658   1.489   7.564  0.6058  0.5429  0.3748
 1920SOL    HW117222   0.729   1.515   7.505 -0.3873  1.5595 -0.3596
 1920SOL    HW217223   0.653   1.398   7.536 -0.1936  0.3808  1.0338
 1921SOL     OW17224   3.002   3.172   5.719  0.5043  0.5131  0.4313
 1921SOL    HW117225   2.934   3.198   5.782  1.2055  1.6433  0.7221
 1921SOL    HW217226   3.021   3.254   5.675  1.8756 -1.1835 -2.1736
 1922SOL     OW17227   1.749   1.722   3.566 -0.0731  0.3326 -0.1293
 1922SOL    HW117228   1.798   1.804   3.571 -1.8814  1.3193  1.7377
 1922SOL    HW217229   1.664   1.761   3.543  0.8586  1.9908 -0.8070
 1923SOL     OW17230   0.311   0.875   4.187 -0.3681 -0.1762  0.2946
 1923SOL    HW117231   0.334   0.968   4.186 -2.1114  0.2601  0.7167
 1923SOL    HW217232   0.230   0.867   4.137 -0.5904 -0.0425  0.6316
 1924SOL     OW17233   4.583   1.131   7.532  0.0987  0.2886  0.6656
 1924SOL    HW117234   4.521   1.082   7.479  1.6029 -1.0154  0.1279
 1924SOL    HW217235   4.657   1.131   7.472 -0.4530 -1.4328 -0.0156
 1925SOL     OW17236   0.485   0.154   3.862  0.8170  0.1000 -0.0807
 1925SOL    HW117237   0.463   0.076   3.811 -0.4509  0.6031 -0.2983
 1925SOL    HW217238   0.581   0.158   3.855  1.0169 -1.5134  2.0223
 1926SOL     OW17239   0.881   1.486   6.875  0.5719 -0.1986  0.5334
 1926SOL    HW117240   0.807   1.465   6.818  1.7717 -0.0586 -1.0839
 1926SOL    HW217241   0.955   1.444   6.831 -0.7536 -2.4720  0.4421
 1927SOL     OW17242   1.843   4.690   7.183  0.4939 -0.0959 -0.3862
 1927SOL    HW117243   1.817   0.053   7.148  0.4283  0.7979  1.8536
 1927SOL    HW217244   1.939   4.691   7.178  0.5762 -1.4073  0.9580
 1928SOL     OW17245   1.767   4.490   8.815  0.1298 -0.3326  0.1435
 1928SOL    HW117246   1.804   4.565   8.770 -0.5556  0.0927  0.2870
 1928SOL    HW217247   1.841   4.453   8.862  1.2445 -0.2427 -1.5428
 1929SOL     OW17248   3.933   4.362  12.081  0.0061 -0.0860 -0.0423
 1929SOL    HW117249   3.864   4.407  12.032  0.5043  0.5933 -0.1194
 1929SOL    HW217250   3.881   4.315  12.146 -2.2453  2.9713  0.3775
 1930SOL     OW17251   3.266   0.204   6.293  0.0463 -0.1043  0.7186
 1930SOL    HW117252   3.356   0.182   6.270  0.9311  3.4954  0.6428
 1930SOL    HW217253   3.220   0.122   6.278  0.6000 -0.3213  0.2073
 1931SOL     OW17254   2.907   4.466   7.964  0.1605  0.6556 -0.4903
 1931SOL    HW117255   2.957   4.385   7.950  0.3564  0.6883  0.0339
 1931SOL    HW217256   2.825   4.417   7.962  1.4940 -1.5546 -1.2457
 1932SOL     OW17257   4.065   3.152   2.580  0.4662  0.4839 -0.1163
 1932SOL    HW117258   4.043   3.130   2.671 -0.7465  2.0011 -0.0247
 1932SOL    HW217259   4.096   3.072   2.538  0.4411 -0.0536  0.9020
 1933SOL     OW17260   3.871   2.535   1.633  0.6948  0.0557  0.4131
 1933SOL    HW117261   3.869   2.514   1.539  1.8765  0.1998  0.3551
 1933SOL    HW217262   3.812   2.609   1.626  1.2428  0.4540 -0.0529
 1934SOL     OW17263   1.247   0.615   4.076 -0.1247  0.1290  0.0379
 1934SOL    HW117264   1.241   0.522   4.054  0.0475 -0.2413  1.5616
 1934SOL    HW217265   1.326   0.636   4.027 -0.1470 -0.5732 -0.2851
 1935SOL     OW17266   3.927   0.379  13.561 -0.3632  0.5005 -0.6694
 1935SOL    HW117267   3.985   0.452  13.540  1.3125 -0.5943  0.1119
 1935SOL    HW217268   3.842   0.414  13.534 -0.2060  1.9973  0.8389
 1936SOL     OW17269   4.458   0.044   0.660  0.0560  0.0848 -0.2437
 1936SOL    HW117270   4.498   0.098   0.592  0.7917 -2.1161 -1.5203
 1936SOL    HW217271   4.377   0.094   0.673 -1.4553 -2.1578 -1.1904
 1937SOL     OW17272   1.120   4.244   1.468  0.0368 -0.5232 -0.2000
 1937SOL    HW117273   1.202   4.231   1.420  0.7927  0.6564  0.7652
 1937SOL    HW217274   1.068   4.168   1.441  1.3036 -1.5242  0.1695
 1938SOL     OW17275   3.077   3.018   7.809 -0.4583 -0.5723 -0.2262
 1938SOL    HW117276   3.112   2.941   7.764 -3.1951 -0.7612 -1.9950
 1938SOL    HW217277   3.152   3.048   7.860  0.9067 -2.7383 -0.9380
 1939SOL     OW17278   1.835   2.945   8.136 -0.2256  0.5078  0.2154
 1939SOL    HW117279   1.883   2.920   8.215  0.1557  1.8707  0.4155
 1939SOL    HW217280   1.877   3.025   8.105 -0.0153  0.1510 -0.4328
 1940SOL     OW17281   1.687   3.840   7.578 -0.0562  0.6754  0.1961
 1940SOL    HW117282   1.735   3.904   7.526  1.3096 -0.2302  0.3530
 1940SOL    HW217283   1.711   3.863   7.667 -1.6948 -0.2630  0.8871
 1941SOL     OW17284   3.087   1.507   5.268 -0.1928 -0.0659 -0.0008
 1941SOL    HW117285   3.104   1.601   5.263  0.2722 -0.2898 -2.5823
 1941SOL    HW217286   3.148   1.476   5.202 -0.5979  0.7954 -0.7762
 1942SOL     OW17287   3.612   2.179   9.159  0.1002 -0.1860 -0.5345
 1942SOL    HW117288   3.518   2.193   9.141  0.0957 -2.0175 -1.9262
 1942SOL    HW217289   3.615   2.152   9.250  0.2215 -1.8972 -1.0534
 1943SOL     OW17290   1.778   2.968   9.957 -0.0134 -0.0983  0.3766
 1943SOL    HW117291   1.862   2.979   9.911  1.2176  2.9776  3.3825
 1943SOL    HW217292   1.806   2.943  10.045 -0.4105  0.3187  0.6171
 1944SOL     OW17293   3.607   2.128   9.412 -0.0420  0.2609  0.1254
 1944SOL    HW117294   3.677   2.076   9.452 -0.6659 -1.3440 -0.8954
 1944SOL    HW217295   3.533   2.109   9.469 -0.7366 -1.3667 -1.3257
 1945SOL     OW17296   0.261   0.287   8.133  0.2680  0.1691  0.2956
 1945SOL    HW117297   0.286   0.275   8.225  1.4763  0.0056 -0.0639
 1945SOL    HW217298   0.287   0.379   8.130 -1.0595  0.5317 -0.2238
 1946SOL     OW17299   1.103   0.419  12.997  0.3928 -0.0308  0.2890
 1946SOL    HW117300   1.017   0.378  13.014 -0.0377  0.9343  0.4458
 1946SOL    HW217301   1.117   0.394  12.906  2.5753  1.6542  0.1747
 1947SOL     OW17302   4.331   1.644   2.834 -0.0284  0.0116 -0.0171
 1947SOL    HW117303   4.269   1.658   2.762 -1.2726  0.4270  1.1442
 1947SOL    HW217304   4.389   1.581   2.791 -0.2541 -1.1232  1.3821
 1948SOL     OW17305   3.033   3.857   1.312  0.7811  0.7724  0.9744
 1948SOL    HW117306   2.995   3.893   1.232  0.9590 -0.6876  0.2449
 1948SOL    HW217307   3.091   3.784   1.292  0.4958  0.6474  0.6072
 1949SOL     OW17308   1.353   4.178   0.972 -0.1078  0.5830 -0.5014
 1949SOL    HW117309   1.400   4.102   1.007 -1.2315 -0.0261 -0.3095
 1949SOL    HW217310   1.428   4.237   0.963  1.0384 -0.5571  1.4845
 1950SOL     OW17311   1.899   3.165   4.559  0.0493 -0.3417 -0.0727
 1950SOL    HW117312   1.885   3.257   4.536 -0.5140 -0.7295 -1.2735
 1950SOL    HW217313   1.962   3.139   4.493  0.5409  0.4945  0.0686
 1951SOL     OW17314   4.183   0.854   4.497  0.3778 -0.2107 -0.4991
 1951SOL    HW117315   4.273   0.886   4.499  0.9188 -1.8983  2.3034
 1951SOL    HW217316   4.152   0.895   4.577 -1.7905 -0.5260 -1.1836
 1952SOL     OW17317   0.881   2.910   7.897 -0.4018 -0.1601 -0.4220
 1952SOL    HW117318   0.895   2.824   7.937 -0.4397  1.4795  3.0922
 1952SOL    HW217319   0.833   2.867   7.826 -2.2976  1.2946 -0.0296
 1953SOL     OW17320   2.300   3.692  15.903 -0.0695  0.0279  0.1086
 1953SOL    HW117321   2.301   3.654  15.815  0.6265 -1.0270  0.5651
 1953SOL    HW217322   2.247   3.629  15.952 -1.6781  2.3177  1.2752
 1954SOL     OW17323   2.300   0.360   8.581  0.0576  0.1426  0.3569
 1954SOL    HW117324   2.380   0.388   8.625  0.8477 -0.6092 -0.6036
 1954SOL    HW217325   2.230   0.385   8.641 -1.0460 -0.0749 -0.8313
 1955SOL     OW17326   0.930   2.028   2.909 -0.3843  0.4809  0.1884
 1955SOL    HW117327   0.969   2.100   2.958  1.3295 -2.5277  3.1845
 1955SOL    HW217328   0.897   2.073   2.831  0.1977  3.1228  1.4612
 1956SOL     OW17329   3.121   2.927   2.757  0.3465  0.4092 -0.2158
 1956SOL    HW117330   3.197   2.959   2.807 -0.2655  2.0073 -0.3112
 1956SOL    HW217331   3.153   2.837   2.750  0.9011  0.5871 -0.0051
 1957SOL     OW17332   4.512   2.097   5.865 -0.2999 -0.0972 -0.2196
 1957SOL    HW117333   4.501   2.153   5.942  1.5608 -2.9629  2.0852
 1957SOL    HW217334   4.498   2.160   5.794 -0.1344  0.0123 -0.1545
 1958SOL     OW17335   3.148   1.505   5.827  0.1991 -0.7525 -0.2577
 1958SOL    HW117336   3.091   1.573   5.865  0.0393 -0.1957 -1.4866
 1958SOL    HW217337   3.171   1.534   5.738  0.2187  1.0130  0.3174
 1959SOL     OW17338   2.481   0.495   2.607  0.1076  0.2417 -0.4941
 1959SOL    HW117339   2.429   0.467   2.531 -0.2316  1.5877 -0.7607
 1959SOL    HW217340   2.420   0.478   2.679 -0.4519 -0.9890 -1.2532
 1960SOL     OW17341   2.842   0.827   3.197 -0.3818  0.0274 -0.2779
 1960SOL    HW117342   2.926   0.811   3.241 -0.2972 -0.6094 -0.6727
 1960SOL    HW217343   2.827   0.743   3.153 -0.2218 -0.1443 -0.0093
 1961SOL     OW17344   0.350   1.200  17.166  0.1417 -0.2034  0.6926
 1961SOL    HW117345   0.301   1.166  17.241 -1.6791  0.3770 -0.2354
 1961SOL    HW217346   0.437   1.200  17.206  0.8874  0.7469 -0.9268
 1962SOL     OW17347   4.592   2.174  10.191  0.3197 -0.2916  0.3815
 1962SOL    HW117348   4.640   2.199  10.271  0.1613  1.9374 -0.2041
 1962SOL    HW217349   4.501   2.165  10.217  0.6302 -1.0529  1.2136
 1963SOL     OW17350   1.142   1.622   2.384 -0.0800  0.3868 -0.4452
 1963SOL    HW117351   1.103   1.672   2.455 -1.4498  0.1802 -1.0480
 1963SOL    HW217352   1.172   1.538   2.420  1.4673  0.6860 -1.0154
 1964SOL     OW17353   1.060   0.464   0.250  0.4292 -0.0900 -0.2655
 1964SOL    HW117354   1.141   0.510   0.268 -0.4218 -0.3179  4.1217
 1964SOL    HW217355   1.035   0.443   0.340  0.7210 -1.3511 -0.4742
 1965SOL     OW17356   2.943   3.131  13.880 -0.2131 -0.4948  0.1004
 1965SOL    HW117357   3.008   3.193  13.849 -0.7989  0.9416  1.7812
 1965SOL    HW217358   2.989   3.047  13.878 -1.0880 -1.0631  3.0836
 1966SOL     OW17359   4.198   2.869   3.102 -0.2021  0.0637  0.0823
 1966SOL    HW117360   4.104   2.882   3.102 -0.3480 -0.9670  0.4186
 1966SOL    HW217361   4.217   2.843   3.192  1.0673 -0.7392 -0.4142
 1967SOL     OW17362   4.554   3.733   8.531  0.7234  0.0504 -1.0867
 1967SOL    HW117363   4.593   3.816   8.503  0.8418  0.7870  1.1791
 1967SOL    HW217364   4.611   3.674   8.482  0.9110  1.1052 -2.1349
 1968SOL     OW17365   1.755   0.880   8.054 -0.0249  0.6599 -0.6161
 1968SOL    HW117366   1.714   0.796   8.033 -1.7773  1.5952 -0.9760
 1968SOL    HW217367   1.749   0.921   7.968  0.1834 -1.4216 -1.6346
 1969SOL     OW17368   2.683   1.376   2.697 -0.1211  0.1940  0.1175
 1969SOL    HW117369   2.688   1.459   2.744 -1.9671 -1.2707  2.8662
 1969SOL    HW217370   2.775   1.353   2.684 -0.1275  0.4106 -0.3133
 1970SOL     OW17371   2.522   2.196   0.673  0.2738 -0.3996 -0.8120
 1970SOL    HW117372   2.565   2.184   0.757  0.7212  1.0683 -0.8425
 1970SOL    HW217373   2.493   2.287   0.666 -0.4674 -0.7075 -1.7685
 1971SOL     OW17374   4.031   2.754   1.448  0.6567 -0.2312  0.1995
 1971SOL    HW117375   4.031   2.683   1.383  0.6095  0.3700 -0.4575
 1971SOL    HW217376   4.053   2.705   1.527  0.7281  2.7518  2.0438
 1972SOL     OW17377   3.617   3.999   9.204  0.2493 -0.0971  0.6973
 1972SOL    HW117378   3.683   3.941   9.242  0.2318 -0.4760  0.1511
 1972SOL    HW217379   3.680   4.057   9.162 -0.6965  0.9137  0.6766
 1973SOL     OW17380   2.222   3.505   6.484 -0.0303 -0.4202 -0.5615
 1973SOL    HW117381   2.255   3.590   6.515 -1.6587  0.9033 -2.4474
 1973SOL    HW217382   2.279   3.498   6.407 -0.7165 -2.1051 -0.9095
 1974SOL     OW17383   3.831   4.001   0.770 -0.4212  0.4510 -0.2279
 1974SOL    HW117384   3.902   4.065   0.762  0.5747 -0.7890 -1.1316
 1974SOL    HW217385   3.868   3.940   0.833 -1.2331 -2.1326 -2.2543
 1975SOL     OW17386   2.092   0.542  14.876  0.3747 -0.2583 -0.1317
 1975SOL    HW117387   2.055   0.490  14.805  1.8370  1.6252 -2.2418
 1975SOL    HW217388   2.076   0.633  14.854  1.1703 -0.0330  0.2272
 1976SOL     OW17389   3.544   4.543   8.965  0.0657 -0.5554 -0.1082
 1976SOL    HW117390   3.449   4.534   8.973 -0.2548  1.4947 -1.5839
 1976SOL    HW217391   3.571   4.455   8.940 -3.2448 -0.7880 -2.9459
 1977SOL     OW17392   1.277   1.419  16.060 -0.4795 -0.2709  0.0717
 1977SOL    HW117393   1.247   1.508  16.076 -0.4811  0.0733 -1.8577
 1977SOL    HW217394   1.247   1.422  15.969 -0.1916  0.1891 -0.0062
 1978SOL     OW17395   4.311   0.591   6.020 -0.4322  0.5078 -0.1526
 1978SOL    HW117396   4.377   0.659   6.002  0.4210 -0.5865 -1.1420
 1978SOL    HW217397   4.231   0.643   6.015 -0.6412 -0.0026 -1.8140
 1979SOL     OW17398   1.768   1.379   5.322 -0.2699 -0.6503  0.6421
 1979SOL    HW117399   1.842   1.339   5.276 -0.5640 -0.9787  0.4533
 1979SOL    HW217400   1.712   1.421   5.257  0.0815  0.3460  0.9908
 1980SOL     OW17401   1.301   1.861   4.119 -0.3046  0.0987 -0.2430
 1980SOL    HW117402   1.369   1.923   4.091 -0.4965  0.3306 -0.1904
 1980SOL    HW217403   1.335   1.823   4.200 -0.2648  0.9045  0.1277
 1981SOL     OW17404   0.717   4.660   6.997 -0.4471  0.1582  0.7962
 1981SOL    HW117405   0.630   4.689   7.021 -1.4817 -0.7752 -1.7619
 1981SOL    HW217406   0.760   0.020   6.977  1.0263  0.2265  4.3094
 1982SOL     OW17407   1.420   1.498   2.338  0.0851 -0.0493 -0.1423
 1982SOL    HW117408   1.445   1.448   2.416 -0.6890 -1.6020 -0.8802
 1982SOL    HW217409   1.450   1.441   2.268 -3.5541  0.8318 -2.4166
 1983SOL     OW17410   3.087   3.425  14.029  0.7354  0.3210 -0.6483
 1983SOL    HW117411   3.008   3.371  14.020  0.7632  0.2406 -0.4164
 1983SOL    HW217412   3.061   3.511  13.996  0.5348  0.6906  0.4704
 1984SOL     OW17413   1.804   3.777   4.125  0.0324  0.8900 -0.0170
 1984SOL    HW117414   1.739   3.708   4.114  0.6584  0.1921  0.6182
 1984SOL    HW217415   1.839   3.770   4.036 -0.3528  0.3110 -0.1249
 1985SOL     OW17416   0.019   0.260  13.283  0.4808 -0.3839 -0.6189
 1985SOL    HW117417   0.022   0.317  13.359  1.1563  0.6506 -1.4137
 1985SOL    HW217418   0.090   0.198  13.298  0.1351 -0.3019  1.3333
 1986SOL     OW17419   2.488   0.498  13.015  0.3736 -0.2029  0.3552
 1986SOL    HW117420   2.543   0.420  13.024  1.1960  0.1046 -1.8449
 1986SOL    HW217421   2.421   0.455  12.961 -0.9376 -0.3956  2.1531
 1987SOL     OW17422   3.026   4.426   9.269  0.2528 -0.0101  0.1753
 1987SOL    HW117423   2.946   4.460   9.230  0.1408  1.2431  1.4599
 1987SOL    HW217424   3.010   4.441   9.363 -1.1498 -1.5568  0.1951
 1988SOL     OW17425   3.220   3.765   5.972 -0.1396  0.0461  0.2608
 1988SOL    HW117426   3.217   3.837   6.035 -1.7226 -0.1290  0.3758
 1988SOL    HW217427   3.229   3.807   5.886 -0.9933 -1.3359 -0.5053
 1989SOL     OW17428   0.201   3.565   8.240 -0.6318 -0.7319  0.2515
 1989SOL    HW117429   0.211   3.598   8.329 -0.7259  4.1161 -1.5170
 1989SOL    HW217430   0.211   3.472   8.258 -0.5482 -0.6602  0.5850
 1990SOL     OW17431   0.097   0.859  17.073 -0.2733 -0.3081 -0.1680
 1990SOL    HW117432   0.074   0.947  17.040  0.6680 -0.4447 -1.1934
 1990SOL    HW217433   0.121   0.817  16.990  1.4990 -1.8753  1.1592
 1991SOL     OW17434   0.164   1.458   4.026 -0.5980  0.0820  0.1397
 1991SOL    HW117435   0.247   1.487   4.064 -0.3678 -0.2940 -0.0707
 1991SOL    HW217436   0.185   1.371   3.990  1.0559 -0.1595  1.6628
 1992SOL     OW17437   1.999   2.517  14.468 -0.2351  0.6829 -0.0804
 1992SOL    HW117438   2.046   2.577  14.526  0.2821 -0.7512  0.9921
 1992SOL    HW217439   1.963   2.573  14.400 -0.0386  1.3091  0.3269
 1993SOL     OW17440   1.430   4.573   6.751 -0.2966  0.1143 -0.7557
 1993SOL    HW117441   1.381   4.565   6.833 -0.7348  1.7996 -0.8408
 1993SOL    HW217442   1.495   4.643   6.762  0.9996 -0.8145 -2.6298
 1994SOL     OW17443   2.173   4.168   1.209  0.2850 -0.1945  0.4086
 1994SOL    HW117444   2.140   4.189   1.122 -0.1865  1.5711  1.0090
 1994SOL    HW217445   2.265   4.162   1.184  0.1617  1.9155 -0.5417
 1995SOL     OW17446   3.375   2.019   1.989 -0.1798 -0.0107  0.8241
 1995SOL    HW117447   3.325   1.938   1.991 -0.0713 -0.1867 -3.8174
 1995SOL    HW217448   3.307   2.077   1.954  0.4547 -1.5134 -2.9209
 1996SOL     OW17449   0.505   0.181  11.539  0.4722  0.2792  0.0715
 1996SOL    HW117450   0.538   0.251  11.482 -1.0516  0.4734 -0.5699
 1996SOL    HW217451   0.580   0.166  11.596  0.5195  1.0045  0.1985
 1997SOL     OW17452   0.404   2.680  10.622  0.0209  0.0973 -0.2727
 1997SOL    HW117453   0.438   2.767  10.645 -0.1825  0.0189  0.3063
 1997SOL    HW217454   0.352   2.658  10.698  0.6651 -1.6661 -0.3411
 1998SOL     OW17455   2.125   3.172   4.383 -0.1982 -0.3017  0.1583
 1998SOL    HW117456   2.080   3.215   4.310  1.1004  1.7894  0.5862
 1998SOL    HW217457   2.136   3.238   4.451 -0.8332 -0.1410  0.1043
 1999SOL     OW17458   3.799   4.204   2.787  0.4321  0.1974  0.2111
 1999SOL    HW117459   3.839   4.119   2.805 -0.0970 -0.4346 -1.5625
 1999SOL    HW217460   3.785   4.203   2.692 -2.4400 -0.3408  0.6179
 2000SOL     OW17461   3.363   3.633  13.509  0.2069 -0.2414  0.1152
 2000SOL    HW117462   3.309   3.703  13.545  2.0187  2.1358 -1.8428
 2000SOL    HW217463   3.421   3.624  13.585 -1.1989  0.3989  1.2658
 2001SOL     OW17464   3.606   3.643   4.381  0.0854 -0.5417 -0.3663
 2001SOL    HW117465   3.676   3.581   4.357 -0.8274 -1.2565 -1.1790
 2001SOL    HW217466   3.528   3.593   4.358  1.0501 -3.1085  1.9044
 2002SOL     OW17467   2.642   4.402  16.327 -0.2879 -0.0552  0.1659
 2002SOL    HW117468   2.639   4.324  16.382  1.8875 -0.5579 -0.4236
 2002SOL    HW217469   2.599   4.461  16.389  0.4476  0.9223 -0.2455
 2003SOL     OW17470   3.449   4.575  16.412 -0.3617  0.9429 -0.4671
 2003SOL    HW117471   3.396   4.567  16.332 -0.2279 -1.9754 -0.2682
 2003SOL    HW217472   3.484   4.664  16.411 -2.7908  1.9023 -1.0218
 2004SOL     OW17473   2.725   0.240  10.528 -0.7887  0.2878 -0.4616
 2004SOL    HW117474   2.697   0.329  10.547 -1.3753  0.3111 -1.4102
 2004SOL    HW217475   2.641   0.195  10.539 -0.7895  0.3388 -0.2598
 2005SOL     OW17476   0.249   3.026   9.354  0.5483 -0.6583 -0.3350
 2005SOL    HW117477   0.269   3.107   9.306 -0.5335  1.8637  3.4932
 2005SOL    HW217478   0.340   2.995   9.355  1.1126  0.9463 -0.3275
 2006SOL     OW17479   2.213   2.552   1.698 -0.2219 -0.0068 -0.2969
 2006SOL    HW117480   2.119   2.570   1.693 -0.0898  0.1983 -2.1767
 2006SOL    HW217481   2.211   2.457   1.685  1.2433 -0.2847  1.6219
 2007SOL     OW17482   2.363   4.262   3.415  0.3862 -0.0614 -0.0239
 2007SOL    HW117483   2.333   4.198   3.351 -0.1707  0.9203 -0.7478
 2007SOL    HW217484   2.425   4.319   3.369  3.2583 -3.0447  0.1585
 2008SOL     OW17485   0.373   0.962   1.379 -0.0190  0.0922 -0.0177
 2008SOL    HW117486   0.427   0.895   1.422 -1.6928 -2.6497 -2.2017
 2008SOL    HW217487   0.438   1.031   1.367 -0.5560  0.5121 -0.5144
 2009SOL     OW17488   3.356   2.147  11.334 -0.4563  0.0693 -0.0083
 2009SOL    HW117489   3.266   2.143  11.367 -0.4037 -0.3408  0.0772
 2009SOL    HW217490   3.342   2.147  11.240 -1.8634  1.3359  0.1856
 2010SOL     OW17491   0.285   1.625   6.899 -0.2291 -0.1973  0.2095
 2010SOL    HW117492   0.351   1.635   6.967 -0.2343  0.3623  0.1398
 2010SOL    HW217493   0.341   1.611   6.822 -0.4981  0.4667 -0.1095
 2011SOL     OW17494   1.084   0.861  14.131  0.7803  0.5341  0.2945
 2011SOL    HW117495   1.029   0.878  14.208  0.4943  0.4494  0.1091
 2011SOL    HW217496   1.171   0.833  14.158  0.5036 -0.4191  0.1983
 2012SOL     OW17497   0.887   4.374   2.093 -0.3819 -0.4964  0.1024
 2012SOL    HW117498   0.817   4.328   2.138  1.2152 -0.6174  2.4908
 2012SOL    HW217499   0.833   4.440   2.048 -1.1128 -1.3044 -0.2029
 2013SOL     OW17500   4.377   0.302   3.612  0.3169  0.5780 -0.0061
 2013SOL    HW117501   4.457   0.329   3.656  0.2136  1.1000 -0.1442
 2013SOL    HW217502   4.379   0.376   3.552  0.5763  0.1922 -0.4809
 2014SOL     OW17503   2.260   3.263   4.024 -0.2175 -0.4582  0.1434
 2014SOL    HW117504   2.317   3.340   4.030 -0.4148 -0.1768 -1.6332
 2014SOL    HW217505   2.296   3.195   4.081  1.3740  1.9219  1.9872
 2015SOL     OW17506   1.850   2.291   7.770  0.3930 -0.0286  0.2592
 2015SOL    HW117507   1.867   2.334   7.854  0.1702 -1.8378  1.2501
 2015SOL    HW217508   1.923   2.298   7.708  0.6200  0.9979  0.6385
 2016SOL     OW17509   1.865   1.369   2.330 -0.0906 -0.1981 -0.4546
 2016SOL    HW117510   1.895   1.389   2.418 -0.1912 -2.1243  0.0247
 2016SOL    HW217511   1.933   1.410   2.276 -1.1965  0.2363 -1.5144
 2017SOL     OW17512   1.353   0.296   3.373  0.3722  0.0152 -0.1226
 2017SOL    HW117513   1.284   0.316   3.310  1.3176  0.6931 -0.9229
 2017SOL    HW217514   1.434   0.283   3.324  1.5503  2.6735  1.1399
 2018SOL     OW17515   2.588   3.128   5.743  0.3224  0.3356 -0.4142
 2018SOL    HW117516   2.631   3.093   5.821  0.3760 -0.2606 -0.7104
 2018SOL    HW217517   2.561   3.216   5.769  3.1321  0.8810  0.7359
 2019SOL     OW17518   0.910   0.871  10.179 -0.1455 -0.2976 -0.0674
 2019SOL    HW117519   0.864   0.916  10.109 -0.4535  0.1953  0.4626
 2019SOL    HW217520   0.839   0.815  10.212  0.9938 -0.2764  2.4578
 2020SOL     OW17521   0.964   3.314   3.215 -0.8760 -0.2790  0.2993
 2020SOL    HW117522   0.924   3.319   3.129  0.9925  0.7312 -0.5186
 2020SOL    HW217523   0.966   3.409   3.231 -1.3253 -0.0758 -0.9140
 2021SOL     OW17524   1.050   3.940  14.113  0.1638 -0.2599  0.4241
 2021SOL    HW117525   1.038   3.867  14.174  0.5153  1.1274  2.1381
 2021SOL    HW217526   1.135   3.905  14.087  0.4693  0.7857  0.0357
 2022SOL     OW17527   0.259   1.874   8.540 -0.1266  0.0408  0.7584
 2022SOL    HW117528   0.334   1.928   8.514 -1.9608  2.3582  0.2778
 2022SOL    HW217529   0.252   1.893   8.634  2.5292  0.1813  0.9202
 2023SOL     OW17530   0.419   2.778   1.987  0.3080  0.5713 -0.0555
 2023SOL    HW117531   0.423   2.737   1.901 -1.3238  1.1769 -0.4237
 2023SOL    HW217532   0.511   2.783   2.013  1.0145 -1.3016 -2.1869
 2024SOL     OW17533   0.370   3.099   2.252 -0.1778  0.0842 -0.1996
 2024SOL    HW117534   0.278   3.096   2.226 -0.3547  0.5330  0.3644
 2024SOL    HW217535   0.408   3.088   2.165 -0.4578  0.0173 -0.3117
 2025SOL     OW17536   2.875   3.828   0.686  0.2534 -0.1626  0.3575
 2025SOL    HW117537   2.850   3.914   0.719 -1.8193 -0.4496 -0.4253
 2025SOL    HW217538   2.814   3.814   0.613  0.6519 -2.0552  0.3939
 2026SOL     OW17539   2.064   1.114  13.423  0.4560 -0.1120 -0.0828
 2026SOL    HW117540   2.108   1.049  13.368 -1.0683 -2.0898  1.0632
 2026SOL    HW217541   2.128   1.185  13.417 -1.9937  2.1308  0.4791
 2027SOL     OW17542   0.351   3.397   3.837  0.1958  0.5867 -0.1929
 2027SOL    HW117543   0.323   3.408   3.747  0.8726 -2.4779 -0.7540
 2027SOL    HW217544   0.288   3.328   3.858 -0.8250  2.3125  2.4664
 2028SOL     OW17545   2.386   0.122   3.166 -0.2079  0.1243  0.6158
 2028SOL    HW117546   2.465   0.108   3.217  0.2883  0.9485  0.0728
 2028SOL    HW217547   2.386   0.217   3.155 -2.6829 -0.1587 -1.7602
 2029SOL     OW17548   3.453   0.079   1.103 -0.1338 -0.3419  0.2782
 2029SOL    HW117549   3.503   0.155   1.132  0.6090 -1.3116  1.5410
 2029SOL    HW217550   3.438   0.104   1.012  1.2890 -2.0929 -0.4407
 2030SOL     OW17551   0.142   4.088  14.178 -0.0885  0.5090  0.0389
 2030SOL    HW117552   0.165   3.995  14.175 -1.8562  0.0786 -0.0740
 2030SOL    HW217553   0.089   4.087  14.257  0.8968  0.6787  0.7058
 2031SOL     OW17554   3.648   3.844  11.137  0.0698  0.4936 -0.1882
 2031SOL    HW117555   3.727   3.897  11.137 -0.2994  1.0249 -1.3066
 2031SOL    HW217556   3.607   3.886  11.213 -0.7414  1.9317 -1.4400
 2032SOL     OW17557   1.229   4.090   2.232  0.3447 -0.0233 -0.1350
 2032SOL    HW117558   1.269   4.176   2.238  0.0294  0.0782  0.4529
 2032SOL    HW217559   1.298   4.037   2.191  0.7151  1.2251 -1.1202
 2033SOL     OW17560   0.429   0.999  11.100 -0.0513 -0.6387  0.0358
 2033SOL    HW117561   0.454   0.933  11.034 -0.7744 -0.4383 -0.4417
 2033SOL    HW217562   0.406   1.068  11.038  0.8917 -1.2281 -0.9779
 2034SOL     OW17563   0.319   2.880   8.016 -0.0272 -0.1231 -0.0218
 2034SOL    HW117564   0.249   2.848   7.960 -0.5312  2.1181 -0.6638
 2034SOL    HW217565   0.396   2.891   7.960 -1.1918 -1.2005 -1.7992
 2035SOL     OW17566   0.879   3.117  11.638  0.3119 -0.4690  0.3239
 2035SOL    HW117567   0.790   3.148  11.657  1.1229  2.2916 -0.4261
 2035SOL    HW217568   0.889   3.151  11.549 -1.3869 -1.4615 -0.2665
 2036SOL     OW17569   2.455   0.037  12.169  0.3415  0.5726  0.1672
 2036SOL    HW117570   2.530   0.041  12.228  0.4229 -2.5770  0.2899
 2036SOL    HW217571   2.495   0.061  12.086  0.9308  0.2498  0.3520
 2037SOL     OW17572   2.207   2.820   7.168  0.1446  0.9928 -0.7639
 2037SOL    HW117573   2.177   2.864   7.088 -1.9694  1.7681  0.4734
 2037SOL    HW217574   2.246   2.900   7.201  2.8146 -1.8036  2.8793
 2038SOL     OW17575   2.868   2.446   6.660 -0.5158  0.0839 -0.1560
 2038SOL    HW117576   2.864   2.353   6.683  0.2616 -0.6959 -3.1185
 2038SOL    HW217577   2.936   2.438   6.593  0.6639 -0.4785  1.1137
 2039SOL     OW17578   0.486   4.673   0.862  0.1299 -0.0895 -0.2893
 2039SOL    HW117579   0.468   4.708   0.775 -0.8701 -0.3125 -0.1696
 2039SOL    HW217580   0.537   4.601   0.826  0.5297  0.9168 -1.7593
 2040SOL     OW17581   4.132   4.120   2.894 -0.3225  1.2785 -0.1329
 2040SOL    HW117582   4.141   4.131   2.799  1.8201 -1.6560 -0.2900
 2040SOL    HW217583   4.052   4.067   2.897  1.1002 -0.8747  0.3014
 2041SOL     OW17584   4.575   0.355   4.794  0.0748 -0.8818 -0.8990
 2041SOL    HW117585   4.532   0.280   4.835  2.7044 -0.9994  1.6039
 2041SOL    HW217586   4.506   0.379   4.732 -0.6903 -0.9457 -0.0860
 2042SOL     OW17587   4.058   0.916   7.365  0.3976 -0.4445  0.1756
 2042SOL    HW117588   4.028   0.896   7.276 -1.0535 -1.3924  0.8784
 2042SOL    HW217589   4.019   1.002   7.381  1.0413 -0.3419  1.1962
 2043SOL     OW17590   0.252   4.052   5.242 -0.2632 -0.3072 -0.7353
 2043SOL    HW117591   0.213   3.968   5.220 -0.3606 -0.9075  1.7063
 2043SOL    HW217592   0.201   4.103   5.180  0.3936  0.1855 -0.8679
 2044SOL     OW17593   2.463   1.381   4.150  0.0728  0.1328 -0.2956
 2044SOL    HW117594   2.412   1.452   4.189  0.2777 -0.5757  1.2536
 2044SOL    HW217595   2.472   1.414   4.061  0.3365  1.4679  0.2310
 2045SOL     OW17596   4.443   1.224   8.297  0.3381  0.2940 -0.2195
 2045SOL    HW117597   4.474   1.309   8.328 -2.5883  1.7298 -1.2354
 2045SOL    HW217598   4.366   1.216   8.354  0.7500 -3.2439 -0.1505
 2046SOL     OW17599   0.199   1.111   5.261 -0.4046 -0.5150  0.1324
 2046SOL    HW117600   0.131   1.087   5.324 -0.9455  1.5304  0.3254
 2046SOL    HW217601   0.276   1.108   5.319  0.6429 -0.2877 -1.2506
 2047SOL     OW17602   2.827   2.018   7.447 -0.4529 -0.3880 -0.5961
 2047SOL    HW117603   2.819   2.026   7.542 -0.4856 -0.8679 -0.5575
 2047SOL    HW217604   2.751   1.965   7.423 -1.2696 -0.4718  2.1488
 2048SOL     OW17605   4.214   2.749   3.354 -0.2053 -0.1299  0.0343
 2048SOL    HW117606   4.194   2.666   3.311  0.1997 -0.5185  0.6088
 2048SOL    HW217607   4.290   2.710   3.396  0.6806 -0.1092 -1.5494
 2049SOL     OW17608   2.406   1.953   3.380  0.1215  0.2903  0.7200
 2049SOL    HW117609   2.378   1.884   3.319  3.4174 -0.0455 -0.4034
 2049SOL    HW217610   2.401   2.030   3.324 -1.3987  0.0472  0.5250
 2050SOL     OW17611   0.854   1.761   6.974 -0.1969 -0.2663 -0.2898
 2050SOL    HW117612   0.932   1.720   7.011 -0.6676 -0.4822  0.4574
 2050SOL    HW217613   0.817   1.692   6.919  0.1929 -0.6380 -0.0834
 2051SOL     OW17614   3.773   1.447   7.090 -0.2155 -0.1477 -0.4059
 2051SOL    HW117615   3.771   1.451   7.185  1.5352  0.9974 -0.4120
 2051SOL    HW217616   3.848   1.388   7.077  0.4154  0.7042 -0.6513
 2052SOL     OW17617   4.177   2.009   3.844 -0.1503  0.6347 -0.2838
 2052SOL    HW117618   4.223   1.929   3.818 -0.4094  0.3752  0.0500
 2052SOL    HW217619   4.256   2.062   3.830 -0.9114  1.7612 -0.2860
 2053SOL     OW17620   2.360   4.383   9.140 -0.0897 -0.0549 -0.3793
 2053SOL    HW117621   2.347   4.430   9.222 -0.1221 -0.1980 -0.3017
 2053SOL    HW217622   2.416   4.451   9.103 -1.0272  0.8611 -0.1180
 2054SOL     OW17623   0.085   2.307   8.860 -0.3620  0.1416  0.1437
 2054SOL    HW117624   0.044   2.287   8.944 -1.6090 -3.4428 -1.3052
 2054SOL    HW217625   0.025   2.374   8.828 -0.8960 -1.0370 -1.3318
 2055SOL     OW17626   1.929   3.770  10.335 -0.7661  0.0685  0.3438
 2055SOL    HW117627   1.876   3.731  10.405  0.8152 -0.6334  1.1382
 2055SOL    HW217628   2.007   3.804  10.378 -0.2860 -1.2842  0.5197
 2056SOL     OW17629   3.822   2.771   6.780 -0.0931 -0.2159 -0.0024
 2056SOL    HW117630   3.903   2.723   6.763  0.4003  0.4330  0.5237
 2056SOL    HW217631   3.754   2.705   6.793  0.0293  0.6142  4.8193
 2057SOL     OW17632   1.897   3.576   7.563 -1.0259  0.0866  0.2950
 2057SOL    HW117633   1.962   3.520   7.519  0.1067  0.8020  1.0527
 2057SOL    HW217634   1.841   3.595   7.488 -0.5901 -2.3075 -0.6369
 2058SOL     OW17635   4.084   0.370  16.607  0.2244  0.2154 -0.2833
 2058SOL    HW117636   4.068   0.286  16.650  1.1684  0.8418  1.2580
 2058SOL    HW217637   4.002   0.380  16.558  0.3328 -0.9853 -0.7118
 2059SOL     OW17638   2.980   2.484   1.867  0.0150 -0.2123 -0.2887
 2059SOL    HW117639   2.886   2.468   1.867 -0.1685  0.8581  1.3252
 2059SOL    HW217640   3.010   2.394   1.851 -0.2427 -0.3153 -0.1839
 2060SOL     OW17641   2.576   0.668  17.659 -0.4727  0.1028 -0.3612
 2060SOL    HW117642   2.566   0.662   0.060  0.3715 -1.2827 -0.3547
 2060SOL    HW217643   2.488   0.684  17.626 -1.3163 -0.3448  1.6519
 2061SOL     OW17644   3.626   2.989   3.552 -0.5135 -0.0466  0.1429
 2061SOL    HW117645   3.540   2.947   3.566 -0.3127 -0.2739  0.7201
 2061SOL    HW217646   3.646   3.004   3.645 -2.5506  0.2754  0.5336
 2062SOL     OW17647   0.605   2.972   3.312 -0.3006  0.1131 -0.0295
 2062SOL    HW117648   0.563   2.989   3.228  1.4087 -4.2593 -1.8009
 2062SOL    HW217649   0.676   2.913   3.285 -2.3453 -1.4118 -2.0398
 2063SOL     OW17650   1.743   0.997   1.730  0.0986 -0.1752 -0.2020
 2063SOL    HW117651   1.767   0.920   1.783 -0.8946  0.7754  1.6392
 2063SOL    HW217652   1.703   1.059   1.791  2.9860  2.1482 -0.6761
 2064SOL     OW17653   3.845   0.381   6.544 -0.3234 -0.0054 -0.1030
 2064SOL    HW117654   3.824   0.371   6.451 -0.7195  3.2106 -0.3686
 2064SOL    HW217655   3.846   0.288   6.567  0.3575  0.0856  0.2330
 2065SOL     OW17656   1.528   3.630   8.556 -0.2253  0.1104  0.1532
 2065SOL    HW117657   1.514   3.579   8.636  2.5737 -1.5549 -0.4282
 2065SOL    HW217658   1.492   3.715   8.583  0.1006  0.4171 -0.3909
 2066SOL     OW17659   1.271   1.694   5.968  0.0537  0.6492  0.1497
 2066SOL    HW117660   1.325   1.657   6.038  2.3275 -1.6843 -2.8649
 2066SOL    HW217661   1.203   1.628   5.958  0.5127  0.2964 -0.5805
 2067SOL     OW17662   0.787   1.269  10.511  0.1796 -0.1451 -0.0848
 2067SOL    HW117663   0.778   1.327  10.587  0.5794 -0.3759  0.1439
 2067SOL    HW217664   0.799   1.331  10.440  0.6588  0.5904  0.6317
 2068SOL     OW17665   1.148   1.088   5.043  0.3664 -0.1606 -0.3630
 2068SOL    HW117666   1.069   1.045   5.009 -0.3615  0.9224 -0.0314
 2068SOL    HW217667   1.201   1.106   4.965  0.4945  0.3276 -0.1602
 2069SOL     OW17668   0.692   2.522   8.543  0.0249 -0.3902  0.3263
 2069SOL    HW117669   0.776   2.550   8.580 -0.7245  1.0869  0.8950
 2069SOL    HW217670   0.682   2.445   8.600 -1.7195  1.3341  2.3411
 2070SOL     OW17671   1.806   4.580   4.843  0.3793 -0.3882  0.3169
 2070SOL    HW117672   1.717   4.615   4.833  1.1293  2.0845  2.1771
 2070SOL    HW217673   1.833   4.576   4.752 -3.3476 -1.6107 -0.7084
 2071SOL     OW17674   4.197   1.815   2.403  0.0672  0.2418  0.0404
 2071SOL    HW117675   4.230   1.793   2.316  0.3471  2.8002 -0.4786
 2071SOL    HW217676   4.252   1.751   2.450 -1.7110 -1.7514 -0.5569
 2072SOL     OW17677   2.836   1.450   4.327 -0.5413  0.5092 -0.0486
 2072SOL    HW117678   2.790   1.493   4.255  0.3000  2.3711  0.5534
 2072SOL    HW217679   2.930   1.453   4.313 -0.5289  0.4874  0.0307
 2073SOL     OW17680   4.290   1.911   4.763 -0.2865 -0.4416 -0.1711
 2073SOL    HW117681   4.237   1.909   4.684 -0.8857 -1.5124  0.2537
 2073SOL    HW217682   4.368   1.871   4.725  1.9783  2.3446  1.5446
 2074SOL     OW17683   3.466   2.183  17.018  0.4021  0.1728  0.3775
 2074SOL    HW117684   3.447   2.090  17.032  0.6566 -0.1261 -1.3236
 2074SOL    HW217685   3.429   2.224  17.096 -0.1177 -1.3380  0.9183
 2075SOL     OW17686   1.704   2.872   5.090 -0.2090 -0.2922  0.2013
 2075SOL    HW117687   1.659   2.790   5.112 -1.2120  0.8413  2.4187
 2075SOL    HW217688   1.771   2.846   5.027  0.9608  0.1521  1.2594
 2076SOL     OW17689   2.690   2.704   3.666 -0.0451  0.0618  0.2882
 2076SOL    HW117690   2.637   2.648   3.723 -0.3809  0.8142  0.7233
 2076SOL    HW217691   2.691   2.781   3.723  0.6923 -0.4452  0.9487
 2077SOL     OW17692   3.994   2.246  12.997  0.4515 -0.6849  0.3332
 2077SOL    HW117693   4.018   2.264  13.088 -0.0337 -0.4116  0.4075
 2077SOL    HW217694   3.909   2.203  13.004 -1.2534  2.8478  1.3603
 2078SOL     OW17695   1.436   3.704   6.349 -0.3225 -0.2821  0.0246
 2078SOL    HW117696   1.351   3.712   6.392  0.2973  2.0062  0.8046
 2078SOL    HW217697   1.415   3.664   6.264 -1.3341  1.2870 -0.4508
 2079SOL     OW17698   3.684   1.643   8.435  0.4161 -0.5127  0.7599
 2079SOL    HW117699   3.719   1.709   8.376 -2.2579  1.7486  1.7063
 2079SOL    HW217700   3.711   1.569   8.381 -0.2976  0.6773 -1.2253
 2080SOL     OW17701   1.454   3.961   2.095  0.2845 -0.0680 -0.2755
 2080SOL    HW117702   1.430   3.958   2.002  1.0489 -0.2709 -0.4643
 2080SOL    HW217703   1.489   3.872   2.099  1.4603  0.2879 -2.6340
 2081SOL     OW17704   3.957   0.570   7.007 -0.5030 -0.1453  0.1491
 2081SOL    HW117705   3.879   0.533   7.047 -1.6587  2.1681  0.0185
 2081SOL    HW217706   3.975   0.504   6.940 -3.4457 -0.4225 -0.3739
 2082SOL     OW17707   3.732   3.910   3.552  0.3280 -1.0208  0.1695
 2082SOL    HW117708   3.657   3.907   3.492 -1.2943  1.1685  2.0390
 2082SOL    HW217709   3.718   4.001   3.578  0.6491 -0.8984 -0.0965
 2083SOL     OW17710   4.000   4.207   1.569  0.0179  0.5528  0.0196
 2083SOL    HW117711   3.982   4.298   1.545  1.8616  0.5531 -1.3845
 2083SOL    HW217712   4.067   4.184   1.505  0.1085 -0.6237  0.5298
 2084SOL     OW17713   4.463   3.037   3.102 -0.2304 -0.1798 -0.3686
 2084SOL    HW117714   4.402   3.009   3.170  0.8441 -1.0291  0.2427
 2084SOL    HW217715   4.528   3.086   3.152 -0.2518 -0.8004  0.2699
 2085SOL     OW17716   3.141   4.026   7.090  0.4510 -0.2749  0.8001
 2085SOL    HW117717   3.086   3.994   7.161  1.0543  0.4260  1.5731
 2085SOL    HW217718   3.204   3.954   7.084 -0.2865 -0.9184  0.7659
 2086SOL     OW17719   1.156   3.150   0.409  0.1960  0.0107  0.4655
 2086SOL    HW117720   1.137   3.058   0.430 -0.1264 -0.1679 -0.5990
 2086SOL    HW217721   1.202   3.142   0.326 -1.4506 -0.9644 -0.3507
 2087SOL     OW17722   0.068   1.007  14.393 -0.3649 -0.3446  0.2281
 2087SOL    HW117723   4.715   0.976  14.344 -0.0174  2.1507 -1.8911
 2087SOL    HW217724   0.141   0.994  14.331 -1.1852 -1.1677 -0.5711
 2088SOL     OW17725   0.513   1.442   4.666  0.2889  0.4325  0.4255
 2088SOL    HW117726   0.458   1.397   4.730  0.5091 -2.1020 -1.1634
 2088SOL    HW217727   0.455   1.502   4.619  1.3172  1.1628  0.0800
 2089SOL     OW17728   3.768   1.304  15.328  0.0056  0.1694 -0.2320
 2089SOL    HW117729   3.678   1.337  15.333  0.3093  1.2509 -2.2951
 2089SOL    HW217730   3.799   1.369  15.266 -0.7512  0.3307 -0.4433
 2090SOL     OW17731   0.058   3.661  12.655 -0.4305  0.2061  0.5334
 2090SOL    HW117732   0.105   3.667  12.572 -0.4950 -3.7445  0.2494
 2090SOL    HW217733   0.135   3.627  12.700  0.1079 -0.3468 -0.8093
 2091SOL     OW17734   2.836   0.408   9.456 -0.0048 -0.5111  0.7043
 2091SOL    HW117735   2.748   0.401   9.420  0.5353 -1.6697 -0.3758
 2091SOL    HW217736   2.819   0.384   9.547  0.2397 -0.3032  0.8054
 2092SOL     OW17737   2.627   3.765   5.789 -0.5224 -0.2512  0.1412
 2092SOL    HW117738   2.682   3.740   5.863  0.2431  1.2716  0.1007
 2092SOL    HW217739   2.671   3.844   5.756 -0.5247 -0.2824  0.0657
 2093SOL     OW17740   4.375   4.412  16.824  0.2198 -0.3922 -0.1061
 2093SOL    HW117741   4.382   4.369  16.739  0.4852  1.3577 -0.9827
 2093SOL    HW217742   4.425   4.489  16.797  0.1207  0.3821  1.8934
 2094SOL     OW17743   1.346   4.498   2.568 -0.5145  0.8203  0.5929
 2094SOL    HW117744   1.277   4.471   2.507 -2.1971  0.8963  2.4912
 2094SOL    HW217745   1.424   4.480   2.515 -0.0666 -0.3908  1.6688
 2095SOL     OW17746   3.867   3.098   5.087 -0.1355  0.9590 -0.2797
 2095SOL    HW117747   3.957   3.131   5.095  0.2888 -0.6688  1.4281
 2095SOL    HW217748   3.839   3.115   5.177 -0.2077  0.5280 -0.2245
 2096SOL     OW17749   1.119   0.739   6.100 -0.2421  0.0566 -0.5010
 2096SOL    HW117750   1.117   0.834   6.096  0.0754 -0.0050 -2.0141
 2096SOL    HW217751   1.145   0.720   6.191 -0.1763  1.0267 -0.3177
 2097SOL     OW17752   4.109   2.199  10.868 -0.5945  0.3871 -0.1337
 2097SOL    HW117753   4.051   2.198  10.792 -0.6709 -1.3293 -0.0456
 2097SOL    HW217754   4.106   2.290  10.898 -0.1365  0.2078  0.4608
 2098SOL     OW17755   3.083   2.743  11.570 -0.0260 -0.1202 -0.2432
 2098SOL    HW117756   3.074   2.805  11.498 -0.5087 -1.1138 -1.0304
 2098SOL    HW217757   2.996   2.752  11.610  0.7768  4.8059  0.4816
 2099SOL     OW17758   3.079   0.530   3.647 -0.1326  0.1057 -0.0441
 2099SOL    HW117759   3.149   0.467   3.629 -0.7562 -0.5443 -0.2350
 2099SOL    HW217760   3.136   0.606   3.646 -0.7515  0.5615 -0.9121
 2100SOL     OW17761   4.162   0.062   3.916  0.1145  0.0995  0.0287
 2100SOL    HW117762   4.178   0.099   3.829  1.2860 -0.2040  0.1106
 2100SOL    HW217763   4.230   0.103   3.970 -2.3005  0.5337  2.7094
 2101SOL     OW17764   4.006   0.970   5.816  0.0966  0.1643 -0.2439
 2101SOL    HW117765   4.077   1.026   5.785 -0.4264  1.2287  0.4798
 2101SOL    HW217766   3.943   1.040   5.831  1.0123  0.7117  1.1274
 2102SOL     OW17767   0.626   1.573   3.442 -0.2682  0.1354  0.5588
 2102SOL    HW117768   0.627   1.522   3.361 -0.3738  0.6894  0.2104
 2102SOL    HW217769   0.706   1.531   3.474  0.9384  0.0727 -2.6281
 2103SOL     OW17770   3.498   0.112   9.693  0.0535  0.0729 -0.1666
 2103SOL    HW117771   3.573   0.115   9.752  0.5878  2.3355 -0.9498
 2103SOL    HW217772   3.444   0.044   9.732 -0.2715  0.0050 -0.7378
 2104SOL     OW17773   2.921   1.408   6.787 -0.4446  0.2850  0.1583
 2104SOL    HW117774   2.846   1.391   6.844  1.6940  0.6490  3.0932
 2104SOL    HW217775   2.881   1.404   6.700 -0.2460 -3.1114  0.2241
 2105SOL     OW17776   4.116   0.428   0.352  0.0163 -0.3934 -0.5143
 2105SOL    HW117777   4.134   0.432   0.258  0.6663 -0.6090 -0.4034
 2105SOL    HW217778   4.095   0.336   0.368 -0.4995  0.0809  1.4887
 2106SOL     OW17779   2.541   0.832   2.238 -0.9143  0.5994 -0.4007
 2106SOL    HW117780   2.500   0.762   2.289  1.6525  0.3063  1.2257
 2106SOL    HW217781   2.574   0.885   2.311  0.1466  0.6749 -0.9399
 2107SOL     OW17782   4.297   0.742   0.514 -0.8652  0.3919  0.1502
 2107SOL    HW117783   4.210   0.702   0.513 -0.7705  0.1512  1.0748
 2107SOL    HW217784   4.347   0.661   0.524  2.1308  1.9403 -2.3178
 2108SOL     OW17785   0.137   0.635   3.260 -0.2563  0.3171 -0.2113
 2108SOL    HW117786   0.127   0.708   3.321 -2.4699  0.6274 -0.9611
 2108SOL    HW217787   0.191   0.679   3.195  0.2429  2.9979  2.0091
 2109SOL     OW17788   2.981   3.539   4.244 -0.0632  0.1587  0.0348
 2109SOL    HW117789   3.017   3.621   4.211 -0.6583  0.4321  0.0673
 2109SOL    HW217790   3.058   3.485   4.226  0.3488  0.1757  1.7177
 2110SOL     OW17791   2.846   1.279   5.659  0.2412  0.2623 -0.1155
 2110SOL    HW117792   2.830   1.316   5.746  2.3043 -0.6725  0.6823
 2110SOL    HW217793   2.933   1.240   5.674 -0.2102 -0.5821  0.3045
 2111SOL     OW17794   2.236   3.927   5.804  0.3078 -0.6219 -0.6155
 2111SOL    HW117795   2.324   3.950   5.775  0.9242 -1.3570  0.6451
 2111SOL    HW217796   2.189   3.875   5.738 -2.7594 -0.6109  1.5539
 2112SOL     OW17797   2.993   2.682   3.956 -0.0323  0.2843 -0.1422
 2112SOL    HW117798   3.006   2.597   3.914  1.5844  0.1778  0.5429
 2112SOL    HW217799   2.938   2.725   3.891 -0.7004 -0.1279  0.1456
 2113SOL     OW17800   3.851   2.558   2.246 -0.4492 -0.1253 -0.1172
 2113SOL    HW117801   3.787   2.493   2.214 -0.9644  1.5640 -2.5923
 2113SOL    HW217802   3.927   2.500   2.247 -0.0928  0.3284 -0.9284
 2114SOL     OW17803   2.414   0.965   6.934  0.4610 -0.0275 -0.1771
 2114SOL    HW117804   2.348   0.995   6.996  0.9806  0.4233  0.1609
 2114SOL    HW217805   2.492   0.942   6.984  0.9533  2.0034 -0.0435
 2115SOL     OW17806   2.992   0.193   4.447 -0.3552 -0.2238  0.2415
 2115SOL    HW117807   3.022   0.115   4.399 -0.0053  0.3156 -0.4088
 2115SOL    HW217808   2.961   0.246   4.374 -0.2279  1.3940  1.3815
 2116SOL     OW17809   2.522   3.081  14.183  1.2023  0.1416  0.2313
 2116SOL    HW117810   2.562   3.136  14.116 -1.9886  0.4223 -1.3939
 2116SOL    HW217811   2.434   3.116  14.172  1.7800  0.5901 -2.7767
 2117SOL     OW17812   2.098   4.548  16.665  0.0435  0.7628  0.4584
 2117SOL    HW117813   2.051   4.557  16.748  1.4492  0.9706  1.2284
 2117SOL    HW217814   2.131   4.638  16.666  0.0474  0.7737 -2.5252
 2118SOL     OW17815   4.367   3.819   3.087 -0.2101 -0.3969  0.0579
 2118SOL    HW117816   4.326   3.833   3.002 -0.1553 -2.0845 -0.2521
 2118SOL    HW217817   4.430   3.891   3.076 -1.3645  0.7031  0.6672
 2119SOL     OW17818   3.072   0.413   9.264 -0.8284 -0.6657 -0.0492
 2119SOL    HW117819   3.000   0.406   9.326 -1.5416 -0.9995 -0.9183
 2119SOL    HW217820   3.147   0.380   9.314 -0.3625  1.5764  0.7363
 2120SOL     OW17821   3.805   1.990   4.752  0.2082  0.1560  0.1476
 2120SOL    HW117822   3.777   2.064   4.698  1.9215  0.9550  0.3665
 2120SOL    HW217823   3.728   1.976   4.808  0.7801  1.5031  1.2674
 2121SOL     OW17824   1.849   0.768   2.175 -0.0276 -0.0459 -0.3797
 2121SOL    HW117825   1.774   0.828   2.181 -0.1884 -0.1110 -1.9445
 2121SOL    HW217826   1.812   0.693   2.221  1.3352 -0.2481  0.3844
 2122SOL     OW17827   2.717   4.242   5.972 -0.0652  0.3482 -0.4414
 2122SOL    HW117828   2.635   4.197   5.992 -0.6036  1.0027 -1.1795
 2122SOL    HW217829   2.704   4.310   6.038 -0.3618 -0.7609  0.6452
 2123SOL     OW17830   3.329   1.671   7.228  0.2725 -0.0208  0.4484
 2123SOL    HW117831   3.314   1.704   7.140 -2.7147 -2.9290 -0.1259
 2123SOL    HW217832   3.246   1.630   7.252  1.2500 -1.9500  0.4836
 2124SOL     OW17833   1.769   2.075   2.104  0.1288  0.2128  0.1906
 2124SOL    HW117834   1.856   2.037   2.092  0.4056  0.1961  2.3272
 2124SOL    HW217835   1.761   2.113   2.016 -0.3452  1.5575  0.8185
 2125SOL     OW17836   3.012   1.937   7.238 -0.0735  0.3594  0.1934
 2125SOL    HW117837   2.953   1.999   7.281 -0.7528  0.6977 -1.2152
 2125SOL    HW217838   3.001   1.862   7.297  2.2725 -0.2485 -0.1542
 2126SOL     OW17839   2.672   1.449  14.189 -0.3190 -0.3643 -0.2526
 2126SOL    HW117840   2.640   1.530  14.148 -0.3923  0.9400  2.3739
 2126SOL    HW217841   2.764   1.471  14.206 -0.3624  0.4772 -1.1059
 2127SOL     OW17842   1.946   4.383   6.808  0.2915  0.2077  0.4636
 2127SOL    HW117843   2.013   4.345   6.751  0.6651  2.9201 -0.9039
 2127SOL    HW217844   1.989   4.373   6.893  1.1799 -1.9113 -0.2421
 2128SOL     OW17845   2.476   0.011  17.479  0.2460 -0.4242  0.2102
 2128SOL    HW117846   2.438   4.704  17.397  0.9739  1.8287 -0.9383
 2128SOL    HW217847   2.445   0.101  17.472 -1.3277 -0.8260  1.8914
 2129SOL     OW17848   1.430   3.939   3.327  0.2586  0.1296 -0.3850
 2129SOL    HW117849   1.510   3.949   3.276  2.6128 -1.1643  3.0696
 2129SOL    HW217850   1.377   4.004   3.281  2.2991  2.3049  0.3445
 2130SOL     OW17851   1.443   2.664   3.551  0.0882 -0.1234  0.1448
 2130SOL    HW117852   1.383   2.591   3.567  2.1519 -2.3315 -2.0218
 2130SOL    HW217853   1.528   2.627   3.575 -0.0942 -1.7490 -1.7188
 2131SOL     OW17854   3.628   1.860   1.275 -0.1042 -0.3148 -0.6648
 2131SOL    HW117855   3.581   1.931   1.320 -0.5016  0.2846 -2.0397
 2131SOL    HW217856   3.716   1.897   1.284 -0.7741  0.6385  2.1752
 2132SOL     OW17857   3.542   1.800  10.038 -0.5813 -0.3253 -0.2619
 2132SOL    HW117858   3.590   1.718  10.045 -2.2604 -1.3731 -1.1797
 2132SOL    HW217859   3.599   1.861  10.085  0.5653 -0.8136 -1.0252
 2133SOL     OW17860   2.228   3.847   2.459 -0.2910 -0.5944  0.5264
 2133SOL    HW117861   2.317   3.867   2.430 -1.5525 -0.0935 -2.9769
 2133SOL    HW217862   2.172   3.920   2.432  2.1171  0.4718 -1.5550
 2134SOL     OW17863   3.918   2.303   2.462  0.7128  0.3297 -0.2874
 2134SOL    HW117864   3.882   2.232   2.408 -0.5629  1.2377 -0.6209
 2134SOL    HW217865   3.840   2.357   2.468  0.0664 -0.8668  1.8839
 2135SOL     OW17866   3.633   2.679   8.751 -0.1469  0.2854 -0.1348
 2135SOL    HW117867   3.616   2.640   8.665 -1.1456  3.2783 -1.2792
 2135SOL    HW217868   3.591   2.615   8.809 -0.3721 -0.9881 -1.6903
 2136SOL     OW17869   3.141   3.838   2.614 -0.7079  0.4348 -0.2645
 2136SOL    HW117870   3.131   3.744   2.622 -0.6680  0.2595 -2.2145
 2136SOL    HW217871   3.217   3.837   2.557  0.1301 -1.5929  0.8960
 2137SOL     OW17872   0.593   3.901   5.090 -0.1079 -0.1683  0.5899
 2137SOL    HW117873   0.676   3.860   5.065 -1.2950 -1.1853 -1.6460
 2137SOL    HW217874   0.531   3.838   5.052 -2.2949  0.1730  3.5590
 2138SOL     OW17875   0.914   3.359   5.462 -0.1676  0.5921  0.0377
 2138SOL    HW117876   0.981   3.325   5.401  0.6217  0.6949  0.8539
 2138SOL    HW217877   0.933   3.306   5.540  1.5863  0.7671 -0.2693
 2139SOL     OW17878   1.959   0.709   6.122 -1.0434 -0.2313  0.2530
 2139SOL    HW117879   1.987   0.624   6.089 -2.1949 -0.3601 -0.3556
 2139SOL    HW217880   1.968   0.707   6.218  3.0509 -1.2259 -0.1239
 2140SOL     OW17881   0.160   2.973   4.007  0.0929  0.1474 -0.2042
 2140SOL    HW117882   0.234   2.926   3.969 -0.1800  1.9042 -2.9239
 2140SOL    HW217883   0.096   2.903   4.008  2.3254 -1.8968 -0.6723
 2141SOL     OW17884   3.828   3.698   7.103 -0.5873 -0.0004 -0.3724
 2141SOL    HW117885   3.896   3.765   7.109 -0.7375  0.3527 -2.8341
 2141SOL    HW217886   3.865   3.641   7.036 -0.0303  0.4037 -0.4040
 2142SOL     OW17887   3.181   0.121   4.211  0.1349 -0.1943 -0.2855
 2142SOL    HW117888   3.244   0.054   4.185  2.0957  0.3905  2.9267
 2142SOL    HW217889   3.237   0.161   4.278 -2.2268  1.3938  0.7611
 2143SOL     OW17890   3.348   2.023   9.132  0.1396 -0.0910  0.2058
 2143SOL    HW117891   3.306   1.938   9.117  0.8707 -0.3895 -0.1051
 2143SOL    HW217892   3.319   2.036   9.223  1.0594 -1.4333  0.6876
 2144SOL     OW17893   0.426   0.755   5.976 -0.4804  0.1985 -0.3807
 2144SOL    HW117894   0.494   0.819   5.998 -1.7936  2.1077 -1.8623
 2144SOL    HW217895   0.441   0.693   6.047 -1.2513 -2.2893 -2.3895
 2145SOL     OW17896   1.396   1.158   0.498  0.2727 -0.1057 -0.2502
 2145SOL    HW117897   1.383   1.169   0.404  1.8733 -1.1697 -0.5902
 2145SOL    HW217898   1.462   1.089   0.498  0.1750 -0.2011  0.9950
 2146SOL     OW17899   0.219   0.702  12.756 -0.4823  0.1051  0.4061
 2146SOL    HW117900   0.290   0.685  12.819  0.8630  1.8429 -0.6429
 2146SOL    HW217901   0.198   0.792  12.781  1.9380  1.2576 -1.7370
 2147SOL     OW17902   2.997   2.036   5.044  0.1020  0.2967  0.1676
 2147SOL    HW117903   3.026   2.016   5.133 -2.6995 -0.3423  0.9358
 2147SOL    HW217904   2.928   2.100   5.062  1.8773  2.6540 -1.3872
 2148SOL     OW17905   2.064   0.087   7.934 -0.5287 -0.2044  0.5979
 2148SOL    HW117906   2.115   0.107   7.855 -0.8917 -0.8068  0.2088
 2148SOL    HW217907   2.012   0.167   7.944 -1.3880 -0.9773  2.2611
 2149SOL     OW17908   0.117   3.993   0.302 -0.6909 -0.4724  0.1118
 2149SOL    HW117909   0.107   4.054   0.229  1.9629 -1.4872 -1.1230
 2149SOL    HW217910   0.085   4.045   0.375  0.8135 -0.1291  0.5365
 2150SOL     OW17911   4.428   4.300   2.795  0.6837 -0.3143  0.4637
 2150SOL    HW117912   4.452   4.249   2.718  1.0310  0.1485  0.2683
 2150SOL    HW217913   4.356   4.350   2.758  1.6790  1.0506  0.4005
 2151SOL     OW17914   1.959   0.856   4.869  0.1441  0.1860 -0.2312
 2151SOL    HW117915   1.929   0.765   4.871 -2.5176  1.0657 -0.1444
 2151SOL    HW217916   2.009   0.862   4.788  0.3899  1.2759  0.0043
 2152SOL     OW17917   1.299   0.625   6.733  0.4552 -0.5007  0.1641
 2152SOL    HW117918   1.243   0.703   6.731 -0.1219 -0.9123  0.1734
 2152SOL    HW217919   1.244   0.561   6.688 -1.4157  0.9738  0.3488
 2153SOL     OW17920   2.326   1.695   9.269 -0.2327 -0.1508  0.2627
 2153SOL    HW117921   2.249   1.666   9.319  0.1205  0.0809  0.9388
 2153SOL    HW217922   2.368   1.611   9.256 -0.7423 -0.0760 -1.7708
 2154SOL     OW17923   2.413   0.245   5.649  0.6137  0.4890  0.2206
 2154SOL    HW117924   2.471   0.187   5.699 -0.5316  0.7726  1.8626
 2154SOL    HW217925   2.331   0.198   5.665 -0.3197  2.9649  2.5481
 2155SOL     OW17926   2.350   2.784  15.921 -0.3576 -0.4254 -0.0769
 2155SOL    HW117927   2.342   2.722  15.849  2.7053 -2.0865  1.0054
 2155SOL    HW217928   2.263   2.787  15.961  0.1641 -0.9377  1.0831
 2156SOL     OW17929   4.501   1.287   2.024  0.0672 -0.4112  0.4663
 2156SOL    HW117930   4.530   1.373   2.055 -2.0574 -0.7609  3.4157
 2156SOL    HW217931   4.406   1.296   2.035  0.0144 -0.4261  0.0155
 2157SOL     OW17932   1.553   0.516   3.004 -0.2095  0.4846  0.4771
 2157SOL    HW117933   1.570   0.605   2.975 -1.0257  0.5059  0.0690
 2157SOL    HW217934   1.540   0.536   3.097  0.6864 -0.8457  0.8940
 2158SOL     OW17935   0.201   2.596  16.659 -0.2895  0.1446 -0.0336
 2158SOL    HW117936   0.251   2.614  16.739  1.5564  1.8668 -1.5879
 2158SOL    HW217937   0.213   2.675  16.606  0.8045 -0.1003 -0.1534
 2159SOL     OW17938   1.835   2.773   3.634  0.3997 -0.4512  0.3699
 2159SOL    HW117939   1.916   2.799   3.590  0.2680  1.7193  1.4069
 2159SOL    HW217940   1.779   2.848   3.617 -0.5050 -1.8184 -2.6207
 2160SOL     OW17941   2.521   2.733   5.870 -0.5685  0.3927 -0.1916
 2160SOL    HW117942   2.441   2.770   5.833 -0.5936  1.3775  0.8643
 2160SOL    HW217943   2.552   2.677   5.798  0.3830 -0.8034  1.1402
 2161SOL     OW17944   0.827   1.568  12.272  0.0959  0.4891 -0.6683
 2161SOL    HW117945   0.853   1.528  12.354  0.5880  1.3135 -0.4255
 2161SOL    HW217946   0.752   1.624  12.294  0.6642  1.3425 -0.9052
 2162SOL     OW17947   1.647   3.949  17.235 -0.6095  0.1629  0.0880
 2162SOL    HW117948   1.572   3.997  17.268 -0.6870  0.6593 -0.7935
 2162SOL    HW217949   1.636   3.975  17.143 -1.2971  2.7998  0.9306
 2163SOL     OW17950   2.467   3.420   5.466 -0.6043  0.4037  0.2370
 2163SOL    HW117951   2.511   3.480   5.405 -0.5458  1.0346  0.9043
 2163SOL    HW217952   2.378   3.437   5.435 -0.3801 -0.0517 -0.6659
 2164SOL     OW17953   2.415   0.967   4.772 -0.0256 -0.0221 -0.4598
 2164SOL    HW117954   2.453   1.051   4.747 -1.3976 -0.1536 -2.9759
 2164SOL    HW217955   2.373   0.983   4.857  0.9251  2.3083 -0.4240
 2165SOL     OW17956   1.249   1.293  16.287 -0.0047  0.6476  0.1677
 2165SOL    HW117957   1.200   1.230  16.234  0.1357  0.3961  0.3335
 2165SOL    HW217958   1.291   1.346  16.220  0.5523  0.4872  0.3923
 2166SOL     OW17959   4.411   2.746   2.977  0.0807 -0.6183  0.1706
 2166SOL    HW117960   4.368   2.823   3.013 -0.5980  0.1961 -2.4229
 2166SOL    HW217961   4.491   2.755   3.030 -0.6195  1.8451  0.8051
 2167SOL     OW17962   0.053   1.979   7.315 -0.3086  0.1763 -0.8271
 2167SOL    HW117963   4.709   1.947   7.254 -0.4269  0.3242 -0.7760
 2167SOL    HW217964   4.707   2.030   7.357  1.0340  0.7734  0.6329
 2168SOL     OW17965   3.845   2.609   0.520  0.1016 -0.2071 -0.0630
 2168SOL    HW117966   3.870   2.516   0.525 -0.0067 -0.2248  0.1700
 2168SOL    HW217967   3.769   2.592   0.464 -0.1776 -3.1814  1.1978
 2169SOL     OW17968   1.327   1.938   8.031  0.0342 -0.0457 -0.0106
 2169SOL    HW117969   1.372   1.981   8.104  3.1111 -2.1926 -0.6742
 2169SOL    HW217970   1.368   1.987   7.960  0.0966  0.6680  0.5185
 2170SOL     OW17971   1.134   1.148  13.227  0.6683  0.7104 -0.1703
 2170SOL    HW117972   1.149   1.220  13.288  0.4558 -0.4999  1.3241
 2170SOL    HW217973   1.058   1.167  13.172  0.9444  0.0678 -0.7789
 2171SOL     OW17974   1.837   0.895   5.942  0.2534  0.2329  0.0405
 2171SOL    HW117975   1.895   0.847   5.883 -0.6369 -0.5625 -0.1760
 2171SOL    HW217976   1.849   0.843   6.021 -0.4800 -0.9927 -0.6523
 2172SOL     OW17977   3.670   1.745   5.633  0.0811  0.2037  0.0951
 2172SOL    HW117978   3.581   1.715   5.613 -0.7610  1.1476  2.3948
 2172SOL    HW217979   3.665   1.769   5.726  0.5010 -0.7460  0.3705
 2173SOL     OW17980   0.263   4.669  12.041  0.0004 -0.3902  0.6974
 2173SOL    HW117981   0.313   4.639  11.965 -1.5643 -0.3301 -0.3495
 2173SOL    HW217982   0.188   4.610  12.028 -0.4817 -0.1270  2.3720
 2174SOL     OW17983   1.135   0.694   2.809 -0.0918 -0.8365  0.4981
 2174SOL    HW117984   1.085   0.616   2.785 -0.0156 -0.9651  0.7571
 2174SOL    HW217985   1.198   0.666   2.875  1.0437 -0.7636 -0.5526
 2175SOL     OW17986   0.856   1.277  17.612 -0.3854  0.3308  0.4827
 2175SOL    HW117987   0.863   1.206  17.675 -0.1850  0.3191  0.4478
 2175SOL    HW217988   0.797   1.331  17.663  0.1036  1.9394 -0.6653
 2176SOL     OW17989   3.950   0.439   9.024 -0.3620 -0.5454 -0.2018
 2176SOL    HW117990   3.880   0.496   9.057 -0.9811 -1.5770  0.2806
 2176SOL    HW217991   3.977   0.491   8.948  2.0265  1.5135  2.0421
 2177SOL     OW17992   3.357   3.089   3.752  0.1492 -0.3640 -0.3188
 2177SOL    HW117993   3.391   3.008   3.715  1.1075 -0.3936  0.6384
 2177SOL    HW217994   3.328   3.130   3.671  0.3696  1.5750  0.6002
 2178SOL     OW17995   2.686   0.674   3.480 -0.2920  0.3549  0.5227
 2178SOL    HW117996   2.670   0.612   3.409 -2.1075 -0.8121  1.9734
 2178SOL    HW217997   2.669   0.626   3.561  0.8323  1.1374  1.2175
 2179SOL     OW17998   2.838   2.696   9.610 -0.0150 -0.2888  0.1489
 2179SOL    HW117999   2.780   2.747   9.666 -0.1136  0.6038 -0.7573
 2179SOL    HW218000   2.804   2.607   9.616  1.1083 -0.8008 -1.0792
 2180SOL     OW18001   3.197   1.926  12.022  0.1342  0.0768  0.3575
 2180SOL    HW118002   3.243   1.920  12.106 -2.1974 -0.3740  1.5968
 2180SOL    HW218003   3.254   1.993  11.983 -0.4449 -1.2131 -2.7119
 2181SOL     OW18004   3.657   0.088  10.036 -0.2664 -0.0517 -0.2707
 2181SOL    HW118005   3.594   0.159  10.022  0.1931  0.5066  0.4444
 2181SOL    HW218006   3.742   0.130  10.024 -0.8192  0.9946 -0.5427
 2182SOL     OW18007   3.237   0.085   8.934 -1.3782 -0.7991 -0.6414
 2182SOL    HW118008   3.162   0.142   8.917 -0.6291  0.9438  1.7413
 2182SOL    HW218009   3.209   0.074   9.025  0.1049 -1.6370 -0.2748
 2183SOL     OW18010   1.170   2.176   4.885  0.0179 -0.2197  0.0582
 2183SOL    HW118011   1.199   2.267   4.888  0.6059 -0.4754  2.0726
 2183SOL    HW218012   1.157   2.176   4.790  0.2700 -3.8258  0.0356
 2184SOL     OW18013   2.306   2.234   8.064 -0.4692  0.4173  0.3105
 2184SOL    HW118014   2.212   2.240   8.080 -0.3335  0.6414  1.0192
 2184SOL    HW218015   2.339   2.270   8.147  0.1453 -1.3817  0.8607
 2185SOL     OW18016   3.820   1.446   2.884 -0.5948  0.8104 -0.1300
 2185SOL    HW118017   3.792   1.535   2.863 -2.1343  0.3468 -0.0717
 2185SOL    HW218018   3.865   1.457   2.968 -0.1389  1.6733 -0.4880
 2186SOL     OW18019   2.507   0.422  10.649  0.1072  0.0367 -0.0570
 2186SOL    HW118020   2.452   0.414  10.571 -1.7981 -0.1417  1.3019
 2186SOL    HW218021   2.464   0.499  10.685  1.1227  0.1647  0.8807
 2187SOL     OW18022   4.000   2.446  10.665  0.5556  0.8473  0.4334
 2187SOL    HW118023   3.913   2.464  10.629 -0.0110 -2.8264  0.0113
 2187SOL    HW218024   4.050   2.404  10.595  0.1054 -1.9368  1.8108
 2188SOL     OW18025   3.368   3.716   7.273 -0.6886 -0.9627  0.0833
 2188SOL    HW118026   3.302   3.681   7.332  0.0048 -1.5927  0.4816
 2188SOL    HW218027   3.448   3.713   7.326 -0.2759 -0.8906 -0.5224
 2189SOL     OW18028   1.374   3.353  15.229  0.3512 -0.3175  0.2443
 2189SOL    HW118029   1.339   3.311  15.307  0.1394  0.1122  0.3840
 2189SOL    HW218030   1.292   3.370  15.183 -2.0109 -1.2946  4.1192
 2190SOL     OW18031   0.263   4.136   6.997 -0.2852 -0.4954 -0.3811
 2190SOL    HW118032   0.200   4.140   6.925 -0.6952 -0.3445 -0.0136
 2190SOL    HW218033   0.341   4.135   6.942  0.1187  1.5692  0.1458
 2191SOL     OW18034   4.468   1.327   4.512  0.1170  0.7476 -0.1848
 2191SOL    HW118035   4.531   1.356   4.577 -1.1512  1.6326  0.6643
 2191SOL    HW218036   4.508   1.368   4.435  0.3081  0.3054 -0.3173
 2192SOL     OW18037   3.867   0.476   1.690  0.2622  0.2779 -0.5015
 2192SOL    HW118038   3.806   0.537   1.648  1.0133  2.0096  0.9412
 2192SOL    HW218039   3.952   0.513   1.667  0.3092 -0.9538 -2.3517
 2193SOL     OW18040   4.279   2.196   4.614  0.0754  0.0715 -0.9855
 2193SOL    HW118041   4.246   2.235   4.533 -0.3244 -0.4411 -1.0690
 2193SOL    HW218042   4.358   2.149   4.587 -1.1267 -1.9586 -1.0185
 2194SOL     OW18043   3.438   4.113   5.924  0.1142 -0.1627 -0.0317
 2194SOL    HW118044   3.428   4.132   5.831 -2.8292 -0.3336  0.2431
 2194SOL    HW218045   3.356   4.149   5.958 -0.1675  0.5597 -1.4967
 2195SOL     OW18046   3.636   2.382   2.455  0.0110  0.2370 -0.4187
 2195SOL    HW118047   3.562   2.374   2.515  0.2283 -0.2617 -0.2234
 2195SOL    HW218048   3.623   2.474   2.429 -0.5047  0.1187 -0.5796
 2196SOL     OW18049   3.866   3.661   3.400 -0.2651 -0.0275 -0.1814
 2196SOL    HW118050   3.955   3.637   3.426 -0.0371  1.3334  0.2569
 2196SOL    HW218051   3.884   3.721   3.327 -0.0805  0.8836  0.6231
 2197SOL     OW18052   4.597   0.658   4.543 -0.2892 -0.0885  0.1104
 2197SOL    HW118053   4.676   0.698   4.581  0.3235 -2.3325  1.1922
 2197SOL    HW218054   4.564   0.614   4.621 -1.3057 -0.1248 -0.3495
 2198SOL     OW18055   4.271   1.259   5.477 -0.0256  0.0122 -0.5637
 2198SOL    HW118056   4.204   1.257   5.546 -0.9745  0.4285 -1.4679
 2198SOL    HW218057   4.346   1.287   5.530 -0.0353  1.4939 -1.3232
 2199SOL     OW18058   3.916   1.771   2.633  0.1956  0.4654  0.0596
 2199SOL    HW118059   3.841   1.712   2.633  1.3423 -0.9985  2.0216
 2199SOL    HW218060   3.941   1.761   2.725  1.1291  3.2263  0.1149
 2200SOL     OW18061   0.270   4.421   5.246  0.6188 -0.2278  0.0799
 2200SOL    HW118062   0.178   4.394   5.253 -0.0742  2.5698  1.9452
 2200SOL    HW218063   0.316   4.392   5.325  0.6744  1.7972  0.7934
 2201SOL     OW18064   3.942   4.600   0.937 -0.2993  0.1853  0.0280
 2201SOL    HW118065   3.936   4.684   0.891  0.5304 -0.5439 -1.4199
 2201SOL    HW218066   3.876   4.545   0.894  1.4058 -0.9081 -1.2405
 2202SOL     OW18067   0.978   3.291  13.181 -0.3853  0.0618  0.2239
 2202SOL    HW118068   0.888   3.273  13.154 -0.4698  0.4946  0.2185
 2202SOL    HW218069   0.957   3.328  13.267 -0.6025 -0.4318  0.3868
 2203SOL     OW18070   0.614   4.070   3.479 -0.0729 -0.1449 -0.0216
 2203SOL    HW118071   0.634   4.006   3.546  2.4271  0.1518 -0.4739
 2203SOL    HW218072   0.705   4.089   3.455 -0.0264  0.1688  0.4098
 2204SOL     OW18073   4.641   0.402   7.534 -0.0230  0.0007  0.0652
 2204SOL    HW118074   4.717   0.458   7.519 -0.4465  1.3485  2.7982
 2204SOL    HW218075   4.618   0.409   7.627  1.5907 -0.3642  0.4942
 2205SOL     OW18076   3.156   3.575   2.580 -0.2163  0.5006  0.5608
 2205SOL    HW118077   3.215   3.500   2.592  1.1040  1.1730 -1.6621
 2205SOL    HW218078   3.120   3.563   2.492 -1.5229 -1.7243  1.3983
 2206SOL     OW18079   1.483   0.964  11.985  0.2226  0.1408  0.5496
 2206SOL    HW118080   1.394   0.951  12.016 -0.2545 -2.0631 -1.7427
 2206SOL    HW218081   1.475   0.958  11.890  0.1725  1.6925  0.4512
 2207SOL     OW18082   3.627   1.459  11.256 -0.1932 -0.5089  0.3227
 2207SOL    HW118083   3.558   1.407  11.214  3.0393 -2.8774 -2.0700
 2207SOL    HW218084   3.688   1.387  11.271 -0.8791 -0.8499  1.4515
 2208SOL     OW18085   0.590   4.484  13.935  0.8675  0.1115 -0.2802
 2208SOL    HW118086   0.530   4.416  13.967  2.8122 -1.2399  0.5092
 2208SOL    HW218087   0.550   4.565  13.967 -1.5876 -1.5017  0.7099
 2209SOL     OW18088   2.135   0.656   4.041 -0.7013  0.2242  0.2297
 2209SOL    HW118089   2.162   0.618   3.958  0.6505  2.9335 -0.5757
 2209SOL    HW218090   2.194   0.617   4.105 -2.4183 -0.2747  1.5291
 2210SOL     OW18091   0.201   3.864   3.670  0.4284  0.1538 -0.3239
 2210SOL    HW118092   0.263   3.856   3.742  1.2178  1.6202 -0.8491
 2210SOL    HW218093   0.263   3.883   3.600 -0.2051  4.1999  0.1818
 2211SOL     OW18094   2.229   2.812   4.026  0.1054 -0.2951  0.2795
 2211SOL    HW118095   2.167   2.791   4.096 -0.4908 -1.9050 -0.7465
 2211SOL    HW218096   2.195   2.889   3.980  1.2501 -0.5555 -0.9746
 2212SOL     OW18097   2.682   2.224   4.859 -0.0794  0.5034 -0.5332
 2212SOL    HW118098   2.676   2.133   4.829 -0.7564  0.3729  0.0048
 2212SOL    HW218099   2.726   2.257   4.780  1.7492  0.3910  0.4455
 2213SOL     OW18100   2.968   4.186   9.684  0.3652  0.0241  0.2859
 2213SOL    HW118101   3.061   4.201   9.670  0.6457 -2.2983 -0.3038
 2213SOL    HW218102   2.970   4.202   9.779 -0.4946  0.5513  0.2121
 2214SOL     OW18103   4.366   3.124  16.299  0.4238  0.4945 -0.1612
 2214SOL    HW118104   4.456   3.120  16.331  0.7725  0.3377 -1.1668
 2214SOL    HW218105   4.347   3.035  16.331  2.0030 -0.1875 -1.1574
 2215SOL     OW18106   3.524   2.211   0.256 -0.4427  0.1017 -0.2094
 2215SOL    HW118107   3.448   2.237   0.204  1.2983  2.5917 -1.5027
 2215SOL    HW218108   3.511   2.118   0.276  1.0700 -0.7033 -2.9789
 2216SOL     OW18109   1.951   4.624  16.881 -0.0531  0.0347 -0.0977
 2216SOL    HW118110   1.950   4.583  16.968 -2.2397  0.1557 -0.0753
 2216SOL    HW218111   1.862   4.659  16.879 -0.1516 -0.1285  1.5065
 2217SOL     OW18112   1.162   0.368  12.737 -0.0213 -0.3155  0.5503
 2217SOL    HW118113   1.234   0.313  12.770 -1.3446 -1.5557  1.3600
 2217SOL    HW218114   1.128   0.308  12.670  0.4494 -1.3305  1.2160
 2218SOL     OW18115   1.032   1.555   5.904 -0.1939 -0.0874 -0.2763
 2218SOL    HW118116   0.987   1.478   5.869 -1.0808  0.9547 -1.4321
 2218SOL    HW218117   0.972   1.627   5.882  1.8021  2.4454  2.6369
 2219SOL     OW18118   0.994   2.394   6.730  0.3645 -0.2910 -0.0488
 2219SOL    HW118119   1.083   2.408   6.762 -0.6574  0.7557  2.3534
 2219SOL    HW218120   1.001   2.424   6.640 -0.7247 -1.6055 -0.5754
 2220SOL     OW18121   0.359   0.402  13.161 -0.0589  0.2293 -0.9169
 2220SOL    HW118122   0.354   0.310  13.134  2.1820 -0.5426  1.2637
 2220SOL    HW218123   0.345   0.388  13.255  1.5935 -1.1422 -0.8696
 2221SOL     OW18124   2.219   3.106   9.842  0.0222  0.0566 -0.4489
 2221SOL    HW118125   2.257   3.031   9.796  1.2282  0.5036 -0.1834
 2221SOL    HW218126   2.145   3.123   9.785 -0.8069 -0.4546  0.4671
 2222SOL     OW18127   1.797   0.723   3.294  0.0033  0.0959  0.4536
 2222SOL    HW118128   1.720   0.678   3.330 -1.0681  1.4997 -0.0994
 2222SOL    HW218129   1.803   0.696   3.203 -2.8541 -1.9477  0.8596
 2223SOL     OW18130   4.482   0.806  12.440 -0.1843  0.0570  0.3110
 2223SOL    HW118131   4.464   0.728  12.493 -1.6939 -1.1386 -1.9399
 2223SOL    HW218132   4.547   0.774  12.377 -0.2749  0.5805 -0.0400
 2224SOL     OW18133   0.041   0.583   5.941 -0.0255  0.2538  0.3916
 2224SOL    HW118134   0.104   0.553   6.007  2.0695  0.3868 -1.5508
 2224SOL    HW218135   4.712   0.503   5.931  0.9239 -0.3148 -0.0723
 2225SOL     OW18136   4.675   1.845  15.860  0.0170 -0.4259 -0.1706
 2225SOL    HW118137   0.031   1.885  15.824  0.4995 -0.8587  0.4079
 2225SOL    HW218138   4.606   1.903  15.828 -0.9431 -1.5146 -0.0940
 2226SOL     OW18139   3.411   3.045  11.132  0.2966  0.7588  0.6597
 2226SOL    HW118140   3.479   3.074  11.070  0.8115 -0.4049  0.6663
 2226SOL    HW218141   3.339   3.064  11.072 -1.6103  1.2829  3.0971
 2227SOL     OW18142   2.963   1.817   0.459 -0.3606 -0.0777 -0.2501
 2227SOL    HW118143   2.890   1.853   0.508 -0.1467  1.3825 -1.0125
 2227SOL    HW218144   3.006   1.768   0.529  0.2908 -0.7462 -1.1286
 2228SOL     OW18145   4.326   3.090   5.704  0.4152 -0.3150 -0.1014
 2228SOL    HW118146   4.232   3.105   5.713 -0.1971 -3.4982 -1.3336
 2228SOL    HW218147   4.347   3.014   5.758  0.3365  1.1213  1.9509
 2229SOL     OW18148   2.608   3.594   5.280 -0.7888  0.7753 -0.0857
 2229SOL    HW118149   2.686   3.640   5.249 -0.2116 -1.1454 -1.4890
 2229SOL    HW218150   2.608   3.523   5.216 -0.5590 -1.1148  2.0207
 2230SOL     OW18151   3.900   1.889   9.982 -0.4950 -0.3146 -0.5216
 2230SOL    HW118152   3.838   1.935   9.924 -1.6383 -0.6946  0.3928
 2230SOL    HW218153   3.898   1.953  10.053  0.6607 -3.6830  2.5472
 2231SOL     OW18154   0.471   0.676   3.989 -0.0485 -0.4254  0.2793
 2231SOL    HW118155   0.419   0.729   4.049 -0.9940 -1.3876  0.3010
 2231SOL    HW218156   0.528   0.619   4.042 -1.5609 -1.9015  0.3166
 2232SOL     OW18157   3.110   3.915  10.531 -0.3840 -0.1444  0.2818
 2232SOL    HW118158   3.190   3.864  10.519 -0.3069  0.5368 -1.9909
 2232SOL    HW218159   3.113   3.919  10.627 -0.7620  1.5432  0.2234
 2233SOL     OW18160   4.386   4.352   6.622 -0.4616 -0.1875 -0.3423
 2233SOL    HW118161   4.396   4.447   6.621  2.8750 -0.5461  0.7672
 2233SOL    HW218162   4.412   4.331   6.533 -1.1457 -0.1845 -0.5434
 2234SOL     OW18163   3.194   2.947   3.316 -0.4472 -0.3545 -0.4186
 2234SOL    HW118164   3.219   2.871   3.262 -1.0340 -0.8267 -0.0342
 2234SOL    HW218165   3.107   2.928   3.351  0.7064 -0.1726  2.5466
 2235SOL     OW18166   2.146   2.258   3.695  0.0131  0.0503  0.3186
 2235SOL    HW118167   2.093   2.192   3.739 -2.9889  1.7098 -0.8459
 2235SOL    HW218168   2.077   2.312   3.656  0.4228 -0.2064 -0.7596
 2236SOL     OW18169   3.719   2.979  14.441  0.2007  0.0902 -0.4170
 2236SOL    HW118170   3.748   2.976  14.532  0.0824 -0.2431 -0.3876
 2236SOL    HW218171   3.756   3.064  14.421 -2.7486  1.3112 -0.7265
 2237SOL     OW18172   3.951   2.458   6.760 -0.6964 -0.1373 -1.0431
 2237SOL    HW118173   3.862   2.484   6.784 -0.4969  0.6965 -1.2165
 2237SOL    HW218174   3.951   2.369   6.795 -0.6856  1.1012  2.0838
 2238SOL     OW18175   1.738   4.176   2.691  0.3658  0.6975 -0.3228
 2238SOL    HW118176   1.661   4.226   2.721 -0.8453 -0.9971 -0.6365
 2238SOL    HW218177   1.798   4.194   2.763  1.8984 -2.1188 -0.9015
 2239SOL     OW18178   1.728   1.425  10.879  0.4227  0.4419 -0.1698
 2239SOL    HW118179   1.786   1.376  10.822  1.8731  0.4621  1.2969
 2239SOL    HW218180   1.667   1.477  10.827 -0.8586 -0.0386  0.8451
 2240SOL     OW18181   3.357   3.521  13.264  0.1389 -0.3782 -0.1130
 2240SOL    HW118182   3.362   3.588  13.332  1.9765 -0.2888 -0.3353
 2240SOL    HW218183   3.423   3.464  13.305  1.2159  1.7831  1.1331
 2241SOL     OW18184   1.653   3.302  13.700  0.2899 -0.0314  0.4603
 2241SOL    HW118185   1.675   3.353  13.622 -0.5628  1.4511  1.2009
 2241SOL    HW218186   1.564   3.269  13.693  0.1104  0.1737  1.7013
 2242SOL     OW18187   3.731   3.093   5.706 -0.5015  0.4538  0.8202
 2242SOL    HW118188   3.669   3.086   5.778  0.1987  1.6514  1.5424
 2242SOL    HW218189   3.715   3.179   5.667  2.3194  0.3378 -0.6315
 2243SOL     OW18190   2.490   0.136   2.511  0.2296  0.6677  0.3006
 2243SOL    HW118191   2.557   0.071   2.491  0.6025  1.4820 -1.0767
 2243SOL    HW218192   2.536   0.188   2.577  0.4172 -0.6195  1.1881
 2244SOL     OW18193   2.546   0.173  15.848  0.4299  0.4077  0.2772
 2244SOL    HW118194   2.457   0.176  15.884 -0.1772  0.0402 -1.1818
 2244SOL    HW218195   2.529   0.246  15.789 -0.2788  0.1759  0.1896
 2245SOL     OW18196   0.306   1.529   8.101  0.3745 -0.1899  0.1846
 2245SOL    HW118197   0.253   1.452   8.120 -0.2799  0.5374  1.2840
 2245SOL    HW218198   0.320   1.524   8.006 -0.4545  0.2956  0.0304
 2246SOL     OW18199   4.616   1.916   8.528  0.2274 -0.4830 -0.2607
 2246SOL    HW118200   4.652   1.830   8.504 -0.8147 -0.6019 -1.3620
 2246SOL    HW218201   4.675   1.938   8.601  1.2031  1.2610 -1.5712
 2247SOL     OW18202   4.213   3.766   6.378  0.4562  0.3586  0.2278
 2247SOL    HW118203   4.272   3.707   6.425 -1.9020 -0.5473  2.0449
 2247SOL    HW218204   4.209   3.846   6.431 -1.5690  0.5231 -0.2076
 2248SOL     OW18205   1.681   1.793  15.053 -0.0100 -0.0301 -0.2708
 2248SOL    HW118206   1.736   1.805  14.975  2.8049  1.1199  1.8909
 2248SOL    HW218207   1.648   1.883  15.047  1.4599  0.4275 -1.6471
 2249SOL     OW18208   4.389   0.220  14.533  0.4948 -0.0871 -0.1905
 2249SOL    HW118209   4.424   0.179  14.455  1.4105  1.4065 -0.5791
 2249SOL    HW218210   4.456   0.218  14.602 -0.4284  0.3225  0.7134
 2250SOL     OW18211   4.720   2.915   0.642  0.2580  0.1363  0.0195
 2250SOL    HW118212   0.066   2.893   0.579 -0.1908  0.1193 -0.4656
 2250SOL    HW218213   0.006   2.841   0.703 -0.9192 -0.4093 -0.4670
 2251SOL     OW18214   3.057   4.202   3.573  0.5624  0.2100 -0.3521
 2251SOL    HW118215   3.122   4.239   3.633  0.4498  0.2447 -0.2521
 2251SOL    HW218216   3.111   4.170   3.501  3.5158 -0.9344  2.3726
 2252SOL     OW18217   0.570   3.427   3.998 -0.0065 -0.0744  0.3959
 2252SOL    HW118218   0.539   3.438   3.908  1.7396  0.5700 -0.1256
 2252SOL    HW218219   0.500   3.445   4.060 -0.3278  1.5706 -0.4564
 2253SOL     OW18220   4.305   2.309   0.947  0.3317  0.0800  0.4601
 2253SOL    HW118221   4.347   2.386   0.907  0.6748  0.2127  1.0702
 2253SOL    HW218222   4.349   2.239   0.899 -1.9230 -1.2151  0.2837
 2254SOL     OW18223   2.179   4.524   3.709 -0.6695  0.0638 -0.2062
 2254SOL    HW118224   2.165   4.610   3.750  0.2092  0.3153 -0.4436
 2254SOL    HW218225   2.149   4.542   3.620 -0.5521  1.1690 -0.0247
 2255SOL     OW18226   4.110   1.541  13.814  0.5453 -0.0365 -0.1347
 2255SOL    HW118227   4.169   1.543  13.890  0.5431 -1.4779 -0.0974
 2255SOL    HW218228   4.163   1.480  13.763 -2.5172 -2.4800 -0.3673
 2256SOL     OW18229   2.273   3.672  11.091  0.2833 -0.1784  0.5603
 2256SOL    HW118230   2.262   3.736  11.161  3.8110  1.9387 -0.8135
 2256SOL    HW218231   2.189   3.685  11.046  0.5637 -2.6308 -0.6904
 2257SOL     OW18232   3.845   3.244  12.536 -0.0528  0.1057  0.4137
 2257SOL    HW118233   3.859   3.261  12.442 -0.9129  1.4279  0.5233
 2257SOL    HW218234   3.929   3.202  12.554 -1.1589 -2.0929  0.4059
 2258SOL     OW18235   4.495   4.294   2.027 -0.3033 -0.2653  0.3163
 2258SOL    HW118236   4.446   4.312   1.947  0.7297 -0.3432 -0.3394
 2258SOL    HW218237   4.521   4.204   2.009  1.2838  0.2622 -0.0604
 2259SOL     OW18238   0.348   3.339   0.006 -0.1851  0.3137  0.2848
 2259SOL    HW118239   0.379   3.278  17.632 -3.0131 -1.5177  0.6436
 2259SOL    HW218240   0.429   3.333   0.058  0.4176 -0.4813 -0.7327
 2260SOL     OW18241   2.362   3.106   4.241 -0.2504  0.1563 -0.4306
 2260SOL    HW118242   2.280   3.130   4.284  0.4235  3.2423 -0.8834
 2260SOL    HW218243   2.427   3.093   4.310 -0.9147  0.0471  0.1775
 2261SOL     OW18244   4.045   3.512   2.683  0.1038 -0.1419 -0.5102
 2261SOL    HW118245   4.122   3.456   2.685  1.2476  1.4589 -0.3632
 2261SOL    HW218246   3.980   3.449   2.716 -0.9668  1.3245  0.1567
 2262SOL     OW18247   4.268   4.031   3.904  0.2587 -0.3335 -0.5478
 2262SOL    HW118248   4.303   4.118   3.926  1.1914 -0.8255 -0.0816
 2262SOL    HW218249   4.175   4.044   3.925  0.9567 -0.0671  2.4566
 2263SOL     OW18250   3.041   1.042   5.209  0.5407 -0.1484 -0.0550
 2263SOL    HW118251   3.132   1.039   5.237  0.8215  1.1078 -0.8338
 2263SOL    HW218252   3.009   1.056   5.298 -0.0593  0.2788 -0.3322
 2264SOL     OW18253   1.584   1.134   3.889 -0.6121  0.8260 -0.4469
 2264SOL    HW118254   1.673   1.115   3.860 -1.6931 -1.5015 -2.1856
 2264SOL    HW218255   1.523   1.064   3.866 -3.4827  2.6130  1.7504
 2265SOL     OW18256   0.772   0.108   3.997  0.8197  0.1858  0.4611
 2265SOL    HW118257   0.728   0.033   4.037 -0.0320 -0.4596 -1.6640
 2265SOL    HW218258   0.865   0.087   3.992  0.5321 -0.9486 -0.1940
 2266SOL     OW18259   4.021   0.144   8.583  0.1019  0.5222  0.0080
 2266SOL    HW118260   4.074   0.075   8.544  1.3859  1.1887  0.5848
 2266SOL    HW218261   4.025   0.119   8.675  0.3372 -0.8427 -0.3717
 2267SOL     OW18262   0.167   0.514  14.815 -0.3342  0.1096 -0.3276
 2267SOL    HW118263   0.127   0.559  14.740 -0.1846 -0.1184 -0.5412
 2267SOL    HW218264   0.259   0.541  14.815 -0.0650 -0.8100 -0.9319
 2268SOL     OW18265   2.705   0.440   0.182 -0.3522 -0.0215 -0.3695
 2268SOL    HW118266   2.666   0.516   0.226 -2.3824 -1.0212 -0.4179
 2268SOL    HW218267   2.626   0.386   0.186 -0.3329 -0.1229 -1.3434
 2269SOL     OW18268   0.441   4.576   8.827  0.4874 -0.3079  0.0032
 2269SOL    HW118269   0.502   4.548   8.758 -0.1869 -1.9630  0.0851
 2269SOL    HW218270   0.442   4.504   8.889  1.2379 -0.0353  0.3156
 2270SOL     OW18271   4.285   2.519   2.951  0.1198 -0.1832  0.0693
 2270SOL    HW118272   4.312   2.610   2.933 -1.0745  0.1128 -0.1798
 2270SOL    HW218273   4.358   2.484   3.003  0.1652  0.5045  0.4810
 2271SOL     OW18274   0.775   4.064   9.645  0.3162 -0.0998 -0.3606
 2271SOL    HW118275   0.818   4.059   9.730  1.2570 -0.1749 -0.8312
 2271SOL    HW218276   0.725   4.143   9.668  0.1606 -0.2349 -0.2426
 2272SOL     OW18277   3.185   2.337   9.312 -0.2485 -0.2268 -0.2360
 2272SOL    HW118278   3.142   2.270   9.366 -0.8610  0.2546 -0.1282
 2272SOL    HW218279   3.109   2.390   9.288 -1.2560 -0.8362  1.5938
 2273SOL     OW18280   1.924   1.460   5.568  0.2988  0.6502 -0.3090
 2273SOL    HW118281   1.856   1.486   5.630 -0.4130 -0.8142 -0.4704
 2273SOL    HW218282   1.877   1.390   5.522  0.0941  1.8746 -1.9728
 2274SOL     OW18283   3.667   2.387   5.570 -0.2508  0.8125 -0.0878
 2274SOL    HW118284   3.640   2.471   5.532  1.1105  1.1574 -0.2982
 2274SOL    HW218285   3.598   2.331   5.536 -0.3416  0.0432  1.3667
 2275SOL     OW18286   1.972   4.012   6.902  0.0998  0.1054  0.7238
 2275SOL    HW118287   1.901   4.070   6.875  0.4325  0.2040  0.0573
 2275SOL    HW218288   1.928   3.968   6.975  1.8098 -1.0181  1.0959
 2276SOL     OW18289   0.532   2.049   0.401 -0.3067 -0.2476 -0.2800
 2276SOL    HW118290   0.529   2.052   0.306 -2.6651 -0.0635 -0.2037
 2276SOL    HW218291   0.626   2.062   0.410  0.0151 -0.1451 -4.0218
 2277SOL     OW18292   3.379   1.794   4.928 -0.4350 -0.2214  0.3802
 2277SOL    HW118293   3.339   1.790   5.014 -1.7356 -2.0514 -0.3149
 2277SOL    HW218294   3.300   1.808   4.875 -0.6452 -0.1393  0.7156
 2278SOL     OW18295   2.308   3.845   9.903  0.2369 -0.5118  0.3407
 2278SOL    HW118296   2.268   3.834   9.989 -2.0647  0.6213 -0.5784
 2278SOL    HW218297   2.252   3.904   9.852  1.9070 -0.0155 -0.9280
 2279SOL     OW18298   2.640   2.216   5.493  0.1952 -0.3211  0.3176
 2279SOL    HW118299   2.658   2.185   5.582  0.6751  0.6273  0.5506
 2279SOL    HW218300   2.549   2.192   5.474  1.5919 -2.9243 -3.0974
 2280SOL     OW18301   0.428   1.481  12.183 -0.0279 -0.5866 -0.4077
 2280SOL    HW118302   0.442   1.468  12.089  2.9337  0.8609 -0.1818
 2280SOL    HW218303   0.341   1.446  12.200 -0.7495  2.3663  1.8361
 2281SOL     OW18304   4.458   0.823   4.340  0.7809  0.4334  0.1806
 2281SOL    HW118305   4.496   0.764   4.405 -1.6496  0.9921  2.1353
 2281SOL    HW218306   4.464   0.909   4.382  2.7071  1.0392 -1.3424
 2282SOL     OW18307   0.682   0.586  16.731 -0.8882  0.3199 -0.5772
 2282SOL    HW118308   0.755   0.571  16.672 -0.6199 -1.0548  0.0990
 2282SOL    HW218309   0.725   0.582  16.817 -1.1285 -0.6059 -0.4986
 2283SOL     OW18310   3.512   2.729  11.011  0.6085 -0.0717 -0.4119
 2283SOL    HW118311   3.507   2.633  11.011  0.8207 -0.0745  2.3443
 2283SOL    HW218312   3.539   2.740  11.102  2.5621 -0.7084 -0.9215
 2284SOL     OW18313   3.105   1.497   4.299  0.1110  0.2437  0.5956
 2284SOL    HW118314   3.097   1.467   4.209  1.0295 -0.4289  0.7382
 2284SOL    HW218315   3.163   1.573   4.304  0.6264 -0.0906 -0.4667
 2285SOL     OW18316   4.051   3.118   7.180 -0.1210  0.2478  0.5162
 2285SOL    HW118317   3.970   3.156   7.146 -0.6231  0.0024  1.4387
 2285SOL    HW218318   4.021   3.029   7.195 -0.2461 -0.0139 -1.3388
 2286SOL     OW18319   2.636   1.881   8.126  0.1764  0.2048  1.1042
 2286SOL    HW118320   2.652   1.906   8.217  0.7880  1.9291  0.5162
 2286SOL    HW218321   2.630   1.787   8.142  0.3879  0.3103  1.7725
 2287SOL     OW18322   3.694   0.334   4.414 -0.6658  0.1464  0.1257
 2287SOL    HW118323   3.658   0.388   4.344 -0.9263 -0.6954 -0.3851
 2287SOL    HW218324   3.736   0.269   4.357  1.2936  2.2374 -0.8195
 2288SOL     OW18325   2.604   1.480   5.554  0.0661 -0.4163 -0.0414
 2288SOL    HW118326   2.571   1.505   5.640 -0.8900 -0.6826 -0.3299
 2288SOL    HW218327   2.547   1.406   5.531  0.8727 -1.1325  0.2955
 2289SOL     OW18328   0.667   4.479   8.493 -0.2435  0.3615  0.3092
 2289SOL    HW118329   0.702   4.531   8.565  0.5342 -0.5007  0.5502
 2289SOL    HW218330   0.594   4.529   8.457 -0.9923 -0.8245  0.1770
 2290SOL     OW18331   1.176   2.594   3.353  0.5491  0.4509  0.2561
 2290SOL    HW118332   1.170   2.578   3.259  1.1711 -0.3773  0.3549
 2290SOL    HW218333   1.224   2.676   3.364 -1.3624  1.4445  1.1276
 2291SOL     OW18334   4.465   2.538  15.993 -0.0238 -0.4333 -0.4100
 2291SOL    HW118335   4.512   2.586  15.925  1.2431 -0.7084  0.2632
 2291SOL    HW218336   4.433   2.594  16.064 -0.9468  0.0342 -1.2006
 2292SOL     OW18337   2.276   2.718   2.456  0.2151 -0.2044  0.0504
 2292SOL    HW118338   2.203   2.663   2.430 -0.1045  0.3190 -0.1468
 2292SOL    HW218339   2.240   2.807   2.452 -0.8379 -0.6589 -0.4098
 2293SOL     OW18340   2.285   1.600  11.711  0.3611 -0.3798  0.5964
 2293SOL    HW118341   2.281   1.573  11.619 -0.5566  2.3213 -0.1767
 2293SOL    HW218342   2.251   1.689  11.697  2.9853  0.7930  1.5705
 2294SOL     OW18343   3.706   2.219   4.109  0.6963 -0.7947 -0.0059
 2294SOL    HW118344   3.623   2.192   4.070  1.1478 -2.2328  0.0341
 2294SOL    HW218345   3.737   2.130   4.123 -0.2379 -1.0899  0.1594
 2295SOL     OW18346   0.607   3.907   3.876  0.3244 -0.3348  0.0164
 2295SOL    HW118347   0.614   3.842   3.805  2.0848  0.5998 -0.6657
 2295SOL    HW218348   0.525   3.886   3.921 -0.0125  0.0785 -0.4057
 2296SOL     OW18349   0.669   4.139   4.628  0.0149 -0.3055  0.1501
 2296SOL    HW118350   0.626   4.130   4.713  0.9985  0.0220  0.6814
 2296SOL    HW218351   0.639   4.225   4.600  3.4593  0.3631 -1.4714
 2297SOL     OW18352   1.117   0.226   2.917 -0.6412  0.0810 -0.1567
 2297SOL    HW118353   1.147   0.182   2.838  1.3701 -1.3647  1.4107
 2297SOL    HW218354   1.050   0.164   2.946  1.2914 -1.7465  0.3486
 2298SOL     OW18355   4.319   3.973  14.515 -0.8090 -0.3161  0.0283
 2298SOL    HW118356   4.270   3.963  14.433  2.2854 -1.0124 -1.7481
 2298SOL    HW218357   4.335   3.880  14.531  2.3459  0.4717  1.3292
 2299SOL     OW18358   3.734   4.073   5.622 -0.2649 -0.0789 -0.2145
 2299SOL    HW118359   3.754   4.155   5.666 -1.2578 -0.2891  0.6340
 2299SOL    HW218360   3.693   4.021   5.691 -0.8404 -1.7455 -1.8142
 2300SOL     OW18361   1.387   0.338   1.938  0.6006 -0.2150  0.8133
 2300SOL    HW118362   1.309   0.282   1.939  1.0105 -0.7786  1.7675
 2300SOL    HW218363   1.377   0.388   1.857  2.4546  0.3240  0.9194
 2301SOL     OW18364   1.620   3.723   3.638  0.7763  0.5650  0.0072
 2301SOL    HW118365   1.623   3.714   3.543  0.1713  2.5444 -0.2112
 2301SOL    HW218366   1.569   3.645   3.658  1.4419 -0.1313 -1.0108
 2302SOL     OW18367   3.478   3.781   1.465 -0.1086  0.1601 -0.8218
 2302SOL    HW118368   3.476   3.822   1.552  2.0795 -1.0926 -0.1807
 2302SOL    HW218369   3.430   3.849   1.418 -0.9192 -1.7553 -2.7477
 2303SOL     OW18370   4.479   2.089   0.043  0.1743  0.5016 -0.3226
 2303SOL    HW118371   4.480   2.034   0.122  2.5994  2.0082  0.6830
 2303SOL    HW218372   4.493   2.173   0.087  1.7504  0.3709 -0.5617
 2304SOL     OW18373   2.000   1.598   8.379  0.9969  0.1072 -0.4383
 2304SOL    HW118374   2.035   1.686   8.369 -0.0116  0.6523  0.7527
 2304SOL    HW218375   2.064   1.553   8.324 -0.0360 -3.7411  1.4749
 2305SOL     OW18376   3.619   2.265  11.252 -0.0811  0.2417 -0.0574
 2305SOL    HW118377   3.598   2.273  11.160  1.2724 -0.7258 -0.4543
 2305SOL    HW218378   3.551   2.208  11.288 -0.0827  0.5932  0.5056
 2306SOL     OW18379   0.939   2.888  11.258  0.3233 -0.2818  0.3090
 2306SOL    HW118380   0.996   2.812  11.244 -0.5813 -0.2842 -3.4116
 2306SOL    HW218381   1.010   2.952  11.267 -0.2661  0.2657  1.0495
 2307SOL     OW18382   0.506   3.124   4.035 -0.3053 -0.0060 -0.4065
 2307SOL    HW118383   0.573   3.160   4.093  1.2101 -1.6012 -1.1709
 2307SOL    HW218384   0.471   3.200   3.990  0.1800  1.0079  0.9313
 2308SOL     OW18385   3.664   0.088   7.687 -0.2375  0.0865 -0.2161
 2308SOL    HW118386   3.607   0.164   7.691 -1.0169 -0.4402 -1.2731
 2308SOL    HW218387   3.615   0.026   7.741 -0.4526  0.9409  0.5560
 2309SOL     OW18388   1.979   0.973  17.414  0.5025  0.2878  0.4480
 2309SOL    HW118389   1.893   0.953  17.452  1.0213 -2.1878  0.3082
 2309SOL    HW218390   2.027   0.939  17.490  0.2824  0.8646  0.8426
 2310SOL     OW18391   3.814   1.253  12.756 -0.0534  0.5588  0.0783
 2310SOL    HW118392   3.737   1.211  12.717  1.4686 -1.2083 -1.0392
 2310SOL    HW218393   3.863   1.284  12.679 -1.1609  0.3520 -0.7173
 2311SOL     OW18394   3.513   4.142   2.532  0.4879 -0.6926 -0.3144
 2311SOL    HW118395   3.421   4.157   2.511  0.4180 -0.1093  0.4160
 2311SOL    HW218396   3.500   4.082   2.605  0.2299  0.8857  0.9297
 2312SOL     OW18397   4.442   4.576  13.618 -0.6064 -0.5549  0.3234
 2312SOL    HW118398   4.387   4.593  13.542 -0.9793 -1.4495  0.3897
 2312SOL    HW218399   4.496   4.503  13.589  1.4367  1.1746 -0.2077
 2313SOL     OW18400   3.870   3.994  11.039 -0.2100 -0.8138 -0.4016
 2313SOL    HW118401   3.849   3.931  10.970  1.2556 -1.2147 -0.4728
 2313SOL    HW218402   3.957   4.029  11.018 -1.9840  4.3015  0.7781
 2314SOL     OW18403   0.910   3.490   5.710  0.1504 -0.1030  0.8891
 2314SOL    HW118404   0.904   3.546   5.633  0.2663  0.2371  1.1279
 2314SOL    HW218405   0.830   3.436   5.709  1.0109 -1.3926  1.2150
 2315SOL     OW18406   3.952   1.160   0.004  0.1292 -0.0575 -0.5553
 2315SOL    HW118407   3.992   1.198  17.620 -0.5043  0.1879 -0.7647
 2315SOL    HW218408   3.903   1.084  17.667 -1.2514  1.4082 -2.0453
 2316SOL     OW18409   4.231   1.329  14.253  0.2870 -0.0784 -0.0580
 2316SOL    HW118410   4.287   1.292  14.322  0.0005  1.3175  0.9074
 2316SOL    HW218411   4.154   1.274  14.267 -0.1940  0.3641 -1.0358
 2317SOL     OW18412   1.123   2.127   5.428  0.3731  0.2047 -0.1082
 2317SOL    HW118413   1.123   2.135   5.523  2.0578  1.6199 -0.2412
 2317SOL    HW218414   1.214   2.107   5.403  0.5020  1.1881 -0.3991
 2318SOL     OW18415   3.307   3.970   5.459  0.3269 -0.0182 -0.2182
 2318SOL    HW118416   3.220   3.972   5.420 -0.6545  1.9792  2.0372
 2318SOL    HW218417   3.318   4.063   5.480  2.4392 -0.8846  2.5884
 2319SOL     OW18418   0.024   3.075   3.613  0.2601  0.1209  0.1325
 2319SOL    HW118419   0.115   3.057   3.635  0.6043 -0.2701 -1.5767
 2319SOL    HW218420   0.038   3.134   3.539 -0.7951 -1.7009 -1.5341
 2320SOL     OW18421   1.603   4.337   7.097  0.2920  0.1411  0.5725
 2320SOL    HW118422   1.531   4.301   7.148 -1.0475 -0.8504 -1.9910
 2320SOL    HW218423   1.669   4.279   7.135  1.5388  0.8579 -0.4687
 2321SOL     OW18424   0.121   4.261   3.938 -0.2434  0.4474  0.0373
 2321SOL    HW118425   0.074   4.179   3.924 -1.1244  0.7663  1.1454
 2321SOL    HW218426   0.190   4.259   3.871 -0.3589  0.0377 -0.0657
 2322SOL     OW18427   0.456   0.966   2.796 -0.2083 -0.1197  0.5359
 2322SOL    HW118428   0.529   1.022   2.772 -1.7517  2.5986  2.1325
 2322SOL    HW218429   0.389   1.014   2.845 -1.7656 -0.4397 -1.2801
 2323SOL     OW18430   2.747   3.885   2.657  0.0874 -0.1355 -0.5344
 2323SOL    HW118431   2.656   3.865   2.634 -0.8233  2.4516  0.7286
 2323SOL    HW218432   2.747   3.977   2.686 -0.1161  0.1556 -1.4536
 2324SOL     OW18433   1.420   0.949   3.007  0.8616 -0.1714  0.3318
 2324SOL    HW118434   1.423   0.972   2.914 -1.0533  0.0768  0.3338
 2324SOL    HW218435   1.361   0.874   3.009 -0.8935  1.1716 -1.4725
 2325SOL     OW18436   1.407   3.564  16.768  0.0894  0.4445 -0.7981
 2325SOL    HW118437   1.401   3.489  16.828 -0.2750  1.1577  0.0496
 2325SOL    HW218438   1.330   3.549  16.712  0.9258 -0.6231 -1.6609
 2326SOL     OW18439   1.814   2.609   7.837  0.0883 -0.7907  0.3710
 2326SOL    HW118440   1.829   2.575   7.749  3.4531  0.8804  0.3180
 2326SOL    HW218441   1.724   2.577   7.850 -0.4205  0.3341 -0.4842
 2327SOL     OW18442   3.115   2.062  11.438 -0.3381 -0.0880  0.3366
 2327SOL    HW118443   3.066   2.116  11.500 -1.1151 -0.0847 -0.2684
 2327SOL    HW218444   3.171   2.003  11.488  0.6945 -0.2393 -1.0059
 2328SOL     OW18445   3.441   4.026   3.154  0.5510 -0.0813 -0.3741
 2328SOL    HW118446   3.489   4.108   3.164  0.9020 -0.1759 -1.3234
 2328SOL    HW218447   3.422   4.019   3.061  0.9351 -0.1492 -0.4481
 2329SOL     OW18448   2.250   3.392  14.308 -0.5068  0.4882 -0.1852
 2329SOL    HW118449   2.294   3.405  14.392 -2.0975 -2.7044  1.1255
 2329SOL    HW218450   2.271   3.478  14.271 -0.9210  1.5091  1.9330
 2330SOL     OW18451   4.591   2.655  14.307 -0.1792 -0.2637  0.0675
 2330SOL    HW118452   4.682   2.681  14.290 -0.3080  1.4014  1.9980
 2330SOL    HW218453   4.543   2.733  14.282  2.2512  2.0497  2.6949
 2331SOL     OW18454   1.376   2.005   4.921  0.3731 -0.3723  0.3680
 2331SOL    HW118455   1.310   2.073   4.937  1.1933  0.6827 -0.8153
 2331SOL    HW218456   1.439   2.014   4.992 -1.3414 -1.3357  2.0201
 2332SOL     OW18457   4.165   2.436   4.479 -0.4812 -0.4365  0.1831
 2332SOL    HW118458   4.128   2.473   4.559 -0.5330 -1.5595  0.6651
 2332SOL    HW218459   4.116   2.488   4.414 -0.2241 -2.9720 -2.0161
 2333SOL     OW18460   4.658   4.589   5.834  0.1529  0.2089  0.3096
 2333SOL    HW118461   4.692   4.513   5.788  2.2779  1.3234  0.0152
 2333SOL    HW218462   4.613   4.540   5.903 -1.6407 -0.3576 -1.2506
 2334SOL     OW18463   3.222   0.830   0.273 -0.1490 -0.3990 -0.1847
 2334SOL    HW118464   3.255   0.785   0.196 -1.2601 -2.3136  0.4663
 2334SOL    HW218465   3.202   0.757   0.332 -1.0991  0.4063  0.4846
 2335SOL     OW18466   1.523   2.096   3.693 -0.0516  0.5881  0.0366
 2335SOL    HW118467   1.608   2.131   3.721 -1.0688  2.6365  0.5667
 2335SOL    HW218468   1.515   2.146   3.612 -2.0086  1.7665  0.9694
 2336SOL     OW18469   0.454   3.961   1.996  0.2249 -0.1788 -0.2977
 2336SOL    HW118470   0.539   3.921   2.015 -1.6706 -2.9042  2.5147
 2336SOL    HW218471   0.484   4.048   2.020 -1.6646 -0.0034  1.3344
 2337SOL     OW18472   3.764   2.869   4.983 -0.5776 -0.4273 -0.1309
 2337SOL    HW118473   3.825   2.934   5.017 -2.4235  1.1612  0.1474
 2337SOL    HW218474   3.679   2.899   5.016  0.1822  1.5287  0.0751
 2338SOL     OW18475   4.690   2.444   2.497 -0.3284 -1.1442  0.3513
 2338SOL    HW118476   4.631   2.492   2.555  0.0453 -1.2767  0.8451
 2338SOL    HW218477   4.649   2.441   2.411  0.5036  0.0454 -0.0899
 2339SOL     OW18478   1.047   1.113   3.723 -0.2004  0.3779 -0.3127
 2339SOL    HW118479   1.014   1.133   3.635 -1.6290  1.2339  0.4134
 2339SOL    HW218480   0.971   1.145   3.772  0.7105 -0.7457  1.8011
 2340SOL     OW18481   1.493   3.991   3.701 -0.1804  0.2230 -0.9099
 2340SOL    HW118482   1.514   3.903   3.670 -0.9367  0.0476 -0.9284
 2340SOL    HW218483   1.543   4.041   3.637 -1.5334  2.0636 -0.5275
 2341SOL     OW18484   3.829   1.453   4.246 -0.1263 -0.2508 -0.0179
 2341SOL    HW118485   3.851   1.546   4.244 -1.4297  0.0705  0.6236
 2341SOL    HW218486   3.865   1.415   4.165  1.2973 -0.7568  0.8571
 2342SOL     OW18487   1.243   2.520   6.808  0.1715  0.5255 -0.7608
 2342SOL    HW118488   1.201   2.602   6.784  1.4415  0.3154 -3.7500
 2342SOL    HW218489   1.317   2.512   6.747  0.6761 -0.4611 -0.0350
 2343SOL     OW18490   3.297   3.541   3.104  0.3018 -0.0064  0.1326
 2343SOL    HW118491   3.289   3.603   3.031 -1.4330  0.8429  1.0403
 2343SOL    HW218492   3.251   3.464   3.071 -1.3119  0.2625  1.7759
 2344SOL     OW18493   0.333   0.758   2.140  0.3553 -0.3886 -0.1531
 2344SOL    HW118494   0.254   0.715   2.109 -0.1043 -0.3466  0.9419
 2344SOL    HW218495   0.289   0.835   2.176  1.9543 -0.1260  1.2740
 2345SOL     OW18496   1.847   0.941  10.778  0.3559  0.1305 -0.3243
 2345SOL    HW118497   1.833   0.860  10.827  0.0744  0.5182  0.2337
 2345SOL    HW218498   1.935   0.933  10.741  0.5612  0.0475  0.1856
 2346SOL     OW18499   2.728   1.862   2.638  0.3896  0.1331  0.3765
 2346SOL    HW118500   2.742   1.952   2.606 -1.2825  0.1361 -0.3384
 2346SOL    HW218501   2.637   1.865   2.667  0.3783 -1.6357  0.5213
 2347SOL     OW18502   1.703   0.019   9.105 -0.1425 -0.3230 -0.2651
 2347SOL    HW118503   1.796   0.013   9.127  0.1782 -5.7605 -3.2793
 2347SOL    HW218504   1.701   0.104   9.060 -0.3811  1.3933  2.9462
 2348SOL     OW18505   3.813   1.103   2.180  0.0401  0.3147 -0.6982
 2348SOL    HW118506   3.809   1.042   2.107 -0.1400 -2.2648  1.4650
 2348SOL    HW218507   3.723   1.134   2.175 -0.2957  0.1883  4.7871
 2349SOL     OW18508   1.989   2.181  12.728  0.3774  0.1741 -0.5796
 2349SOL    HW118509   2.001   2.110  12.664  1.3610 -0.4595  0.3096
 2349SOL    HW218510   2.007   2.125  12.803 -0.7790 -1.8772 -1.8241
 2350SOL     OW18511   2.736   1.124   6.734  0.5812  0.4268 -0.0889
 2350SOL    HW118512   2.678   1.061   6.691 -0.4538  0.8646  0.6538
 2350SOL    HW218513   2.675   1.176   6.786 -1.4046  0.0795 -2.0635
 2351SOL     OW18514   1.342   2.752   0.019 -0.2809  0.7333 -0.3498
 2351SOL    HW118515   1.264   2.702   0.044  0.2216  0.3885  0.5455
 2351SOL    HW218516   1.308   2.830  17.669 -0.4451  1.3103  0.7815
 2352SOL     OW18517   3.698   2.537   6.790  0.0874  0.1583  0.6540
 2352SOL    HW118518   3.662   2.506   6.873  0.0052 -1.0450  0.1697
 2352SOL    HW218519   3.621   2.529   6.733 -1.1560  1.9744  2.0791
 2353SOL     OW18520   1.138   0.279   1.734  0.2116  0.3648 -0.1466
 2353SOL    HW118521   1.051   0.275   1.693  0.0437  0.8716  0.1498
 2353SOL    HW218522   1.193   0.231   1.673  1.1722  1.3966 -0.1025
 2354SOL     OW18523   0.018   3.037   6.925 -0.2292  0.2463  0.5481
 2354SOL    HW118524   0.065   3.043   6.842  0.6493  0.6545  1.0711
 2354SOL    HW218525   4.649   3.026   6.902 -0.0564  1.3511 -0.6891
 2355SOL     OW18526   0.958   2.397   8.075  0.0156  0.3441  0.3089
 2355SOL    HW118527   1.053   2.380   8.073  0.4311  2.8146 -1.6198
 2355SOL    HW218528   0.953   2.442   8.159 -1.9554  0.5927  0.0377
 2356SOL     OW18529   0.809   2.290  12.790  0.2827 -0.0508 -0.4543
 2356SOL    HW118530   0.781   2.206  12.755 -0.3876 -0.3605  0.8502
 2356SOL    HW218531   0.903   2.278  12.771 -0.2278 -1.4612 -2.0916
 2357SOL     OW18532   2.813   2.294   0.156 -0.4254 -0.3670  0.4752
 2357SOL    HW118533   2.746   2.355   0.125  1.1258  0.5509 -1.0620
 2357SOL    HW218534   2.879   2.344   0.203  0.4510 -1.9997  0.9991
 2358SOL     OW18535   1.536   0.338   1.663  0.4139  0.3384 -0.0807
 2358SOL    HW118536   1.572   0.386   1.738  0.9671 -2.2674  1.3316
 2358SOL    HW218537   1.607   0.342   1.599  0.0159  0.6416 -0.4964
 2359SOL     OW18538   2.026   4.129  15.505  0.5250 -0.2672  0.3519
 2359SOL    HW118539   2.093   4.161  15.444 -0.8589  2.7915  0.4667
 2359SOL    HW218540   1.957   4.102  15.446 -1.2412  0.8495  1.9188
 2360SOL     OW18541   3.335   2.195   7.815  0.2408 -0.1260  0.5308
 2360SOL    HW118542   3.367   2.117   7.861  0.2766 -0.7682 -0.5994
 2360SOL    HW218543   3.328   2.154   7.729 -0.2979 -0.0484  0.5357
 2361SOL     OW18544   2.687   3.517   7.226  0.3196  0.0262  0.2210
 2361SOL    HW118545   2.673   3.569   7.146  0.6004 -1.4522 -0.7999
 2361SOL    HW218546   2.763   3.565   7.260  1.0549 -1.7785  1.1168
 2362SOL     OW18547   3.362   0.574   3.034  0.0828  0.0533  0.0817
 2362SOL    HW118548   3.267   0.587   3.028 -0.0061 -0.7861 -0.3984
 2362SOL    HW218549   3.375   0.491   3.081  0.6284  0.3420  0.4391
 2363SOL     OW18550   1.483   3.220   7.070  0.3121 -0.0524 -0.0415
 2363SOL    HW118551   1.443   3.280   7.133 -0.5451  0.9630 -1.5757
 2363SOL    HW218552   1.498   3.150   7.134  1.3786  0.5860  0.4109
 2364SOL     OW18553   1.576   0.035   1.132  0.2273  0.3519 -0.2615
 2364SOL    HW118554   1.492   0.074   1.158  1.1463  1.3153  1.2938
 2364SOL    HW218555   1.605   0.023   1.223  1.3131 -0.2629 -0.6934
 2365SOL     OW18556   1.083   4.206   7.913  0.5673  0.5022  0.0140
 2365SOL    HW118557   1.150   4.178   7.850 -0.2401 -0.7125 -0.2912
 2365SOL    HW218558   1.143   4.276   7.941  1.1466  0.9325 -2.2484
 2366SOL     OW18559   0.306   1.601  12.802  0.4200  0.4887 -0.0132
 2366SOL    HW118560   0.216   1.572  12.815  0.4344  0.1601 -0.6634
 2366SOL    HW218561   0.359   1.545  12.860  1.6330  3.0495  1.3241
 2367SOL     OW18562   1.447   0.292   0.254 -0.0630 -0.5793 -0.8587
 2367SOL    HW118563   1.363   0.253   0.278 -0.1643 -0.3925 -0.9071
 2367SOL    HW218564   1.434   0.337   0.170 -3.3865  0.4854  0.2256
 2368SOL     OW18565   2.155   3.103   9.250 -0.7003 -0.6457  0.2580
 2368SOL    HW118566   2.153   3.022   9.300  2.1000 -0.5494  0.5350
 2368SOL    HW218567   2.171   3.072   9.161 -0.1323  0.4021 -0.0082
 2369SOL     OW18568   0.184   2.979  15.526  0.0833  0.4393  0.5906
 2369SOL    HW118569   0.110   2.929  15.491  1.3658 -1.2895  0.3676
 2369SOL    HW218570   0.179   3.056  15.470 -0.0475 -0.2099 -0.3014
 2370SOL     OW18571   1.923   4.395   1.658  0.1545  0.6497 -0.0733
 2370SOL    HW118572   2.014   4.371   1.677 -0.6696 -2.6065 -0.1753
 2370SOL    HW218573   1.897   4.397   1.750 -3.4747 -0.1856 -1.0678
 2371SOL     OW18574   3.214   4.525   5.862 -0.0978 -0.2231  0.4242
 2371SOL    HW118575   3.198   4.615   5.831 -3.1289 -1.4458 -1.5299
 2371SOL    HW218576   3.308   4.514   5.849 -0.0357 -0.4298  1.0886
 2372SOL     OW18577   2.398   3.393   8.596  0.1270  0.0716  0.3395
 2372SOL    HW118578   2.340   3.356   8.662  0.2646  0.8194  0.8748
 2372SOL    HW218579   2.376   3.331   8.526  2.8424  2.4288 -2.6268
 2373SOL     OW18580   3.206   1.272  14.984  0.3115  0.4496  0.2698
 2373SOL    HW118581   3.237   1.186  14.959 -1.0319  0.5641 -1.8017
 2373SOL    HW218582   3.280   1.306  15.033 -1.5560  2.6269  1.6291
 2374SOL     OW18583   0.878   0.763   5.953  0.1368 -0.3912  0.0925
 2374SOL    HW118584   0.840   0.837   6.001  0.5441  0.5941 -1.0705
 2374SOL    HW218585   0.951   0.739   6.010 -1.0046 -4.6144 -0.2265
 2375SOL     OW18586   3.531   0.151  11.994  0.0210 -0.3151  0.0756
 2375SOL    HW118587   3.556   0.227  12.045  0.2596 -1.2014  1.2726
 2375SOL    HW218588   3.566   0.180  11.909 -0.5212 -0.6596 -0.2638
 2376SOL     OW18589   3.334   0.196   7.867 -0.2301  0.8017 -0.3230
 2376SOL    HW118590   3.413   0.146   7.888 -0.7224  0.2192  0.1423
 2376SOL    HW218591   3.372   0.267   7.815  1.1817  1.8782  2.1405
 2377SOL     OW18592   4.454   1.021  12.748 -0.3702  0.6851 -0.8548
 2377SOL    HW118593   4.464   0.935  12.707 -1.3993  1.2777 -2.3518
 2377SOL    HW218594   4.501   1.009  12.831 -0.7815 -0.5977 -0.7996
 2378SOL     OW18595   2.039   0.130  10.654  0.3295  1.1928 -0.3769
 2378SOL    HW118596   1.987   0.126  10.734  0.0738  2.1842 -0.4997
 2378SOL    HW218597   2.100   0.202  10.667  1.8124  0.2745 -2.0996
 2379SOL     OW18598   2.531   1.811   7.508  0.1545  0.1878 -0.1983
 2379SOL    HW118599   2.477   1.856   7.573 -1.3402 -2.3585  0.3399
 2379SOL    HW218600   2.542   1.875   7.438  2.0589  0.6018  0.4729
 2380SOL     OW18601   4.559   2.418   5.817 -0.1506  0.4361 -0.4543
 2380SOL    HW118602   4.524   2.387   5.734  0.6197 -0.5282 -0.4160
 2380SOL    HW218603   4.487   2.472   5.850 -0.3440  1.0628 -1.8864
 2381SOL     OW18604   2.081   2.941  11.238  0.5541  0.0761  0.3816
 2381SOL    HW118605   2.071   3.023  11.190 -2.6125 -0.1221  0.7422
 2381SOL    HW218606   2.100   2.982  11.322 -0.7159  1.8797 -0.2167
 2382SOL     OW18607   3.400   0.184   0.840  0.2513 -0.0794 -0.5853
 2382SOL    HW118608   3.379   0.169   0.748 -0.7656  0.4177 -0.4338
 2382SOL    HW218609   3.352   0.266   0.852  2.4191  1.1685 -0.2440
 2383SOL     OW18610   2.222   2.699   3.512  0.0899  0.3784  0.0842
 2383SOL    HW118611   2.234   2.696   3.607 -1.0678 -3.6787  0.1075
 2383SOL    HW218612   2.186   2.787   3.508 -0.7916 -0.1247 -2.9906
 2384SOL     OW18613   4.592   4.139   0.570  0.2543  0.2194 -0.3610
 2384SOL    HW118614   4.539   4.210   0.535  0.3387  0.8527  0.8107
 2384SOL    HW218615   4.674   4.166   0.530  0.6302 -1.7837 -0.9737
 2385SOL     OW18616   3.135   2.149  10.389 -0.3509 -0.0067 -0.1553
 2385SOL    HW118617   3.182   2.097  10.454 -1.5415  1.3520  1.7943
 2385SOL    HW218618   3.176   2.122  10.306  1.9174 -1.4579  1.4385
 2386SOL     OW18619   0.715   3.887   7.214 -0.5115 -1.0520 -0.3031
 2386SOL    HW118620   0.746   3.886   7.305  0.4304 -0.8093 -0.6219
 2386SOL    HW218621   0.631   3.843   7.227 -1.0636 -0.1276 -0.7035
 2387SOL     OW18622   1.831   1.377  11.627  0.1889 -0.2993 -0.0114
 2387SOL    HW118623   1.874   1.449  11.581 -1.0289  0.4248 -0.0186
 2387SOL    HW218624   1.840   1.407  11.717 -0.5874  0.0645 -0.0499
 2388SOL     OW18625   4.003   1.946   7.122 -0.3780 -0.2762  0.4621
 2388SOL    HW118626   3.960   1.862   7.105 -0.9901  0.5453 -1.9257
 2388SOL    HW218627   3.957   1.964   7.204  1.1127 -2.8909  1.9078
 2389SOL     OW18628   3.600   1.884  12.846 -0.0192 -0.1451  0.3749
 2389SOL    HW118629   3.652   1.895  12.767 -1.7825  0.2919 -0.7272
 2389SOL    HW218630   3.566   1.973  12.848 -1.0608 -0.5063 -1.6028
 2390SOL     OW18631   1.474   2.749  12.371  0.1454  0.0273  0.5158
 2390SOL    HW118632   1.392   2.758  12.420  1.4267  0.9334  2.4728
 2390SOL    HW218633   1.434   2.710  12.293  1.5270 -0.1794 -0.0756
 2391SOL     OW18634   2.203   0.603  10.252  0.2580 -0.3373 -0.0231
 2391SOL    HW118635   2.118   0.615  10.210  0.9214 -0.2991 -1.3713
 2391SOL    HW218636   2.222   0.510  10.244  0.8537 -0.1002 -1.4013
 2392SOL     OW18637   2.889   0.246  13.834 -0.3802  0.2340 -0.2834
 2392SOL    HW118638   2.948   0.173  13.855  0.0841  0.0137 -2.4383
 2392SOL    HW218639   2.809   0.199  13.811 -0.2339 -0.1609  0.0113
 2393SOL     OW18640   1.234   1.248   8.340 -0.0274  0.0516  0.4244
 2393SOL    HW118641   1.320   1.269   8.376  1.4996 -1.7023 -2.1589
 2393SOL    HW218642   1.230   1.153   8.325  0.4941 -0.1332  1.4465
 2394SOL     OW18643   2.756   2.677   7.508  0.2072 -0.1869  0.3395
 2394SOL    HW118644   2.729   2.586   7.524 -1.1126 -0.0003 -0.8261
 2394SOL    HW218645   2.821   2.664   7.439 -0.8672  0.1822 -0.7367
 2395SOL     OW18646   2.111   3.532   1.642 -0.3441 -0.1604  0.2000
 2395SOL    HW118647   2.060   3.467   1.691 -1.0667  0.1050 -0.1996
 2395SOL    HW218648   2.202   3.519   1.668  0.1822 -1.3344 -2.3122
 2396SOL     OW18649   3.933   1.072   6.262 -0.0567 -0.1541  0.1940
 2396SOL    HW118650   3.981   1.147   6.297  2.0987 -0.8387 -1.2661
 2396SOL    HW218651   3.996   1.003   6.241 -0.7102 -0.6110 -0.2579
 2397SOL     OW18652   2.441   4.007   3.526  0.8362  0.0851  0.5629
 2397SOL    HW118653   2.430   4.100   3.505  0.0327  0.2157  1.5719
 2397SOL    HW218654   2.533   4.010   3.554  1.3786  0.3226 -1.2172
 2398SOL     OW18655   4.351   3.096   6.188 -0.4454 -0.3997 -0.5876
 2398SOL    HW118656   4.276   3.108   6.128  0.4846  1.1261 -1.4545
 2398SOL    HW218657   4.425   3.116   6.131 -2.8447  1.0354 -3.2653
 2399SOL     OW18658   3.304   3.060   5.275 -0.3727 -0.4482 -0.0484
 2399SOL    HW118659   3.218   3.018   5.274 -0.8406  0.4938  0.1933
 2399SOL    HW218660   3.320   3.076   5.368  0.1921  0.7834 -0.3609
 2400SOL     OW18661   4.647   3.689   5.834  0.8344 -0.1714 -0.2640
 2400SOL    HW118662   0.019   3.689   5.818  0.6870  1.9706 -1.1586
 2400SOL    HW218663   4.634   3.691   5.929  0.8179  1.9874 -0.3150
 2401SOL     OW18664   2.784   1.816   5.681  0.1740 -0.3002 -0.0579
 2401SOL    HW118665   2.835   1.893   5.655  1.1630 -1.5656 -1.8944
 2401SOL    HW218666   2.715   1.857   5.732  1.8777  0.5556  1.5656
 2402SOL     OW18667   3.541   1.763   3.825  0.4425 -0.3713 -0.1943
 2402SOL    HW118668   3.515   1.672   3.838 -1.1677  0.0569 -0.4235
 2402SOL    HW218669   3.465   1.809   3.789 -0.2962 -1.3006  0.1629
 2403SOL     OW18670   1.515   3.445   2.891  0.1775 -0.3739 -0.5124
 2403SOL    HW118671   1.522   3.534   2.925  1.3164 -1.0528  1.0287
 2403SOL    HW218672   1.589   3.438   2.831  2.0800  2.6062  1.4757
 2404SOL     OW18673   3.182   3.421   6.552 -0.2064  0.7882  0.3198
 2404SOL    HW118674   3.200   3.470   6.632 -3.1915 -0.0099  1.4921
 2404SOL    HW218675   3.245   3.349   6.554  0.4938  1.4268  1.5577
 2405SOL     OW18676   4.674   0.537   5.424  0.3371  0.1513  0.0676
 2405SOL    HW118677   4.623   0.529   5.505 -2.0841  0.3253 -1.4484
 2405SOL    HW218678   0.040   0.541   5.459  1.1179 -2.0708 -1.6113
 2406SOL     OW18679   3.859   3.448   1.060  0.0290  0.4973  0.4275
 2406SOL    HW118680   3.800   3.439   1.135  0.7959  1.2534  1.1236
 2406SOL    HW218681   3.916   3.373   1.080  0.2756  0.7949  0.8303
 2407SOL     OW18682   4.173   0.486   1.629 -0.3650  0.4752 -0.2385
 2407SOL    HW118683   4.230   0.411   1.611 -0.0117  1.6265 -3.9355
 2407SOL    HW218684   4.150   0.498   1.537 -1.7706 -1.0362 -0.0730
 2408SOL     OW18685   0.328   2.244  10.269  0.9697 -0.1707  0.4322
 2408SOL    HW118686   0.345   2.149  10.268  0.2268 -0.3235  1.5978
 2408SOL    HW218687   0.408   2.276  10.310  0.3056  2.8817 -0.6863
 2409SOL     OW18688   3.994   3.179   3.584  0.0278  0.1785  0.4071
 2409SOL    HW118689   3.928   3.141   3.525  0.4657  0.2165 -0.1067
 2409SOL    HW218690   4.056   3.203   3.515 -0.0118 -0.8878 -0.0075
 2410SOL     OW18691   3.836   3.866  12.372  0.5059 -0.2133  0.1055
 2410SOL    HW118692   3.800   3.777  12.375 -2.9820  1.1998  0.1950
 2410SOL    HW218693   3.925   3.847  12.343  0.5012 -0.2504  0.1148
 2411SOL     OW18694   3.632   0.451   2.783 -0.0082 -0.7248 -0.3200
 2411SOL    HW118695   3.707   0.502   2.812 -0.1326 -0.8281  0.1784
 2411SOL    HW218696   3.581   0.513   2.731  1.1091 -0.4177 -1.0519
 2412SOL     OW18697   0.231   4.427  17.635 -0.1583 -0.2970 -0.4990
 2412SOL    HW118698   0.290   4.496  17.603 -0.5175  0.1361 -0.2230
 2412SOL    HW218699   0.145   4.465  17.616  0.9553  1.3325 -2.2333
 2413SOL     OW18700   3.790   2.016  11.229 -0.0170 -0.1145 -0.3524
 2413SOL    HW118701   3.777   1.939  11.174  0.6657 -0.2668 -0.3044
 2413SOL    HW218702   3.702   2.019  11.266  0.7309  2.0557  1.2237
 2414SOL     OW18703   0.525   2.085   7.170 -0.2440  0.4083 -0.3448
 2414SOL    HW118704   0.432   2.078   7.146  0.9852 -1.2448 -4.6074
 2414SOL    HW218705   0.565   2.037   7.098 -1.1322  0.7336 -1.0525
 2415SOL     OW18706   1.842   3.631   3.299  0.1288  0.5662 -0.3905
 2415SOL    HW118707   1.763   3.683   3.314 -0.1148 -0.1301  0.7203
 2415SOL    HW218708   1.904   3.639   3.371 -0.5959 -3.5296  0.6670
 2416SOL     OW18709   2.513   1.539   3.169 -0.1453  0.5516 -0.1228
 2416SOL    HW118710   2.568   1.471   3.131 -1.8988 -0.0685 -1.5654
 2416SOL    HW218711   2.565   1.619   3.171  1.6753 -0.6237  0.1099
 2417SOL     OW18712   2.153   1.876   2.414 -0.1744  0.3675 -0.4206
 2417SOL    HW118713   2.225   1.940   2.417 -0.4484  0.5416  2.3693
 2417SOL    HW218714   2.200   1.816   2.356 -1.9182 -1.2446 -0.1368
 2418SOL     OW18715   2.949   3.311   6.640 -0.3694  0.1126 -0.0733
 2418SOL    HW118716   2.979   3.222   6.625 -1.1353 -0.1941  0.1984
 2418SOL    HW218717   3.024   3.359   6.605 -0.9663  0.4844 -0.8211
 2419SOL     OW18718   3.091   0.451   1.965 -0.1847  0.2442 -0.1837
 2419SOL    HW118719   3.139   0.507   1.904  2.3244 -0.0126  1.5597
 2419SOL    HW218720   3.002   0.473   1.938  0.0757  0.2784 -1.0239
 2420SOL     OW18721   0.601   4.260  14.189  0.1753 -0.0024 -0.3034
 2420SOL    HW118722   0.623   4.278  14.280 -0.2490 -1.6201  0.1120
 2420SOL    HW218723   0.511   4.291  14.182  0.4540  0.9724  0.3755
 2421SOL     OW18724   2.898   2.358   8.006  0.2423  0.7266  0.2036
 2421SOL    HW118725   2.932   2.428   8.060 -2.5836  3.4190 -1.4982
 2421SOL    HW218726   2.965   2.345   7.939 -0.9977  0.7315 -1.0401
 2422SOL     OW18727   0.121   0.088   5.898  0.1856 -0.2834  0.3852
 2422SOL    HW118728   0.065   0.016   5.870  2.6021 -1.8271 -0.4052
 2422SOL    HW218729   0.068   0.162   5.866  0.2833 -1.7212 -3.0994
 2423SOL     OW18730   4.716   2.636  17.688  0.0654  0.5044  0.9210
 2423SOL    HW118731   4.690   2.695  17.617  1.0340  1.6408  1.4977
 2423SOL    HW218732   4.678   2.557  17.651  0.2646  0.7869  0.0940
 2424SOL     OW18733   1.478   1.938   2.792 -0.1737  0.3294  0.4498
 2424SOL    HW118734   1.415   2.005   2.817  0.6202  0.4385  2.1127
 2424SOL    HW218735   1.443   1.866   2.844  0.3207  0.0261  0.3597
 2425SOL     OW18736   1.890   2.404  13.036 -0.5290  0.3299  0.4154
 2425SOL    HW118737   1.878   2.462  13.111  0.3979 -1.9482  2.3337
 2425SOL    HW218738   1.879   2.317  13.073 -0.6953  0.0878 -0.1963
 2426SOL     OW18739   0.262   4.566  17.124  0.2317 -0.0379 -0.3705
 2426SOL    HW118740   0.283   4.474  17.108  0.1669  0.5134 -3.7507
 2426SOL    HW218741   0.337   4.609  17.084 -1.4885  1.5534 -1.9349
 2427SOL     OW18742   2.153   2.174   7.794 -0.1374  0.0066 -0.0479
 2427SOL    HW118743   2.220   2.192   7.860 -2.1151 -2.5972  2.6936
 2427SOL    HW218744   2.185   2.214   7.713  2.7039 -2.7119 -0.3062
 2428SOL     OW18745   4.715   4.348  12.375  0.5922 -0.0463  0.2778
 2428SOL    HW118746   4.664   4.316  12.301  3.1675 -1.5452 -0.8552
 2428SOL    HW218747   0.071   4.294  12.373  1.6201  1.4221  1.1616
 2429SOL     OW18748   1.127   0.701   5.744  0.3289  0.0846  0.2926
 2429SOL    HW118749   1.092   0.790   5.753  2.8866  1.2937 -1.6784
 2429SOL    HW218750   1.075   0.671   5.669  1.5789  2.3517 -1.4909
 2430SOL     OW18751   1.305   0.255   1.516 -0.3422  0.2977 -0.3532
 2430SOL    HW118752   1.248   0.316   1.470 -2.3125  1.5765  3.8126
 2430SOL    HW218753   1.372   0.319   1.540 -2.7922  2.0348  1.8087
 2431SOL     OW18754   3.933   0.649   3.771  0.0255 -0.1818 -0.1370
 2431SOL    HW118755   3.952   0.679   3.860  1.2116 -1.1665 -0.0539
 2431SOL    HW218756   3.849   0.604   3.776 -0.2000  0.3358  0.9398
 2432SOL     OW18757   4.004   0.730  14.607 -0.4097  0.1989  0.3039
 2432SOL    HW118758   3.936   0.683  14.656  1.3715 -0.6197  1.9724
 2432SOL    HW218759   4.068   0.659  14.611 -0.2119  0.2753 -1.2435
 2433SOL     OW18760   2.786   0.931   1.629  0.0812 -1.0901 -0.5912
 2433SOL    HW118761   2.819   1.014   1.665  0.0940 -1.3878  0.0894
 2433SOL    HW218762   2.733   0.900   1.703  0.3352 -0.2243 -0.0399
 2434SOL     OW18763   4.206   2.415   2.526  0.0856  0.0116  0.9316
 2434SOL    HW118764   4.267   2.347   2.556  0.1414  0.0548  0.9172
 2434SOL    HW218765   4.122   2.370   2.516  0.0964 -0.0332  1.0406
 2435SOL     OW18766   4.202   2.601   9.557 -0.3953 -0.8705  0.4434
 2435SOL    HW118767   4.281   2.577   9.606 -0.1322  0.9128  0.9012
 2435SOL    HW218768   4.137   2.534   9.577 -1.1814 -0.4587 -0.7533
 2436SOL     OW18769   0.481   0.873  10.482 -0.4544 -0.0161  0.2399
 2436SOL    HW118770   0.524   0.926  10.549  1.2807  1.2325 -1.8578
 2436SOL    HW218771   0.484   0.937  10.411  1.7150 -1.9803 -1.4073
 2437SOL     OW18772   1.880   2.456  16.285  0.0433 -0.1102 -0.7809
 2437SOL    HW118773   1.970   2.422  16.292 -0.1581 -0.2669  0.9477
 2437SOL    HW218774   1.828   2.379  16.309  0.9322 -0.5620 -0.3022
 2438SOL     OW18775   2.598   4.299   5.102 -0.1076 -0.7478 -0.3836
 2438SOL    HW118776   2.535   4.312   5.030 -0.3537 -1.7406 -0.3383
 2438SOL    HW218777   2.604   4.393   5.123  0.2381 -1.2356  1.6952
 2439SOL     OW18778   3.123   1.950   1.777  0.1888  0.3428 -0.1729
 2439SOL    HW118779   3.096   1.877   1.833  0.8350  0.7881  0.7129
 2439SOL    HW218780   3.183   1.900   1.723 -0.9492 -1.2792  0.0670
 2440SOL     OW18781   2.332   1.413   2.895  0.8564 -0.3193 -0.0653
 2440SOL    HW118782   2.401   1.370   2.945  1.6093  1.8831  0.7612
 2440SOL    HW218783   2.281   1.348   2.847 -2.6759  2.2559  0.2073
 2441SOL     OW18784   3.866   2.017   1.236 -0.1256 -0.0632  0.4679
 2441SOL    HW118785   3.816   2.087   1.194 -0.3455 -1.7091 -2.0540
 2441SOL    HW218786   3.935   2.063   1.284 -1.3390  0.7601  1.3996
 2442SOL     OW18787   3.472   3.051  16.739 -0.4528  0.3616  0.4263
 2442SOL    HW118788   3.542   3.111  16.713 -1.2684  0.7748 -0.8384
 2442SOL    HW218789   3.426   3.038  16.656 -3.3272  1.2296  1.8993
 2443SOL     OW18790   4.311   1.793   3.396 -0.1303  0.5870  0.0891
 2443SOL    HW118791   4.223   1.759   3.407  0.3673 -1.3609 -1.9074
 2443SOL    HW218792   4.314   1.798   3.300 -1.4613 -0.2572  0.0069
 2444SOL     OW18793   1.505   4.209   5.440 -0.1966  0.2353 -0.1318
 2444SOL    HW118794   1.567   4.275   5.408  0.2190  0.1213  0.4248
 2444SOL    HW218795   1.428   4.262   5.459  1.4010  2.3422  0.5719
 2445SOL     OW18796   4.022   0.098   8.842  0.0756 -0.5890  0.0962
 2445SOL    HW118797   4.080   0.034   8.882  1.4213  1.9618  2.2378
 2445SOL    HW218798   3.955   0.110   8.909 -0.2538 -1.5228 -0.0707
 2446SOL     OW18799   2.480   1.142  11.537 -0.3705  0.0281  0.7997
 2446SOL    HW118800   2.399   1.145  11.588 -1.0161  2.5011 -0.3836
 2446SOL    HW218801   2.444   1.157  11.450  3.8383  0.0852 -0.8899
 2447SOL     OW18802   0.870   1.927  13.520 -0.0563  0.1704  0.2523
 2447SOL    HW118803   0.852   1.870  13.595  2.1744 -0.7617  0.0802
 2447SOL    HW218804   0.833   1.881  13.445  0.7064 -3.3114  2.0052
 2448SOL     OW18805   1.025   3.183   7.380 -0.2958  0.0578 -0.7089
 2448SOL    HW118806   1.074   3.243   7.438 -0.0137  0.5613 -1.4681
 2448SOL    HW218807   1.089   3.112   7.374 -2.1644 -1.4491 -2.3502
 2449SOL     OW18808   1.971   1.990   1.321 -0.2135  0.2135  0.0868
 2449SOL    HW118809   1.902   1.941   1.366 -1.0552  1.0712 -0.2810
 2449SOL    HW218810   1.966   1.956   1.232 -1.4599 -1.1221  0.6598
 2450SOL     OW18811   0.685   3.515   7.052  0.2039 -0.2768  0.3641
 2450SOL    HW118812   0.629   3.523   7.129  1.5344  1.7796  1.1281
 2450SOL    HW218813   0.675   3.423   7.029 -1.1070  0.3944 -1.7278
 2451SOL     OW18814   1.513   4.602   5.555  0.1612 -0.0155  0.1237
 2451SOL    HW118815   1.424   4.588   5.524 -0.6538  0.5224  2.1661
 2451SOL    HW218816   1.500   4.566   5.643 -0.9791  1.5013  0.5732
 2452SOL     OW18817   2.485   0.982   0.589 -0.7653 -0.2931 -0.1788
 2452SOL    HW118818   2.398   1.013   0.614 -1.4437  0.0259 -2.9150
 2452SOL    HW218819   2.458   0.906   0.537 -1.9821  1.6985 -2.4367
 2453SOL     OW18820   2.988   2.526   4.269  0.8007  0.2791 -0.2049
 2453SOL    HW118821   3.002   2.497   4.179  1.4609 -1.1749  0.3598
 2453SOL    HW218822   3.023   2.449   4.313 -1.1256  0.3413  1.4080
 2454SOL     OW18823   3.689   4.249   6.969  0.0378 -0.2186  0.3382
 2454SOL    HW118824   3.649   4.306   7.034 -0.5629  1.3074 -1.3568
 2454SOL    HW218825   3.681   4.306   6.892 -2.3810 -1.8686 -0.6386
 2455SOL     OW18826   2.650   1.818   7.749 -0.4734 -0.1642  0.4977
 2455SOL    HW118827   2.636   1.770   7.668  0.0325  1.4452 -0.5467
 2455SOL    HW218828   2.569   1.867   7.757 -1.4869 -1.7583 -0.0625
 2456SOL     OW18829   0.569   3.265   1.701  0.0603 -0.3762  0.7079
 2456SOL    HW118830   0.477   3.244   1.716  0.0246  0.2554  1.4055
 2456SOL    HW218831   0.562   3.342   1.644 -0.4156 -1.3657 -0.5700
 2457SOL     OW18832   2.659   0.563   4.520  0.0687  0.6411  0.3301
 2457SOL    HW118833   2.600   0.628   4.558 -0.6196  0.7772 -0.9699
 2457SOL    HW218834   2.645   0.578   4.426  4.1352  0.2937 -0.3472
 2458SOL     OW18835   1.204   2.552   8.283 -0.0448  0.8021 -0.1567
 2458SOL    HW118836   1.179   2.460   8.278 -0.4315  0.9468 -0.8213
 2458SOL    HW218837   1.299   2.543   8.275 -0.0300 -0.0619  0.9396
 2459SOL     OW18838   2.936   0.889   5.002 -0.5256 -0.1464 -0.1168
 2459SOL    HW118839   2.978   0.948   5.065 -1.5456 -0.0145  0.4336
 2459SOL    HW218840   3.008   0.836   4.967  0.5920  0.5282  1.1683
 2460SOL     OW18841   4.684   2.610  16.507  0.0199  0.7743 -0.0807
 2460SOL    HW118842   0.037   2.597  16.564  0.4059 -0.0899 -0.8010
 2460SOL    HW218843   4.697   2.569  16.422  1.6497  0.2308  0.4381
 2461SOL     OW18844   0.789   0.352   2.436 -0.0735  0.7102 -0.1870
 2461SOL    HW118845   0.741   0.434   2.450 -2.8622 -0.6881 -1.5707
 2461SOL    HW218846   0.764   0.303   2.515  0.6498  0.0355 -0.3773
 2462SOL     OW18847   3.559   4.478   1.982 -0.4678  0.2678  0.4763
 2462SOL    HW118848   3.567   4.548   2.047 -1.4736  0.3405  0.5344
 2462SOL    HW218849   3.491   4.517   1.927 -1.2503 -3.6227 -1.3722
 2463SOL     OW18850   0.246   0.599   8.169 -0.5034  0.7722 -0.0299
 2463SOL    HW118851   0.314   0.588   8.103 -0.9213 -1.7854 -0.0303
 2463SOL    HW218852   0.211   0.689   8.166  1.8087  1.7071  1.6270
 2464SOL     OW18853   2.745   0.850   4.621  0.3110  0.0568  0.8290
 2464SOL    HW118854   2.758   0.778   4.683  1.0877  0.8768  1.6162
 2464SOL    HW218855   2.650   0.858   4.625  0.4471  3.3602 -2.9291
 2465SOL     OW18856   3.283   4.449  12.307  0.2304  0.5211 -0.2206
 2465SOL    HW118857   3.244   4.387  12.245  0.0657 -0.9231  1.3094
 2465SOL    HW218858   3.207   4.468  12.363  1.0077 -3.0144  2.0915
 2466SOL     OW18859   1.943   0.585  10.422  0.1366 -0.6986 -0.0098
 2466SOL    HW118860   1.989   0.628  10.495  0.7085  1.4878 -1.6442
 2466SOL    HW218861   1.930   0.503  10.469 -1.5734  0.2568  1.1978
 2467SOL     OW18862   3.241   3.543  14.673  0.3032  0.7438 -0.3704
 2467SOL    HW118863   3.290   3.568  14.595 -1.2690  0.1869 -1.5384
 2467SOL    HW218864   3.302   3.559  14.745 -1.7344 -1.3941  1.8275
 2468SOL     OW18865   2.114   4.143   3.883  0.1216 -0.4038 -0.3689
 2468SOL    HW118866   2.160   4.161   3.802  2.2050  0.7165  1.0835
 2468SOL    HW218867   2.095   4.050   3.869 -1.1219 -0.0882 -0.7942
 2469SOL     OW18868   3.683   2.396  10.822 -0.1951 -0.2347 -0.0959
 2469SOL    HW118869   3.704   2.462  10.756 -0.3628  0.2600  0.3388
 2469SOL    HW218870   3.647   2.326  10.768  1.0338 -0.4088 -0.6773
 2470SOL     OW18871   3.843   1.996   4.237 -0.5842  0.7309 -0.2190
 2470SOL    HW118872   3.870   1.973   4.149 -1.4539 -0.3497 -0.2019
 2470SOL    HW218873   3.892   2.078   4.243 -2.1783  1.6987 -0.4925
 2471SOL     OW18874   3.596   0.092  16.363 -0.1169  0.9833  0.2902
 2471SOL    HW118875   3.579   0.185  16.372 -0.7828  0.7386  1.5121
 2471SOL    HW218876   3.641   0.082  16.279  1.0908 -1.1225  1.1699
 2472SOL     OW18877   1.532   4.265   6.717  0.2388  0.1780  0.3869
 2472SOL    HW118878   1.507   4.358   6.721  0.2269  0.2463 -1.2098
 2472SOL    HW218879   1.478   4.233   6.645  2.8818 -2.3785 -0.4667
 2473SOL     OW18880   0.614   3.633   7.734  0.6184  0.2462  0.0344
 2473SOL    HW118881   0.660   3.552   7.756 -0.8522 -0.6353 -0.1270
 2473SOL    HW218882   0.577   3.608   7.650 -1.8555  0.9505  0.8869
 2474SOL     OW18883   1.763   0.984  12.338  0.2232 -0.0854  0.1451
 2474SOL    HW118884   1.790   1.059  12.390  1.2005 -0.3082 -0.0500
 2474SOL    HW218885   1.751   0.919  12.407 -0.4808  1.8901  1.8750
 2475SOL     OW18886   3.859   4.570   0.035  0.2842 -0.1807  0.2377
 2475SOL    HW118887   3.782   4.616   0.004  0.4393  0.4192  0.7339
 2475SOL    HW218888   3.871   4.505  17.660 -1.0815  0.1384 -0.2894
 2476SOL     OW18889   4.026   4.670   2.852 -0.1503 -0.4263 -0.3131
 2476SOL    HW118890   3.987   4.603   2.796 -0.5286  0.8708 -1.6183
 2476SOL    HW218891   3.945   4.697   2.895  0.3070 -0.1592  0.3834
 2477SOL     OW18892   0.966   0.132   3.413 -0.2147  0.2507 -0.1268
 2477SOL    HW118893   0.965   0.050   3.463  4.1072  0.1412 -0.2343
 2477SOL    HW218894   1.040   0.108   3.358  0.1062 -0.4432  0.6097
 2478SOL     OW18895   2.759   3.650   6.261  0.2121 -0.5740 -0.0124
 2478SOL    HW118896   2.790   3.703   6.188 -0.7743 -1.1432 -0.8473
 2478SOL    HW218897   2.836   3.644   6.317  0.8237  0.0166 -0.7846
 2479SOL     OW18898   1.003   2.173   7.321 -0.1457 -0.2693  0.4360
 2479SOL    HW118899   1.054   2.154   7.399  0.7357  0.0526 -0.0562
 2479SOL    HW218900   0.931   2.208   7.372 -1.9927 -4.3591  0.6279
 2480SOL     OW18901   1.558   2.408   5.341 -0.1132  0.2513 -0.0030
 2480SOL    HW118902   1.589   2.318   5.330 -2.3653 -0.7309  1.5573
 2480SOL    HW218903   1.500   2.394   5.416  1.1777 -1.0316  0.7634
 2481SOL     OW18904   2.717   0.751   6.067  0.3272  0.5083 -0.0645
 2481SOL    HW118905   2.640   0.775   6.014  0.9970 -1.0600 -1.7404
 2481SOL    HW218906   2.780   0.811   6.028  0.2153 -0.2133 -1.3366
 2482SOL     OW18907   3.866   3.819   7.540  0.1289 -0.0947 -0.0623
 2482SOL    HW118908   3.814   3.898   7.522  1.1149  0.3480 -0.9481
 2482SOL    HW218909   3.845   3.762   7.466  1.0638 -0.2909 -0.1646
 2483SOL     OW18910   4.282   4.355   9.175  0.1304  0.3465  0.6826
 2483SOL    HW118911   4.295   4.396   9.089  0.8123  0.0891  0.6660
 2483SOL    HW218912   4.187   4.344   9.177  0.3919 -2.3315 -2.7777
 2484SOL     OW18913   4.358   4.377  14.542 -0.1019  0.0815  0.1677
 2484SOL    HW118914   4.386   4.316  14.474 -1.3019 -0.7419  0.4074
 2484SOL    HW218915   4.330   4.449  14.486  0.4459  0.1112 -0.0690
 2485SOL     OW18916   0.826   4.603   7.420  0.3989 -0.3835 -0.3235
 2485SOL    HW118917   0.846   4.550   7.496 -1.3255  1.1263  1.1709
 2485SOL    HW218918   0.734   4.580   7.411 -0.2086  2.0205 -0.3434
 2486SOL     OW18919   0.227   2.007  12.845  0.4356 -0.1355  0.1930
 2486SOL    HW118920   0.280   1.962  12.780 -0.3315  2.1535 -2.0078
 2486SOL    HW218921   0.174   2.065  12.790 -0.5852 -1.2629 -0.0114
 2487SOL     OW18922   2.072   4.048   2.386 -0.6017 -0.3044 -0.2077
 2487SOL    HW118923   1.983   4.073   2.362 -0.2599  0.4257 -0.7262
 2487SOL    HW218924   2.096   4.106   2.458  1.9826  1.1740 -2.2581
 2488SOL     OW18925   2.225   1.957   7.219 -0.2024  0.3716 -0.7226
 2488SOL    HW118926   2.221   1.908   7.137 -0.6551 -0.8367  0.0226
 2488SOL    HW218927   2.208   1.889   7.284  1.3534  2.1325  1.5053
 2489SOL     OW18928   3.465   4.361   4.822  0.0465  0.8017  0.4499
 2489SOL    HW118929   3.407   4.420   4.870  0.5991 -0.1602  2.2954
 2489SOL    HW218930   3.451   4.403   4.737  0.2799  2.2369  1.1134
 2490SOL     OW18931   0.187   4.635   6.098 -0.2167  0.0173  0.2976
 2490SOL    HW118932   0.132   4.672   6.167  1.7615  1.7249  0.9775
 2490SOL    HW218933   0.188   4.698   6.026  2.9313 -0.3340 -0.0010
 2491SOL     OW18934   0.862   1.272   6.279 -0.0432  0.2190  0.2180
 2491SOL    HW118935   0.869   1.177   6.266 -0.1322  0.1732  0.5072
 2491SOL    HW218936   0.826   1.295   6.193  0.8446 -4.0820 -1.2997
 2492SOL     OW18937   1.148   1.057   0.574  0.0902  0.3257 -0.6643
 2492SOL    HW118938   1.239   1.068   0.549  1.1497 -3.2981  1.5653
 2492SOL    HW218939   1.121   1.146   0.550  3.2507  1.6313  0.6783
 2493SOL     OW18940   1.773   1.641   3.912  0.4129 -0.3468 -0.0757
 2493SOL    HW118941   1.867   1.636   3.926  0.3389  2.8396  1.6170
 2493SOL    HW218942   1.764   1.736   3.911 -1.2889 -0.5012  0.2542
 2494SOL     OW18943   1.589   2.459   2.573  0.2434  0.0902  0.6490
 2494SOL    HW118944   1.665   2.423   2.526  0.2451 -0.5622  1.1552
 2494SOL    HW218945   1.521   2.392   2.568 -0.4767  0.9111 -0.8252
 2495SOL     OW18946   4.585   2.360  13.800 -0.2376  0.1758 -0.1340
 2495SOL    HW118947   4.499   2.388  13.768  0.9144  0.0888 -3.3366
 2495SOL    HW218948   4.579   2.265  13.804  0.1256  0.2545  2.3279
 2496SOL     OW18949   2.632   0.975   5.570  0.5639  0.5787 -0.1803
 2496SOL    HW118950   2.704   1.037   5.581 -0.1949  1.6704 -1.3305
 2496SOL    HW218951   2.574   1.034   5.522  1.2188 -0.5494 -2.3562
 2497SOL     OW18952   0.464   1.714   7.620  0.5029  0.2810  0.0659
 2497SOL    HW118953   0.544   1.662   7.623  0.0788 -0.3655  0.1478
 2497SOL    HW218954   0.441   1.740   7.709 -1.1789  0.0251 -0.2943
 2498SOL     OW18955   0.833   3.964   5.665 -0.1888  0.4026 -0.3400
 2498SOL    HW118956   0.905   3.936   5.721  0.7090 -0.0533 -1.7189
 2498SOL    HW218957   0.854   3.931   5.577 -1.5392 -0.6880 -0.2541
 2499SOL     OW18958   3.061   2.236   2.403 -0.5028 -0.2148  0.2410
 2499SOL    HW118959   3.121   2.206   2.334 -1.3235 -0.7515 -0.2432
 2499SOL    HW218960   3.072   2.331   2.403 -0.3584 -0.2290  0.8156
 2500SOL     OW18961   1.276   0.750   2.155 -0.6654 -0.4170 -0.6000
 2500SOL    HW118962   1.307   0.765   2.065  0.5694  0.2953 -0.0444
 2500SOL    HW218963   1.258   0.841   2.179  1.3036  0.1956 -1.4126
 2501SOL     OW18964   2.770   1.692  15.523 -0.0230 -0.0119 -0.0978
 2501SOL    HW118965   2.727   1.615  15.487  2.1723 -1.7945  1.0980
 2501SOL    HW218966   2.694   1.751  15.528  0.1469  0.2730 -0.8871
 2502SOL     OW18967   1.287   0.079  13.867  0.2191 -0.2582 -0.6163
 2502SOL    HW118968   1.307   0.001  13.816  1.1569 -0.4848  0.1011
 2502SOL    HW218969   1.354   0.066  13.934 -1.5644 -0.3148  1.1737
 2503SOL     OW18970   0.233   1.742   1.790  0.0838  0.4799  0.0068
 2503SOL    HW118971   0.279   1.810   1.740 -2.4210  1.0253 -1.5183
 2503SOL    HW218972   0.278   1.658   1.774 -0.0583  0.1922  1.1418
 2504SOL     OW18973   4.709   4.458   7.482  0.0538 -0.1224 -0.7596
 2504SOL    HW118974   4.698   4.462   7.577  0.7076 -0.9738 -0.6539
 2504SOL    HW218975   0.069   4.412   7.474  0.2407  0.2055 -0.7097
 2505SOL     OW18976   2.224   1.985   0.219  0.1341 -0.6889 -0.1280
 2505SOL    HW118977   2.223   1.931   0.298 -1.9318 -1.3907 -0.6367
 2505SOL    HW218978   2.137   2.024   0.230 -0.0882 -1.2334  0.0632
 2506SOL     OW18979   1.464   3.863   8.800 -0.5790 -0.0404 -0.1054
 2506SOL    HW118980   1.407   3.908   8.862  1.5613  1.1145  1.0359
 2506SOL    HW218981   1.418   3.883   8.719 -3.6726  1.4600  2.0526
 2507SOL     OW18982   4.373   3.928   7.874  0.2703 -0.2501 -0.1515
 2507SOL    HW118983   4.313   3.929   7.799 -0.4097  1.9175  0.4363
 2507SOL    HW218984   4.329   3.877   7.942  0.7912  1.1687  1.2588
 2508SOL     OW18985   2.837   3.966   5.708 -0.5021  0.1823 -0.0639
 2508SOL    HW118986   2.797   4.000   5.628 -2.1195 -1.4455  0.0500
 2508SOL    HW218987   2.885   4.045   5.729 -1.1689  0.3283  0.9333
 2509SOL     OW18988   0.443   0.220   2.522  0.0352  0.4866  0.1626
 2509SOL    HW118989   0.424   0.302   2.567  2.2265  1.0191  0.1292
 2509SOL    HW218990   0.374   0.164   2.559 -0.9390  0.1137 -2.2002
 2510SOL     OW18991   4.319   4.588  14.369 -0.1624 -0.1860  0.0626
 2510SOL    HW118992   4.238   4.597  14.318  0.2285  3.2774  0.0623
 2510SOL    HW218993   4.375   4.659  14.338 -0.3880 -0.7626 -1.6998
 2511SOL     OW18994   4.553   0.510  10.358 -0.2472 -0.1609  0.7370
 2511SOL    HW118995   4.487   0.515  10.288 -1.7814  1.4831  2.3178
 2511SOL    HW218996   4.521   0.578  10.417 -0.8721  0.7013 -0.5995
 2512SOL     OW18997   4.125   0.821   3.418 -0.2025 -0.3872  0.0230
 2512SOL    HW118998   4.048   0.764   3.410 -2.0940  2.5321 -2.6480
 2512SOL    HW218999   4.150   0.792   3.506 -0.2177 -0.6220 -0.0496
 2513SOL     OW19000   1.526   2.127   5.589  0.1412 -0.0269 -0.4566
 2513SOL    HW119001   1.526   2.223   5.593  0.1749 -0.0199 -0.6561
 2513SOL    HW219002   1.439   2.106   5.555  1.1143 -2.5627 -1.3919
 2514SOL     OW19003   3.086   4.589   5.109 -0.4430 -0.2442 -0.5369
 2514SOL    HW119004   3.010   4.579   5.166  0.4974 -3.1014  0.2247
 2514SOL    HW219005   3.103   4.683   5.106  0.1255 -0.3754 -1.4528
 2515SOL     OW19006   1.397   3.684   1.576  0.2922  0.0955 -0.5020
 2515SOL    HW119007   1.443   3.724   1.649 -1.4572  0.1497  0.5773
 2515SOL    HW219008   1.323   3.637   1.615  0.6938 -2.3463 -2.6914
 2516SOL     OW19009   4.645   3.881  17.488 -0.2933  0.5071  0.5151
 2516SOL    HW119010   4.681   3.884  17.399 -0.5534  2.2130  0.4496
 2516SOL    HW219011   4.683   3.795  17.501 -0.9903  0.5924  3.0647
 2517SOL     OW19012   0.624   1.723  15.575 -0.2254  0.3367  0.2154
 2517SOL    HW119013   0.649   1.714  15.484 -0.1501  1.9308  0.0866
 2517SOL    HW219014   0.629   1.636  15.615  2.3512 -0.2563 -1.4620
 2518SOL     OW19015   4.604   4.102   4.726 -0.1651 -0.0785  0.0434
 2518SOL    HW119016   4.551   4.150   4.662  0.9857 -0.0217 -0.8500
 2518SOL    HW219017   4.598   4.171   4.793 -1.4980 -1.0508  0.9259
 2519SOL     OW19018   0.216   0.092   3.762 -0.3293  0.0505 -0.8878
 2519SOL    HW119019   0.148   0.032   3.793 -0.7061  0.9945  0.0806
 2519SOL    HW219020   0.241   0.140   3.841 -1.3999  0.0440 -0.5507
 2520SOL     OW19021   1.832   4.098   3.754 -0.2457 -0.2985  0.3754
 2520SOL    HW119022   1.782   4.105   3.673  2.4815 -0.5206 -1.3302
 2520SOL    HW219023   1.901   4.158   3.727 -0.4971 -0.6267 -1.0088
 2521SOL     OW19024   1.606   4.021   2.321 -0.3545  0.2320  0.4694
 2521SOL    HW119025   1.547   4.000   2.247  1.1985  0.8065 -0.9281
 2521SOL    HW219026   1.631   3.932   2.345 -1.9679 -0.3920 -0.1088
 2522SOL     OW19027   4.715   2.871   7.135 -0.0703 -0.4664 -0.1843
 2522SOL    HW119028   4.720   2.922   7.054  0.9013  2.2493  1.5902
 2522SOL    HW219029   4.627   2.895   7.163 -0.2362 -0.8890 -0.3389
 2523SOL     OW19030   4.628   3.370   0.308 -0.5864  0.6921 -0.3302
 2523SOL    HW119031   4.543   3.333   0.330 -0.2287  0.6399  0.9985
 2523SOL    HW219032   4.614   3.444   0.249  1.0431  0.1103 -1.4571
 2524SOL     OW19033   3.790   1.917   5.149  0.3342  0.4159  0.4294
 2524SOL    HW119034   3.845   1.843   5.123 -0.4198 -0.1940  0.5702
 2524SOL    HW219035   3.852   1.990   5.142  2.0128 -0.7745  2.7920
 2525SOL     OW19036   3.195   0.497   5.871  0.1022 -0.3421 -0.1922
 2525SOL    HW119037   3.144   0.573   5.898 -0.5774 -0.3205 -1.5869
 2525SOL    HW219038   3.150   0.431   5.924  2.3343 -2.6819 -1.2054
 2526SOL     OW19039   3.863   1.614  12.541 -0.0321  0.1813 -0.2764
 2526SOL    HW119040   3.865   1.651  12.453 -1.8079 -1.6651 -1.0892
 2526SOL    HW219041   3.771   1.589  12.545 -0.8948  3.7709  2.5458
 2527SOL     OW19042   2.263   1.013   5.021  0.2708 -0.7408 -0.1600
 2527SOL    HW119043   2.302   1.087   5.066  2.1276 -0.1100 -2.8102
 2527SOL    HW219044   2.288   0.943   5.081  0.5279 -1.2309 -0.8302
 2528SOL     OW19045   3.996   0.339   7.632 -0.0156  0.1972 -0.1708
 2528SOL    HW119046   4.080   0.383   7.636 -0.4865  1.2266 -1.6684
 2528SOL    HW219047   3.927   0.405   7.623 -0.0113  0.3429  0.7862
 2529SOL     OW19048   1.321   3.314  11.361  0.2108  0.0633 -0.0697
 2529SOL    HW119049   1.357   3.332  11.448  1.1760 -1.3511 -0.1809
 2529SOL    HW219050   1.374   3.237  11.340  1.2644  1.2763 -1.8950
 2530SOL     OW19051   2.276   0.735  14.594 -0.6385 -0.2397 -0.5202
 2530SOL    HW119052   2.197   0.682  14.607  0.0525 -0.7185  1.7643
 2530SOL    HW219053   2.276   0.788  14.674 -3.0111 -1.7927  0.5121
 2531SOL     OW19054   0.693   3.669   3.096  0.4921 -0.2124 -0.6371
 2531SOL    HW119055   0.744   3.614   3.155  0.7329  0.2987 -0.3650
 2531SOL    HW219056   0.757   3.674   3.026  0.0885  1.5614 -0.8749
 2532SOL     OW19057   2.571   0.952  17.004  0.2487 -0.1418 -0.4096
 2532SOL    HW119058   2.508   1.024  17.000 -0.8115 -1.1672 -2.7711
 2532SOL    HW219059   2.648   0.994  16.966 -0.5618 -0.5960 -2.5614
 2533SOL     OW19060   2.353   1.891   5.674  0.2647  0.5002 -0.1511
 2533SOL    HW119061   2.367   1.797   5.674  1.7178  0.7038 -0.2890
 2533SOL    HW219062   2.435   1.928   5.708  0.6140  0.8323 -1.3418
 2534SOL     OW19063   2.481   2.091   0.231  0.0732  0.6727  0.3887
 2534SOL    HW119064   2.506   2.052   0.148  1.5904  0.4441  0.9562
 2534SOL    HW219065   2.394   2.052   0.237 -0.2613  1.7592  2.8312
 2535SOL     OW19066   4.602   3.850   8.248  0.0584  0.4248  0.1980
 2535SOL    HW119067   4.609   3.769   8.197 -1.1347 -0.4511  1.4203
 2535SOL    HW219068   4.521   3.836   8.297 -1.1107  0.8783 -1.6009
 2536SOL     OW19069   2.691   2.835   8.044  0.2060  0.4041  0.1915
 2536SOL    HW119070   2.666   2.837   8.136  1.3970 -0.4829  0.5405
 2536SOL    HW219071   2.615   2.873   8.000 -0.5186 -0.9304  0.2994
 2537SOL     OW19072   3.413   4.010  14.579  0.4358 -0.2600 -0.1440
 2537SOL    HW119073   3.477   3.940  14.593 -0.4039 -1.1786 -0.9127
 2537SOL    HW219074   3.400   4.032  14.671 -0.2982 -0.2756 -0.2496
 2538SOL     OW19075   4.264   2.890   6.360  0.0365  0.4223  0.3013
 2538SOL    HW119076   4.292   2.959   6.301  1.4612 -0.4163  0.0081
 2538SOL    HW219077   4.299   2.918   6.445  0.9251  1.3635 -0.3791
 2539SOL     OW19078   1.517   0.213   3.708  0.3522 -0.1574  0.0551
 2539SOL    HW119079   1.604   0.175   3.715  0.8364  0.8353 -0.5938
 2539SOL    HW219080   1.495   0.204   3.615  2.0893 -0.2407 -0.3384
 2540SOL     OW19081   0.429   3.389   3.309 -0.9255 -0.0011  0.1807
 2540SOL    HW119082   0.497   3.454   3.331  0.6146 -0.8088 -2.1472
 2540SOL    HW219083   0.347   3.437   3.318 -2.0145 -1.5600 -1.4169
 2541SOL     OW19084   3.568   2.494   4.203  0.3724  0.1649 -0.4053
 2541SOL    HW119085   3.549   2.404   4.229  1.8755  0.1028  0.5001
 2541SOL    HW219086   3.630   2.484   4.131 -1.0317  1.7168 -1.8070
 2542SOL     OW19087   2.247   4.134   2.859  0.2147  0.0565 -0.0203
 2542SOL    HW119088   2.293   4.178   2.786  0.2000  1.8069  1.0163
 2542SOL    HW219089   2.244   4.043   2.829 -0.6454 -0.1789  0.8172
 2543SOL     OW19090   3.679   2.600   9.862  0.0620  0.0392 -0.0115
 2543SOL    HW119091   3.675   2.517   9.814 -1.2716 -0.2486  0.5894
 2543SOL    HW219092   3.681   2.661   9.789 -1.8626  1.8973  1.4929
 2544SOL     OW19093   1.139   1.059   3.348  0.0683 -0.5514 -0.1632
 2544SOL    HW119094   1.092   0.981   3.319  1.7335 -1.7311  0.2700
 2544SOL    HW219095   1.224   1.046   3.306  0.2420 -0.8006  0.2641
 2545SOL     OW19096   2.549   1.964   7.287  0.9951 -0.5712  0.2766
 2545SOL    HW119097   2.601   2.005   7.218  1.4716 -0.0460  0.9562
 2545SOL    HW219098   2.459   1.967   7.253  1.2713 -1.8143 -0.5895
 2546SOL     OW19099   2.156   2.798   0.444  0.6026  0.2587  0.0081
 2546SOL    HW119100   2.123   2.724   0.393 -2.7300  1.8371 -0.1197
 2546SOL    HW219101   2.153   2.758   0.530  1.5324  0.8403  0.3141
 2547SOL     OW19102   4.193   2.164   7.626  0.4697 -0.3863 -0.4504
 2547SOL    HW119103   4.279   2.188   7.659  0.8961 -0.7646 -1.3113
 2547SOL    HW219104   4.219   2.097   7.563 -2.8551  0.1247 -2.3489
 2548SOL     OW19105   3.145   4.278  10.320 -0.4297 -0.3918  0.5472
 2548SOL    HW119106   3.069   4.221  10.319 -0.4099 -0.4057 -0.0935
 2548SOL    HW219107   3.197   4.255  10.398  0.4586 -1.8844 -0.4967
 2549SOL     OW19108   0.622   1.570  12.982  0.1946  0.4098 -0.5715
 2549SOL    HW119109   0.543   1.547  13.032  0.3314 -1.4015 -1.1779
 2549SOL    HW219110   0.690   1.609  13.037  0.5176 -1.8997  0.6720
 2550SOL     OW19111   3.640   2.395   7.751  0.2488  0.3551 -0.7333
 2550SOL    HW119112   3.565   2.436   7.793 -0.0011  0.2519 -1.0885
 2550SOL    HW219113   3.626   2.392   7.657 -1.9611 -0.8140 -0.3761
 2551SOL     OW19114   4.527   2.884  16.384  0.1530 -0.1644 -0.1308
 2551SOL    HW119115   4.550   2.824  16.455  2.0774  1.7417  0.8465
 2551SOL    HW219116   4.607   2.926  16.353 -0.4756  0.1590 -1.3080
 2552SOL     OW19117   3.168   0.075   5.437 -0.2043  0.3781 -0.5702
 2552SOL    HW119118   3.192   0.158   5.479 -1.8073 -0.5816  2.1907
 2552SOL    HW219119   3.247   0.034   5.400  1.8385  3.0709  0.7544
 2553SOL     OW19120   2.943   2.500   7.638  0.0146  0.0683  0.7974
 2553SOL    HW119121   2.945   2.531   7.728 -0.2292  1.5740  0.2881
 2553SOL    HW219122   3.036   2.508   7.616 -0.6401 -0.9166 -2.3730
 2554SOL     OW19123   3.583   4.163   8.613 -0.3939 -0.3626  0.6376
 2554SOL    HW119124   3.577   4.239   8.555 -0.6972 -1.3476 -0.6093
 2554SOL    HW219125   3.590   4.200   8.701 -1.0663  0.4326  0.3579
 2555SOL     OW19126   2.057   2.743  11.940  0.0199  0.3535  0.5806
 2555SOL    HW119127   2.113   2.781  12.008 -0.7593 -1.0124  1.9830
 2555SOL    HW219128   2.050   2.818  11.881  1.9542 -1.6230 -2.1575
 2556SOL     OW19129   1.321   2.827   7.777 -0.6067  0.4133  0.2286
 2556SOL    HW119130   1.372   2.883   7.835 -0.0153 -0.4246  0.5147
 2556SOL    HW219131   1.308   2.754   7.837  0.3910 -1.3553 -1.6860
 2557SOL     OW19132   1.830   0.876   6.416 -0.2247  0.6629 -0.1173
 2557SOL    HW119133   1.737   0.893   6.401 -0.4754 -0.5114  0.0796
 2557SOL    HW219134   1.868   0.960   6.441 -1.7133  0.4891  2.6913
 2558SOL     OW19135   2.940   0.452   8.720  0.6772  0.4214 -0.2017
 2558SOL    HW119136   2.985   0.374   8.687 -0.0677 -0.7165  1.4765
 2558SOL    HW219137   3.009   0.480   8.779  1.0685  1.2268 -1.0391
 2559SOL     OW19138   3.609   2.503   7.061 -0.2596  0.4931  0.4231
 2559SOL    HW119139   3.517   2.480   7.057 -0.7542  2.7169 -0.5795
 2559SOL    HW219140   3.595   2.597   7.077 -0.1524  0.6112 -0.1841
 2560SOL     OW19141   0.071   2.994   8.506 -0.4725  0.0660  0.2818
 2560SOL    HW119142   0.114   2.962   8.586 -2.4560 -0.4776  1.1240
 2560SOL    HW219143   0.150   3.040   8.478  0.3160 -1.5357 -0.1158
 2561SOL     OW19144   3.857   2.210   7.721 -0.3683 -0.2573  0.1851
 2561SOL    HW119145   3.892   2.204   7.810 -0.2886  1.7015  0.3028
 2561SOL    HW219146   3.784   2.272   7.733 -0.5115 -0.4489  0.3006
 2562SOL     OW19147   0.077   3.728  15.838  0.0870  0.0290  0.1903
 2562SOL    HW119148   0.031   3.676  15.904  0.6427 -0.6608  0.0271
 2562SOL    HW219149   0.159   3.742  15.884  1.0085 -0.6265 -1.2544
 2563SOL     OW19150   1.629   0.088   4.579  0.0317  0.3837 -0.5644
 2563SOL    HW119151   1.644   0.143   4.657 -0.4792 -0.9367  0.4664
 2563SOL    HW219152   1.597   0.012   4.627 -0.9175  0.9786 -0.2466
 2564SOL     OW19153   3.062   4.058   8.943 -0.6880 -0.2245 -0.5702
 2564SOL    HW119154   3.049   4.061   9.038 -1.0635  1.6828 -0.6806
 2564SOL    HW219155   2.998   4.119   8.907  0.7960  1.4978 -0.3187
 2565SOL     OW19156   1.669   2.854  17.186  0.6539 -0.2581  0.3268
 2565SOL    HW119157   1.731   2.896  17.126  0.0119 -2.3165 -1.7827
 2565SOL    HW219158   1.710   2.854  17.273 -0.7203 -1.0169  0.9774
 2566SOL     OW19159   0.768   4.213   2.262  0.9090  0.2405  0.4166
 2566SOL    HW119160   0.735   4.192   2.349  1.0624  2.4933  1.0066
 2566SOL    HW219161   0.841   4.152   2.252  1.6967  0.7045  3.3852
 2567SOL     OW19162   2.608   2.904   2.618  0.0712  0.2658 -0.1017
 2567SOL    HW119163   2.685   2.873   2.666 -2.6529 -2.7998  2.3051
 2567SOL    HW219164   2.540   2.857   2.665  0.4092 -0.0470  0.0729
 2568SOL     OW19165   0.701   4.535   7.900 -0.2578  0.1425 -0.1850
 2568SOL    HW119166   0.753   4.534   7.980 -2.0599 -3.3072  0.9549
 2568SOL    HW219167   0.673   4.625   7.888 -1.9332 -0.3360  0.1591
 2569SOL     OW19168   1.743   2.672   8.724  0.0771 -0.0751 -0.2168
 2569SOL    HW119169   1.654   2.649   8.754  0.6279 -1.4810  0.3531
 2569SOL    HW219170   1.772   2.671   8.816 -0.2949  2.0100 -0.0819
 2570SOL     OW19171   4.294   3.239   0.878  0.1175  0.0692  0.2791
 2570SOL    HW119172   4.342   3.302   0.823 -0.9223 -0.4297 -1.1869
 2570SOL    HW219173   4.318   3.271   0.965  0.6904 -2.6258  1.1081
 2571SOL     OW19174   2.684   0.707   2.610 -0.2456  0.1480  0.5316
 2571SOL    HW119175   2.616   0.640   2.611 -1.3004  1.1947 -0.3636
 2571SOL    HW219176   2.648   0.778   2.556  0.0022 -1.1513 -1.3650
 2572SOL     OW19177   3.119   1.420  11.718 -0.2857 -0.0669  0.1047
 2572SOL    HW119178   3.044   1.406  11.660 -1.3668 -0.4489  1.5908
 2572SOL    HW219179   3.172   1.344  11.697  0.1462  0.2847 -0.0751
 2573SOL     OW19180   0.071   3.996   7.150 -0.1374 -0.0714  0.2163
 2573SOL    HW119181   0.119   4.059   7.096  0.1166  0.5527  1.1742
 2573SOL    HW219182   0.006   4.054   7.188 -0.8218 -2.4737  2.7201
 2574SOL     OW19183   2.066   4.532   4.284 -0.7984 -0.6004 -0.4816
 2574SOL    HW119184   2.135   4.533   4.218  1.9388  0.5876  2.3343
 2574SOL    HW219185   2.113   4.476   4.346  0.1053  1.0270  0.3094
 2575SOL     OW19186   4.377   2.798   1.614 -0.3803  0.0072 -0.3386
 2575SOL    HW119187   4.316   2.729   1.638 -0.5735  0.6395  0.9712
 2575SOL    HW219188   4.353   2.852   1.689  2.1860 -0.8687  1.1134
 2576SOL     OW19189   3.719   1.315   3.721  0.3073  0.1373  0.2826
 2576SOL    HW119190   3.635   1.361   3.714 -0.2325 -1.1518 -1.6061
 2576SOL    HW219191   3.697   1.224   3.742  0.1062 -0.2967 -1.7333
 2577SOL     OW19192   1.687   4.101   7.504 -0.3731  0.1335  0.1582
 2577SOL    HW119193   1.674   4.164   7.575  0.8450  1.2416 -0.5816
 2577SOL    HW219194   1.604   4.113   7.457 -0.0493 -1.2629 -0.7555
 2578SOL     OW19195   3.558   0.207   9.016  0.4980 -0.0657 -0.1514
 2578SOL    HW119196   3.617   0.133   9.027 -2.2968 -1.9401  2.3849
 2578SOL    HW219197   3.499   0.190   9.090  1.0558  1.0621  0.5564
 2579SOL     OW19198   0.283   2.078   6.315 -0.1086  0.5322  0.0758
 2579SOL    HW119199   0.297   2.075   6.409  4.0957  2.8343 -0.4614
 2579SOL    HW219200   0.277   2.173   6.309 -1.8546  0.5073  1.4917
 2580SOL     OW19201   3.254   2.001   8.534 -0.1339  0.5719  0.2304
 2580SOL    HW119202   3.164   2.020   8.509  0.3710  1.5651 -0.8331
 2580SOL    HW219203   3.291   2.004   8.446 -0.4512  0.1310  0.0815
 2581SOL     OW19204   0.169   4.483   4.079 -0.6588 -0.3552  0.1073
 2581SOL    HW119205   0.134   4.542   4.012 -0.9464  1.6194  1.9861
 2581SOL    HW219206   0.170   4.402   4.029  0.1577  0.1949 -0.7525
 2582SOL     OW19207   2.973   2.583   0.290  0.5837  0.1722  0.2111
 2582SOL    HW119208   2.953   2.571   0.197  0.6757  0.7583  0.1152
 2582SOL    HW219209   2.887   2.617   0.315 -0.6884 -3.4456  0.6886
 2583SOL     OW19210   1.648   3.471  11.422  0.2581  0.1320 -0.0153
 2583SOL    HW119211   1.721   3.497  11.479 -0.9908  1.0828  1.1576
 2583SOL    HW219212   1.687   3.456  11.336 -1.1468  0.2410 -0.6770
 2584SOL     OW19213   3.770   3.386  14.675 -0.0623 -0.4147 -0.6122
 2584SOL    HW119214   3.807   3.350  14.756 -1.8615 -1.7943 -0.4127
 2584SOL    HW219215   3.681   3.351  14.675 -0.1293 -0.2518 -0.1482
 2585SOL     OW19216   3.470   2.755   4.130  0.4697 -0.0342 -0.4100
 2585SOL    HW119217   3.401   2.755   4.063 -0.8949 -0.3326  0.9976
 2585SOL    HW219218   3.481   2.666   4.165 -0.8123  0.1367  0.4028
 2586SOL     OW19219   3.214   2.506   4.811 -0.4796  0.2108 -0.5159
 2586SOL    HW119220   3.259   2.444   4.754  0.9675  1.1435 -0.3927
 2586SOL    HW219221   3.159   2.445   4.861 -0.5222  1.1214  0.5444
 2587SOL     OW19222   4.079   0.648   8.839 -0.0662  0.6191  0.2111
 2587SOL    HW119223   4.038   0.643   8.753  1.1068 -0.7688 -0.2733
 2587SOL    HW219224   4.171   0.657   8.812 -0.0131 -1.0121 -0.1416
 2588SOL     OW19225   2.658   3.900   7.244  0.0182 -0.5016 -0.7721
 2588SOL    HW119226   2.704   3.958   7.183  0.8299  0.2066  0.5229
 2588SOL    HW219227   2.652   3.825   7.185 -0.7137 -0.5950 -0.5816
 2589SOL     OW19228   0.807   4.096   4.903 -0.7881  0.4308 -0.3470
 2589SOL    HW119229   0.848   4.018   4.865  0.3935  1.0141 -0.2846
 2589SOL    HW219230   0.717   4.090   4.872 -0.4899  0.0746 -1.1452
 2590SOL     OW19231   2.850   0.320   6.130 -0.5664  0.0019  0.4284
 2590SOL    HW119232   2.922   0.357   6.181  1.3725 -0.4388 -1.9862
 2590SOL    HW219233   2.866   0.359   6.044  0.6028  1.6295  1.3901
 2591SOL     OW19234   3.348   1.501  12.005  0.3616  0.1778  0.2577
 2591SOL    HW119235   3.416   1.556  11.969 -1.8782  2.4786 -0.4385
 2591SOL    HW219236   3.275   1.529  11.950 -0.0257  0.8077  1.1028
 2592SOL     OW19237   3.881   1.303   5.393 -0.3473  0.1436 -0.6068
 2592SOL    HW119238   3.817   1.313   5.322 -1.3994 -0.9232  0.1765
 2592SOL    HW219239   3.843   1.363   5.458 -3.2851 -0.6243 -1.6125
 2593SOL     OW19240   1.597   4.464   9.161  0.8905 -0.1928  0.1007
 2593SOL    HW119241   1.670   4.446   9.221 -0.2584 -2.1654  0.9372
 2593SOL    HW219242   1.631   4.540   9.114 -0.9523  1.4516  1.4069
 2594SOL     OW19243   2.543   2.692   9.424  0.2087  0.0403  0.0892
 2594SOL    HW119244   2.454   2.725   9.437 -0.3618 -1.4948  0.1064
 2594SOL    HW219245   2.591   2.773   9.437  1.8376 -1.1063  1.1696
 2595SOL     OW19246   2.751   2.720   0.394  0.2110 -0.3515  0.0907
 2595SOL    HW119247   2.806   2.797   0.403 -0.3273 -0.5306  5.0430
 2595SOL    HW219248   2.690   2.738   0.465 -1.1293 -1.4422 -0.7730
 2596SOL     OW19249   2.866   2.214   8.698 -0.2301 -0.4488  0.2424
 2596SOL    HW119250   2.820   2.283   8.650  0.3342  2.7155  4.3070
 2596SOL    HW219251   2.908   2.268   8.765  0.6881  0.1271 -0.8034
 2597SOL     OW19252   1.355   3.582  14.385 -0.9142 -0.5671  0.2599
 2597SOL    HW119253   1.305   3.512  14.427 -0.7759 -1.3946 -0.9391
 2597SOL    HW219254   1.415   3.521  14.342 -1.5433 -0.1969 -1.1369
 2598SOL     OW19255   1.080   2.056   6.126 -0.1347 -0.5684  0.4899
 2598SOL    HW119256   1.011   2.063   6.192 -0.7608  1.4931 -0.3632
 2598SOL    HW219257   1.055   2.136   6.079  0.9133 -0.7913 -0.4361
 2599SOL     OW19258   1.090   1.460  17.405 -0.3003  0.1812  0.4522
 2599SOL    HW119259   1.041   1.542  17.406 -1.7382 -0.6918  0.0330
 2599SOL    HW219260   1.103   1.450  17.499 -1.7325  2.0399  0.8428
 2600SOL     OW19261   1.331   1.243  17.078  0.1372 -0.2020  0.0134
 2600SOL    HW119262   1.363   1.227  16.989 -0.7521 -1.5419 -0.0699
 2600SOL    HW219263   1.412   1.231  17.127  0.0465 -0.8586  0.0086
 2601SOL     OW19264   2.867   3.293   8.334 -0.1771  0.0916  0.5968
 2601SOL    HW119265   2.944   3.326   8.289 -0.3773 -0.7369 -0.3487
 2601SOL    HW219266   2.820   3.376   8.343  2.1473  1.4356  0.4133
 2602SOL     OW19267   2.779   0.287   5.423 -0.4081 -0.3078  0.2070
 2602SOL    HW119268   2.864   0.328   5.410  0.6912 -2.0887  1.6988
 2602SOL    HW219269   2.798   0.246   5.507  0.1833 -0.7667 -0.1481
 2603SOL     OW19270   1.601   1.510   4.452 -0.1086 -0.5854 -0.1671
 2603SOL    HW119271   1.547   1.566   4.397 -1.7322 -1.2641  0.7542
 2603SOL    HW219272   1.660   1.463   4.392 -1.8120 -1.6224 -1.0530
 2604SOL     OW19273   0.404   2.256   0.551 -0.2148  0.0714 -0.3090
 2604SOL    HW119274   0.383   2.318   0.481 -1.4250 -0.4065 -0.3684
 2604SOL    HW219275   0.477   2.209   0.510 -1.0065 -1.0938 -0.3684
 2605SOL     OW19276   3.165   3.669   3.308 -0.6138 -0.1518 -0.0749
 2605SOL    HW119277   3.121   3.713   3.235 -0.2433  1.1867  0.5045
 2605SOL    HW219278   3.230   3.613   3.265 -0.1972  1.1151 -1.0878
 2606SOL     OW19279   1.688   2.977   3.494 -0.5980 -0.1383 -0.0839
 2606SOL    HW119280   1.600   2.959   3.527 -0.8347  2.0888  0.5397
 2606SOL    HW219281   1.679   2.952   3.402 -0.0234  0.3597 -0.2765
 2607SOL     OW19282   3.291   1.238  12.316  0.5394  0.0310  0.7954
 2607SOL    HW119283   3.293   1.334  12.319  0.2969  0.0784 -0.7737
 2607SOL    HW219284   3.227   1.237  12.387 -1.0878  0.7296 -0.6733
 2608SOL     OW19285   3.705   0.233   4.044 -0.5293 -0.7757  0.0583
 2608SOL    HW119286   3.732   0.188   4.125 -1.5346 -0.6570  0.4541
 2608SOL    HW219287   3.779   0.210   3.987 -0.2116 -0.2210  0.2512
 2609SOL     OW19288   3.611   4.117   0.431  0.0226 -0.1203  0.2177
 2609SOL    HW119289   3.644   4.207   0.428 -0.0908 -0.0853 -0.0701
 2609SOL    HW219290   3.541   4.141   0.491 -0.0983  1.3055 -0.4821
 2610SOL     OW19291   3.977   1.491   7.620  0.6523 -0.4117  0.2785
 2610SOL    HW119292   4.008   1.570   7.664 -4.1564  1.3062  0.6368
 2610SOL    HW219293   4.049   1.482   7.558 -0.2950 -0.0866 -0.8701
 2611SOL     OW19294   0.756   4.150   7.125  0.0592  0.2671 -0.1739
 2611SOL    HW119295   0.661   4.143   7.114  0.0077 -0.5361  0.7645
 2611SOL    HW219296   0.770   4.077   7.186 -1.5581 -0.4705 -0.6687
 2612SOL     OW19297   2.599   0.512   7.461 -0.3279  0.2675  0.5997
 2612SOL    HW119298   2.667   0.444   7.461 -1.0590 -0.4498  1.7837
 2612SOL    HW219299   2.516   0.469   7.480  0.2890 -0.8076  0.8774
 2613SOL     OW19300   2.859   1.781  14.795 -0.6205  0.0030 -0.1522
 2613SOL    HW119301   2.765   1.797  14.790 -0.6609 -0.4491 -0.8266
 2613SOL    HW219302   2.881   1.742  14.710  0.0264 -2.7322  1.2645
 2614SOL     OW19303   4.546   4.072   5.146  0.5084  0.3247  0.3158
 2614SOL    HW119304   4.537   4.017   5.224 -1.0733 -0.1202 -0.1812
 2614SOL    HW219305   4.495   4.151   5.162 -0.6765 -0.8595  2.3483
 2615SOL     OW19306   0.475   1.260   0.238 -0.0120  0.1320 -0.1553
 2615SOL    HW119307   0.523   1.281   0.158  0.4893  0.6354  0.2737
 2615SOL    HW219308   0.443   1.173   0.215  0.9964 -0.9052  2.3616
 2616SOL     OW19309   2.963   2.058   8.478  0.0558  0.5632 -0.0072
 2616SOL    HW119310   2.940   2.131   8.421  0.2367 -0.2551 -1.1440
 2616SOL    HW219311   2.955   2.098   8.564 -3.7591 -0.2314  0.0061
 2617SOL     OW19312   0.846   1.574   8.582  0.0116  0.6746  0.0857
 2617SOL    HW119313   0.940   1.576   8.563 -0.2156  1.7752 -0.8968
 2617SOL    HW219314   0.817   1.485   8.562 -1.6046  1.2627 -0.1649
 2618SOL     OW19315   0.394   3.772   5.587 -0.1366  0.8214  0.1454
 2618SOL    HW119316   0.426   3.846   5.640  1.7477 -0.9034  1.4356
 2618SOL    HW219317   0.476   3.723   5.579 -1.0189  0.0238 -3.9809
 2619SOL     OW19318   1.513   3.145  11.740  0.3222  0.2678  0.1596
 2619SOL    HW119319   1.471   3.229  11.720  0.9733  0.6038  0.2412
 2619SOL    HW219320   1.588   3.155  11.682  1.0468 -0.8921  0.9049
 2620SOL     OW19321   0.742   2.208   4.418 -0.6867  0.0031  0.0082
 2620SOL    HW119322   0.762   2.140   4.355 -2.2033 -0.9437  0.5495
 2620SOL    HW219323   0.824   2.232   4.461 -0.1356 -0.9521 -0.5245
 2621SOL     OW19324   3.739   1.864   3.650  0.0250 -0.1489 -0.2514
 2621SOL    HW119325   3.669   1.865   3.716  0.3894 -1.5157  0.1518
 2621SOL    HW219326   3.816   1.850   3.706 -1.2133  1.4427  1.8604
 2622SOL     OW19327   4.095   2.794   8.848 -0.0121 -0.8911  0.0091
 2622SOL    HW119328   4.170   2.752   8.807 -0.3146 -1.7945  0.3621
 2622SOL    HW219329   4.110   2.888   8.840 -0.9348 -0.7252  0.2317
 2623SOL     OW19330   1.199   2.832  12.744 -0.5108  0.0673  0.3939
 2623SOL    HW119331   1.169   2.750  12.783  1.5844  0.0247  1.8878
 2623SOL    HW219332   1.293   2.832  12.760 -0.3905  1.8014 -0.2933
 2624SOL     OW19333   4.056   1.013   1.305 -0.1216  0.2569  0.3983
 2624SOL    HW119334   4.000   0.952   1.258 -1.9546  1.9183  0.4643
 2624SOL    HW219335   4.076   0.957   1.380 -0.4257  0.6863  0.7996
 2625SOL     OW19336   2.234   0.580   6.240  0.3057  0.4297  0.3647
 2625SOL    HW119337   2.308   0.636   6.261 -0.1211  0.1450  2.5928
 2625SOL    HW219338   2.161   0.632   6.272  0.0871 -0.2316  0.9426
 2626SOL     OW19339   1.129   4.519   0.945  0.1129 -0.2541  0.4279
 2626SOL    HW119340   1.086   4.592   0.990 -1.4560  0.1137 -1.6830
 2626SOL    HW219341   1.216   4.533   0.983  0.4201  0.8893 -0.6952
 2627SOL     OW19342   3.328   3.351  13.547  0.3334  0.2453  0.4268
 2627SOL    HW119343   3.408   3.369  13.596  0.8238 -0.6424 -0.0607
 2627SOL    HW219344   3.332   3.416  13.476  1.9545 -0.9539 -0.5838
 2628SOL     OW19345   3.909   0.515   9.325  0.5716  0.4681  0.1647
 2628SOL    HW119346   3.823   0.503   9.285 -0.2424 -0.0195  2.0714
 2628SOL    HW219347   3.894   0.464   9.404  0.7894 -1.1671 -0.8394
 2629SOL     OW19348   1.775   1.199  10.676  0.0242 -0.3030  0.2623
 2629SOL    HW119349   1.790   1.108  10.703  0.8857 -0.2471  0.0020
 2629SOL    HW219350   1.680   1.200  10.666  0.0874 -1.7919 -0.5314
 2630SOL     OW19351   2.373   0.934   8.853  0.3450  0.1068  0.5389
 2630SOL    HW119352   2.390   1.025   8.829 -2.1589 -0.1650 -2.1984
 2630SOL    HW219353   2.323   0.914   8.774 -0.9106  0.9803  1.1258
 2631SOL     OW19354   2.272   4.247   4.800  0.4031 -0.0402 -0.0643
 2631SOL    HW119355   2.205   4.283   4.742 -1.1712 -1.3433  0.9335
 2631SOL    HW219356   2.261   4.308   4.873  2.3415  3.3063 -2.5879
 2632SOL     OW19357   2.194   1.932  16.857  0.0339  0.0638  0.0287
 2632SOL    HW119358   2.246   1.855  16.880 -2.4545 -1.5052  0.4505
 2632SOL    HW219359   2.147   1.955  16.938 -0.8059 -0.0555 -0.4258
 2633SOL     OW19360   0.467   3.750   7.301 -0.4295  0.0124  0.2530
 2633SOL    HW119361   0.458   3.657   7.283  0.2877  0.1145 -0.6190
 2633SOL    HW219362   0.499   3.746   7.391  2.2759  0.0785 -0.6994
 2634SOL     OW19363   3.688   4.696  15.482 -0.7321 -0.1242 -0.3579
 2634SOL    HW119364   3.709   0.000  15.572  1.4495  1.6218 -1.4032
 2634SOL    HW219365   3.769   4.665  15.441 -1.1042 -1.0290 -0.3917
 2635SOL     OW19366   1.930   2.465   3.339  0.6219  0.3482  0.5093
 2635SOL    HW119367   1.933   2.539   3.277 -1.2893  0.8941  1.0972
 2635SOL    HW219368   1.917   2.398   3.272 -0.1404  2.1921 -1.2230
 2636SOL     OW19369   0.352   4.220   1.636 -0.1871  0.3106 -0.1204
 2636SOL    HW119370   0.351   4.263   1.551  1.4918 -1.3089 -0.9576
 2636SOL    HW219371   0.342   4.129   1.610  0.8670 -0.5420  2.4207
 2637SOL     OW19372   1.131   3.529   4.269 -0.1347 -0.7876 -0.1545
 2637SOL    HW119373   1.173   3.612   4.293 -0.0185 -1.4749  1.9951
 2637SOL    HW219374   1.058   3.523   4.330 -0.9531  2.8548 -0.7771
 2638SOL     OW19375   2.001   4.357  11.183 -0.1643  0.2325 -0.0686
 2638SOL    HW119376   1.950   4.297  11.129  0.4421 -1.6758  1.4889
 2638SOL    HW219377   2.059   4.397  11.117  0.5771 -0.7973 -0.0521
 2639SOL     OW19378   4.689   0.751  14.134  0.1774  0.1218  0.3615
 2639SOL    HW119379   0.002   0.801  14.060 -3.6284  2.2857 -0.0214
 2639SOL    HW219380   4.607   0.719  14.097 -0.3453 -1.5244  2.9452
 2640SOL     OW19381   1.848   4.382  11.379  0.5940 -0.8010  0.0518
 2640SOL    HW119382   1.922   4.383  11.319  0.9670 -2.1426  0.4926
 2640SOL    HW219383   1.778   4.408  11.319  1.6819  1.5292 -0.2300
 2641SOL     OW19384   0.605   0.851  15.129  0.2953 -0.5003 -0.2164
 2641SOL    HW119385   0.679   0.796  15.157 -1.6363 -2.7203  0.4771
 2641SOL    HW219386   0.621   0.833  15.036  0.0491  2.0350 -0.7586
 2642SOL     OW19387   0.686   2.194   6.195 -0.6940  0.1848  0.2431
 2642SOL    HW119388   0.719   2.219   6.281 -2.1215 -0.7659  1.0567
 2642SOL    HW219389   0.668   2.102   6.213 -1.1163  0.1373 -0.4148
 2643SOL     OW19390   0.725   0.828   8.985 -0.2834 -0.8160 -0.9392
 2643SOL    HW119391   0.641   0.839   8.940 -0.1683  2.0465 -0.4442
 2643SOL    HW219392   0.696   0.775   9.059  0.6845 -1.5935 -1.1216
 2644SOL     OW19393   2.806   0.473   9.077 -0.0286 -0.3652 -0.5150
 2644SOL    HW119394   2.816   0.561   9.039 -0.6731  0.9383  2.2955
 2644SOL    HW219395   2.898   0.447   9.082  0.0189  0.1104  1.2080
 2645SOL     OW19396   2.167   2.498  16.056  0.0352 -0.0686 -0.0428
 2645SOL    HW119397   2.139   2.435  16.123 -3.0298  1.5404  0.1824
 2645SOL    HW219398   2.239   2.547  16.096  1.1110 -1.0163 -0.8024
 2646SOL     OW19399   0.366   0.846   7.895  0.5489 -0.1932 -0.0040
 2646SOL    HW119400   0.386   0.919   7.955 -1.4598 -1.3743  2.1230
 2646SOL    HW219401   0.451   0.805   7.881  1.2898  1.1604  0.4831
 2647SOL     OW19402   4.607   2.869   5.825  0.1064  0.3867 -0.2385
 2647SOL    HW119403   4.698   2.843   5.840  0.4478  0.3381 -2.2934
 2647SOL    HW219404   4.606   2.918   5.743 -1.7235 -0.7547 -0.9187
 2648SOL     OW19405   3.032   3.803  16.756 -0.4075  0.0533 -0.2411
 2648SOL    HW119406   3.072   3.879  16.799  0.3093  2.0757 -4.4144
 2648SOL    HW219407   3.045   3.828  16.664 -0.5002 -0.3926 -0.3731
 2649SOL     OW19408   3.753   1.880   8.277  0.1746  0.2948 -0.0538
 2649SOL    HW119409   3.818   1.858   8.210  0.7651  2.0686 -0.0679
 2649SOL    HW219410   3.683   1.915   8.222 -0.4604  1.3493  1.4088
 2650SOL     OW19411   1.039   2.770   4.122 -0.5991  0.0134  0.0311
 2650SOL    HW119412   1.068   2.682   4.100  0.8887  0.0667  1.7058
 2650SOL    HW219413   1.004   2.759   4.211  1.9730  1.8906  1.2979
 2651SOL     OW19414   4.012   3.220   4.361  0.2237 -0.2198  0.4794
 2651SOL    HW119415   4.044   3.296   4.410  1.1560 -0.9588  1.0143
 2651SOL    HW219416   3.964   3.172   4.429 -0.0927  1.2832  1.3235
 2652SOL     OW19417   1.133   2.426   8.861  0.2329 -0.3887 -0.0283
 2652SOL    HW119418   1.067   2.375   8.908 -0.6488  0.8096  0.0087
 2652SOL    HW219419   1.111   2.509   8.903  0.3557  0.6140 -1.9818
 2653SOL     OW19420   4.357   4.371   8.498  0.1401  0.4107  0.1874
 2653SOL    HW119421   4.365   4.456   8.543  2.6758 -0.8499  2.0995
 2653SOL    HW219422   4.272   4.388   8.456  0.5880  0.2762 -0.7762
 2654SOL     OW19423   4.516   2.257   4.971 -0.2834  0.5202 -1.0610
 2654SOL    HW119424   4.454   2.193   5.005 -0.5235  0.9059 -0.7731
 2654SOL    HW219425   4.480   2.341   4.998 -0.6941 -0.7411  2.4404
 2655SOL     OW19426   3.396   2.311   1.745 -0.3333  0.2075 -0.2210
 2655SOL    HW119427   3.386   2.393   1.793  2.2111  0.1846  0.3292
 2655SOL    HW219428   3.311   2.302   1.703  0.4803  0.6195 -1.9534
 2656SOL     OW19429   0.031   4.165   4.468  0.2120  0.2791  0.0172
 2656SOL    HW119430   0.027   4.261   4.468  1.3581  0.3231 -0.3197
 2656SOL    HW219431   4.670   4.147   4.511  0.3861  2.2422  1.1730
 2657SOL     OW19432   2.219   3.968   4.831 -0.1362  0.0084 -0.2581
 2657SOL    HW119433   2.153   3.989   4.897 -0.0421  0.4693 -0.3104
 2657SOL    HW219434   2.258   4.053   4.813 -0.5763 -0.2648 -2.5993
 2658SOL     OW19435   3.833   2.102   2.790  0.3800 -0.6824  0.0098
 2658SOL    HW119436   3.755   2.094   2.735  3.4286  1.4353 -4.6354
 2658SOL    HW219437   3.800   2.045   2.860 -1.6353 -1.3062 -1.4489
 2659SOL     OW19438   3.374   2.796  16.799 -0.4642  0.5935  0.0889
 2659SOL    HW119439   3.406   2.884  16.777  0.0715  1.2627  3.5080
 2659SOL    HW219440   3.368   2.756  16.712  0.2566 -0.1019  0.3662
 2660SOL     OW19441   2.099   4.298   7.333 -0.8896  0.1312 -0.0601
 2660SOL    HW119442   2.052   4.253   7.403 -1.9960 -0.9289 -1.4837
 2660SOL    HW219443   2.188   4.279   7.360  0.4646 -0.4474 -4.8048
 2661SOL     OW19444   0.286   2.426   5.547 -0.0169 -0.1715  0.2439
 2661SOL    HW119445   0.311   2.425   5.639 -1.1528 -2.7052  0.5138
 2661SOL    HW219446   0.330   2.343   5.527 -0.9460 -0.5290 -0.3503
 2662SOL     OW19447   3.321   3.392   8.347 -0.1457 -0.1739 -0.0705
 2662SOL    HW119448   3.337   3.485   8.328  3.3475 -0.0206  3.5740
 2662SOL    HW219449   3.391   3.373   8.409 -0.0943  1.5592  0.3972
 2663SOL     OW19450   3.162   3.295  14.579  0.6510 -0.6312  0.0085
 2663SOL    HW119451   3.196   3.360  14.640  0.8879 -2.5601  1.9018
 2663SOL    HW219452   3.152   3.346  14.498 -1.8549  0.1900  0.8250
 2664SOL     OW19453   4.389   3.011   6.552  0.6330  0.3666  0.3895
 2664SOL    HW119454   4.361   3.100   6.531  2.6228  1.1401  0.9993
 2664SOL    HW219455   4.393   3.027   6.646  0.9319  2.9396 -0.0614
 2665SOL     OW19456   2.850   2.692   1.000 -0.0890 -0.1905  0.0020
 2665SOL    HW119457   2.816   2.780   1.016  1.2835  0.1790  0.8524
 2665SOL    HW219458   2.771   2.645   0.975  0.3028  0.2190 -1.9821
 2666SOL     OW19459   2.755   2.506   2.607 -0.2728 -0.1363  0.2074
 2666SOL    HW119460   2.726   2.515   2.516  2.2000 -1.0316 -0.6484
 2666SOL    HW219461   2.697   2.443   2.650  0.5595  0.3092  1.9936
 2667SOL     OW19462   2.873   4.282  10.746 -0.2062  0.5952  0.0459
 2667SOL    HW119463   2.960   4.298  10.784 -0.2369 -1.7071  1.0967
 2667SOL    HW219464   2.840   4.209  10.799  2.1504 -0.4774  0.0700
 2668SOL     OW19465   3.227   3.926   6.203 -0.5969 -0.0340  0.8666
 2668SOL    HW119466   3.253   4.016   6.220  3.4556 -0.6454 -2.0742
 2668SOL    HW219467   3.271   3.880   6.274 -0.3545 -1.8141 -0.4242
 2669SOL     OW19468   0.379   2.905   7.062  0.2644 -0.0044 -0.1521
 2669SOL    HW119469   0.352   2.946   6.980 -0.1693 -1.5941 -0.8091
 2669SOL    HW219470   0.381   2.812   7.041  0.0670  0.0392 -0.3751
 2670SOL     OW19471   1.376   2.489   7.646  0.3724  0.5218 -0.0734
 2670SOL    HW119472   1.363   2.408   7.696 -1.7264  0.7097 -0.3264
 2670SOL    HW219473   1.284   2.513   7.635  0.4912  0.4512 -1.2121
 2671SOL     OW19474   1.824   1.768   1.371  0.3901  0.3101 -0.0002
 2671SOL    HW119475   1.757   1.725   1.423  1.0405 -2.7682 -1.7172
 2671SOL    HW219476   1.872   1.688   1.351  0.1025 -0.3817  2.0649
 2672SOL     OW19477   0.689   0.891   3.672  0.4244  0.1750  0.3670
 2672SOL    HW119478   0.715   0.826   3.608  0.0571 -0.2585  0.6604
 2672SOL    HW219479   0.750   0.867   3.742  1.1049  0.9739  0.0575
 2673SOL     OW19480   2.903   1.920  15.063  0.0693  0.0774  0.3652
 2673SOL    HW119481   2.893   1.870  14.982  0.6138  0.7229 -0.1012
 2673SOL    HW219482   2.915   1.843  15.119  0.1062 -0.2418 -0.0796
 2674SOL     OW19483   4.659   0.167   5.413  0.4553  0.6033 -0.5601
 2674SOL    HW119484   4.704   0.221   5.478 -1.5741  1.6028 -0.0109
 2674SOL    HW219485   4.628   0.099   5.474 -1.3015 -0.2292 -2.3884
 2675SOL     OW19486   4.049   0.494  14.254 -0.4202  0.5875  0.5760
 2675SOL    HW119487   4.036   0.588  14.240 -1.5623  0.4487  0.7319
 2675SOL    HW219488   3.975   0.475  14.311  0.3806 -0.3534  1.3165
 2676SOL     OW19489   4.371   2.100   6.512 -0.3316  0.2300 -0.5007
 2676SOL    HW119490   4.327   2.180   6.483  1.3971  1.2363 -0.3421
 2676SOL    HW219491   4.325   2.081   6.593 -0.0656 -1.8015 -0.8286
 2677SOL     OW19492   0.059   2.866   1.329  0.3590  0.4436  0.0162
 2677SOL    HW119493   0.070   2.773   1.305 -2.1896 -0.4267  2.2489
 2677SOL    HW219494   0.057   2.867   1.424  0.3571 -0.2016  0.0291
 2678SOL     OW19495   2.850   3.291   5.940  0.7938  0.2274 -0.4767
 2678SOL    HW119496   2.906   3.333   6.006  1.1606 -1.4902  0.3067
 2678SOL    HW219497   2.770   3.342   5.956  0.8781 -0.1921  1.2728
 2679SOL     OW19498   3.430   4.694   3.457 -0.1622 -0.0981  0.6230
 2679SOL    HW119499   3.453   4.633   3.387 -1.6291 -0.3740  0.3800
 2679SOL    HW219500   3.398   4.639   3.528  1.3147 -1.1647  0.4729
 2680SOL     OW19501   3.839   0.869   2.025 -0.7140  0.5828 -0.1667
 2680SOL    HW119502   3.916   0.911   1.986  0.5119 -1.9497 -0.4502
 2680SOL    HW219503   3.779   0.864   1.951  0.0194  1.4319 -0.8218
 2681SOL     OW19504   1.171   2.689  10.923 -0.5117 -0.4075  0.3055
 2681SOL    HW119505   1.231   2.710  10.851  0.1277 -2.2217  0.3170
 2681SOL    HW219506   1.133   2.605  10.899 -1.4571  0.3084 -0.7247
 2682SOL     OW19507   4.443   1.671   8.614  0.2453 -0.0747 -0.0654
 2682SOL    HW119508   4.374   1.635   8.559  0.3573  0.8983 -0.8404
 2682SOL    HW219509   4.406   1.647   8.699  1.9900 -1.2151  0.3817
 2683SOL     OW19510   1.097   2.429   7.612  0.0751  0.2096 -0.1072
 2683SOL    HW119511   1.119   2.349   7.566  0.2375 -0.0616  0.4415
 2683SOL    HW219512   1.026   2.396   7.668 -1.0866 -1.7853 -2.8042
 2684SOL     OW19513   2.317   4.004   9.518  0.1384 -0.3724  0.0949
 2684SOL    HW119514   2.295   4.019   9.610 -0.2329  2.0527 -0.3881
 2684SOL    HW219515   2.372   4.083   9.513 -1.6993  0.8544 -0.7155
 2685SOL     OW19516   1.669   1.845   6.365  0.0221 -0.6954 -0.0624
 2685SOL    HW119517   1.590   1.816   6.319 -0.5573  2.2018 -0.8734
 2685SOL    HW219518   1.675   1.934   6.331  0.7371 -0.2215  1.3363
 2686SOL     OW19519   2.094   0.142   8.581  0.6809 -0.1527  0.3260
 2686SOL    HW119520   2.149   0.184   8.514  0.3461  1.5326  1.1268
 2686SOL    HW219521   2.043   0.080   8.530  0.8138  0.7428 -0.8903
 2687SOL     OW19522   2.366   2.017   4.341 -0.2801 -0.1742 -0.4639
 2687SOL    HW119523   2.278   2.018   4.304 -0.0989 -1.2119 -0.9398
 2687SOL    HW219524   2.411   1.964   4.275  0.3698  1.7435 -1.5252
 2688SOL     OW19525   3.493   4.069   6.556  0.2667  0.8717  0.1312
 2688SOL    HW119526   3.445   3.987   6.541  2.1770 -0.1300 -0.5308
 2688SOL    HW219527   3.418   4.128   6.548  0.6025  1.1994 -0.6452
 2689SOL     OW19528   1.984   4.429   5.867  0.2943  0.3798 -0.0724
 2689SOL    HW119529   1.982   4.349   5.919 -2.7796 -0.6787 -1.8112
 2689SOL    HW219530   2.009   4.400   5.780  2.5287 -0.3026  0.8087
 2690SOL     OW19531   1.566   4.046  16.996  0.2909 -0.1571  0.2554
 2690SOL    HW119532   1.483   4.019  16.956 -0.2648  3.1995 -0.9274
 2690SOL    HW219533   1.622   4.056  16.919  0.3584  0.5364  0.3962
 2691SOL     OW19534   0.944   0.372   2.156 -0.2085 -0.0097 -0.1927
 2691SOL    HW119535   0.868   0.428   2.141 -0.1666 -0.2168 -1.2143
 2691SOL    HW219536   0.900   0.303   2.205 -0.3277 -1.6015 -2.5363
 2692SOL     OW19537   0.285   3.387   7.664 -0.5327  0.4207  0.4750
 2692SOL    HW119538   0.269   3.388   7.758  0.0726  0.6610  0.5747
 2692SOL    HW219539   0.335   3.305   7.672 -0.5692  0.3531  0.0107
 2693SOL     OW19540   0.001   4.281   8.080  0.4360  0.1466  0.4183
 2693SOL    HW119541   4.692   4.367   8.052 -0.8893  0.3258  2.4855
 2693SOL    HW219542   4.663   4.228   8.030 -1.8749  2.7090  0.5389
 2694SOL     OW19543   1.270   4.550   8.409  0.4774  0.7422  0.0320
 2694SOL    HW119544   1.195   4.610   8.413  0.4325  0.7545 -1.1413
 2694SOL    HW219545   1.275   4.520   8.500 -0.3697  1.4346  0.3115
 2695SOL     OW19546   4.303   0.455   6.516 -0.3937  0.7339 -0.2148
 2695SOL    HW119547   4.285   0.378   6.461  0.0810 -0.1303  0.8231
 2695SOL    HW219548   4.387   0.474   6.475 -1.1728  1.1917 -1.6129
 2696SOL     OW19549   2.018   4.016  17.546 -0.0608 -0.1728  0.5143
 2696SOL    HW119550   2.025   3.937  17.601 -0.2247  0.4114  1.3716
 2696SOL    HW219551   2.087   4.066  17.588  0.0662  1.1502 -1.2661
 2697SOL     OW19552   3.894   4.473  11.669  0.6068  0.3324  0.4316
 2697SOL    HW119553   3.986   4.456  11.688  1.6272  1.6427 -3.2652
 2697SOL    HW219554   3.889   4.503  11.578 -2.1260 -3.1492 -0.5582
 2698SOL     OW19555   3.727   1.919  12.389 -0.1583 -0.8582 -0.0230
 2698SOL    HW119556   3.706   2.002  12.347  0.5218 -0.0279  1.2728
 2698SOL    HW219557   3.761   1.948  12.474  1.3502 -1.3189 -0.4665
 2699SOL     OW19558   0.170   3.551  10.817  0.4808  1.0099  0.6212
 2699SOL    HW119559   0.153   3.643  10.796 -0.5058  0.5294 -0.6706
 2699SOL    HW219560   0.211   3.518  10.738 -0.3452  0.0358  0.6043
 2700SOL     OW19561   2.597   1.253   6.317 -0.4215 -0.1412 -0.2716
 2700SOL    HW119562   2.634   1.167   6.338  1.3671  0.6556 -0.1970
 2700SOL    HW219563   2.543   1.232   6.241  1.1797  0.0204 -1.4604
 2701SOL     OW19564   3.220   0.319   5.638 -0.8775  0.3201 -0.0488
 2701SOL    HW119565   3.294   0.341   5.581 -0.8772 -1.1722 -0.6238
 2701SOL    HW219566   3.233   0.365   5.721  1.7295  0.7894 -0.7420
 2702SOL     OW19567   2.262   1.042   2.834 -0.2657 -0.4417  0.2662
 2702SOL    HW119568   2.334   0.999   2.789 -1.2245  0.2199 -1.8881
 2702SOL    HW219569   2.219   0.968   2.876  0.1225 -0.5625  0.4483
 2703SOL     OW19570   3.655   2.023   5.339  0.0677 -0.7824  0.8104
 2703SOL    HW119571   3.576   1.970   5.325  0.0817 -0.2375 -1.4164
 2703SOL    HW219572   3.714   2.000   5.266 -0.6860 -2.0477  0.5965
 2704SOL     OW19573   2.715   0.636   4.802 -0.0124  0.0602  0.9656
 2704SOL    HW119574   2.691   0.576   4.731  0.6352  1.8743 -0.7709
 2704SOL    HW219575   2.657   0.600   4.869 -2.6935  0.0929 -1.3599
 2705SOL     OW19576   3.272   1.967   7.228  0.7882 -0.0791 -0.3551
 2705SOL    HW119577   3.177   1.957   7.236  0.7182 -0.5106 -1.7445
 2705SOL    HW219578   3.310   1.886   7.262 -0.8833 -0.4157  0.7312
 2706SOL     OW19579   0.150   0.647   6.247 -0.4506 -0.7464  0.3665
 2706SOL    HW119580   0.189   0.569   6.207 -0.5982 -1.1045  0.9230
 2706SOL    HW219581   0.179   0.645   6.338 -1.1044  0.5029  0.6083
 2707SOL     OW19582   0.522   0.216   2.937  0.2384  0.5448 -0.0910
 2707SOL    HW119583   0.583   0.280   2.901  0.5965 -0.5304 -1.4200
 2707SOL    HW219584   0.567   0.131   2.930 -0.9711 -0.0668 -0.6284
 2708SOL     OW19585   4.005   2.053   2.563  0.3083 -0.5241  0.0387
 2708SOL    HW119586   4.000   2.148   2.550 -2.4188 -0.6768  0.1355
 2708SOL    HW219587   3.948   2.043   2.640  2.2263 -0.8307  1.4297
 2709SOL     OW19588   0.944   1.474   4.713  0.2888  0.4388  0.2343
 2709SOL    HW119589   0.918   1.556   4.756 -2.8274 -1.5801  2.1217
 2709SOL    HW219590   1.015   1.449   4.773  0.7000 -0.3387 -0.5855
 2710SOL     OW19591   2.173   0.196   9.089  0.4680  0.1977  0.0811
 2710SOL    HW119592   2.093   0.173   9.043  0.2947  2.4085 -0.7547
 2710SOL    HW219593   2.182   0.134   9.161  0.0036  0.5709  0.4623
 2711SOL     OW19594   0.483   3.002   4.667 -0.0076  0.4130  0.3502
 2711SOL    HW119595   0.459   2.942   4.596  1.1043  0.3327  0.0372
 2711SOL    HW219596   0.496   2.941   4.739 -0.3969 -0.8626 -0.6630
 2712SOL     OW19597   4.265   0.751   9.091 -0.0691 -0.4703  0.1779
 2712SOL    HW119598   4.340   0.705   9.053 -1.0208 -0.3740 -1.7811
 2712SOL    HW219599   4.286   0.737   9.184  0.0242 -1.1045  0.0625
 2713SOL     OW19600   0.436   0.122   2.237  0.7497  0.3437  0.0432
 2713SOL    HW119601   0.427   0.196   2.298  0.9980  0.0456  0.4435
 2713SOL    HW219602   0.359   0.074   2.266 -0.8962  1.5419 -2.3032
 2714SOL     OW19603   2.648   1.391   7.379  0.0406  0.0698 -0.1552
 2714SOL    HW119604   2.690   1.470   7.412 -0.1233  0.4568 -0.8721
 2714SOL    HW219605   2.559   1.421   7.359  0.7821  1.3321 -1.5306
 2715SOL     OW19606   2.784   2.044  12.221  0.2615  0.2493 -0.1898
 2715SOL    HW119607   2.725   2.030  12.295  1.8563  1.0455  1.2270
 2715SOL    HW219608   2.723   2.101  12.173 -1.2908  1.1820  2.8756
 2716SOL     OW19609   3.679   3.395   1.411  0.1273 -0.4795  0.0188
 2716SOL    HW119610   3.700   3.365   1.499 -0.0729 -1.2610 -0.1927
 2716SOL    HW219611   3.745   3.345   1.362 -1.9326 -1.7415 -1.5068
 2717SOL     OW19612   3.397   0.350  11.811  0.2429  0.0144  0.8647
 2717SOL    HW119613   3.431   0.376  11.897 -1.1265  0.8733  1.1583
 2717SOL    HW219614   3.485   0.334  11.776 -0.0114 -0.3129  0.3742
 2718SOL     OW19615   2.387   0.771  10.156  1.0492 -0.3843  0.2457
 2718SOL    HW119616   2.331   0.698  10.182 -0.8477  1.5259  1.4927
 2718SOL    HW219617   2.371   0.765  10.062  0.2221  1.2410  0.2960
 2719SOL     OW19618   1.019   2.364   5.349  0.8188 -0.5613 -0.5947
 2719SOL    HW119619   0.930   2.330   5.359  0.6081  0.1843  0.1048
 2719SOL    HW219620   1.068   2.287   5.380 -0.5785 -1.1622  0.1686
 2720SOL     OW19621   1.682   2.063   1.449 -0.3985  0.1923 -0.0751
 2720SOL    HW119622   1.722   2.083   1.365  0.0824  1.8747  0.5619
 2720SOL    HW219623   1.719   2.129   1.508  0.3389  0.2798 -0.6473
 2721SOL     OW19624   4.408   0.613  13.123 -0.6846 -0.2031  0.0397
 2721SOL    HW119625   4.422   0.583  13.213  0.1105 -3.2915 -1.1234
 2721SOL    HW219626   4.324   0.659  13.128  0.6391  2.3937 -1.2001
 2722SOL     OW19627   4.623   0.350   9.132 -0.4788  0.1869 -0.3188
 2722SOL    HW119628   4.621   0.420   9.197 -1.3760  0.0629 -0.2161
 2722SOL    HW219629   4.622   0.273   9.188  0.5256 -1.7972 -3.0767
 2723SOL     OW19630   1.776   0.105   8.412  0.2214  0.1096 -0.0327
 2723SOL    HW119631   1.844   0.039   8.424  0.5768  0.5132  0.1826
 2723SOL    HW219632   1.698   0.068   8.454  0.1537 -1.0984 -1.2112
 2724SOL     OW19633   0.422   2.934   7.335 -0.3569  0.1435 -0.3121
 2724SOL    HW119634   0.395   2.923   7.244  0.5884 -0.6537 -0.4989
 2724SOL    HW219635   0.443   3.026   7.322 -1.8294  0.7242  1.3575
 2725SOL     OW19636   1.571   0.781   5.860  0.5821 -0.1702  0.8601
 2725SOL    HW119637   1.585   0.817   5.773 -0.0546 -1.0404  0.4007
 2725SOL    HW219638   1.652   0.809   5.904 -0.0015 -0.7667  2.3365
 2726SOL     OW19639   3.982   4.520  10.521  0.5272 -0.0271 -0.4184
 2726SOL    HW119640   3.958   4.553  10.435 -0.9643  0.2742  0.1150
 2726SOL    HW219641   4.059   4.468  10.502  0.2651 -0.1048 -1.2672
 2727SOL     OW19642   1.104   1.393   4.935  0.1369 -0.1944 -0.2717
 2727SOL    HW119643   1.156   1.474   4.928  0.0495 -0.1188 -0.0620
 2727SOL    HW219644   1.161   1.330   4.891 -1.1717 -0.9387 -0.8721
 2728SOL     OW19645   3.988   4.704   1.993  0.1517 -0.6251 -0.5617
 2728SOL    HW119646   3.936   0.017   2.065  1.3434 -0.2865  0.1204
 2728SOL    HW219647   4.069   4.687   2.040 -0.7408  2.0735  2.0069
 2729SOL     OW19648   3.393   0.988   4.566  0.8660 -0.4571  0.7296
 2729SOL    HW119649   3.454   1.053   4.603  1.8672 -1.3134  0.5778
 2729SOL    HW219650   3.310   1.031   4.586  2.2060  4.0938 -3.4727
 2730SOL     OW19651   1.874   3.567   7.894 -0.0314 -0.3525  0.0341
 2730SOL    HW119652   1.890   3.562   7.989 -0.0103 -1.2421 -0.0130
 2730SOL    HW219653   1.793   3.517   7.884  0.3848 -0.9702 -0.2653
 2731SOL     OW19654   1.282   2.666   7.336  0.1491  0.0733  0.1819
 2731SOL    HW119655   1.215   2.653   7.269  0.5301 -1.3469  0.0694
 2731SOL    HW219656   1.342   2.591   7.331  1.8071  1.6966 -4.1613
 2732SOL     OW19657   2.141   4.431   3.445  0.2240  0.5173  0.6168
 2732SOL    HW119658   2.078   4.385   3.389  0.9635 -0.2959  0.4524
 2732SOL    HW219659   2.223   4.387   3.422 -0.8628 -1.2192  0.0672
 2733SOL     OW19660   2.042   2.178   6.913  0.2486 -0.4096  0.4311
 2733SOL    HW119661   1.977   2.242   6.884  2.8974  2.1360  0.1199
 2733SOL    HW219662   2.046   2.190   7.008 -0.4137  1.7557  0.1948
 2734SOL     OW19663   1.652   4.506   5.125  0.3833 -0.0812 -0.3132
 2734SOL    HW119664   1.615   4.594   5.132  0.6992 -0.1445  2.0073
 2734SOL    HW219665   1.662   4.487   5.218 -0.7427 -0.0709 -0.1901
 2735SOL     OW19666   3.019   2.227   7.485 -0.1874 -0.1865  0.6243
 2735SOL    HW119667   2.970   2.159   7.531  0.6795 -0.9575  0.4169
 2735SOL    HW219668   2.984   2.307   7.523 -0.4901 -0.2338  0.4443
 2736SOL     OW19669   2.496   4.143  10.815  0.0993  0.0769  0.2220
 2736SOL    HW119670   2.533   4.181  10.894  0.1221 -0.3822  0.4286
 2736SOL    HW219671   2.565   4.155  10.749 -1.3037  2.4549 -0.8227
 2737SOL     OW19672   0.407   1.105   3.262 -0.3128 -0.6840 -0.2045
 2737SOL    HW119673   0.456   1.181   3.294 -1.7285 -1.2516  3.2423
 2737SOL    HW219674   0.332   1.126   3.317  2.3795  1.1994  2.7483
 2738SOL     OW19675   4.605   1.970  13.277  0.6901 -0.0837  0.0707
 2738SOL    HW119676   4.591   2.064  13.262 -0.1346 -0.6326 -2.7851
 2738SOL    HW219677   4.685   1.941  13.233  1.0487  0.0413  0.6412
 2739SOL     OW19678   1.547   3.511   5.405  0.0336  0.0494  0.0099
 2739SOL    HW119679   1.456   3.506   5.435  0.2562 -3.7852 -0.0421
 2739SOL    HW219680   1.559   3.425   5.365 -0.5049 -0.2746  0.5530
 2740SOL     OW19681   2.690   2.392   7.540  0.2059  0.6229  0.2509
 2740SOL    HW119682   2.619   2.339   7.577 -1.0066  2.5927  0.7424
 2740SOL    HW219683   2.762   2.380   7.602  1.1359  2.6595 -0.4163
 2741SOL     OW19684   3.477   0.080   3.938 -0.0671 -0.1654  0.5547
 2741SOL    HW119685   3.477   0.041   4.025  2.2556  0.9404  1.0544
 2741SOL    HW219686   3.555   0.135   3.946  1.6890 -2.2664 -2.3466
 2742SOL     OW19687   1.038   4.109   7.031  0.0574 -0.1754  0.2372
 2742SOL    HW119688   0.950   4.147   7.036 -0.7176 -1.9729  0.1799
 2742SOL    HW219689   1.019   4.017   7.016  0.5686 -0.5232  1.6685
 2743SOL     OW19690   3.790   1.437   8.264 -0.0602  0.1972  0.0036
 2743SOL    HW119691   3.880   1.464   8.246 -0.5091  0.2225 -2.1588
 2743SOL    HW219692   3.749   1.406   8.184 -1.7039 -0.1763  0.9949
 2744SOL     OW19693   1.361   4.317  10.419  0.3461 -0.3727 -0.2015
 2744SOL    HW119694   1.448   4.333  10.458 -0.3749  3.4099 -0.1204
 2744SOL    HW219695   1.318   4.402  10.409  2.6722  0.8101 -0.3968
 2745SOL     OW19696   3.286   3.517   9.256 -0.7342 -0.2158 -0.2226
 2745SOL    HW119697   3.319   3.585   9.197  0.0720 -1.2710 -0.9690
 2745SOL    HW219698   3.277   3.444   9.196  2.7278  0.6675 -1.8516
 2746SOL     OW19699   2.191   1.585  11.980  0.1732 -0.5161  0.0630
 2746SOL    HW119700   2.202   1.596  11.886 -2.0656 -1.6460 -0.3455
 2746SOL    HW219701   2.181   1.490  11.981  0.2829 -0.5263  0.1568
 2747SOL     OW19702   0.653   1.546   3.172 -0.0215 -0.1528  0.0509
 2747SOL    HW119703   0.699   1.520   3.092  2.0076 -0.9191  1.4688
 2747SOL    HW219704   0.672   1.639   3.181  3.1466 -0.8325  0.2556
 2748SOL     OW19705   1.177   3.666   1.119  0.4994  0.1145  0.5497
 2748SOL    HW119706   1.263   3.642   1.083  0.7091 -2.8479  2.9953
 2748SOL    HW219707   1.149   3.577   1.139  0.9934 -0.0931  0.3115
 2749SOL     OW19708   3.366   2.581   8.226  0.5668 -0.2886  0.1091
 2749SOL    HW119709   3.406   2.573   8.139 -1.3842  2.2366 -1.0030
 2749SOL    HW219710   3.397   2.503   8.272 -0.0328 -0.7468 -0.2616
 2750SOL     OW19711   2.632   3.449   6.820 -0.0852 -0.7336 -0.2206
 2750SOL    HW119712   2.586   3.376   6.862  1.1350 -1.1884  0.3084
 2750SOL    HW219713   2.723   3.430   6.840 -0.2095 -2.5081 -1.2595
 2751SOL     OW19714   4.699   2.622   5.181  0.4645  0.4226 -0.5425
 2751SOL    HW119715   0.051   2.610   5.123  0.5880 -0.9608 -0.0945
 2751SOL    HW219716   4.723   2.567   5.255  2.7974  1.1190 -0.7676
 2752SOL     OW19717   4.246   1.121   5.796  0.2162  0.2079 -0.5338
 2752SOL    HW119718   4.246   1.161   5.883 -1.3236  1.4085 -1.0798
 2752SOL    HW219719   4.275   1.206   5.763 -0.7073  0.2379 -1.2946
 2753SOL     OW19720   1.159   0.342  16.347 -0.0593  0.5762 -0.0688
 2753SOL    HW119721   1.141   0.428  16.309  1.2427  1.5705  1.5399
 2753SOL    HW219722   1.074   0.299  16.344  0.1236  0.2084  0.0324
 2754SOL     OW19723   3.349   3.117   2.565 -0.1942  0.1784 -0.2241
 2754SOL    HW119724   3.339   3.090   2.474  0.0170 -1.4851  0.2389
 2754SOL    HW219725   3.257   3.145   2.568 -0.6901 -1.2866 -1.4330
 2755SOL     OW19726   0.974   0.408   5.971  0.0150  0.3210 -0.4626
 2755SOL    HW119727   0.987   0.329   5.918  0.8670  0.8519 -1.0294
 2755SOL    HW219728   1.054   0.459   5.958 -0.2211  1.1282  1.3510
 2756SOL     OW19729   0.293   3.825   7.085 -0.3411 -0.3333 -0.2071
 2756SOL    HW119730   0.299   3.920   7.080 -1.8650 -0.3276 -1.7807
 2756SOL    HW219731   0.357   3.801   7.152 -0.1383  0.6914 -0.0302
 2757SOL     OW19732   1.832   4.107   5.126  1.1937 -0.2044  0.7458
 2757SOL    HW119733   1.858   4.152   5.207  0.7798  2.3145 -0.5233
 2757SOL    HW219734   1.757   4.054   5.151  0.2726  1.3623  1.3009
 2758SOL     OW19735   2.113   4.125   4.297  0.2881 -0.0763  0.4621
 2758SOL    HW119736   2.128   4.196   4.235 -0.9111  0.6985  1.0687
 2758SOL    HW219737   2.179   4.138   4.366  1.1791  0.5421 -0.5124
 2759SOL     OW19738   1.845   4.461   3.421 -0.1310 -0.1339 -0.2704
 2759SOL    HW119739   1.890   4.486   3.341 -1.0034  0.1155 -0.6789
 2759SOL    HW219740   1.795   4.385   3.391 -1.6934  0.6759  0.3083
 2760SOL     OW19741   4.647   2.879   5.273  0.1003 -0.4402  0.7227
 2760SOL    HW119742   4.636   2.784   5.269  0.0052 -0.4958  2.3611
 2760SOL    HW219743   0.009   2.885   5.229  0.0890  1.7009  1.0071
 2761SOL     OW19744   1.100   0.818   6.756  0.0119 -0.4753  0.2186
 2761SOL    HW119745   1.016   0.827   6.710  0.3774  0.8864 -0.1914
 2761SOL    HW219746   1.072   0.801   6.846 -0.6712 -1.8476 -0.2607
 2762SOL     OW19747   4.577   0.106   5.712 -0.0006 -0.2625  0.1176
 2762SOL    HW119748   4.626   0.042   5.763  1.8700  1.8054  0.9158
 2762SOL    HW219749   4.497   0.053   5.710 -0.6296  0.6632  0.9135
 2763SOL     OW19750   1.741   1.748   2.461  0.1015 -0.5976  0.0193
 2763SOL    HW119751   1.815   1.806   2.443  0.5750 -1.2100  0.0053
 2763SOL    HW219752   1.784   1.663   2.463  0.9198 -0.1841 -0.1862
 2764SOL     OW19753   2.132   0.922   5.650 -0.1771  0.2508  0.4224
 2764SOL    HW119754   2.164   0.919   5.560 -1.7171  0.9919 -0.1472
 2764SOL    HW219755   2.137   0.827   5.662  0.1156  0.7325  4.0447
 2765SOL     OW19756   0.273   4.186  13.657 -0.4320 -0.1787  0.1423
 2765SOL    HW119757   0.204   4.138  13.611  0.2403  0.2110 -1.2887
 2765SOL    HW219758   0.223   4.193  13.738 -0.7070 -1.4141  0.0826
 2766SOL     OW19759   2.975   2.624   1.446 -0.3619 -0.0576 -0.9429
 2766SOL    HW119760   2.941   2.546   1.490  0.7890 -1.2699 -2.2027
 2766SOL    HW219761   3.065   2.632   1.477 -0.8053  0.2486  0.2552
 2767SOL     OW19762   2.826   2.832   4.691  0.6173 -0.0360 -0.0917
 2767SOL    HW119763   2.831   2.739   4.711  1.7637  0.3102  1.2678
 2767SOL    HW219764   2.907   2.848   4.642  1.3253 -0.2310  1.0264
 2768SOL     OW19765   2.179   4.349   7.772 -0.1526  0.2408 -0.0826
 2768SOL    HW119766   2.125   4.425   7.753  1.8856  1.3894 -1.2582
 2768SOL    HW219767   2.165   4.307   7.687 -0.6455 -0.1126  0.1693
 2769SOL     OW19768   1.015   0.582   8.979 -0.0565 -0.5936 -0.2118
 2769SOL    HW119769   1.017   0.677   8.964  1.5415 -0.3883  1.2308
 2769SOL    HW219770   1.011   0.581   9.075  0.6676  0.0660 -0.1676
 2770SOL     OW19771   1.074   1.744   6.595 -0.3513 -0.3626  0.6115
 2770SOL    HW119772   1.078   1.734   6.500 -4.0975 -0.6119  0.4885
 2770SOL    HW219773   1.095   1.658   6.632  2.1368 -0.2176 -0.4782
 2771SOL     OW19774   0.513   1.161   8.445 -0.1088 -0.2310  0.0837
 2771SOL    HW119775   0.512   1.216   8.366  1.0726  0.3723  0.4906
 2771SOL    HW219776   0.437   1.196   8.491 -0.8490 -0.1756 -1.1754
 2772SOL     OW19777   0.995   0.449  13.675  0.6676 -0.2989  0.1964
 2772SOL    HW119778   1.033   0.367  13.706 -1.0848 -0.3461  2.1887
 2772SOL    HW219779   0.998   0.495  13.758  0.2931 -2.5354  1.4506
 2773SOL     OW19780   0.218   0.585  17.490  0.8449  0.1009 -0.3047
 2773SOL    HW119781   0.276   0.641  17.543  2.6145 -2.5196  0.5355
 2773SOL    HW219782   0.252   0.499  17.513 -1.0910 -0.8261 -1.0202
 2774SOL     OW19783   1.187   3.340   2.502  0.2328 -0.0871  0.1739
 2774SOL    HW119784   1.164   3.280   2.431  1.7461 -0.6533  0.1542
 2774SOL    HW219785   1.230   3.414   2.460 -0.2269 -0.6608 -1.2922
 2775SOL     OW19786   2.229   4.418   3.016  0.4630  0.0371 -0.9863
 2775SOL    HW119787   2.284   4.496   3.012 -0.5359  0.7805  0.0262
 2775SOL    HW219788   2.160   4.439   2.953 -2.0162  0.5472  1.9455
 2776SOL     OW19789   3.415   1.771  11.137  0.2422  0.2738 -0.1749
 2776SOL    HW119790   3.503   1.737  11.152 -0.5611 -1.5660  0.3480
 2776SOL    HW219791   3.363   1.714  11.194  0.3349  0.0931 -0.2706
 2777SOL     OW19792   3.143   3.729   5.000 -0.6884 -0.7425 -0.1337
 2777SOL    HW119793   3.175   3.647   5.038  2.8705  0.5497 -0.3192
 2777SOL    HW219794   3.153   3.787   5.075 -0.2525  0.8028 -1.3770
 2778SOL     OW19795   3.003   3.274   1.218  0.4321  0.8140 -0.2726
 2778SOL    HW119796   2.970   3.210   1.282 -1.5306 -0.9274 -3.0182
 2778SOL    HW219797   2.933   3.287   1.154  0.7049  1.8090 -0.3705
 2779SOL     OW19798   3.985   1.581   2.390 -0.0454 -0.0973  0.1439
 2779SOL    HW119799   4.065   1.533   2.369  0.3523  1.0501 -0.9803
 2779SOL    HW219800   3.939   1.508   2.430 -1.4311  1.7666  1.9345
 2780SOL     OW19801   3.869   0.068   2.227 -0.5019 -0.3526  0.0956
 2780SOL    HW119802   3.803   0.121   2.270 -0.7592 -0.4611 -0.1675
 2780SOL    HW219803   3.937   0.080   2.294 -2.3078 -1.3804  2.1241
 2781SOL     OW19804   3.759   2.121   5.605  0.2294  0.2870  0.2428
 2781SOL    HW119805   3.788   2.211   5.588 -0.8532  0.8249  1.2598
 2781SOL    HW219806   3.723   2.087   5.523 -1.2968  1.2549  0.5164
 2782SOL     OW19807   1.174   4.146  17.457  0.0986  0.4327 -0.1463
 2782SOL    HW119808   1.170   4.234  17.420  0.9888 -0.2675 -1.9203
 2782SOL    HW219809   1.117   4.095  17.400  1.1176 -1.8068  0.8222
 2783SOL     OW19810   2.636   0.173   2.804 -0.0813 -0.4717 -0.3389
 2783SOL    HW119811   2.730   0.159   2.807  0.0774  0.4076 -1.3165
 2783SOL    HW219812   2.610   0.083   2.825 -0.6564  0.1528  1.6354
 2784SOL     OW19813   3.965   2.001  10.255  0.3062 -0.0312 -0.0220
 2784SOL    HW119814   4.055   1.974  10.239  0.2061 -1.3480  1.6741
 2784SOL    HW219815   3.962   1.971  10.346  1.0543  0.5330  0.1896
 2785SOL     OW19816   2.503   1.182   7.715 -0.4737  0.2280 -0.4917
 2785SOL    HW119817   2.553   1.203   7.793 -0.9521  0.3541 -0.2201
 2785SOL    HW219818   2.435   1.129   7.756  0.2345 -1.5477 -1.6076
 2786SOL     OW19819   3.095   0.058   7.173 -0.6793  0.0289 -0.1530
 2786SOL    HW119820   3.110   4.708   7.112  0.5202 -1.1004  1.4976
 2786SOL    HW219821   3.107   0.130   7.112 -1.6546  0.5406  0.2695
 2787SOL     OW19822   1.372   1.473  17.229  0.0249 -0.5356  0.0405
 2787SOL    HW119823   1.371   1.552  17.175 -0.5787 -0.6609 -0.1289
 2787SOL    HW219824   1.446   1.430  17.185 -0.5878 -0.5417 -0.9790
 2788SOL     OW19825   2.016   4.013   7.590 -0.3251  0.1667 -0.0925
 2788SOL    HW119826   2.106   3.994   7.566 -0.7594 -1.8452 -0.1375
 2788SOL    HW219827   2.002   3.958   7.667 -1.5031  1.6494  0.7610
 2789SOL     OW19828   3.322   0.334  17.643  0.1896  0.0309 -0.6137
 2789SOL    HW119829   3.401   0.322   0.003 -0.2277 -2.9220 -0.6442
 2789SOL    HW219830   3.262   0.283   0.004 -0.1515  2.3141  1.1726
 2790SOL     OW19831   3.122   3.018   7.227  0.1781  0.1126 -0.0253
 2790SOL    HW119832   3.085   2.960   7.294 -1.2852  0.4585 -0.5269
 2790SOL    HW219833   3.185   3.071   7.276 -0.9083  0.5346  0.9116
 2791SOL     OW19834   3.672   2.213   6.748  0.3528  0.4012 -0.0222
 2791SOL    HW119835   3.577   2.221   6.756  0.4139 -0.3186  1.3857
 2791SOL    HW219836   3.687   2.264   6.668  0.8221 -1.1869 -0.9404
 2792SOL     OW19837   3.321   2.746   2.223 -0.2369 -0.7348 -0.0233
 2792SOL    HW119838   3.259   2.721   2.154  1.4517  1.9510 -2.5089
 2792SOL    HW219839   3.264   2.763   2.298  1.3462 -2.1051  1.4868
 2793SOL     OW19840   4.178   0.001   4.991  0.1217 -0.4309 -0.8783
 2793SOL    HW119841   4.166   0.096   4.999 -1.2169 -0.6322 -0.4872
 2793SOL    HW219842   4.183   4.720   4.896  0.8307 -0.8907 -0.8214
 2794SOL     OW19843   3.690   4.307   9.620 -0.1287 -0.0260  0.0065
 2794SOL    HW119844   3.713   4.220   9.587 -0.0777  0.5792 -1.5436
 2794SOL    HW219845   3.652   4.279   9.703 -0.5198  2.3728  0.6532
 2795SOL     OW19846   2.002   2.417  13.872  0.1072 -0.6460  0.5846
 2795SOL    HW119847   2.026   2.364  13.948  2.2018  0.4622  0.6942
 2795SOL    HW219848   2.073   2.402  13.809 -2.0678 -1.9661 -1.5186
 2796SOL     OW19849   4.108   2.170  11.157  0.1860 -0.1799  0.4182
 2796SOL    HW119850   4.146   2.164  11.069  1.0087 -1.6516  0.8840
 2796SOL    HW219851   4.116   2.083  11.197 -0.8847 -0.5047 -0.0824
 2797SOL     OW19852   4.412   1.764  10.201 -0.1248 -0.1494 -0.2280
 2797SOL    HW119853   4.409   1.713  10.282 -0.4942  1.6023  0.8651
 2797SOL    HW219854   4.349   1.830  10.231 -0.7522  0.0422 -1.9621
 2798SOL     OW19855   4.457   2.849   7.943  0.0929  0.4116  0.4141
 2798SOL    HW119856   4.452   2.817   8.033 -2.0012 -2.6779 -0.7753
 2798SOL    HW219857   4.512   2.925   7.956 -1.8637  2.0882 -1.0667
 2799SOL     OW19858   2.119   4.344   5.596 -0.2573 -0.1090 -0.2389
 2799SOL    HW119859   2.077   4.274   5.545  0.8306 -0.7632 -0.2278
 2799SOL    HW219860   2.208   4.350   5.562 -0.0229 -0.1905  0.3669
 2800SOL     OW19861   1.516   0.920   4.668  0.4719  0.0186  0.2606
 2800SOL    HW119862   1.496   0.852   4.604 -0.0951  1.1297 -0.7388
 2800SOL    HW219863   1.597   0.881   4.701  1.3607  0.2892 -1.5811
 2801SOL     OW19864   1.598   1.178   2.620 -0.2742 -0.0801  0.0334
 2801SOL    HW119865   1.610   1.146   2.530  1.1742 -0.4007  0.3265
 2801SOL    HW219866   1.519   1.231   2.625 -0.2036 -0.1293  1.6631
 2802SOL     OW19867   0.594   0.500   6.585  0.5285 -0.6649  0.1157
 2802SOL    HW119868   0.611   0.424   6.530  3.2746  0.7473 -0.9851
 2802SOL    HW219869   0.682   0.519   6.617 -0.0002 -2.3149  2.4615
 2803SOL     OW19870   3.258   4.206   9.656 -0.5683 -0.5251  0.2157
 2803SOL    HW119871   3.322   4.244   9.717 -0.0940  0.5542 -0.9719
 2803SOL    HW219872   3.306   4.164   9.584  0.9583  0.8042  0.4622
 2804SOL     OW19873   3.652   0.771   5.696 -0.2902  0.0377  0.6621
 2804SOL    HW119874   3.637   0.855   5.652  0.0192 -0.4405 -0.3606
 2804SOL    HW219875   3.580   0.769   5.758 -0.9260 -0.7021 -0.1068
 2805SOL     OW19876   3.534   2.076   1.415 -0.5594  0.4512 -0.4867
 2805SOL    HW119877   3.561   2.167   1.408  0.0791  0.1467 -2.2345
 2805SOL    HW219878   3.530   2.067   1.510 -0.6153 -0.4884 -0.5762
 2806SOL     OW19879   1.137   1.325   3.057  0.0229  0.5177 -0.0600
 2806SOL    HW119880   1.158   1.319   3.150  3.3377  1.1425 -0.7719
 2806SOL    HW219881   1.091   1.242   3.039 -2.9426  1.7545  1.7932
 2807SOL     OW19882   3.967   0.976   3.831 -0.1669  0.1866  0.4394
 2807SOL    HW119883   3.879   1.010   3.815 -0.1436 -0.1637 -0.4247
 2807SOL    HW219884   4.021   1.025   3.769  0.7043 -0.7330  0.4781
 2808SOL     OW19885   3.220   3.491   1.640 -0.4476 -0.6794  0.0162
 2808SOL    HW119886   3.159   3.513   1.569 -0.4240  0.2019  0.2639
 2808SOL    HW219887   3.308   3.484   1.602  0.0973 -0.5802  1.2756
 2809SOL     OW19888   4.439   4.174  14.704  0.1464  0.0807 -0.2642
 2809SOL    HW119889   4.375   4.120  14.658 -0.4786 -0.3069  1.0609
 2809SOL    HW219890   4.420   4.260  14.667 -0.4388  0.1846  0.2726
 2810SOL     OW19891   1.818   2.857  11.348  0.1612  0.0998 -0.2060
 2810SOL    HW119892   1.880   2.866  11.421 -0.8797 -1.9979  0.9295
 2810SOL    HW219893   1.802   2.949  11.325 -2.5609 -0.3530 -0.0944
 2811SOL     OW19894   1.909   4.508  10.922 -0.0205  0.0005 -0.5515
 2811SOL    HW119895   1.981   4.569  10.929  0.1079  0.1427 -3.2316
 2811SOL    HW219896   1.852   4.572  10.880 -0.0475  0.9972  0.9980
 2812SOL     OW19897   2.549   3.055  14.434  0.3590  0.1203 -0.2990
 2812SOL    HW119898   2.523   3.070  14.342 -0.1031  0.5794 -0.0979
 2812SOL    HW219899   2.586   3.143  14.445  1.2372 -0.2574 -0.2538
 2813SOL     OW19900   3.910   4.461   5.465  0.5197 -0.1197  0.6259
 2813SOL    HW119901   3.926   4.433   5.375 -0.3015 -0.9978  0.7532
 2813SOL    HW219902   3.851   4.535   5.446 -1.6251 -2.0443 -0.2590
 2814SOL     OW19903   3.238   2.953   9.101  0.3769  0.1633  0.6624
 2814SOL    HW119904   3.206   2.999   9.023 -2.1081 -0.5433  1.2454
 2814SOL    HW219905   3.254   3.027   9.160  1.4686 -0.8332  1.6107
 2815SOL     OW19906   4.263   1.497   3.397  0.0711 -0.2745  0.0461
 2815SOL    HW119907   4.325   1.570   3.399 -0.3994  0.1360 -0.3484
 2815SOL    HW219908   4.250   1.479   3.304 -0.4173 -1.6932  0.3958
 2816SOL     OW19909   3.856   0.065  12.328 -0.2489 -0.2290  0.2011
 2816SOL    HW119910   3.841   0.155  12.357  0.0989 -1.2095  3.4274
 2816SOL    HW219911   3.907   0.086  12.249  0.9313  0.4722  1.1583
 2817SOL     OW19912   0.650   0.858   1.093  0.1964 -0.3610  0.3683
 2817SOL    HW119913   0.556   0.838   1.091  0.1080  0.2053 -1.2841
 2817SOL    HW219914   0.643   0.951   1.071  0.3576 -0.4441 -0.0193
 2818SOL     OW19915   4.081   3.693   1.280  0.2058 -0.2492  0.0910
 2818SOL    HW119916   4.086   3.618   1.339 -1.5531 -1.4752 -1.3075
 2818SOL    HW219917   3.986   3.702   1.279  0.4918  2.7154  0.4941
 2819SOL     OW19918   3.429   4.558   3.840 -0.9647 -0.1378  0.1071
 2819SOL    HW119919   3.429   4.649   3.871 -3.2147 -0.3452  0.7285
 2819SOL    HW219920   3.495   4.510   3.890 -0.0234 -1.8843 -2.8315
 2820SOL     OW19921   2.558   4.265  11.115 -0.3679 -0.0850 -0.4754
 2820SOL    HW119922   2.545   4.359  11.100 -0.2185 -0.1251 -0.8570
 2820SOL    HW219923   2.641   4.272  11.161 -1.1393 -0.7409  1.0292
 2821SOL     OW19924   4.610   2.040   0.929 -0.4988 -0.1151 -0.5182
 2821SOL    HW119925   4.605   2.087   1.012  1.7063 -1.1795  0.2067
 2821SOL    HW219926   4.558   2.094   0.870  0.0154  0.8294 -0.1108
 2822SOL     OW19927   1.711   1.298   2.832  0.1326 -0.0702 -0.1183
 2822SOL    HW119928   1.685   1.257   2.749 -0.7645  1.6392 -0.6824
 2822SOL    HW219929   1.688   1.225   2.889  2.8507  1.9215  3.5390
 2823SOL     OW19930   1.198   0.876   4.198 -0.0911  0.4371  0.3009
 2823SOL    HW119931   1.279   0.921   4.224  0.2071  0.8137 -1.2573
 2823SOL    HW219932   1.225   0.806   4.138  0.9700  1.2132 -0.1418
 2824SOL     OW19933   0.280   2.628  10.866 -0.0826  0.2290  0.1057
 2824SOL    HW119934   0.193   2.670  10.864 -0.5104 -0.6967 -0.5818
 2824SOL    HW219935   0.278   2.582  10.950 -1.0455  0.9932  0.5075
 2825SOL     OW19936   1.911   4.660   6.807  0.5776  0.1232 -0.1893
 2825SOL    HW119937   1.839   4.622   6.858 -0.2482 -0.0651 -1.5061
 2825SOL    HW219938   1.951   4.577   6.781 -0.1376 -1.2764  3.1786
 2826SOL     OW19939   1.351   4.407   0.526  0.0522  0.1901  0.3550
 2826SOL    HW119940   1.274   4.370   0.571  0.6663 -0.1125  1.1720
 2826SOL    HW219941   1.368   4.354   0.449 -1.1018 -0.9067  0.8447
 2827SOL     OW19942   0.112   3.822   1.828 -0.0372  0.8015 -0.1350
 2827SOL    HW119943   0.166   3.778   1.893 -1.7763 -1.5401 -0.2606
 2827SOL    HW219944   0.068   3.747   1.787  0.6889 -0.0709  0.6922
 2828SOL     OW19945   4.276   4.534  10.293  0.2499 -0.4800  0.3416
 2828SOL    HW119946   4.360   4.498  10.265 -0.0813  0.4194 -1.8570
 2828SOL    HW219947   4.290   4.550  10.386  0.5459  0.1492  0.1928
 2829SOL     OW19948   2.867   1.041   4.757  0.0564 -0.2475 -0.0524
 2829SOL    HW119949   2.895   0.995   4.837 -0.2617  1.3828  1.0034
 2829SOL    HW219950   2.810   0.975   4.718 -1.3373  0.3014  1.0450
 2830SOL     OW19951   0.706   3.485  14.980 -0.2532 -0.4725  0.1133
 2830SOL    HW119952   0.712   3.391  14.992 -0.7975 -0.6474 -0.9483
 2830SOL    HW219953   0.758   3.511  15.056  3.5155 -3.2848 -1.5251
 2831SOL     OW19954   1.582   4.179   8.196  0.2444  0.0660  0.4252
 2831SOL    HW119955   1.559   4.272   8.200  0.0025  0.0224  0.0356
 2831SOL    HW219956   1.614   4.158   8.108  3.3833  1.0370  1.3113
 2832SOL     OW19957   2.939   4.589   4.831 -0.0447 -0.2263 -0.7943
 2832SOL    HW119958   2.963   4.661   4.889 -0.1565  1.4380 -2.8048
 2832SOL    HW219959   2.887   4.640   4.769  1.9261  3.4676  0.5772
 2833SOL     OW19960   3.521   2.252   5.404 -0.6416 -0.0670 -0.0131
 2833SOL    HW119961   3.454   2.260   5.337 -0.3107 -1.2269 -0.4794
 2833SOL    HW219962   3.566   2.168   5.394 -0.1061  0.3640 -1.2052
 2834SOL     OW19963   1.985   0.200   6.887 -0.0644  0.5121  0.3995
 2834SOL    HW119964   2.044   0.153   6.828 -1.6919 -1.4565  0.3636
 2834SOL    HW219965   1.930   0.126   6.914 -2.6036  1.5238 -2.1222
 2835SOL     OW19966   0.457   0.848   8.895 -0.0379 -0.0771  0.6225
 2835SOL    HW119967   0.378   0.794   8.898  0.1829 -0.3882  0.7513
 2835SOL    HW219968   0.435   0.915   8.829  2.8234  1.2678  1.0172
 2836SOL     OW19969   4.454   4.222  17.215 -0.6278 -0.4864  0.1144
 2836SOL    HW119970   4.524   4.188  17.158 -0.2966 -1.9703  1.4024
 2836SOL    HW219971   4.380   4.178  17.173 -1.1628  1.9358 -1.4822
 2837SOL     OW19972   3.437   2.785   7.802 -0.0338  0.1365 -0.5741
 2837SOL    HW119973   3.530   2.780   7.778  0.2887 -0.1319  0.7252
 2837SOL    HW219974   3.444   2.838   7.881 -0.1684  0.6814 -0.9291
 2838SOL     OW19975   3.383   1.914   5.433 -0.1282  0.1835  0.8549
 2838SOL    HW119976   3.406   1.962   5.513  1.8882 -2.2267  1.7225
 2838SOL    HW219977   3.321   1.850   5.467  0.7220 -1.0908  0.0207
 2839SOL     OW19978   3.976   3.964   7.164  0.4101 -0.0191 -0.3539
 2839SOL    HW119979   4.005   4.046   7.203 -1.9796 -0.0885  1.5872
 2839SOL    HW219980   3.882   3.980   7.158  0.2663 -0.7028  0.0916
 2840SOL     OW19981   3.576   3.071   8.980  0.4348  0.1197 -0.3126
 2840SOL    HW119982   3.582   3.155   9.027  0.7610  0.1874 -0.4779
 2840SOL    HW219983   3.551   3.102   8.893  0.5067 -2.0552 -1.0897
 2841SOL     OW19984   3.579   3.174   6.739  0.8046  0.3539  0.4834
 2841SOL    HW119985   3.549   3.187   6.649  1.7828  1.5429  0.3283
 2841SOL    HW219986   3.506   3.195   6.796 -0.7855  1.8685 -2.1358
 2842SOL     OW19987   2.222   0.465   5.042  0.4145 -0.2207  0.0529
 2842SOL    HW119988   2.178   0.475   5.126  2.7037 -0.1754  1.2293
 2842SOL    HW219989   2.190   0.382   5.005  0.6917  0.0231 -0.7302
 2843SOL     OW19990   4.669   2.248  13.007  0.3001 -0.0604  0.2290
 2843SOL    HW119991   0.032   2.229  13.045  0.8146  0.7823 -0.5259
 2843SOL    HW219992   4.684   2.327  12.956 -0.4227 -0.1388 -0.1048
 2844SOL     OW19993   3.293   4.225   8.944  0.1399 -0.0718 -0.4428
 2844SOL    HW119994   3.226   4.275   8.897  0.7130  1.3717  0.2924
 2844SOL    HW219995   3.236   4.180   9.007  0.5433  1.6045  1.1103
 2845SOL     OW19996   4.008   4.078   3.511  0.9361 -0.3243  0.5845
 2845SOL    HW119997   4.035   3.998   3.556 -0.0585 -1.1203 -0.2436
 2845SOL    HW219998   3.915   4.071   3.530  1.0416 -0.1068  1.1879
 2846SOL     OW19999   0.892   2.830  12.894 -0.3113 -0.1857  0.4609
 2846SOL    HW120000   0.834   2.757  12.871  1.0263 -0.3264 -2.4718
 2846SOL    HW220001   0.909   2.811  12.986  0.3786 -0.5451  0.2612
 2847SOL     OW20002   3.257   3.757   7.016 -0.1974  0.5839  0.2248
 2847SOL    HW120003   3.165   3.733   7.013 -0.4229  1.6185 -0.9266
 2847SOL    HW220004   3.286   3.713   7.096  1.0313  0.6121 -0.1991
 2848SOL     OW20005   3.018   4.031  13.802  0.1624 -0.0791  0.0595
 2848SOL    HW120006   2.982   4.083  13.874  3.6100  0.5148  1.3898
 2848SOL    HW220007   2.950   3.969  13.776  0.9619 -0.0235 -2.1539
 2849SOL     OW20008   0.642   1.754   8.544 -0.7684 -0.1445  0.4768
 2849SOL    HW120009   0.706   1.682   8.546  1.6161  2.0497  2.6482
 2849SOL    HW220010   0.558   1.710   8.530 -1.7187  0.9685  2.7609
 2850SOL     OW20011   3.534   3.835   8.400  0.2999  0.0099 -0.0396
 2850SOL    HW120012   3.618   3.881   8.399  0.0418  0.5049  1.3315
 2850SOL    HW220013   3.478   3.898   8.446  1.0953  2.3328 -2.2589
 2851SOL     OW20014   4.255   1.730   6.621  0.3571  0.9972 -0.1920
 2851SOL    HW120015   4.222   1.701   6.706 -0.9838 -1.4144 -1.5757
 2851SOL    HW220016   4.173   1.768   6.591  0.1501  0.6082 -0.1028
 2852SOL     OW20017   1.212   0.123   0.805 -0.0034 -0.0795 -0.5161
 2852SOL    HW120018   1.126   0.084   0.820  0.5692 -0.9482  0.4789
 2852SOL    HW220019   1.194   0.214   0.829 -1.1152 -0.1151 -1.2572
 2853SOL     OW20020   1.586   1.027   5.329  0.2326  0.6076  0.5318
 2853SOL    HW120021   1.549   1.066   5.251 -0.0212 -0.8378 -0.0799
 2853SOL    HW220022   1.542   0.942   5.339  1.1704  0.0262 -0.2523
 2854SOL     OW20023   1.390   3.958   2.661 -0.1810 -0.3245  0.6292
 2854SOL    HW120024   1.483   3.943   2.677 -0.0450  0.1919  0.3197
 2854SOL    HW220025   1.391   4.043   2.618  1.4572 -0.2143  0.8986
 2855SOL     OW20026   1.668   3.455   4.301 -0.5445  0.0995  0.1811
 2855SOL    HW120027   1.619   3.509   4.363 -0.6704 -1.0408  1.0866
 2855SOL    HW220028   1.603   3.389   4.277  1.6507 -1.5755 -1.1995
 2856SOL     OW20029   4.175   4.660   2.270  0.2792 -0.0427  0.3417
 2856SOL    HW120030   4.191   4.624   2.357 -3.9029 -2.4085  0.1250
 2856SOL    HW220031   4.255   4.696   2.231 -1.0490  1.2066 -1.2356
 2857SOL     OW20032   3.752   0.682   5.957  0.0755  0.9785 -0.3457
 2857SOL    HW120033   3.781   0.762   6.000 -0.2873  1.5272 -1.0993
 2857SOL    HW220034   3.724   0.711   5.870 -0.4939 -0.8539 -0.7817
 2858SOL     OW20035   2.043   0.358   3.012 -0.3890  0.1254 -0.0744
 2858SOL    HW120036   1.965   0.366   2.957 -0.4464 -0.3538 -0.0609
 2858SOL    HW220037   2.001   0.358   3.098 -0.3599  1.0194 -0.0563
 2859SOL     OW20038   3.192   0.265   6.997  0.3294  0.0939 -0.0451
 2859SOL    HW120039   3.270   0.221   6.965  0.1533  0.7913 -1.4253
 2859SOL    HW220040   3.229   0.346   7.031 -0.1762  0.5562 -0.5926
 2860SOL     OW20041   1.838   0.655  14.442  0.0191 -0.1109 -0.3030
 2860SOL    HW120042   1.787   0.733  14.466  0.4544  0.0163  0.1979
 2860SOL    HW220043   1.897   0.690  14.376 -0.0951  1.2812  0.3400
 2861SOL     OW20044   4.506   4.015   7.511  0.3722 -0.9034  0.7989
 2861SOL    HW120045   4.416   3.981   7.504  0.7564 -2.0035  1.1596
 2861SOL    HW220046   4.502   4.079   7.581  0.6108  2.0618 -1.9019
 2862SOL     OW20047   2.539   0.891   7.888 -0.2846 -0.1545 -0.9201
 2862SOL    HW120048   2.585   0.921   7.966  0.5943 -1.5856 -0.8966
 2862SOL    HW220049   2.599   0.933   7.826 -1.1784  2.0126 -0.3118
 2863SOL     OW20050   2.529   3.855   7.491 -0.3792  0.8106 -1.2948
 2863SOL    HW120051   2.597   3.872   7.426 -0.6734  0.0313 -1.8087
 2863SOL    HW220052   2.521   3.762   7.469 -2.7800  0.7913 -0.2907
 2864SOL     OW20053   3.657   0.718   8.243 -0.1075  0.2114  0.2419
 2864SOL    HW120054   3.736   0.756   8.205 -1.6427  1.4388 -1.7048
 2864SOL    HW220055   3.636   0.782   8.310  3.5490  1.0368  0.5698
 2865SOL     OW20056   3.937   1.042   5.423 -0.7541 -0.2113 -0.4454
 2865SOL    HW120057   3.864   1.021   5.480 -0.9223 -1.0668 -0.9766
 2865SOL    HW220058   3.914   1.132   5.399  1.4731  0.4823 -0.0164
 2866SOL     OW20059   2.883   4.108   1.789 -0.0559 -0.9525  0.3951
 2866SOL    HW120060   2.911   4.046   1.722 -2.1816  1.9730 -3.1724
 2866SOL    HW220061   2.869   4.056   1.869 -1.6917  0.2944  0.9309
 2867SOL     OW20062   4.427   0.594  12.612  0.3414 -0.1308  0.1478
 2867SOL    HW120063   4.479   0.544  12.549  0.7455 -0.5334  0.7976
 2867SOL    HW220064   4.472   0.581  12.695 -0.0154  3.0219  0.8173
 2868SOL     OW20065   0.704   0.726   0.364  0.8723  0.3454 -0.4192
 2868SOL    HW120066   0.632   0.789   0.354  2.3557  1.8652 -1.4171
 2868SOL    HW220067   0.742   0.761   0.444 -0.9659 -1.0715  1.0665
 2869SOL     OW20068   2.262   4.580   6.852  0.2028  0.4051  0.1526
 2869SOL    HW120069   2.321   4.550   6.782  0.5961  1.1256  0.1753
 2869SOL    HW220070   2.225   4.656   6.807 -1.2537 -0.8246 -0.7346
 2870SOL     OW20071   2.932   2.916   9.453  0.3636  0.0408 -0.2655
 2870SOL    HW120072   2.894   2.861   9.522  1.7648  2.1315  2.1721
 2870SOL    HW220073   2.867   2.932   9.384 -0.7502 -1.0661  0.5190
 2871SOL     OW20074   4.144   0.179   3.652  0.3618  0.4230  0.3746
 2871SOL    HW120075   4.110   0.264   3.679 -2.8278 -0.0617 -2.1405
 2871SOL    HW220076   4.236   0.205   3.642 -0.0517  0.9286 -2.2291
 2872SOL     OW20077   4.269   4.603   5.327 -0.2868  0.1296  0.4692
 2872SOL    HW120078   4.357   4.566   5.337  0.2390  1.2001 -0.1268
 2872SOL    HW220079   4.264   4.663   5.402 -1.3908  0.9556 -0.2700
 2873SOL     OW20080   3.852   1.686   2.161  0.1289  0.2427  0.2829
 2873SOL    HW120081   3.905   1.766   2.162 -0.5338  0.6747  0.2400
 2873SOL    HW220082   3.899   1.638   2.230  1.9155  3.3257  1.2180
 2874SOL     OW20083   0.973   0.555  12.336  0.1371  0.0953 -0.6603
 2874SOL    HW120084   0.987   0.647  12.360  1.2704 -0.5426  1.0767
 2874SOL    HW220085   0.883   0.552  12.302  0.6659 -0.2203 -2.0222
 2875SOL     OW20086   3.505   0.481   1.020  0.5597  0.2061  0.0683
 2875SOL    HW120087   3.416   0.466   0.989  1.0100 -1.8179 -0.2636
 2875SOL    HW220088   3.500   0.565   1.066  0.3506  0.4084 -0.3324
 2876SOL     OW20089   2.506   3.094   1.015  0.1345 -0.0328  0.4884
 2876SOL    HW120090   2.547   3.176   1.044 -3.9668  1.4240  2.1951
 2876SOL    HW220091   2.412   3.114   1.010  0.1387 -0.1403 -0.0110
 2877SOL     OW20092   0.191   1.308   4.581  0.1967 -0.4355  0.2778
 2877SOL    HW120093   0.252   1.310   4.654 -0.2427  1.1599  0.6180
 2877SOL    HW220094   0.109   1.335   4.622 -0.7362  0.8711 -2.4465
 2878SOL     OW20095   2.954   1.316  12.279 -0.1615  0.4596  0.8249
 2878SOL    HW120096   3.023   1.310  12.345  0.7789 -0.6454 -0.2721
 2878SOL    HW220097   2.980   1.266  12.202 -0.3640  1.7117 -0.0513
 2879SOL     OW20098   1.967   1.116  16.909  0.4050 -0.6960  0.0003
 2879SOL    HW120099   2.036   1.173  16.945  1.2530 -0.1583 -2.4587
 2879SOL    HW220100   1.945   1.058  16.982  1.1910 -1.6740 -0.5426
 2880SOL     OW20101   0.936   0.467   5.629  0.0084  0.3862 -0.0789
 2880SOL    HW120102   0.871   0.418   5.580  1.7944 -2.1557  0.0920
 2880SOL    HW220103   0.890   0.526   5.689 -0.1824  2.5616 -2.3704
 2881SOL     OW20104   4.669   4.633   4.289  0.1322  0.2133 -0.7103
 2881SOL    HW120105   4.716   4.681   4.356 -2.5309  1.1201  0.4860
 2881SOL    HW220106   0.013   4.628   4.220  1.1950  2.4875  0.1891
 2882SOL     OW20107   4.311   1.685   7.001 -0.0793 -0.0039  0.1759
 2882SOL    HW120108   4.253   1.734   6.943 -0.3336 -1.7961 -1.0966
 2882SOL    HW220109   4.323   1.749   7.072  3.0400 -1.3034  0.8128
 2883SOL     OW20110   2.816   3.306   3.424 -1.0538 -0.6280  0.0272
 2883SOL    HW120111   2.867   3.369   3.474 -1.2995  0.5183 -1.1580
 2883SOL    HW220112   2.740   3.364   3.408 -1.6925 -0.7255  2.6294
 2884SOL     OW20113   0.615   4.230   8.130 -0.0649  0.1974 -0.5744
 2884SOL    HW120114   0.551   4.178   8.082 -0.8571  0.1998  0.4746
 2884SOL    HW220115   0.631   4.171   8.203 -0.9304  2.1383  1.1789
 2885SOL     OW20116   2.155   3.966   7.905 -0.2295  0.3506  0.9561
 2885SOL    HW120117   2.212   3.992   7.977  1.1720 -0.1539  0.0310
 2885SOL    HW220118   2.145   3.873   7.923  1.0331  0.7327  3.5422
 2886SOL     OW20119   0.579   1.168  15.157 -0.0908 -0.2751 -0.1321
 2886SOL    HW120120   0.549   1.255  15.181  1.5432  0.4100 -0.5278
 2886SOL    HW220121   0.623   1.127  15.232  0.0842 -0.5739 -0.3980
 2887SOL     OW20122   4.392   0.035   8.118  0.3585 -0.2532 -0.1743
 2887SOL    HW120123   4.381   0.009   8.027 -1.0090  0.9531 -0.3534
 2887SOL    HW220124   4.485   0.017   8.131  0.0494  0.4089  3.0245
 2888SOL     OW20125   2.015   1.824  13.313  0.1053  0.4379  0.0326
 2888SOL    HW120126   1.995   1.732  13.299 -1.8228  0.6766  1.1333
 2888SOL    HW220127   1.986   1.841  13.403  0.7409  0.8107  0.1701
 2889SOL     OW20128   2.738   1.497   4.831  0.0534 -0.4707  0.3219
 2889SOL    HW120129   2.781   1.411   4.839 -0.8959 -0.7521  2.1531
 2889SOL    HW220130   2.715   1.479   4.739  1.9450 -4.7055  0.6696
 2890SOL     OW20131   1.488   1.282   5.734 -0.2953  0.1828 -0.2176
 2890SOL    HW120132   1.440   1.313   5.657 -2.9274  0.2547  1.4351
 2890SOL    HW220133   1.580   1.303   5.722  0.0299 -1.3009 -0.3638
 2891SOL     OW20134   1.791   3.600   8.465  0.3446 -0.4987  0.0679
 2891SOL    HW120135   1.722   3.607   8.531  0.1449  0.3532 -0.2413
 2891SOL    HW220136   1.758   3.646   8.388 -1.5994  0.2392  1.3262
 2892SOL     OW20137   1.637   2.428   4.249 -0.4288 -0.7014  0.0091
 2892SOL    HW120138   1.709   2.477   4.209  0.1709  0.1531  2.1655
 2892SOL    HW220139   1.653   2.420   4.343 -0.8724 -0.3937  0.1060
 2893SOL     OW20140   3.267   0.415   0.852 -0.7347  0.1932 -0.4270
 2893SOL    HW120141   3.290   0.429   0.761 -0.2859  0.1929 -0.3134
 2893SOL    HW220142   3.171   0.414   0.845 -0.8209  0.9787  0.7203
 2894SOL     OW20143   4.383   0.040   4.321  0.4419 -0.3414 -0.6206
 2894SOL    HW120144   4.417   0.009   4.404 -1.9854 -0.6652  0.2647
 2894SOL    HW220145   4.412   4.693   4.263  1.2145  0.3256 -1.0324
 2895SOL     OW20146   2.313   2.788   1.764 -1.1333 -0.0678  0.0528
 2895SOL    HW120147   2.381   2.772   1.830 -0.9809 -1.7380 -0.5177
 2895SOL    HW220148   2.286   2.699   1.742 -0.0643 -0.5973  0.8545
 2896SOL     OW20149   3.871   4.331  10.229  0.1013 -0.7539  0.5959
 2896SOL    HW120150   3.832   4.328  10.141  0.5712  0.4138  0.3415
 2896SOL    HW220151   3.910   4.418  10.241 -0.9048 -0.1180 -0.6678
 2897SOL     OW20152   4.001   2.956  17.260  0.5737  0.0093 -0.3452
 2897SOL    HW120153   3.982   2.867  17.232 -0.5368 -0.3462  1.5221
 2897SOL    HW220154   3.918   3.003  17.272 -0.1594 -1.3618 -0.0140
 2898SOL     OW20155   2.022   1.897   4.086 -0.1710  0.1896  0.3529
 2898SOL    HW120156   2.078   1.968   4.117 -1.6274  2.0450 -1.2352
 2898SOL    HW220157   1.973   1.873   4.165 -0.1412  2.0273  0.9493
 2899SOL     OW20158   3.023   4.300   9.913  0.7640  0.3000  0.7930
 2899SOL    HW120159   3.119   4.303   9.904  0.7008 -0.2221 -0.0783
 2899SOL    HW220160   3.014   4.372   9.976  1.3094  1.5469 -0.5457
 2900SOL     OW20161   1.059   0.403   7.088 -0.0130  0.6936 -0.6652
 2900SOL    HW120162   1.130   0.340   7.091 -0.0286  0.5482 -2.9456
 2900SOL    HW220163   1.107   0.484   7.106  0.9264 -0.0334  0.1095
 2901SOL     OW20164   0.912   3.281   9.259 -1.0596  0.0160  0.1298
 2901SOL    HW120165   0.895   3.369   9.294 -2.1557 -0.4411  0.7691
 2901SOL    HW220166   0.935   3.299   9.168  1.7313 -1.2632  0.5962
 2902SOL     OW20167   4.596   4.293   1.471  0.1297 -0.2628  0.3250
 2902SOL    HW120168   4.515   4.282   1.421 -0.8072  1.7713  1.3780
 2902SOL    HW220169   4.564   4.349   1.542 -0.5039  1.4257 -1.2998
 2903SOL     OW20170   3.896   4.701   1.415  0.1681  0.0130 -0.0768
 2903SOL    HW120171   3.895   4.720   1.321  0.1605 -0.2741 -0.1325
 2903SOL    HW220172   3.844   0.052   1.446 -1.2273 -0.5407 -1.0925
 2904SOL     OW20173   4.418   2.172   9.517  0.4474 -0.0019 -0.5207
 2904SOL    HW120174   4.426   2.088   9.562  0.1099 -0.3502 -1.1075
 2904SOL    HW220175   4.354   2.148   9.450 -1.2531  4.2274 -0.4198
 2905SOL     OW20176   2.992   3.811   3.111  0.1171  0.3175  0.1783
 2905SOL    HW120177   2.998   3.877   3.180  1.0317  1.5436 -1.0523
 2905SOL    HW220178   3.020   3.872   3.042 -1.9872  1.5602  0.4126
 2906SOL     OW20179   3.391   4.124   1.233  0.6942 -0.0396 -0.6765
 2906SOL    HW120180   3.457   4.162   1.290 -0.8841  2.4021 -0.4852
 2906SOL    HW220181   3.314   4.158   1.279  0.9140 -1.4881  0.8090
 2907SOL     OW20182   0.222   2.812  16.486  0.4070 -0.1644 -0.0401
 2907SOL    HW120183   0.156   2.854  16.431 -0.5167 -1.3230  0.1797
 2907SOL    HW220184   0.268   2.896  16.489  1.2918 -0.6467 -0.0874
 2908SOL     OW20185   0.073   1.177  12.906  0.3990  0.0554  0.4839
 2908SOL    HW120186   0.087   1.127  12.826 -1.6502 -0.1637  0.2891
 2908SOL    HW220187   4.719   1.135  12.943  1.0010  1.9200  3.8335
 2909SOL     OW20188   3.325   0.435   4.724 -0.3588  0.2773 -0.2747
 2909SOL    HW120189   3.230   0.443   4.731 -0.5653 -0.6455 -2.0715
 2909SOL    HW220190   3.349   0.488   4.800 -0.0159  0.4578 -0.5097
 2910SOL     OW20191   3.088   0.682   7.079  0.0251 -0.1695 -0.2199
 2910SOL    HW120192   3.082   0.636   6.996  3.5371 -0.4294 -0.3244
 2910SOL    HW220193   3.126   0.766   7.051  0.6795 -0.4953 -0.3155
 2911SOL     OW20194   4.014   3.983   6.175  0.3442 -0.3316  0.5434
 2911SOL    HW120195   3.974   3.901   6.202  0.1504  0.3778  2.3782
 2911SOL    HW220196   4.065   3.946   6.102 -1.1882 -2.2639  0.4628
 2912SOL     OW20197   2.879   2.431   1.173  0.2452 -0.3515  0.6779
 2912SOL    HW120198   2.844   2.490   1.240  2.4466  0.3365  1.2156
 2912SOL    HW220199   2.802   2.433   1.115  0.7365 -0.9257  0.0023
 2913SOL     OW20200   3.823   3.127   3.131  0.0574 -0.2077 -0.3903
 2913SOL    HW120201   3.820   3.130   3.227 -1.8143  2.1299 -0.5189
 2913SOL    HW220202   3.831   3.222   3.121  2.0448 -0.3357 -0.0316
 2914SOL     OW20203   3.441   3.174   6.511 -0.2090 -0.4973  0.0091
 2914SOL    HW120204   3.367   3.137   6.558 -1.9285  0.0884 -2.2413
 2914SOL    HW220205   3.415   3.169   6.419 -1.1390  0.3672  0.2158
 2915SOL     OW20206   4.203   3.637   7.451 -0.4501 -0.4131  0.0739
 2915SOL    HW120207   4.291   3.673   7.456 -0.2841 -1.1208  2.4510
 2915SOL    HW220208   4.180   3.686   7.372 -0.2814 -0.3610  0.0586
 2916SOL     OW20209   3.404   2.851   3.629 -0.2198 -0.4437  0.5520
 2916SOL    HW120210   3.454   2.772   3.609 -1.4974 -0.4275 -2.7206
 2916SOL    HW220211   3.312   2.825   3.636 -0.2996 -0.1992  0.4026
 2917SOL     OW20212   3.886   3.834   1.043  0.3365 -1.0312  0.6466
 2917SOL    HW120213   3.897   3.825   1.137  0.4870  0.4606  0.7837
 2917SOL    HW220214   3.790   3.841   1.044  0.3053 -1.7283  2.0232
 2918SOL     OW20215   2.497   1.402  15.253  0.1845  0.2093 -0.2241
 2918SOL    HW120216   2.452   1.474  15.208 -0.8117  2.0953  3.8016
 2918SOL    HW220217   2.449   1.401  15.335  1.5300 -1.4080  0.5391
 2919SOL     OW20218   2.482   2.886   4.043 -0.2627 -0.1384 -0.6026
 2919SOL    HW120219   2.391   2.856   4.042 -1.0831  2.2657  2.6538
 2919SOL    HW220220   2.476   2.958   4.105  0.8308 -0.1777 -0.4534
 2920SOL     OW20221   1.955   3.805   6.617  0.3285 -0.0535  0.1829
 2920SOL    HW120222   1.872   3.853   6.624 -0.3872 -1.2823 -0.0187
 2920SOL    HW220223   1.932   3.749   6.543 -2.4519  0.6694  0.4847
 2921SOL     OW20224   0.975   2.077   8.280  0.3505 -0.1828  0.1287
 2921SOL    HW120225   0.895   2.024   8.280 -0.1934  0.5924  2.8649
 2921SOL    HW220226   0.965   2.114   8.193  1.4817  1.2404  0.6132
 2922SOL     OW20227   3.221   3.131   6.663 -0.5686 -0.4775 -0.3082
 2922SOL    HW120228   3.234   3.181   6.743 -0.2754  1.5239 -1.6187
 2922SOL    HW220229   3.142   3.077   6.672 -0.8357 -0.1736 -0.9029
 2923SOL     OW20230   0.785   2.414   7.787 -0.0630 -0.3150  0.0925
 2923SOL    HW120231   0.711   2.414   7.726  0.4032  1.9874 -0.4781
 2923SOL    HW220232   0.842   2.343   7.757  2.1930  0.4857  2.4336
 2924SOL     OW20233   2.149   0.030   3.870  0.6982 -0.0250 -0.0354
 2924SOL    HW120234   2.220   0.060   3.926  2.0428  0.1034 -1.8267
 2924SOL    HW220235   2.109   0.113   3.847  1.9967 -0.1256 -2.5987
 2925SOL     OW20236   2.083   0.764   5.346 -0.7357  0.8178  0.1326
 2925SOL    HW120237   2.154   0.827   5.339  1.5991 -1.9701 -1.0747
 2925SOL    HW220238   2.134   0.684   5.338 -0.0209  1.1689  1.2418
 2926SOL     OW20239   0.225   4.652  17.383 -0.0848 -0.1786 -0.5906
 2926SOL    HW120240   0.304   4.682  17.429 -0.4393  0.0867 -0.1542
 2926SOL    HW220241   0.250   4.646  17.291 -1.6843  1.9052 -1.1493
 2927SOL     OW20242   1.835   2.370  12.623  0.2961 -0.0632 -0.2035
 2927SOL    HW120243   1.904   2.307  12.645 -0.4157 -0.6197  0.4201
 2927SOL    HW220244   1.889   2.445  12.650  0.2619  0.0355 -0.4093
 2928SOL     OW20245   4.076   2.930   7.642  0.3549 -0.0971 -0.2719
 2928SOL    HW120246   4.020   2.886   7.577  1.9105  0.5046 -2.0020
 2928SOL    HW220247   4.164   2.915   7.609 -0.4188 -1.6372 -1.6898
 2929SOL     OW20248   4.160   1.484  10.701 -0.2396 -0.3368  0.2239
 2929SOL    HW120249   4.240   1.455  10.745 -1.1686 -2.1308  0.7386
 2929SOL    HW220250   4.155   1.563  10.754  2.1243  0.3397 -0.5180
 2930SOL     OW20251   2.293   3.716  11.840  0.0171  0.4623  0.1985
 2930SOL    HW120252   2.356   3.787  11.833  0.2388 -0.0173 -2.5787
 2930SOL    HW220253   2.349   3.641  11.819 -0.9254 -1.1654  3.4795
 2931SOL     OW20254   2.465   3.004  12.833 -0.5387  0.3127  0.0318
 2931SOL    HW120255   2.551   3.044  12.840 -1.1665  1.8448 -0.8105
 2931SOL    HW220256   2.416   3.072  12.787 -0.0347  0.5951 -0.0811
 2932SOL     OW20257   4.633   3.060   6.414 -0.8381  0.4024  0.5089
 2932SOL    HW120258   4.663   3.052   6.504 -1.5728 -0.7452  0.6498
 2932SOL    HW220259   4.540   3.045   6.431 -0.8050  1.0191  1.2205
 2933SOL     OW20260   1.911   4.501  17.123 -0.6238 -0.1833 -0.0606
 2933SOL    HW120261   1.981   4.515  17.187 -0.6170 -0.1933 -0.0660
 2933SOL    HW220262   1.868   4.426  17.163 -1.2931  0.7241  0.9313
 2934SOL     OW20263   0.402   1.401   3.557 -0.2264  0.2857  0.3927
 2934SOL    HW120264   0.448   1.364   3.483  1.7362  2.0504  0.7144
 2934SOL    HW220265   0.325   1.434   3.511 -0.0883 -2.5170 -1.7817
 2935SOL     OW20266   3.524   1.942   6.992  0.4882  0.0851 -0.6189
 2935SOL    HW120267   3.559   1.853   6.992 -0.0571 -0.1268  0.6518
 2935SOL    HW220268   3.550   1.967   7.081 -3.0048 -0.8395  0.6419
 2936SOL     OW20269   2.281   1.582  15.178 -0.6853  0.3641 -0.7845
 2936SOL    HW120270   2.307   1.667  15.214 -2.4598  0.4027  0.4050
 2936SOL    HW220271   2.249   1.612  15.093 -0.8480 -0.8503 -1.1501
 2937SOL     OW20272   4.005   0.124   9.535  0.6315 -0.3485  0.3102
 2937SOL    HW120273   3.961   0.065   9.474 -0.5266  0.2862  0.5397
 2937SOL    HW220274   3.983   0.085   9.620 -1.2104 -0.0955 -0.0492
 2938SOL     OW20275   2.264   0.240   3.617  0.0815  0.0737  0.0753
 2938SOL    HW120276   2.233   0.165   3.567 -0.0655 -1.0591  1.8414
 2938SOL    HW220277   2.189   0.253   3.676 -0.2402  2.6297 -0.8806
 2939SOL     OW20278   3.496   0.609   8.690 -0.3080  0.1127  0.3815
 2939SOL    HW120279   3.526   0.673   8.626 -0.7080  0.9871  1.0759
 2939SOL    HW220280   3.446   0.553   8.631 -1.1640  0.1877  1.0270
 2940SOL     OW20281   0.740   2.835   8.474 -0.2552  0.0098 -0.0873
 2940SOL    HW120282   0.701   2.799   8.395  0.2766 -2.0090  0.5755
 2940SOL    HW220283   0.822   2.785   8.478 -0.0609  0.2133 -1.6450
 2941SOL     OW20284   0.798   1.317   8.913  0.1827 -0.5176  0.3973
 2941SOL    HW120285   0.754   1.352   8.990  0.7327  2.7379 -0.7399
 2941SOL    HW220286   0.719   1.312   8.859  1.5336  2.1494 -1.8087
 2942SOL     OW20287   2.732   1.152   5.149 -0.0871  0.0056  0.4940
 2942SOL    HW120288   2.766   1.189   5.230 -0.7162 -0.5017  0.9961
 2942SOL    HW220289   2.804   1.168   5.089  1.3006 -0.7445  1.9481
 2943SOL     OW20290   1.171   3.430   3.880  0.1844 -0.4427  0.5438
 2943SOL    HW120291   1.110   3.502   3.898 -1.6463 -2.1695  1.2553
 2943SOL    HW220292   1.229   3.487   3.830 -2.9355  1.6046 -0.7632
 2944SOL     OW20293   1.014   2.231   4.612 -0.4546 -1.0380 -0.2675
 2944SOL    HW120294   1.082   2.175   4.575  0.4763 -1.3805  1.9265
 2944SOL    HW220295   1.041   2.323   4.603  0.9219 -1.1175  3.0964
 2945SOL     OW20296   2.806   2.102  17.410  0.1251  0.1247 -0.3122
 2945SOL    HW120297   2.864   2.033  17.381  0.5838  0.5217 -0.3401
 2945SOL    HW220298   2.757   2.053  17.476  1.1063 -2.1331 -1.2841
 2946SOL     OW20299   1.025   4.433   6.716 -0.1644  0.0402  0.1863
 2946SOL    HW120300   1.076   4.383   6.779  1.7704  0.4578 -1.0726
 2946SOL    HW220301   0.952   4.372   6.705  0.0116 -0.0856 -0.3017
 2947SOL     OW20302   3.397   3.494   7.034 -0.1281 -0.0991  0.5854
 2947SOL    HW120303   3.397   3.483   7.129  2.2003  1.0970  0.7161
 2947SOL    HW220304   3.468   3.557   7.024 -0.2878  0.3213  2.1099
 2948SOL     OW20305   0.519   3.702   8.254 -0.0918  0.1438  0.0717
 2948SOL    HW120306   0.582   3.769   8.280 -0.6570  0.3207  1.0123
 2948SOL    HW220307   0.558   3.625   8.296 -0.8759 -1.1845 -1.6916
 2949SOL     OW20308   3.374   0.789  15.591 -0.1722  0.3555 -0.0663
 2949SOL    HW120309   3.421   0.725  15.539  1.7315 -0.4445  2.6170
 2949SOL    HW220310   3.443   0.810  15.654  0.9881 -1.6423 -0.7050
 2950SOL     OW20311   1.216   4.512   6.497  0.3252  0.0662 -0.3642
 2950SOL    HW120312   1.291   4.521   6.556 -1.0499  0.9167  1.2248
 2950SOL    HW220313   1.148   4.481   6.556  1.7709 -0.9833  0.7534
 2951SOL     OW20314   1.480   0.074  14.307 -0.2856  0.9679 -0.5185
 2951SOL    HW120315   1.455   0.048  14.396  0.3269  0.4010 -0.5069
 2951SOL    HW220316   1.575   0.077  14.324 -0.8133  0.1046  2.5852
 2952SOL     OW20317   2.240   4.397  11.026  0.0012  0.3172  0.2343
 2952SOL    HW120318   2.330   4.430  11.025 -1.0305  3.0731 -2.3123
 2952SOL    HW220319   2.185   4.474  11.033  1.9444  1.7352  0.0720
 2953SOL     OW20320   1.848   1.004  11.999  0.1509  0.3052 -0.5711
 2953SOL    HW120321   1.915   0.936  12.010 -1.0031 -0.7965 -0.2719
 2953SOL    HW220322   1.871   1.038  11.913 -1.2438 -1.2248 -1.5521
 2954SOL     OW20323   3.818   3.846  10.803  0.1747 -0.3336 -0.5440
 2954SOL    HW120324   3.903   3.808  10.781  0.5722  2.4703 -3.7443
 2954SOL    HW220325   3.823   3.917  10.740  2.1782  0.3628  0.3980
 2955SOL     OW20326   3.887   4.454   4.480 -0.4382  0.1438  0.0351
 2955SOL    HW120327   3.949   4.434   4.410 -0.5630 -0.3711  0.0715
 2955SOL    HW220328   3.804   4.466   4.434  0.1382 -2.0169 -1.5508
 2956SOL     OW20329   2.090   1.592   7.703 -0.4340  0.6254 -0.2129
 2956SOL    HW120330   2.004   1.559   7.677 -0.2039 -1.7279  2.0651
 2956SOL    HW220331   2.064   1.676   7.741 -1.9550 -0.6399  1.5753
 2957SOL     OW20332   0.259   1.689   6.618 -0.1341 -0.0157  0.0776
 2957SOL    HW120333   0.255   1.696   6.523 -0.7880  0.2501  0.1279
 2957SOL    HW220334   0.170   1.663   6.642 -0.3303 -0.2315 -0.8848
 2958SOL     OW20335   4.449   2.908  14.323 -0.1502 -0.5528  0.2439
 2958SOL    HW120336   4.369   2.863  14.297  0.7985 -2.7190  1.0532
 2958SOL    HW220337   4.426   2.925  14.414  0.4403 -0.9217  0.4646
 2959SOL     OW20338   3.473   4.527   9.440  1.1429 -0.2699 -0.0262
 2959SOL    HW120339   3.537   4.549   9.507  0.2117  1.6218  0.2540
 2959SOL    HW220340   3.516   4.568   9.365  1.2142 -0.3809 -0.0456
 2960SOL     OW20341   2.372   4.595   9.319 -0.9662 -0.5061  0.4055
 2960SOL    HW120342   2.397   4.647   9.243 -1.3042  1.3157  1.5396
 2960SOL    HW220343   2.309   4.653   9.363 -2.1794 -1.1813 -0.4691
 2961SOL     OW20344   3.264   2.483   8.687  0.0076  0.6603  0.3457
 2961SOL    HW120345   3.271   2.577   8.674 -0.4913  0.4601 -1.3234
 2961SOL    HW220346   3.321   2.483   8.765  0.9533  0.9575 -0.3463
 2962SOL     OW20347   0.871   0.365   1.345  0.8432 -0.0859 -0.4761
 2962SOL    HW120348   0.817   0.435   1.307 -0.1231 -0.5957 -0.0493
 2962SOL    HW220349   0.820   0.284   1.340 -1.6565  1.4898 -0.5816
 2963SOL     OW20350   2.280   1.852   4.546 -0.4639 -0.0251 -0.3130
 2963SOL    HW120351   2.314   1.893   4.467  0.7502 -2.4368 -1.0238
 2963SOL    HW220352   2.284   1.930   4.601  1.4082 -0.0340 -0.4635
 2964SOL     OW20353   1.683   1.234   4.136  0.2703 -0.0710  0.4711
 2964SOL    HW120354   1.727   1.153   4.160  0.1445 -0.4355 -0.5200
 2964SOL    HW220355   1.641   1.206   4.054 -0.2103 -0.7876  0.9617
 2965SOL     OW20356   0.251   1.487   3.344 -0.5269  0.1534 -0.0473
 2965SOL    HW120357   0.325   1.488   3.283 -0.6109  0.5741 -0.1420
 2965SOL    HW220358   0.179   1.513   3.287 -2.0186 -1.7803  0.9696
 2966SOL     OW20359   3.450   0.921   7.238  0.4145  0.0497  0.0919
 2966SOL    HW120360   3.442   1.011   7.207  0.5675  0.0342  0.0062
 2966SOL    HW220361   3.362   0.906   7.271 -0.2465  2.0684 -0.7055
 2967SOL     OW20362   2.837   4.703   9.851  0.4661  0.5253 -0.2553
 2967SOL    HW120363   2.890   4.661   9.920 -1.1070 -1.7067 -0.4341
 2967SOL    HW220364   2.863   0.072   9.856  2.3212  0.0398 -0.6512
 2968SOL     OW20365   3.445   1.855  10.835 -0.1376  0.3060 -0.3287
 2968SOL    HW120366   3.427   1.819  10.922  1.4778 -1.0867 -0.5758
 2968SOL    HW220367   3.365   1.856  10.783  0.9307 -2.4683 -2.0010
 2969SOL     OW20368   0.638   2.323   3.062 -0.9906  0.0984 -0.4744
 2969SOL    HW120369   0.575   2.309   2.992  0.3336 -1.8864 -1.2332
 2969SOL    HW220370   0.605   2.407   3.097 -2.6497  1.0655 -4.3310
 2970SOL     OW20371   2.916   0.762   1.886 -0.0984  0.0342 -0.0839
 2970SOL    HW120372   2.823   0.782   1.883  0.3882  2.2932  0.0971
 2970SOL    HW220373   2.907   0.682   1.833  1.5990 -1.1394  1.3873
 2971SOL     OW20374   0.820   3.908   8.172  0.0205  0.5126  0.2988
 2971SOL    HW120375   0.767   3.896   8.093  0.3136  0.4030  0.1186
 2971SOL    HW220376   0.906   3.928   8.137  0.0846 -1.1252 -0.4940
 2972SOL     OW20377   4.666   1.301  16.463 -0.1978  0.5993  0.3996
 2972SOL    HW120378   4.601   1.311  16.394  1.3955 -1.6336 -1.4602
 2972SOL    HW220379   0.008   1.251  16.413 -1.7682 -0.5944 -0.4690
 2973SOL     OW20380   1.167   3.068   6.359  0.2941 -0.1475  0.3169
 2973SOL    HW120381   1.230   3.039   6.293  2.1768 -1.1043  2.5249
 2973SOL    HW220382   1.087   3.022   6.334 -0.5615  1.1961  0.5891
 2974SOL     OW20383   1.461   4.089  15.650 -0.7409 -0.2431 -0.3217
 2974SOL    HW120384   1.398   4.061  15.584 -0.7415 -0.7449 -0.1075
 2974SOL    HW220385   1.537   4.046  15.610  0.3856 -1.3038  2.9832
 2975SOL     OW20386   0.190   3.559  16.131 -0.7695 -0.1188 -0.0963
 2975SOL    HW120387   0.175   3.521  16.217 -1.3117  1.9987  0.7534
 2975SOL    HW220388   0.104   3.585  16.096 -1.5534 -1.4973  0.8246
 2976SOL     OW20389   4.475   1.959  16.452  0.1485 -0.9574  0.4190
 2976SOL    HW120390   4.557   1.913  16.470 -0.8688 -2.3688  1.5358
 2976SOL    HW220391   4.416   1.926  16.520  1.0267  0.4526  1.8576
 2977SOL     OW20392   0.359   1.445  11.840 -0.2670  0.8139  0.3595
 2977SOL    HW120393   0.427   1.502  11.874  2.9370 -1.8343 -1.5740
 2977SOL    HW220394   0.391   1.356  11.855  1.6175  1.8738  2.6089
 2978SOL     OW20395   0.574   1.035   5.992  0.4932 -0.5423  0.5517
 2978SOL    HW120396   0.484   1.044   5.959  1.0613  0.7528 -0.6266
 2978SOL    HW220397   0.627   1.077   5.925  0.8027 -0.4608  0.8472
 2979SOL     OW20398   1.629   1.269  11.479  0.3167  0.3865 -0.0631
 2979SOL    HW120399   1.716   1.280  11.516  0.1600  2.2157 -0.2294
 2979SOL    HW220400   1.608   1.361  11.464 -0.1717  0.2698 -0.1137
 2980SOL     OW20401   0.559   2.969   3.053 -0.3334 -0.6085  0.0898
 2980SOL    HW120402   0.487   3.031   3.041  1.2721  1.4811  1.1333
 2980SOL    HW220403   0.633   3.023   3.023 -0.7915  1.2046  2.2448
 2981SOL     OW20404   1.986   1.890   4.521 -0.1295 -0.2262 -0.4428
 2981SOL    HW120405   2.074   1.853   4.520 -0.4670 -1.0087 -1.0207
 2981SOL    HW220406   1.936   1.809   4.522  0.5434 -0.6220  1.2350
 2982SOL     OW20407   0.768   2.584   4.313 -0.2372 -0.5390  0.0775
 2982SOL    HW120408   0.818   2.504   4.296  1.3668  0.3935  0.4408
 2982SOL    HW220409   0.842   2.641   4.331 -0.2456 -1.4415  3.0680
 2983SOL     OW20410   1.987   1.599   3.633  0.2795 -0.3535  0.1253
 2983SOL    HW120411   1.894   1.620   3.632  0.4973  0.5705 -0.8209
 2983SOL    HW220412   2.012   1.623   3.722  0.4409 -2.1102  0.5520
 2984SOL     OW20413   0.019   0.576   0.076 -0.0885 -0.1577 -0.3959
 2984SOL    HW120414   4.706   0.572   0.164 -0.6344 -0.6162 -0.6460
 2984SOL    HW220415   0.041   0.669   0.069 -0.4224 -0.1226 -0.9553
 2985SOL     OW20416   0.772   4.558   1.870  0.3795  0.5413 -0.1846
 2985SOL    HW120417   0.831   4.616   1.918  2.5288 -0.8678 -1.1173
 2985SOL    HW220418   0.684   4.575   1.904 -0.0865  0.8994 -1.6041
 2986SOL     OW20419   0.661   4.649   2.896 -0.5820 -0.3236 -0.6571
 2986SOL    HW120420   0.662   4.622   2.804 -0.1188 -1.2597 -0.3820
 2986SOL    HW220421   0.566   4.645   2.901 -0.4676 -1.6152  0.6165
 2987SOL     OW20422   2.364   0.564  16.724 -0.2121  0.0080  0.3086
 2987SOL    HW120423   2.406   0.625  16.784 -0.6264 -1.6334  2.2653
 2987SOL    HW220424   2.310   0.623  16.672  0.2234  0.1505  0.0217
 2988SOL     OW20425   2.005   0.955   7.357  0.0183  0.3763 -0.2474
 2988SOL    HW120426   1.993   0.903   7.278  2.5436 -0.9329  0.2104
 2988SOL    HW220427   2.065   0.892   7.397 -1.4223 -1.2226 -0.6076
 2989SOL     OW20428   2.429   2.171   9.409 -0.0603  0.3102 -0.4344
 2989SOL    HW120429   2.341   2.143   9.434  0.9325 -1.3813  1.1075
 2989SOL    HW220430   2.477   2.153   9.489 -0.0025  0.2399 -0.4846
 2990SOL     OW20431   2.201   2.486   8.788  0.2463 -0.2995  0.1388
 2990SOL    HW120432   2.248   2.458   8.710  0.6271 -1.5193  0.8100
 2990SOL    HW220433   2.123   2.430   8.782 -1.7671  2.5349 -0.4925
 2991SOL     OW20434   0.086   1.997   2.484  0.1827  0.6196  0.1677
 2991SOL    HW120435   0.095   1.906   2.511 -0.2961  0.6525  0.4344
 2991SOL    HW220436   0.053   1.990   2.395 -0.5851  2.8566  0.2749
 2992SOL     OW20437   1.382   3.190   0.711 -0.3547 -0.2258  0.3190
 2992SOL    HW120438   1.383   3.171   0.805  1.5889 -1.0792  0.1283
 2992SOL    HW220439   1.287   3.191   0.698 -0.0992 -0.9115 -1.6426
 2993SOL     OW20440   2.416   0.237   6.957  0.0655  0.4280 -0.0568
 2993SOL    HW120441   2.415   0.239   7.053  0.2805  1.3109 -0.0761
 2993SOL    HW220442   2.395   0.326   6.930 -1.3598  0.4289  1.0355
 2994SOL     OW20443   0.056   1.283   6.694 -0.3467  0.2610  0.1491
 2994SOL    HW120444   0.091   1.332   6.620  0.8077 -0.9603 -0.1029
 2994SOL    HW220445   4.684   1.300   6.691  0.0295  1.9671 -1.8431
 2995SOL     OW20446   3.890   4.228  11.223  0.2125 -0.1293 -0.4145
 2995SOL    HW120447   3.883   4.132  11.228  0.6245 -0.2419 -1.8421
 2995SOL    HW220448   3.888   4.240  11.128 -0.6437 -2.5745 -0.7185
 2996SOL     OW20449   1.723   0.257   8.678  0.3216  0.1014  0.1308
 2996SOL    HW120450   1.728   0.167   8.709  0.7665 -0.3291 -1.2041
 2996SOL    HW220451   1.713   0.234   8.586  0.2835 -2.8485  0.8946
 2997SOL     OW20452   3.712   2.371   9.460 -0.7007  0.3652  0.0977
 2997SOL    HW120453   3.687   2.281   9.440  2.1151 -0.0365 -1.6022
 2997SOL    HW220454   3.698   2.375   9.554  0.2195 -0.2258  0.2563
 2998SOL     OW20455   0.790   1.507  14.902 -0.6242 -0.3368 -0.3526
 2998SOL    HW120456   0.769   1.530  14.993  2.1901 -0.2302  0.2857
 2998SOL    HW220457   0.776   1.593  14.861 -0.5103  0.3221  0.9916
 2999SOL     OW20458   4.030   0.648   0.506  0.0913 -0.0683 -0.5428
 2999SOL    HW120459   4.051   0.626   0.596 -1.2615 -1.9594 -0.6878
 2999SOL    HW220460   4.041   0.564   0.460 -0.2251  0.3002 -1.2983
 3000SOL     OW20461   3.645   0.352   3.460  0.6803 -0.1351 -0.0701
 3000SOL    HW120462   3.627   0.333   3.368  1.1233 -3.1663  0.4549
 3000SOL    HW220463   3.740   0.355   3.452  0.7475  0.1629  0.7800
 3001SOL     OW20464   2.677   4.184   2.699 -0.8323  0.0573  0.0912
 3001SOL    HW120465   2.615   4.155   2.632  0.0264 -0.6600 -0.3826
 3001SOL    HW220466   2.626   4.178   2.780 -2.4667 -2.0593 -1.0763
 3002SOL     OW20467   1.152   3.255   5.374  0.1698 -0.0908  0.0769
 3002SOL    HW120468   1.161   3.183   5.436  1.8691  0.2303  0.2282
 3002SOL    HW220469   1.171   3.212   5.291 -2.1762  2.0114 -1.5182
 3003SOL     OW20470   1.184   3.637   8.627  0.2933  0.0838 -0.2929
 3003SOL    HW120471   1.190   3.573   8.555 -0.9154  0.1840 -0.4773
 3003SOL    HW220472   1.200   3.718   8.578 -0.0709 -0.0856 -0.6910
 3004SOL     OW20473   4.271   1.566   4.324  0.4836  0.1382  0.3772
 3004SOL    HW120474   4.253   1.505   4.252  1.2858  0.4456 -0.0819
 3004SOL    HW220475   4.351   1.602   4.287  0.2417  0.0045 -0.2773
 3005SOL     OW20476   4.067   3.599   8.479  0.2152 -0.3797  0.5912
 3005SOL    HW120477   4.005   3.672   8.470 -0.4514 -0.9552  0.4780
 3005SOL    HW220478   4.066   3.555   8.394 -1.7034  1.8162 -0.5242
 3006SOL     OW20479   3.628   2.676   6.046 -0.3620 -0.3398  0.9700
 3006SOL    HW120480   3.665   2.757   6.082 -0.5224 -0.3363  1.1262
 3006SOL    HW220481   3.536   2.696   6.028  0.3719  1.1461 -1.1861
 3007SOL     OW20482   4.521   1.747   1.861  0.3434 -0.0082 -0.2772
 3007SOL    HW120483   4.477   1.728   1.944  2.9880  1.8075  1.5618
 3007SOL    HW220484   4.451   1.787   1.809 -1.6268  0.6384  2.8579
 3008SOL     OW20485   3.284   0.345   1.728  0.0083 -0.0250 -0.3591
 3008SOL    HW120486   3.313   0.393   1.650  1.0961  0.1885  0.1670
 3008SOL    HW220487   3.238   0.274   1.684  0.9955 -1.0927  0.3215
 3009SOL     OW20488   1.390   0.516  10.954  0.6285 -0.6151  0.4306
 3009SOL    HW120489   1.459   0.450  10.966  0.1492 -0.7217  2.6427
 3009SOL    HW220490   1.439   0.597  10.967  0.4566 -0.3203 -0.7350
 3010SOL     OW20491   0.348   3.208   5.897  0.1539 -0.0166 -0.7010
 3010SOL    HW120492   0.358   3.183   5.806  0.9566 -0.4469 -0.4922
 3010SOL    HW220493   0.265   3.256   5.897  0.9435  1.3973  0.7842
 3011SOL     OW20494   3.936   2.907  11.531  0.2172 -0.0234 -0.2155
 3011SOL    HW120495   3.994   2.981  11.548  4.0794 -3.6872  2.6241
 3011SOL    HW220496   3.861   2.927  11.587 -1.0767  0.0371 -1.9708
 3012SOL     OW20497   0.916   2.119   9.751  0.5764  0.2601 -0.3204
 3012SOL    HW120498   0.870   2.113   9.834 -0.3241  1.2916 -0.7398
 3012SOL    HW220499   0.853   2.085   9.688  0.2940 -0.7339  0.5054
 3013SOL     OW20500   1.388   4.459   3.779  0.0471  0.1721 -0.3847
 3013SOL    HW120501   1.455   4.457   3.846  0.9043  0.2195 -1.2359
 3013SOL    HW220502   1.357   4.369   3.780 -1.3330  0.6448  0.2235
 3014SOL     OW20503   3.331   0.968   8.126 -0.2231 -0.2076  0.4095
 3014SOL    HW120504   3.245   0.984   8.164 -1.3351 -1.0925 -1.7119
 3014SOL    HW220505   3.360   0.895   8.180 -0.5410 -0.4674  0.2289
 3015SOL     OW20506   1.497   3.120  11.333  0.0162  0.2112 -0.4252
 3015SOL    HW120507   1.533   3.075  11.256  2.1734 -1.7645  1.7264
 3015SOL    HW220508   1.543   3.077  11.405  1.1322  1.1654 -0.5629
 3016SOL     OW20509   2.760   0.126   7.375  0.1003 -0.3656 -0.1246
 3016SOL    HW120510   2.735   0.171   7.455 -0.5439 -0.7531 -0.1097
 3016SOL    HW220511   2.751   0.191   7.304 -2.6855 -1.2634 -0.5673
 3017SOL     OW20512   0.965   2.044   9.411  0.5862  0.2300  0.7040
 3017SOL    HW120513   1.033   2.027   9.346 -1.4101 -1.3721 -0.9613
 3017SOL    HW220514   0.967   1.963   9.463  1.7707  0.2313  0.6660
 3018SOL     OW20515   2.126   1.152  16.669 -0.1149  0.2195 -0.3799
 3018SOL    HW120516   2.077   1.115  16.743 -3.3968 -0.5279 -2.9158
 3018SOL    HW220517   2.058   1.180  16.608 -0.7953 -1.8292 -0.5684
 3019SOL     OW20518   2.891   1.442   8.580 -0.2843 -0.3379  0.0961
 3019SOL    HW120519   2.849   1.528   8.580  1.0389  0.2971 -0.9087
 3019SOL    HW220520   2.950   1.456   8.506 -2.9674 -0.5171 -2.0631
 3020SOL     OW20521   4.363   3.603   8.683  0.0010  0.3885  0.1629
 3020SOL    HW120522   4.426   3.532   8.669  1.0444  0.8205  2.5831
 3020SOL    HW220523   4.419   3.677   8.661  1.3824 -1.0468 -1.1824
 3021SOL     OW20524   1.368   0.709   0.955  0.2188 -0.0600  0.0991
 3021SOL    HW120525   1.403   0.734   1.041  0.5830 -1.3905  0.3325
 3021SOL    HW220526   1.413   0.768   0.894 -1.3952 -0.3553 -1.3590
 3022SOL     OW20527   4.417   2.067  15.558  0.1333  0.4770 -0.6957
 3022SOL    HW120528   4.398   1.976  15.578  0.6297  0.4459 -0.3712
 3022SOL    HW220529   4.456   2.101  15.639 -1.0165 -1.8238  0.8247
 3023SOL     OW20530   1.247   1.116   5.601  0.5274 -0.0816  0.5007
 3023SOL    HW120531   1.189   1.066   5.658 -1.9381  1.1836 -0.8813
 3023SOL    HW220532   1.186   1.146   5.534  1.4434 -0.5727 -0.5365
 3024SOL     OW20533   1.889   3.567  14.260 -0.2756 -0.5332  0.0296
 3024SOL    HW120534   1.938   3.648  14.273  1.6722 -1.8915  1.2124
 3024SOL    HW220535   1.862   3.549  14.350 -1.1606 -1.5456 -0.4386
 3025SOL     OW20536   1.636   1.510   3.717  0.5061 -0.3139 -0.4113
 3025SOL    HW120537   1.681   1.551   3.791 -1.3590 -1.0401  1.1291
 3025SOL    HW220538   1.682   1.546   3.641 -0.7562  1.5752 -0.2635
 3026SOL     OW20539   4.671   0.544   9.303  0.2031 -0.3694 -0.5373
 3026SOL    HW120540   4.644   0.636   9.301  0.8989 -0.1208  0.9615
 3026SOL    HW220541   4.671   0.527   9.397 -0.4942  1.1640 -0.2660
 3027SOL     OW20542   4.652   1.166   7.787  0.4518  0.6558 -0.1050
 3027SOL    HW120543   0.021   1.150   7.812 -0.9198 -3.7617  2.1678
 3027SOL    HW220544   4.658   1.142   7.695  0.3704 -0.8022  0.2700
 3028SOL     OW20545   3.112   2.718   6.634  0.2506  0.1452 -0.1604
 3028SOL    HW120546   3.119   2.764   6.550 -2.9105  1.9826  0.5830
 3028SOL    HW220547   3.022   2.732   6.664  0.1669  0.5781 -0.6092
 3029SOL     OW20548   3.534   3.121  15.171  0.0021 -0.0182  0.9358
 3029SOL    HW120549   3.473   3.054  15.203 -1.8777  0.8109 -0.8595
 3029SOL    HW220550   3.537   3.091  15.080  0.2340  2.0780  0.2476
 3030SOL     OW20551   1.226   3.970  13.372  0.3316 -0.2242  0.3920
 3030SOL    HW120552   1.236   3.932  13.284 -0.7321  0.9519 -0.2512
 3030SOL    HW220553   1.222   4.062  13.343 -0.0055  0.3707  2.3603
 3031SOL     OW20554   3.363   0.526   1.448 -0.0953 -0.4746  0.7120
 3031SOL    HW120555   3.368   0.578   1.367 -0.1322 -0.7159  0.5528
 3031SOL    HW220556   3.269   0.528   1.468  0.1822  0.3246  1.9324
 3032SOL     OW20557   2.418   2.080   8.736  0.3785  0.3045  0.4558
 3032SOL    HW120558   2.370   2.100   8.816 -1.5725  0.0702 -0.6474
 3032SOL    HW220559   2.505   2.097   8.771  1.5841 -0.6192 -2.0425
 3033SOL     OW20560   2.261   3.766  12.619 -0.1244 -0.0409  0.2161
 3033SOL    HW120561   2.295   3.794  12.534  0.1048 -1.6277 -0.1982
 3033SOL    HW220562   2.309   3.686  12.639  2.4342  1.5166  0.3044
 3034SOL     OW20563   1.473   3.970   5.560  0.2185 -0.4972  0.2254
 3034SOL    HW120564   1.566   3.952   5.573 -0.3000 -1.9407  1.9308
 3034SOL    HW220565   1.477   4.034   5.489 -0.6869 -2.3480 -1.4926
 3035SOL     OW20566   1.727   2.401   8.057  0.0863  0.6199 -0.2116
 3035SOL    HW120567   1.754   2.478   8.107  3.0433 -1.3008  1.1396
 3035SOL    HW220568   1.634   2.419   8.041  0.0199  0.3182 -0.1774
 3036SOL     OW20569   0.589   1.289   3.289  0.0638  0.1758  0.1061
 3036SOL    HW120570   0.680   1.257   3.291 -0.0462 -0.1032  0.5567
 3036SOL    HW220571   0.599   1.365   3.231 -0.9092  0.4754  0.3345
 3037SOL     OW20572   3.611   2.874   7.333 -0.0858 -0.3266  0.5781
 3037SOL    HW120573   3.650   2.801   7.381  0.7413 -0.6228 -0.5248
 3037SOL    HW220574   3.520   2.873   7.363 -0.0263 -4.2105  0.6198
 3038SOL     OW20575   0.547   0.638   0.101 -0.6046 -0.1352  0.4228
 3038SOL    HW120576   0.468   0.684   0.127  0.8887  1.5666  1.9554
 3038SOL    HW220577   0.610   0.699   0.139  0.4078 -1.3033  0.6341
 3039SOL     OW20578   3.771   2.492  12.992 -0.5169 -0.7673 -0.0427
 3039SOL    HW120579   3.709   2.517  12.923  0.1396  3.4408  0.9001
 3039SOL    HW220580   3.749   2.399  12.991 -1.9135 -0.4525  2.8654
 3040SOL     OW20581   0.906   3.915  14.703 -0.2013 -0.2000  0.0344
 3040SOL    HW120582   0.857   3.865  14.768 -0.2917 -0.7987 -0.5001
 3040SOL    HW220583   0.948   3.982  14.757 -2.7064  0.9493  0.5273
 3041SOL     OW20584   3.372   1.238  14.173 -0.7904 -0.1443 -0.2618
 3041SOL    HW120585   3.352   1.331  14.181 -1.2019 -0.2179 -0.4456
 3041SOL    HW220586   3.463   1.234  14.202 -0.7794 -1.9082 -0.5787
 3042SOL     OW20587   1.699   3.253   6.257 -0.0681  0.6802 -0.1648
 3042SOL    HW120588   1.685   3.317   6.188 -1.4272  0.7043  0.1400
 3042SOL    HW220589   1.795   3.256   6.253  0.0646 -1.4971  1.4590
 3043SOL     OW20590   2.450   4.067   5.406 -0.1658  0.1155  0.6563
 3043SOL    HW120591   2.391   4.103   5.340 -2.0807 -0.0537  2.2909
 3043SOL    HW220592   2.523   4.046   5.347  0.0441  0.2494  0.8714
 3044SOL     OW20593   2.072   1.904   2.029  0.0884 -0.2864 -0.2407
 3044SOL    HW120594   2.074   1.995   1.999 -0.3130  0.3351  1.6085
 3044SOL    HW220595   2.069   1.872   1.938 -0.6163  2.8519 -1.3144
 3045SOL     OW20596   4.582   2.648   4.911  0.1972  0.0034  0.4232
 3045SOL    HW120597   4.617   2.648   5.000 -1.8732  0.3825  1.2415
 3045SOL    HW220598   4.498   2.604   4.928  1.5430 -2.2134  1.3968
 3046SOL     OW20599   2.781   2.332   3.760 -0.0586 -0.0263 -0.7793
 3046SOL    HW120600   2.724   2.313   3.685 -2.0152 -2.7157  1.3998
 3046SOL    HW220601   2.713   2.336   3.826  0.5742 -3.0782  0.0385
 3047SOL     OW20602   1.401   2.917  11.664 -0.0819  0.3299  0.4737
 3047SOL    HW120603   1.338   2.889  11.730 -0.6382 -0.2219 -0.2942
 3047SOL    HW220604   1.427   3.004  11.692 -1.4041  0.4128  1.4460
 3048SOL     OW20605   2.111   0.642   8.265  0.3332  0.3195  0.0143
 3048SOL    HW120606   2.024   0.673   8.291 -0.5101 -2.7136  0.7692
 3048SOL    HW220607   2.170   0.717   8.279  0.2054  0.0755  1.8934
 3049SOL     OW20608   3.650   3.396   8.872 -0.4389 -0.3888 -0.1298
 3049SOL    HW120609   3.607   3.429   8.793 -1.8153 -1.1615  0.2985
 3049SOL    HW220610   3.742   3.423   8.869 -0.5388 -0.1492 -0.8875
 3050SOL     OW20611   3.212   2.806   7.671  0.0034 -0.3009 -0.5310
 3050SOL    HW120612   3.175   2.719   7.689 -0.6557 -0.1071 -0.9609
 3050SOL    HW220613   3.298   2.783   7.707 -0.9806 -0.3134  1.7903
 3051SOL     OW20614   4.045   0.880   6.571 -1.1921 -0.6422 -0.0644
 3051SOL    HW120615   3.975   0.815   6.564 -1.9847  0.3355 -1.3354
 3051SOL    HW220616   4.066   0.885   6.478 -0.4582  1.0168  0.1891
 3052SOL     OW20617   2.221   2.993   8.434  0.2407 -0.2110  0.0916
 3052SOL    HW120618   2.227   2.901   8.462  0.7679 -0.4646 -0.8419
 3052SOL    HW220619   2.309   3.015   8.402 -0.8249  0.8713 -2.0935
 3053SOL     OW20620   4.616   2.772   2.761  0.0602  0.2381 -0.4710
 3053SOL    HW120621   4.559   2.696   2.773  0.6180 -0.2065 -0.6709
 3053SOL    HW220622   4.620   2.824   2.842  0.1712  3.3039 -2.4485
 3054SOL     OW20623   0.632   1.086  10.314  0.3451  0.0001  0.0175
 3054SOL    HW120624   0.554   1.138  10.329  0.2639  0.2922 -1.3733
 3054SOL    HW220625   0.692   1.126  10.376  1.0178  0.3230 -0.8481
 3055SOL     OW20626   1.656   2.014  16.226 -0.4300 -0.1947 -0.2419
 3055SOL    HW120627   1.657   1.951  16.297  3.0251  1.9148  1.5412
 3055SOL    HW220628   1.620   1.967  16.150 -1.0580 -0.9948  0.5563
 3056SOL     OW20629   3.282   0.125   3.301  0.0233 -0.5220  0.2126
 3056SOL    HW120630   3.341   0.096   3.371  0.2109  1.1522  0.7461
 3056SOL    HW220631   3.252   0.042   3.264 -0.2720  0.0847 -0.9135
 3057SOL     OW20632   0.479   1.720   3.910  0.3509  0.1153 -0.2502
 3057SOL    HW120633   0.539   1.668   3.857  0.3886  1.2227 -1.2700
 3057SOL    HW220634   0.450   1.653   3.973  1.5252 -0.4876 -0.3567
 3058SOL     OW20635   2.742   4.014  13.710 -0.7722  0.1407 -0.6855
 3058SOL    HW120636   2.759   4.108  13.716 -0.4112  0.1252 -1.4060
 3058SOL    HW220637   2.769   4.007  13.618  0.2541 -0.5740 -0.3300
 3059SOL     OW20638   3.687   4.585   9.799 -0.9321  0.4400  1.0241
 3059SOL    HW120639   3.681   4.496   9.763 -2.2397  0.9400 -0.0069
 3059SOL    HW220640   3.634   4.571   9.878 -1.1438  1.0281  0.9817
 3060SOL     OW20641   4.644   1.657  17.579 -0.0173  0.0680  0.0293
 3060SOL    HW120642   4.696   1.728  17.618 -1.8202  0.1910  2.2624
 3060SOL    HW220643   4.626   1.675  17.487 -2.1418  0.9971  0.6184
 3061SOL     OW20644   3.362   2.921  15.260  0.4577  0.4721 -0.4115
 3061SOL    HW120645   3.370   2.837  15.306  1.7052  1.1981  0.6831
 3061SOL    HW220646   3.266   2.930  15.256  0.2622 -0.6148  1.4970
 3062SOL     OW20647   0.805   2.614   0.554  0.1646 -0.2379  0.1604
 3062SOL    HW120648   0.717   2.605   0.590 -0.7324  0.2369 -1.8943
 3062SOL    HW220649   0.824   2.706   0.574  1.6530 -0.3672 -0.6604
 3063SOL     OW20650   2.737   1.389   7.016  0.1002  0.1504 -0.4328
 3063SOL    HW120651   2.717   1.475   7.054  1.5700  1.5508 -2.7931
 3063SOL    HW220652   2.654   1.346   7.033  1.0169 -0.5277  2.2617
 3064SOL     OW20653   2.632   0.472   3.694 -0.6462  0.4124 -0.2153
 3064SOL    HW120654   2.585   0.396   3.729  1.8498 -0.1485  1.9957
 3064SOL    HW220655   2.706   0.433   3.647 -1.2337 -1.9524  0.7794
 3065SOL     OW20656   1.540   2.603   7.048  0.3543  0.2041 -0.1597
 3065SOL    HW120657   1.478   2.675   7.054  3.9328  3.2432  0.2584
 3065SOL    HW220658   1.506   2.550   7.121  0.7867  0.2919  0.1041
 3066SOL     OW20659   2.645   3.564   6.579 -0.7383  0.0927 -0.8817
 3066SOL    HW120660   2.739   3.582   6.581 -1.2114  2.5489 -0.2684
 3066SOL    HW220661   2.639   3.520   6.664  0.9664 -0.6549 -1.1575
 3067SOL     OW20662   1.279   1.006  13.434 -0.4552 -0.2771  0.1273
 3067SOL    HW120663   1.215   1.036  13.369 -0.3078 -1.5631 -0.6194
 3067SOL    HW220664   1.224   1.001  13.512 -0.5059  1.0404  0.1828
 3068SOL     OW20665   3.649   4.326   1.696  0.2988 -0.0888  0.0476
 3068SOL    HW120666   3.608   4.412   1.707  0.1259 -0.0732 -0.7931
 3068SOL    HW220667   3.626   4.275   1.774 -1.5719 -2.0798 -1.8396
 3069SOL     OW20668   0.079   1.648   7.064 -0.2892  0.0378  0.0666
 3069SOL    HW120669   0.016   1.579   7.045 -0.6293 -0.5544  3.2627
 3069SOL    HW220670   0.146   1.632   6.998  1.1690  0.1257  1.5199
 3070SOL     OW20671   2.755   3.822  13.953  0.7662 -0.3079 -0.6640
 3070SOL    HW120672   2.707   3.775  13.886 -1.3773 -0.0059  0.6441
 3070SOL    HW220673   2.733   3.911  13.927 -0.1132  0.2691  1.9649
 3071SOL     OW20674   0.493   2.654   4.328  0.2499  0.3213  0.2440
 3071SOL    HW120675   0.522   2.708   4.255 -2.0192  1.2377  0.0120
 3071SOL    HW220676   0.576   2.610   4.346 -0.7263 -1.3000  0.7580
 3072SOL     OW20677   4.041   4.325   8.207 -0.8671 -0.0986  0.4688
 3072SOL    HW120678   4.094   4.403   8.190 -1.3448 -0.0339 -0.7286
 3072SOL    HW220679   4.101   4.266   8.162 -0.3311  0.4494  0.4568
 3073SOL     OW20680   4.392   4.274   1.175 -0.3144  0.1988  0.2558
 3073SOL    HW120681   4.355   4.272   1.264 -1.6928  0.7132 -0.2949
 3073SOL    HW220682   4.306   4.284   1.134  0.2618 -0.4722 -1.0855
 3074SOL     OW20683   1.753   2.269   6.664 -0.0002  0.2263 -0.4838
 3074SOL    HW120684   1.843   2.267   6.631 -0.2585 -0.4381 -1.1607
 3074SOL    HW220685   1.763   2.327   6.740  0.1232 -0.6625  0.1880
 3075SOL     OW20686   4.388   0.734   3.029  0.0722  0.1222  0.0761
 3075SOL    HW120687   4.472   0.689   3.032 -0.0747 -0.1561  0.0003
 3075SOL    HW220688   4.372   0.748   2.935  0.3589 -0.1960 -0.0194
 3076SOL     OW20689   0.664   1.419  12.758  0.1280  0.0340  0.8641
 3076SOL    HW120690   0.663   1.481  12.831 -2.4039  0.0102  0.8479
 3076SOL    HW220691   0.600   1.473  12.712 -1.9719 -2.6896  0.6217
 3077SOL     OW20692   4.701   1.483   9.448 -0.2667  1.2369 -0.1921
 3077SOL    HW120693   0.071   1.460   9.446 -0.4048  0.7813 -1.3238
 3077SOL    HW220694   4.661   1.443   9.371  1.8397 -0.1325 -0.5779
 3078SOL     OW20695   1.834   3.913   2.938  0.3594  0.0364  0.0317
 3078SOL    HW120696   1.803   3.828   2.966 -1.3293  0.5071 -0.4393
 3078SOL    HW220697   1.884   3.896   2.858  1.2189 -0.5143  0.6801
 3079SOL     OW20698   2.864   0.053   9.315  0.0032 -0.0692 -0.1262
 3079SOL    HW120699   2.871   0.040   9.410 -0.5308  0.0125 -0.0750
 3079SOL    HW220700   2.776   0.088   9.329 -0.4233 -0.0688 -2.8294
 3080SOL     OW20701   2.958   3.030   6.644  0.1982 -0.1102 -0.1548
 3080SOL    HW120702   2.883   3.038   6.586 -1.0417 -0.5381  1.3838
 3080SOL    HW220703   2.916   3.001   6.725 -1.0569  0.8209 -0.4747
 3081SOL     OW20704   0.344   1.876  12.427 -0.7590  0.5432 -0.0199
 3081SOL    HW120705   0.253   1.852  12.410 -0.1225 -1.2742 -0.8419
 3081SOL    HW220706   0.337   1.971  12.440 -0.6807  0.3414  1.4530
 3082SOL     OW20707   0.922   4.447   7.696 -0.7209 -0.0676 -0.2295
 3082SOL    HW120708   0.927   4.356   7.667 -2.1146  0.2881 -1.6345
 3082SOL    HW220709   0.849   4.444   7.757 -0.1248 -1.3445  0.4248
 3083SOL     OW20710   3.142   2.793  10.924 -0.5567 -0.9096  0.0095
 3083SOL    HW120711   3.145   2.888  10.925 -2.7507 -0.8617  3.0892
 3083SOL    HW220712   3.142   2.775  11.018  0.1741  1.1856  0.4097
 3084SOL     OW20713   2.883   1.670   0.228  0.1171 -0.5165  0.1920
 3084SOL    HW120714   2.877   1.680   0.323  0.1903 -1.2222  0.2728
 3084SOL    HW220715   2.859   1.579   0.211 -1.5173 -0.0455  0.0025
 3085SOL     OW20716   4.431   4.299   5.200 -0.3724 -0.4659  0.8148
 3085SOL    HW120717   4.362   4.297   5.267  1.1015  0.3792  2.3541
 3085SOL    HW220718   4.415   4.386   5.161 -3.3058 -0.8056  1.2456
 3086SOL     OW20719   1.576   4.392   4.548  0.0420  0.0992 -0.3848
 3086SOL    HW120720   1.536   4.316   4.506 -0.4924  0.2082 -0.0705
 3086SOL    HW220721   1.568   4.451   4.472  2.4353  0.9041 -0.0133
 3087SOL     OW20722   0.751   0.058   5.675 -0.1218  0.4222 -0.0328
 3087SOL    HW120723   0.699   0.136   5.656 -0.0393  0.3253 -0.6495
 3087SOL    HW220724   0.833   0.105   5.689  0.0041  0.4963 -1.0097
 3088SOL     OW20725   3.263   1.410  16.003  0.6290  0.4087 -0.2986
 3088SOL    HW120726   3.333   1.474  15.992  0.5039  0.3109 -1.7389
 3088SOL    HW220727   3.256   1.388  15.910 -1.1894  2.5996 -0.6981
 3089SOL     OW20728   2.629   1.183   4.367 -0.2343  0.1791  0.0310
 3089SOL    HW120729   2.706   1.220   4.324 -0.6120  2.7421  1.5695
 3089SOL    HW220730   2.559   1.226   4.318 -0.2368  2.1065  1.7465
 3090SOL     OW20731   3.018   0.740   3.434  0.3199  0.3336 -0.2036
 3090SOL    HW120732   2.940   0.708   3.481  0.6918  0.5429  0.5530
 3090SOL    HW220733   3.025   0.833   3.457 -1.0728  0.3449  0.1854
 3091SOL     OW20734   2.789   0.433   3.318 -0.1799 -0.3514 -0.1980
 3091SOL    HW120735   2.702   0.397   3.330 -1.2272  2.9880  2.1378
 3091SOL    HW220736   2.820   0.415   3.407 -0.0748 -2.3662 -0.6220
 3092SOL     OW20737   0.040   2.964  15.782 -0.0079 -0.0364  0.5807
 3092SOL    HW120738   4.703   3.034  15.805 -1.7826 -1.5599  0.6001
 3092SOL    HW220739   0.078   2.995  15.700  2.8532  1.0436  2.3096
 3093SOL     OW20740   3.943   2.602   7.774 -0.1014 -0.5890 -0.2834
 3093SOL    HW120741   3.988   2.520   7.753  0.6265 -0.2748  0.0960
 3093SOL    HW220742   4.022   2.649   7.799 -0.3899 -1.6864  2.6406
 3094SOL     OW20743   2.652   3.775   9.197  0.7239  0.3310 -0.0040
 3094SOL    HW120744   2.701   3.855   9.179  0.4081  0.2302 -1.3278
 3094SOL    HW220745   2.715   3.704   9.183 -0.9691 -1.1497 -0.1074
 3095SOL     OW20746   3.229   0.578   3.348 -0.3626 -0.2211  0.2591
 3095SOL    HW120747   3.150   0.598   3.398 -1.2856 -1.1882 -0.8316
 3095SOL    HW220748   3.235   0.652   3.286 -0.0602 -0.9525 -0.5802
 3096SOL     OW20749   0.801   4.120   7.592 -0.0556 -0.1333 -0.2532
 3096SOL    HW120750   0.719   4.075   7.571 -1.0550  1.2607  0.6762
 3096SOL    HW220751   0.801   4.136   7.687  0.3417  0.3957 -0.3496
 3097SOL     OW20752   3.144   0.915   1.170  0.4439  0.7210  0.1046
 3097SOL    HW120753   3.140   1.001   1.128 -0.4505  0.3488 -0.5653
 3097SOL    HW220754   3.086   0.861   1.117 -0.5167 -0.0793  1.9648
 3098SOL     OW20755   3.458   0.559   3.794 -0.2958 -0.1101  0.0019
 3098SOL    HW120756   3.478   0.482   3.847 -0.5666 -1.1118 -1.3510
 3098SOL    HW220757   3.520   0.561   3.722 -0.2465 -0.2840  0.0391
 3099SOL     OW20758   1.472   0.660  17.640  0.2049  0.3173 -0.0456
 3099SOL    HW120759   1.528   0.660   0.023 -1.1291 -1.1183  0.9116
 3099SOL    HW220760   1.406   0.723  17.670  0.3791 -0.1713  1.3513
 3100SOL     OW20761   1.733   3.337   8.353  0.8778 -0.9205  0.1009
 3100SOL    HW120762   1.785   3.416   8.361 -0.0892 -0.1027 -1.5292
 3100SOL    HW220763   1.649   3.374   8.381 -0.0157 -1.9644 -1.1617
 3101SOL     OW20764   1.724   4.276   7.733  0.1682  0.5307  0.3280
 3101SOL    HW120765   1.752   4.248   7.821 -1.5094  0.0291  0.7033
 3101SOL    HW220766   1.659   4.341   7.759  0.4602  0.6809  0.6964
 3102SOL     OW20767   0.563   3.865  12.374  0.0378 -0.1855 -0.1661
 3102SOL    HW120768   0.628   3.797  12.394  0.4130  0.0006 -0.7486
 3102SOL    HW220769   0.532   3.907  12.455  1.3875  1.2320 -0.3629
 3103SOL     OW20770   2.806   3.771   6.020  0.2731 -0.0090  0.1110
 3103SOL    HW120771   2.870   3.734   5.959  0.4745 -1.5878  1.2930
 3103SOL    HW220772   2.854   3.845   6.056 -0.4028  0.7500 -0.5372
 3104SOL     OW20773   0.868   0.114   4.468 -0.0878  0.2000 -0.5536
 3104SOL    HW120774   0.867   0.019   4.453 -1.4857 -0.1278  1.5709
 3104SOL    HW220775   0.954   0.131   4.430  0.4378 -1.1134  0.0555
 3105SOL     OW20776   1.867   3.837  17.359  0.5519 -0.7657  0.0485
 3105SOL    HW120777   1.921   3.891  17.417  0.4298  0.1810 -0.7081
 3105SOL    HW220778   1.820   3.903  17.307 -1.8972 -4.0246 -1.8426
 3106SOL     OW20779   3.856   3.904   8.875 -0.4108  0.4540  0.2237
 3106SOL    HW120780   3.874   3.868   8.962  0.2646  0.1934 -0.0201
 3106SOL    HW220781   3.915   3.980   8.880  0.3099 -0.0827 -0.2098
 3107SOL     OW20782   3.068   2.320   3.060 -0.0167 -0.5502 -0.0805
 3107SOL    HW120783   3.004   2.254   3.030 -0.7925  0.2584 -0.2161
 3107SOL    HW220784   3.016   2.374   3.120  0.2928 -2.1698  1.6455
 3108SOL     OW20785   1.399   3.690  16.115 -0.0299 -0.0996 -0.3182
 3108SOL    HW120786   1.419   3.713  16.024 -0.7808  1.1306 -0.1729
 3108SOL    HW220787   1.376   3.598  16.100 -2.0663  0.4449 -0.6067
 3109SOL     OW20788   2.486   2.447   9.141 -0.3561  0.0474  0.0044
 3109SOL    HW120789   2.512   2.512   9.205 -1.4737  1.2582 -0.7782
 3109SOL    HW220790   2.411   2.482   9.094  1.0038  2.2915 -0.5167
 3110SOL     OW20791   3.974   4.442   1.450 -0.0346 -0.2804  0.7403
 3110SOL    HW120792   3.971   4.440   1.355 -0.6603  0.4072  0.7419
 3110SOL    HW220793   3.921   4.522   1.460 -2.7281 -2.0729  0.8842
 3111SOL     OW20794   2.074   1.602   5.233  0.4945  0.2438 -0.0445
 3111SOL    HW120795   2.022   1.527   5.203 -0.9272  2.0650 -2.1776
 3111SOL    HW220796   2.106   1.640   5.151  0.1572  2.9416  1.0569
 3112SOL     OW20797   0.720   0.554   8.331 -0.1261  0.1229  0.4472
 3112SOL    HW120798   0.665   0.631   8.315 -2.0083 -0.9877  1.6475
 3112SOL    HW220799   0.773   0.587   8.404  0.7354  0.7216 -0.4493
 3113SOL     OW20800   2.595   1.398   9.330  0.3909  0.8642 -0.0234
 3113SOL    HW120801   2.631   1.487   9.332  0.6015  0.7959 -1.1380
 3113SOL    HW220802   2.509   1.416   9.370  0.4787  0.0762  0.5137
 3114SOL     OW20803   0.716   4.690   8.245  0.0445 -0.4009  0.5376
 3114SOL    HW120804   0.739   4.606   8.206 -0.6862  0.0422 -0.8167
 3114SOL    HW220805   0.626   4.687   8.214  0.2065 -0.0173  0.0345
 3115SOL     OW20806   3.668   0.437   8.236  0.3911  0.1044  0.3938
 3115SOL    HW120807   3.698   0.518   8.276 -2.1466  0.9506  0.5841
 3115SOL    HW220808   3.633   0.461   8.150 -1.0567 -0.9019  0.7056
 3116SOL     OW20809   1.118   3.144   2.290  0.0013  0.1467  0.4570
 3116SOL    HW120810   1.125   3.175   2.199  0.5023  1.3288  0.8966
 3116SOL    HW220811   1.133   3.051   2.278  0.7641  0.3537 -0.2134
 3117SOL     OW20812   3.274   2.880  10.141  0.2308 -0.2056 -0.2111
 3117SOL    HW120813   3.196   2.900  10.090 -0.7331  0.1777  1.4359
 3117SOL    HW220814   3.341   2.865  10.074 -0.2485 -1.7286 -0.3456
 3118SOL     OW20815   3.415   2.099   9.609  0.0369 -0.6672  0.1599
 3118SOL    HW120816   3.483   2.057   9.662  0.6832  0.2999  0.0958
 3118SOL    HW220817   3.343   2.090   9.671 -0.8714  2.5841 -0.4475
 3119SOL     OW20818   0.636   2.165   8.374  0.5066 -0.0129  0.1838
 3119SOL    HW120819   0.677   2.081   8.354 -1.0902 -0.6101 -0.5386
 3119SOL    HW220820   0.575   2.132   8.439  0.7325 -2.9495 -1.0929
 3120SOL     OW20821   3.446   2.054   3.090  0.2195  0.4054  0.3692
 3120SOL    HW120822   3.355   2.033   3.072  0.3932  1.5558 -1.8478
 3120SOL    HW220823   3.458   2.058   3.185 -0.0893 -1.1972  0.4722
 3121SOL     OW20824   1.694   0.060  10.507 -0.0821  0.3562  0.3481
 3121SOL    HW120825   1.771   0.009  10.484 -0.2713 -0.1591  0.8647
 3121SOL    HW220826   1.619   0.001  10.501  0.0375  0.2517 -0.1071
 3122SOL     OW20827   1.182   4.205   7.255 -0.0284 -0.1586 -0.2816
 3122SOL    HW120828   1.115   4.262   7.292 -0.3882 -0.7163 -0.0847
 3122SOL    HW220829   1.140   4.173   7.175 -2.4101  2.1264  0.0703
 3123SOL     OW20830   2.429   2.199   1.887 -0.7069  0.2536  0.3841
 3123SOL    HW120831   2.382   2.259   1.945 -0.4801 -1.8052  2.6473
 3123SOL    HW220832   2.452   2.123   1.940  0.9483  0.5791  0.1295
 3124SOL     OW20833   1.655   2.754   8.421 -0.0130  0.9808 -0.6348
 3124SOL    HW120834   1.565   2.785   8.413 -0.4238  0.0881  0.5615
 3124SOL    HW220835   1.698   2.821   8.474  0.7257  0.5622 -0.7003
 3125SOL     OW20836   0.375   0.458   8.698 -0.3799 -0.3126 -0.3710
 3125SOL    HW120837   0.389   0.499   8.612  2.9749  1.1081  0.8608
 3125SOL    HW220838   0.466   0.436   8.719 -0.4503  0.1149  0.3863
 3126SOL     OW20839   4.711   2.071   8.762  0.3152  0.0776 -0.3283
 3126SOL    HW120840   0.009   2.162   8.781  0.3475  0.0868 -0.4092
 3126SOL    HW220841   4.615   2.073   8.761  0.2912 -0.0015  1.4546
 3127SOL     OW20842   4.143   1.880   6.067  0.1050  0.1980  0.0401
 3127SOL    HW120843   4.213   1.900   6.129 -0.8415  0.1501  1.1334
 3127SOL    HW220844   4.192   1.884   5.985  1.3737  1.4480  0.8642
 3128SOL     OW20845   0.154   2.849   8.732  0.0919  0.0935  0.5260
 3128SOL    HW120846   0.230   2.791   8.724 -0.1897 -0.4697  1.9377
 3128SOL    HW220847   0.169   2.898   8.812  2.7642 -0.3399  0.2859
 3129SOL     OW20848   0.058   3.799   6.220  0.0690 -0.2637 -0.3326
 3129SOL    HW120849   0.121   3.765   6.284  1.2521 -0.9265 -1.8496
 3129SOL    HW220850   0.071   3.727   6.159 -1.0981 -0.5121 -0.2813
 3130SOL     OW20851   0.749   0.675   4.345 -0.0653 -0.1441  0.0736
 3130SOL    HW120852   0.700   0.749   4.382 -2.5322 -0.6159 -2.2520
 3130SOL    HW220853   0.839   0.687   4.374 -0.5282  0.3317  1.3707
 3131SOL     OW20854   3.244   2.422   4.084 -0.2018  0.1532  0.7202
 3131SOL    HW120855   3.265   2.421   4.178 -2.1072  0.9811  1.1716
 3131SOL    HW220856   3.149   2.434   4.083  0.0201  1.8515 -0.9001
 3132SOL     OW20857   1.724   2.527   4.605 -0.3813  0.0665 -0.0143
 3132SOL    HW120858   1.681   2.442   4.590 -1.8233  0.7660  0.1195
 3132SOL    HW220859   1.655   2.593   4.613 -0.6465 -0.2135  0.0499
 3133SOL     OW20860   0.431   3.528   2.121 -0.4294  0.0427 -0.2644
 3133SOL    HW120861   0.350   3.481   2.102 -0.9262  1.6278 -2.0601
 3133SOL    HW220862   0.490   3.454   2.134 -0.7047 -0.3436 -1.2288
 3134SOL     OW20863   1.167   3.399  12.418 -0.1306  0.2259  0.0727
 3134SOL    HW120864   1.146   3.320  12.368 -0.9679  0.9795 -0.7453
 3134SOL    HW220865   1.251   3.373  12.457 -1.0349 -1.6035  0.8160
 3135SOL     OW20866   3.959   4.249   9.220 -0.7068  0.2674 -0.4561
 3135SOL    HW120867   3.891   4.183   9.206  1.1640 -1.3809 -1.7454
 3135SOL    HW220868   3.953   4.271   9.313  1.1635  3.5001 -1.0876
 3136SOL     OW20869   0.360   3.597   5.937 -0.3666 -0.6831  0.1949
 3136SOL    HW120870   0.385   3.618   6.027  0.4873  0.8817 -0.4098
 3136SOL    HW220871   0.446   3.582   5.899 -1.3816  0.0244 -2.3853
 3137SOL     OW20872   3.711   0.589   3.141 -0.4089  0.0083  0.2425
 3137SOL    HW120873   3.667   0.516   3.184  0.8468 -0.3454  0.9240
 3137SOL    HW220874   3.751   0.644   3.208 -2.2743  2.4872 -0.6962
 3138SOL     OW20875   4.103   1.084  16.335  0.2897 -0.2827  0.6131
 3138SOL    HW120876   4.113   1.176  16.312  0.7246 -0.5885 -0.4085
 3138SOL    HW220877   4.158   1.049  16.265 -0.2913  0.0802 -0.0230
 3139SOL     OW20878   4.099   1.123   4.692  0.0091 -0.8642  0.1173
 3139SOL    HW120879   4.094   1.107   4.597 -0.1367 -1.2936  0.1950
 3139SOL    HW220880   4.120   1.216   4.682 -1.8182 -0.2545  2.0930
 3140SOL     OW20881   3.794   2.914   8.366  0.1790 -0.6448  0.5040
 3140SOL    HW120882   3.801   3.003   8.330  0.8025 -1.0960 -0.4874
 3140SOL    HW220883   3.796   2.877   8.277  2.8313  2.2186 -0.6273
 3141SOL     OW20884   0.100   1.106   2.473 -0.5180 -0.3889  0.0290
 3141SOL    HW120885   0.091   1.029   2.417  0.2425  0.0271 -0.6738
 3141SOL    HW220886   0.053   1.170   2.420  1.3901  0.0100 -1.2016
 3142SOL     OW20887   2.416   1.241   2.109 -0.6938  0.1348 -0.2228
 3142SOL    HW120888   2.393   1.317   2.056 -0.6276 -0.3938 -1.0063
 3142SOL    HW220889   2.484   1.199   2.056 -1.2771  1.6858 -2.2069
 3143SOL     OW20890   4.182   1.046   5.348 -0.6151 -0.6750 -0.0505
 3143SOL    HW120891   4.089   1.047   5.368 -0.3642 -0.2382  1.0485
 3143SOL    HW220892   4.219   1.108   5.411 -0.9215 -0.5221 -0.0240
 3144SOL     OW20893   3.326   1.029   9.418  0.4205 -0.6862 -0.1542
 3144SOL    HW120894   3.236   1.001   9.433 -0.0283  0.8427 -0.0500
 3144SOL    HW220895   3.347   0.983   9.337 -1.9203 -1.0247 -0.5571
 3145SOL     OW20896   1.882   1.716   3.301 -0.3063 -0.0167 -0.4439
 3145SOL    HW120897   1.828   1.741   3.377  1.0463 -1.8914  1.1159
 3145SOL    HW220898   1.869   1.621   3.303  2.6839 -0.3723  1.7814
 3146SOL     OW20899   3.781   3.769  14.640 -0.8384  0.8298 -0.6549
 3146SOL    HW120900   3.685   3.769  14.632 -0.9143 -2.4015  0.4589
 3146SOL    HW220901   3.795   3.820  14.560  0.8725 -2.0500 -2.1794
 3147SOL     OW20902   4.422   2.239   5.306 -0.0729  0.1288 -0.0880
 3147SOL    HW120903   4.460   2.326   5.321  0.1968 -0.2985  1.7393
 3147SOL    HW220904   4.501   2.192   5.278 -0.6461 -1.1139  0.3658
 3148SOL     OW20905   2.228   4.678   4.529  0.1409 -0.2929  0.0629
 3148SOL    HW120906   2.244   4.590   4.494 -0.2650  0.9420 -3.2761
 3148SOL    HW220907   2.259   0.022   4.467  0.7598 -2.6592 -2.1963
 3149SOL     OW20908   3.949   2.232   4.204 -0.7644  0.0570  0.8248
 3149SOL    HW120909   4.008   2.228   4.129 -3.0848  1.0508 -1.0084
 3149SOL    HW220910   3.872   2.270   4.163 -2.2419 -1.1129  2.5638
 3150SOL     OW20911   2.752   4.405  15.328  0.0770  0.4090  0.3238
 3150SOL    HW120912   2.767   4.311  15.319  1.2184  0.4993  1.3680
 3150SOL    HW220913   2.838   4.444  15.346  0.1642  0.4879 -0.2502
 3151SOL     OW20914   1.470   3.135   2.473  0.2404 -0.1942 -0.0658
 3151SOL    HW120915   1.396   3.143   2.413 -0.8431  1.2325  1.4503
 3151SOL    HW220916   1.496   3.227   2.482  2.3048 -0.5247 -2.7651
 3152SOL     OW20917   2.242   4.599  13.835 -0.3175 -0.6212 -0.1243
 3152SOL    HW120918   2.221   4.509  13.809  0.8742 -1.4072  1.6088
 3152SOL    HW220919   2.195   4.654  13.772  1.4692 -0.6499 -1.4754
 3153SOL     OW20920   3.069   4.595   8.182  0.1715 -0.1831 -0.1287
 3153SOL    HW120921   3.142   4.540   8.153  0.3892  0.2903 -0.4861
 3153SOL    HW220922   2.998   4.574   8.121 -0.4496  1.5580 -0.0174
 3154SOL     OW20923   4.038   4.427   0.542 -0.6218 -0.8283  0.1122
 3154SOL    HW120924   3.973   4.486   0.580 -0.5891 -1.6535  1.4370
 3154SOL    HW220925   4.102   4.439   0.612 -0.9680  1.2908  0.0595
 3155SOL     OW20926   1.785   0.597   6.358 -0.2197  0.0011  0.3669
 3155SOL    HW120927   1.876   0.625   6.372  0.5165 -1.5024 -1.2038
 3155SOL    HW220928   1.731   0.675   6.356  0.6909  0.7048  3.1955
 3156SOL     OW20929   3.170   3.917  14.508  0.1023  0.1802 -0.4119
 3156SOL    HW120930   3.259   3.949  14.524  0.1655  0.8524 -2.1603
 3156SOL    HW220931   3.125   3.958  14.582 -0.2187  1.5753 -1.3771
 3157SOL     OW20932   4.531   1.065  12.332 -0.3657  0.2240  0.3167
 3157SOL    HW120933   4.562   1.118  12.406 -0.5884  0.0603  0.5267
 3157SOL    HW220934   4.532   0.981  12.378  0.9028 -0.8566 -1.6468
 3158SOL     OW20935   4.664   2.973   0.195  0.6035 -0.1850  0.3856
 3158SOL    HW120936   4.678   3.061   0.160 -0.9649 -1.1828 -2.7163
 3158SOL    HW220937   4.573   2.989   0.220 -0.8033 -3.5651 -2.5633
 3159SOL     OW20938   3.938   2.898   2.991 -0.1623 -0.1125 -0.0601
 3159SOL    HW120939   3.923   2.919   2.899  0.9712 -1.3415 -0.5389
 3159SOL    HW220940   3.897   2.977   3.025  0.0834  0.7894 -1.8735
 3160SOL     OW20941   2.187   2.598  13.103 -0.1838  0.1256  0.0283
 3160SOL    HW120942   2.277   2.586  13.134  0.0087  2.2804  0.2929
 3160SOL    HW220943   2.182   2.693  13.107  1.2377  0.2322 -0.6937
 3161SOL     OW20944   0.910   2.879  12.598  0.3453  0.0783  0.4380
 3161SOL    HW120945   0.914   2.792  12.558 -1.4439  0.2757 -0.1651
 3161SOL    HW220946   0.914   2.861  12.692  0.2032 -1.8278  0.0798
 3162SOL     OW20947   0.087   4.055   2.795 -0.2156  0.1935 -0.2741
 3162SOL    HW120948   0.125   3.970   2.819 -2.8142 -0.6230  1.0025
 3162SOL    HW220949   0.015   4.061   2.858  0.8190 -2.0288  1.1462
 3163SOL     OW20950   1.985   1.460   8.601  0.1371  0.4065 -0.5557
 3163SOL    HW120951   1.954   1.533   8.655 -1.0246  0.1375 -0.8624
 3163SOL    HW220952   1.983   1.505   8.516  2.0949  0.8443 -0.3878
 3164SOL     OW20953   1.215   2.980   6.596  0.0300  0.9475  0.8436
 3164SOL    HW120954   1.300   3.013   6.626  1.2557  0.2959 -1.9258
 3164SOL    HW220955   1.213   3.020   6.509  2.3603 -1.9452 -0.5363
 3165SOL     OW20956   0.676   4.443   4.433 -0.1497  0.3103  0.8602
 3165SOL    HW120957   0.599   4.387   4.440  1.0682 -1.4473  0.3136
 3165SOL    HW220958   0.733   4.390   4.377 -0.2797  0.8017  0.2731
 3166SOL     OW20959   1.080   2.515   4.584  0.1967  0.0063 -0.0146
 3166SOL    HW120960   1.086   2.597   4.634  0.3923 -1.6649  2.7169
 3166SOL    HW220961   1.169   2.491   4.557  1.2303  3.2364  0.5626
 3167SOL     OW20962   1.847   1.256   1.161 -0.2398 -0.0442  0.3459
 3167SOL    HW120963   1.873   1.167   1.182 -0.3078  0.3327  2.0246
 3167SOL    HW220964   1.883   1.262   1.072 -0.9840  1.8967  0.1801
 3168SOL     OW20965   0.398   3.002  15.706 -0.3077  0.1455 -0.5639
 3168SOL    HW120966   0.326   2.970  15.650  0.3536  0.5888 -1.6630
 3168SOL    HW220967   0.354   3.045  15.779  1.6442 -0.1010  0.7616
 3169SOL     OW20968   0.958   3.590   3.990  0.0700  0.1153 -0.0670
 3169SOL    HW120969   0.907   3.664   4.023  1.7175  1.6017 -0.8464
 3169SOL    HW220970   0.938   3.529   4.061  2.0573 -1.0436 -0.4943
 3170SOL     OW20971   4.196   2.618   3.686 -0.5922 -0.0552 -0.0350
 3170SOL    HW120972   4.233   2.625   3.598 -2.4149 -0.9147 -0.8709
 3170SOL    HW220973   4.174   2.711   3.696  1.8634  0.3838  1.5213
 3171SOL     OW20974   3.666   0.157   9.506  0.3220 -0.0091  0.2095
 3171SOL    HW120975   3.603   0.150   9.578 -1.7917  1.0614 -1.5306
 3171SOL    HW220976   3.617   0.218   9.450  1.5828 -0.3761 -1.2846
 3172SOL     OW20977   0.089   2.567   3.510 -0.4987 -0.0471 -0.8541
 3172SOL    HW120978   0.130   2.508   3.446  0.3692  0.9127 -1.1899
 3172SOL    HW220979   0.004   2.524   3.518 -0.3107 -0.2303  0.0534
 3173SOL     OW20980   0.342   4.685   1.395  0.1205 -0.0167 -0.6663
 3173SOL    HW120981   0.432   4.680   1.426  0.4798 -0.5535 -1.7994
 3173SOL    HW220982   0.339   0.058   1.404 -1.2579  0.0044 -1.2510
 3174SOL     OW20983   1.003   1.341   3.460 -0.2014 -0.0383 -0.2106
 3174SOL    HW120984   1.086   1.312   3.422  0.5058  1.7006  0.0306
 3174SOL    HW220985   0.982   1.401   3.389  1.6719 -0.5736 -1.2258
 3175SOL     OW20986   1.905   0.840  15.600  0.4110  0.1288 -0.0067
 3175SOL    HW120987   1.895   0.840  15.696  2.2943  0.7002  0.1906
 3175SOL    HW220988   1.835   0.899  15.575 -1.1146 -1.0042  1.5488
 3176SOL     OW20989   0.989   1.674  10.670  0.4407  0.5060 -0.2083
 3176SOL    HW120990   1.011   1.678  10.577  0.0895  2.9106 -0.1920
 3176SOL    HW220991   0.996   1.767  10.691 -1.3981  0.2906  1.4138
 3177SOL     OW20992   4.509   3.524   3.351 -0.1265 -1.0870  0.1630
 3177SOL    HW120993   4.415   3.529   3.331 -0.3180  1.9617  1.8305
 3177SOL    HW220994   4.534   3.465   3.280 -1.4140  0.1121 -1.3131
 3178SOL     OW20995   3.074   1.450  16.720 -0.5085 -0.0340 -1.2137
 3178SOL    HW120996   2.983   1.462  16.746 -0.9964 -3.2773 -1.3623
 3178SOL    HW220997   3.105   1.540  16.712  0.7413 -0.4691 -1.4506
 3179SOL     OW20998   2.257   0.155   2.331  0.0587  0.2213 -1.1602
 3179SOL    HW120999   2.173   0.118   2.305  1.0217 -1.4525 -1.8291
 3179SOL    HW221000   2.287   0.104   2.407 -0.4055  1.4831 -0.1357
 3180SOL     OW21001   2.951   1.330   8.128  0.1707 -0.2066 -0.2094
 3180SOL    HW121002   2.983   1.414   8.160  0.9091 -0.5632 -0.0103
 3180SOL    HW221003   2.862   1.364   8.128 -0.0493 -0.8004  0.2108
 3181SOL     OW21004   0.255   3.489  11.084  0.5343  0.4922 -0.2182
 3181SOL    HW121005   0.250   3.541  11.004 -0.6994 -0.1632 -0.5771
 3181SOL    HW221006   0.196   3.537  11.142  0.2782 -1.9787  1.6077
 3182SOL     OW21007   3.090   2.902   5.670 -0.4924  0.1251 -0.2207
 3182SOL    HW121008   3.092   2.910   5.574  0.6471  0.4293 -0.1761
 3182SOL    HW221009   3.037   2.980   5.687 -1.1523 -0.3329 -0.2073
 3183SOL     OW21010   3.689   1.711   2.935 -0.0539  0.3002 -0.5694
 3183SOL    HW121011   3.641   1.671   3.007  2.1489 -0.6652  0.3643
 3183SOL    HW221012   3.613   1.740   2.884 -0.9162  0.0680  0.5895
 3184SOL     OW21013   3.136   3.771  17.440 -0.6029  0.0611  0.4245
 3184SOL    HW121014   3.164   3.777  17.531 -0.2971  0.7763  0.2897
 3184SOL    HW221015   3.153   3.861  17.413  1.2826 -0.2295  0.6405
 3185SOL     OW21016   1.036   0.761   7.035  0.3151  0.3215  0.0284
 3185SOL    HW121017   0.944   0.765   7.060  0.1879 -0.2143 -0.3518
 3185SOL    HW221018   1.056   0.840   7.085 -0.0009  1.1082 -1.0929
 3186SOL     OW21019   0.853   1.674   3.730 -0.4484 -0.5941  0.4149
 3186SOL    HW121020   0.779   1.633   3.684 -0.6034 -0.3628  0.4607
 3186SOL    HW221021   0.885   1.601   3.784 -0.5854  0.8259  2.4259
 3187SOL     OW21022   1.254   4.032  16.058 -0.1656 -0.3595  0.3092
 3187SOL    HW121023   1.327   4.027  15.995 -0.7436  0.5050 -0.4303
 3187SOL    HW221024   1.309   4.047  16.135 -1.5301  1.3436  0.9272
 3188SOL     OW21025   0.292   1.727   3.711  0.7855 -0.1359  0.6104
 3188SOL    HW121026   0.364   1.745   3.771 -1.1266  1.5463  2.3846
 3188SOL    HW221027   0.333   1.740   3.625 -0.6377 -2.7370 -0.4674
 3189SOL     OW21028   4.635   3.895  14.735 -0.2230 -0.4793  0.3608
 3189SOL    HW121029   4.721   3.934  14.721 -0.1506 -1.1140 -0.9124
 3189SOL    HW221030   4.578   3.962  14.699  0.4983  0.3344  0.7401
 3190SOL     OW21031   1.033   1.741  10.416  0.3303  0.0900 -0.2362
 3190SOL    HW121032   0.997   1.714  10.331  0.0881 -0.2423 -0.0237
 3190SOL    HW221033   1.094   1.808  10.384 -0.5382  0.8693 -0.2834
 3191SOL     OW21034   0.855   4.198   3.453 -0.7173  0.0690  0.4140
 3191SOL    HW121035   0.930   4.140   3.442 -0.0704  0.9558  0.1300
 3191SOL    HW221036   0.878   4.247   3.532 -0.7586 -2.1043  1.7703
 3192SOL     OW21037   2.836   4.489   1.493  0.4813 -0.4405  0.0221
 3192SOL    HW121038   2.923   4.473   1.457  1.8683 -0.6765  3.4450
 3192SOL    HW221039   2.808   4.400   1.512 -1.0046 -0.5529 -2.6686
 3193SOL     OW21040   1.160   3.397   7.504  0.1201 -0.1196 -0.0263
 3193SOL    HW121041   1.153   3.395   7.600  1.6442  5.7793  0.2565
 3193SOL    HW221042   1.173   3.492   7.496  0.2952 -0.1018  0.4758
 3194SOL     OW21043   3.209   4.240   5.989 -0.1255 -0.4383 -0.2793
 3194SOL    HW121044   3.126   4.196   5.968 -0.3143 -0.6688  0.9475
 3194SOL    HW221045   3.200   4.320   5.937  0.1887 -1.1079 -1.3708
 3195SOL     OW21046   4.242   0.739   7.521 -0.0286  0.4658  0.3333
 3195SOL    HW121047   4.223   0.794   7.598 -1.4541 -0.8054  0.8957
 3195SOL    HW221048   4.172   0.763   7.460  2.4736  1.5815 -2.0626
 3196SOL     OW21049   4.107   2.592  13.070 -0.0089  0.1811 -0.5484
 3196SOL    HW121050   4.109   2.677  13.113 -0.9581 -0.8087  1.4485
 3196SOL    HW221051   4.173   2.550  13.125  2.7067  0.5397 -3.5225
 3197SOL     OW21052   2.700   4.120   7.413  0.1252 -0.2145 -0.3207
 3197SOL    HW121053   2.671   4.039   7.371 -0.3504  0.1670 -0.7229
 3197SOL    HW221054   2.718   4.181   7.342  3.9171  0.7310  1.4309
 3198SOL     OW21055   1.998   3.202   8.220 -0.5030 -0.1094 -0.3057
 3198SOL    HW121056   1.935   3.181   8.289  1.9984 -1.6109  1.4953
 3198SOL    HW221057   1.937   3.223   8.149  0.8613  0.5379 -1.2752
 3199SOL     OW21058   0.394   3.495   2.611  0.8377  0.3046 -0.3161
 3199SOL    HW121059   0.326   3.428   2.611  0.6960  0.4510  1.2111
 3199SOL    HW221060   0.403   3.506   2.516 -4.3541  2.5799 -0.5500
 3200SOL     OW21061   0.380   1.522   8.816 -0.2596  0.0684 -0.2994
 3200SOL    HW121062   0.460   1.477   8.789 -2.2870 -2.5504 -1.9551
 3200SOL    HW221063   0.382   1.577   8.737 -1.2221  1.3451  0.5667
 3201SOL     OW21064   0.924   3.611  12.662  0.1210 -0.3142 -0.3622
 3201SOL    HW121065   0.853   3.666  12.694  1.0268  0.0467  1.0049
 3201SOL    HW221066   0.882   3.525  12.663 -1.1460  0.2755 -2.1908
 3202SOL     OW21067   2.541   3.410   9.084 -0.1341  0.0664 -0.0623
 3202SOL    HW121068   2.507   3.435   8.998 -0.4930 -1.4738 -0.3734
 3202SOL    HW221069   2.621   3.462   9.090  0.3926 -0.7670  0.0578
 3203SOL     OW21070   0.296   3.218   8.759 -0.5188  0.4761  0.5336
 3203SOL    HW121071   0.285   3.128   8.790  1.3572  0.0466 -0.0664
 3203SOL    HW221072   0.387   3.221   8.729 -0.1060 -1.2418  1.6451
 3204SOL     OW21073   1.380   3.582   2.635 -0.0113 -0.0636 -1.1101
 3204SOL    HW121074   1.396   3.492   2.607  4.1341 -0.4186  2.1796
 3204SOL    HW221075   1.356   3.625   2.553 -1.0433  1.6392  0.0884
 3205SOL     OW21076   3.542   3.297   9.139  0.5935  0.9718  0.3659
 3205SOL    HW121077   3.500   3.377   9.106 -1.1947 -0.6060 -1.1484
 3205SOL    HW221078   3.634   3.323   9.150  0.9844 -0.9146  1.4323
 3206SOL     OW21079   3.687   0.569  15.772 -0.4930  0.2254 -0.1030
 3206SOL    HW121080   3.738   0.501  15.729 -0.6316 -0.2834  0.5426
 3206SOL    HW221081   3.596   0.544  15.755 -0.2538  0.6004 -1.9443
 3207SOL     OW21082   0.809   4.230   6.631  0.0151  0.4810  0.2173
 3207SOL    HW121083   0.785   4.252   6.541  0.5376  1.1132  0.2283
 3207SOL    HW221084   0.756   4.290   6.683  0.7057  0.6109  0.7657
 3208SOL     OW21085   0.860   0.171  14.813 -0.2471 -0.3949  0.1718
 3208SOL    HW121086   0.825   0.225  14.883 -0.4163 -3.2888  2.3170
 3208SOL    HW221087   0.877   0.233  14.742 -1.4248  1.9921  1.9941
 3209SOL     OW21088   4.141   2.743   6.739 -0.7655 -0.6809 -0.5842
 3209SOL    HW121089   4.166   2.651   6.725  2.6793  0.5492 -2.4189
 3209SOL    HW221090   4.159   2.782   6.654 -0.7662  1.1616  0.2747
 3210SOL     OW21091   3.828   4.664   3.357 -0.3821  1.0028  0.5438
 3210SOL    HW121092   3.775   4.713   3.420 -0.2571 -0.9500  2.2052
 3210SOL    HW221093   3.917   4.667   3.392  0.3880 -3.7657 -0.9728
 3211SOL     OW21094   0.705   3.869   5.362  0.3455  0.0494  0.1245
 3211SOL    HW121095   0.664   3.860   5.276 -1.7781  0.1836  1.1491
 3211SOL    HW221096   0.780   3.927   5.346  0.7349 -0.5477 -0.2449
 3212SOL     OW21097   1.613   1.185   8.315 -0.4368 -0.1520 -0.0186
 3212SOL    HW121098   1.695   1.211   8.356 -0.4247  0.1555 -0.2393
 3212SOL    HW221099   1.551   1.251   8.347 -0.1614  1.5024 -2.8739
 3213SOL     OW21100   4.253   0.194   7.103  0.5207 -0.3363 -0.3340
 3213SOL    HW121101   4.224   0.103   7.107  0.2496 -0.2424 -0.1969
 3213SOL    HW221102   4.345   0.193   7.129  0.6157 -1.2073 -0.7096
 3214SOL     OW21103   0.484   0.857   0.328  0.1472  0.1790  0.2649
 3214SOL    HW121104   0.427   0.818   0.394  1.2619 -0.5389  0.8005
 3214SOL    HW221105   0.423   0.921   0.291 -0.7207 -0.2319  0.9672
 3215SOL     OW21106   3.701   3.995   7.333 -0.2111 -0.1588 -0.9002
 3215SOL    HW121107   3.643   4.019   7.405  1.6198 -2.1816  1.2607
 3215SOL    HW221108   3.639   3.983   7.261 -2.1395 -1.9493  1.0515
 3216SOL     OW21109   3.980   1.193   8.352 -0.5627 -0.3595  0.4436
 3216SOL    HW121110   4.064   1.161   8.386 -0.1394  0.3157  0.0455
 3216SOL    HW221111   4.012   1.241   8.276 -1.5841  0.3478  0.4687
 3217SOL     OW21112   0.792   2.629  10.645 -0.4432 -0.2285 -0.0757
 3217SOL    HW121113   0.879   2.666  10.654 -1.1326  1.0878  1.0821
 3217SOL    HW221114   0.767   2.646  10.554 -0.2791  0.5894  0.0353
 3218SOL     OW21115   1.118   2.547  10.384 -0.1119 -0.3610  0.2170
 3218SOL    HW121116   1.125   2.642  10.374 -1.9097 -0.2809 -0.2984
 3218SOL    HW221117   1.023   2.536  10.390 -0.4221  1.5173 -1.2034
 3219SOL     OW21118   2.185   3.838   9.344  0.1958  0.1163  0.4874
 3219SOL    HW121119   2.255   3.845   9.279  0.2541  3.1778  0.8566
 3219SOL    HW221120   2.238   3.867   9.418  0.3188  1.4957 -0.1359
 3220SOL     OW21121   4.486   4.038   7.200  0.1709 -0.7123  0.1851
 3220SOL    HW121122   4.512   3.991   7.280  0.6229 -0.7826 -0.0019
 3220SOL    HW221123   4.520   4.122   7.231 -0.2297  0.1450 -1.7103
 3221SOL     OW21124   0.605   3.456   7.996 -0.2567 -0.0759  0.1191
 3221SOL    HW121125   0.547   3.507   8.053  1.0641 -0.3783  1.7186
 3221SOL    HW221126   0.689   3.466   8.041 -0.9235  3.0184  0.6923
 3222SOL     OW21127   0.579   1.435   7.185  0.5920  0.2949 -0.2845
 3222SOL    HW121128   0.538   1.522   7.181 -0.2989 -0.1819 -1.3946
 3222SOL    HW221129   0.507   1.380   7.218  0.6066 -0.0587 -0.8483
 3223SOL     OW21130   4.343   1.084   9.237 -0.2421 -0.5126  1.0546
 3223SOL    HW121131   4.301   1.074   9.322 -2.5487 -2.0631 -0.2461
 3223SOL    HW221132   4.435   1.065   9.252  0.0781  0.9769  0.8914
 3224SOL     OW21133   0.159   1.831   5.850  0.2177  0.1330 -0.1563
 3224SOL    HW121134   0.180   1.884   5.927  0.0507  0.0403 -0.0469
 3224SOL    HW221135   0.063   1.837   5.853  0.2342 -0.0815  0.8759
 3225SOL     OW21136   4.165   0.201   4.283 -0.2121 -0.5449 -0.4810
 3225SOL    HW121137   4.216   0.269   4.240 -0.5911  1.1994  1.8013
 3225SOL    HW221138   4.231   0.139   4.311 -0.3596 -0.0536  0.9349
 3226SOL     OW21139   1.774   1.648   6.526  0.1295 -0.4148  0.3475
 3226SOL    HW121140   1.743   1.703   6.454  3.7266 -0.2843 -1.1082
 3226SOL    HW221141   1.869   1.662   6.525  0.0326  0.2279  0.2464
 3227SOL     OW21142   3.729   2.166  12.258  0.2036  0.2067 -0.4867
 3227SOL    HW121143   3.662   2.219  12.215  0.6824  0.0702 -1.4227
 3227SOL    HW221144   3.765   2.235  12.314  0.8004 -0.4096 -0.0986
 3228SOL     OW21145   4.540   0.766  13.367  0.1606 -0.4449  0.0246
 3228SOL    HW121146   4.474   0.813  13.417 -1.6746 -0.0725 -2.7444
 3228SOL    HW221147   4.511   0.676  13.358  0.2232 -0.3993 -0.6181
 3229SOL     OW21148   0.519   2.909   2.531 -0.1473 -0.0667  0.7549
 3229SOL    HW121149   0.460   2.838   2.503  1.6875 -2.4271  2.8479
 3229SOL    HW221150   0.479   2.940   2.612 -3.5761  2.7320 -2.0450
 3230SOL     OW21151   2.197   1.339   8.739  0.3536  0.4027 -0.1422
 3230SOL    HW121152   2.127   1.388   8.696  1.1520  2.1175  0.4974
 3230SOL    HW221153   2.170   1.339   8.831  1.3078  1.2987  0.1414
 3231SOL     OW21154   4.652   0.150   5.140 -0.7062  0.2245  0.8644
 3231SOL    HW121155   4.671   0.186   5.227  2.3290 -0.7913  0.6459
 3231SOL    HW221156   4.628   0.063   5.172 -0.0150 -0.4407 -0.4392
 3232SOL     OW21157   3.215   2.491   7.522  0.0080 -0.5526  0.1342
 3232SOL    HW121158   3.249   2.483   7.433  0.1804  3.6023 -0.1727
 3232SOL    HW221159   3.285   2.456   7.577  0.8285 -1.1187 -1.2468
 3233SOL     OW21160   4.183   3.471   5.375 -0.4128  0.3062  0.1957
 3233SOL    HW121161   4.249   3.402   5.368 -0.2604  0.4076  0.6336
 3233SOL    HW221162   4.145   3.475   5.287 -1.6073  1.9164  0.7945
 3234SOL     OW21163   2.782   3.967  10.612  0.1963 -0.7744 -0.7022
 3234SOL    HW121164   2.860   4.013  10.643 -0.4205  0.8728 -1.5985
 3234SOL    HW221165   2.766   4.017  10.532  1.7075  0.0686 -0.4756
 3235SOL     OW21166   4.211   1.551   8.470 -0.5688 -0.1388 -0.2652
 3235SOL    HW121167   4.276   1.529   8.403  0.1727  0.5520  0.2114
 3235SOL    HW221168   4.149   1.615   8.437 -0.3400  1.7360  2.8672
 3236SOL     OW21169   3.083   1.141   6.243  0.1666 -0.4041  0.2151
 3236SOL    HW121170   3.028   1.180   6.176 -0.9514  0.0564  1.4110
 3236SOL    HW221171   3.155   1.203   6.232 -0.6099  1.1172  3.8039
 3237SOL     OW21172   2.913   1.424   8.975  0.1830  0.2843 -0.2812
 3237SOL    HW121173   2.868   1.507   8.958  0.5912  0.9257  1.7992
 3237SOL    HW221174   2.838   1.372   9.007  1.7871 -2.0531 -0.3045
 3238SOL     OW21175   3.587   0.892   9.182 -0.0609 -0.3193 -0.1513
 3238SOL    HW121176   3.492   0.902   9.179 -0.0563  0.0067  0.7575
 3238SOL    HW221177   3.590   0.838   9.103  2.6486 -0.2093 -0.1242
 3239SOL     OW21178   1.196   4.257  17.113 -0.4501 -0.0275  0.5379
 3239SOL    HW121179   1.185   4.302  17.197 -2.1953 -3.1055  1.9538
 3239SOL    HW221180   1.119   4.297  17.074 -1.8485 -0.7090  2.6090
 3240SOL     OW21181   1.316   1.108   7.227  0.2888 -0.0643  0.5263
 3240SOL    HW121182   1.382   1.162   7.185 -0.3364 -1.1081 -1.7664
 3240SOL    HW221183   1.318   1.142   7.317  0.7805  0.8489  0.1723
 3241SOL     OW21184   0.727   0.389  11.539 -0.3752  0.4811 -0.1628
 3241SOL    HW121185   0.815   0.353  11.553 -0.0632  1.0653 -0.6115
 3241SOL    HW221186   0.711   0.421  11.628 -0.8847 -1.2331  0.3499
 3242SOL     OW21187   0.022   2.787   6.632 -0.3408 -0.2449 -0.4291
 3242SOL    HW121188   0.008   2.733   6.710 -0.0228  1.5245  0.8525
 3242SOL    HW221189   4.662   2.787   6.585 -1.2318  0.3444  1.1524
 3243SOL     OW21190   1.690   1.627  12.916  0.2308  0.4317  0.3604
 3243SOL    HW121191   1.712   1.558  12.853  0.7698 -0.8666  1.9530
 3243SOL    HW221192   1.761   1.624  12.981  0.2975  0.5582  0.2933
 3244SOL     OW21193   0.390   3.560   6.904 -0.1945 -0.8425 -0.0672
 3244SOL    HW121194   0.334   3.615   6.960 -0.1399 -0.1181 -0.7177
 3244SOL    HW221195   0.469   3.613   6.900 -0.1081 -1.0740 -1.4376
 3245SOL     OW21196   3.130   2.592   7.823 -0.0931 -0.2482 -0.6627
 3245SOL    HW121197   3.085   2.640   7.892  0.1525  0.3031 -0.8765
 3245SOL    HW221198   3.132   2.509   7.869 -0.9875  0.7607  1.1916
 3246SOL     OW21199   0.896   1.848  13.848 -0.5937 -0.1981 -0.5062
 3246SOL    HW121200   0.816   1.799  13.865  0.4107  0.3730  5.9518
 3246SOL    HW221201   0.866   1.938  13.834 -1.3910 -0.5966 -1.3572
 3247SOL     OW21202   3.793   1.469   1.737 -0.0227  0.7750 -0.4086
 3247SOL    HW121203   3.862   1.513   1.786 -0.6828  1.5703 -0.2005
 3247SOL    HW221204   3.830   1.443   1.653  1.8360  2.1801 -0.0182
 3248SOL     OW21205   3.762   4.303  12.322 -0.5379  0.6092  0.1299
 3248SOL    HW121206   3.676   4.343  12.308  0.5590  2.7378 -0.6647
 3248SOL    HW221207   3.812   4.366  12.373  0.9302  1.3274 -2.1681
 3249SOL     OW21208   2.412   4.242   2.618 -0.2859 -0.3995 -0.6484
 3249SOL    HW121209   2.463   4.196   2.551  3.4306  0.2895  1.7029
 3249SOL    HW221210   2.440   4.332   2.605  0.6328 -0.6577 -0.5073
 3250SOL     OW21211   0.235   0.034   7.015  0.6440 -0.4626  0.5553
 3250SOL    HW121212   0.324   0.015   7.045 -0.0077 -1.9562  1.5798
 3250SOL    HW221213   0.242   0.045   6.920 -0.7255  0.7764  0.5986
 3251SOL     OW21214   0.986   4.133  14.857  0.0612 -0.3310 -0.2806
 3251SOL    HW121215   1.046   4.177  14.917 -0.8062 -0.3764  0.6110
 3251SOL    HW221216   0.916   4.104  14.915 -1.3665  2.0647 -0.8287
 3252SOL     OW21217   0.186   3.691   6.439 -0.2504  0.3679 -0.1263
 3252SOL    HW121218   0.272   3.654   6.455 -0.0574  0.3768 -1.1376
 3252SOL    HW221219   0.148   3.695   6.527  0.2101 -1.5107  0.1577
 3253SOL     OW21220   0.489   2.032   5.140  0.0674 -0.2877 -0.2942
 3253SOL    HW121221   0.564   1.974   5.125  2.0651  2.2034 -0.0119
 3253SOL    HW221222   0.412   1.976   5.126  0.9710 -1.4516 -0.6325
 3254SOL     OW21223   4.123   1.248   0.229  0.0140  0.2769 -0.1789
 3254SOL    HW121224   4.096   1.173   0.176 -0.1377  1.3593 -1.6064
 3254SOL    HW221225   4.044   1.302   0.223 -1.3149 -1.3130  3.1231
 3255SOL     OW21226   4.092   3.131   2.237  0.0592 -0.2262  0.1643
 3255SOL    HW121227   4.094   3.134   2.333 -0.1587  2.3339  0.0754
 3255SOL    HW221228   4.026   3.192   2.207  1.5207 -1.0633 -4.6861
 3256SOL     OW21229   0.043   2.642   6.061 -0.0156  0.1017  0.4052
 3256SOL    HW121230   0.099   2.707   6.019 -0.1846  0.2656  0.4291
 3256SOL    HW221231   0.023   2.681   6.146  0.1182 -1.0563  0.9649
 3257SOL     OW21232   0.816   2.055   5.017 -0.1916 -0.0356 -0.4795
 3257SOL    HW121233   0.870   2.051   4.938  0.1097 -3.0200 -0.1346
 3257SOL    HW221234   0.883   2.081   5.080 -0.4948  2.0282 -1.0065
 3258SOL     OW21235   4.381   1.065   7.797 -0.3690  0.1054 -0.6669
 3258SOL    HW121236   4.457   1.105   7.755 -0.6514  1.9673  0.6492
 3258SOL    HW221237   4.387   1.107   7.882 -0.7679 -2.0540  0.4239
 3259SOL     OW21238   3.644   2.979   1.782  0.0298 -0.0992  0.3145
 3259SOL    HW121239   3.729   3.018   1.763  0.2897 -0.0700  1.5265
 3259SOL    HW221240   3.588   3.034   1.728 -0.0942  0.4306  0.9842
 3260SOL     OW21241   3.062   4.358   5.696  0.1503 -0.3138 -0.0595
 3260SOL    HW121242   3.085   4.406   5.776  0.6167 -0.7432  0.0583
 3260SOL    HW221243   3.064   4.437   5.642  0.1793 -0.1569  0.1704
 3261SOL     OW21244   0.345   1.506   7.836  0.5319  1.0607  0.2748
 3261SOL    HW121245   0.305   1.550   7.761 -0.5486  0.0570  0.2554
 3261SOL    HW221246   0.436   1.524   7.815  0.6235 -0.7506 -0.8863
 3262SOL     OW21247   3.897   2.106   5.994 -1.1210 -0.0968  0.4451
 3262SOL    HW121248   3.901   2.112   6.090  1.9702  1.0938  0.2556
 3262SOL    HW221249   3.991   2.117   5.976 -1.5539 -1.5277 -2.5177
 3263SOL     OW21250   0.661   2.959   3.872 -0.1692  0.0944 -0.4003
 3263SOL    HW121251   0.624   3.031   3.923 -0.8330 -1.7217  1.6491
 3263SOL    HW221252   0.606   2.966   3.794 -1.4409  0.3156  0.5130
 3264SOL     OW21253   0.265   3.081   6.373 -0.2423  0.0963 -0.0490
 3264SOL    HW121254   0.319   3.030   6.434  0.3674  1.0672  0.2286
 3264SOL    HW221255   0.331   3.128   6.322 -0.0920  1.4750  1.3978
 3265SOL     OW21256   2.641   0.362   9.263 -0.4606  0.1060  0.1640
 3265SOL    HW121257   2.707   0.406   9.209 -1.2752  2.7431  1.3105
 3265SOL    HW221258   2.559   0.409   9.244 -1.1271 -2.2774 -2.8017
 3266SOL     OW21259   0.371   3.170  16.838  0.5973 -0.3245 -0.3294
 3266SOL    HW121260   0.333   3.216  16.912  0.9448  0.2381 -0.5021
 3266SOL    HW221261   0.461   3.203  16.847  0.4650 -0.0919  0.1276
 3267SOL     OW21262   2.274   3.372   7.490  0.4237  0.3566  0.0294
 3267SOL    HW121263   2.364   3.377   7.457  0.5220 -2.6012 -0.1530
 3267SOL    HW221264   2.289   3.387   7.583 -1.3327  0.7359  0.2537
 3268SOL     OW21265   3.307   4.469   8.510 -0.1714  0.1848  0.2666
 3268SOL    HW121266   3.389   4.420   8.505  0.1268  0.4207  2.9369
 3268SOL    HW221267   3.301   4.488   8.603 -1.4212 -1.1202  0.4437
 3269SOL     OW21268   0.858   3.637   9.700  0.4682  0.2168  1.0951
 3269SOL    HW121269   0.776   3.653   9.746 -1.1220  0.8633 -1.9595
 3269SOL    HW221270   0.868   3.542   9.696  1.9839  0.3666  1.2172
 3270SOL     OW21271   1.388   0.170   3.939  0.3893 -0.1055 -0.4790
 3270SOL    HW121272   1.427   0.089   3.972  1.2543 -0.1137 -1.5493
 3270SOL    HW221273   1.420   0.180   3.850 -0.3081  0.4523 -0.6603
 3271SOL     OW21274   3.233   3.427   4.488  0.5699 -0.4421  0.3815
 3271SOL    HW121275   3.222   3.335   4.463  0.2533 -0.1656 -0.4982
 3271SOL    HW221276   3.143   3.459   4.493  0.3134 -0.6623 -3.0158
 3272SOL     OW21277   0.636   3.791   0.845 -0.0520 -0.2341  0.0430
 3272SOL    HW121278   0.663   3.867   0.896 -0.9888 -1.2122  2.0022
 3272SOL    HW221279   0.719   3.748   0.827  1.4548  2.6082  0.0969
 3273SOL     OW21280   2.046   2.570   2.398 -0.2902 -0.3216  0.3659
 3273SOL    HW121281   1.955   2.585   2.370 -0.3744  1.8667  1.8217
 3273SOL    HW221282   2.025   2.572   2.491 -1.3865  1.2596  0.1005
 3274SOL     OW21283   1.444   4.208   9.123 -0.3935 -0.3591  0.3669
 3274SOL    HW121284   1.377   4.212   9.191  2.8898  2.3376  3.4808
 3274SOL    HW221285   1.502   4.283   9.137 -2.5630  1.7402 -1.8146
 3275SOL     OW21286   2.802   3.396  14.751 -0.4233 -0.0428 -0.1614
 3275SOL    HW121287   2.879   3.450  14.734  0.4170 -0.7550  1.4429
 3275SOL    HW221288   2.819   3.328  14.686 -0.5611  0.3062 -0.5692
 3276SOL     OW21289   0.264   1.118   7.061  0.2212  0.0860 -0.0708
 3276SOL    HW121290   0.181   1.094   7.018 -0.0651 -0.1227  0.6020
 3276SOL    HW221291   0.250   1.213   7.058 -1.7118 -0.1942 -0.4422
 3277SOL     OW21292   0.276   3.311   6.942  0.0820 -0.4795 -0.7210
 3277SOL    HW121293   0.322   3.227   6.931  1.1190 -0.3021  2.0256
 3277SOL    HW221294   0.348   3.370   6.922  0.4250 -0.0153  1.8484
 3278SOL     OW21295   2.669   2.464   2.343  0.1448 -0.7425  0.6951
 3278SOL    HW121296   2.686   2.410   2.266 -2.0576  0.6546 -0.7586
 3278SOL    HW221297   2.594   2.518   2.321 -0.2949 -1.9926 -0.8470
 3279SOL     OW21298   4.337   3.249   5.279 -0.1360 -0.0061  0.0698
 3279SOL    HW121299   4.380   3.235   5.364 -1.0800  1.5542  0.8060
 3279SOL    HW221300   4.387   3.182   5.232  2.7144  0.8117  1.9126
 3280SOL     OW21301   0.837   0.192   6.912 -0.0730  0.2428  0.1227
 3280SOL    HW121302   0.848   0.269   6.856 -3.0279 -0.5280 -1.4816
 3280SOL    HW221303   0.895   0.219   6.984  1.6365 -0.5232 -0.9635
 3281SOL     OW21304   2.808   2.950   7.556 -0.5260 -0.2038  0.2288
 3281SOL    HW121305   2.801   2.989   7.643  1.8532  1.8676 -0.4734
 3281SOL    HW221306   2.802   2.856   7.571 -1.8990 -0.3003 -0.9594
 3282SOL     OW21307   0.421   3.945   6.314 -0.3915 -0.4081 -0.5333
 3282SOL    HW121308   0.426   3.927   6.408 -1.9042  1.2357 -0.1357
 3282SOL    HW221309   0.515   3.954   6.299 -0.2901 -1.2573 -0.3960
 3283SOL     OW21310   2.188   2.393   0.536  0.3488  0.0521  0.2559
 3283SOL    HW121311   2.186   2.326   0.468 -1.0091  0.2351  0.1160
 3283SOL    HW221312   2.118   2.449   0.504  1.3042 -0.4676 -2.8155
 3284SOL     OW21313   3.456   2.993   7.029  0.2444 -0.1284 -0.4256
 3284SOL    HW121314   3.509   3.026   7.102 -0.0989 -0.0483 -0.2102
 3284SOL    HW221315   3.369   3.028   7.051  0.5911 -0.3814  1.3878
 3285SOL     OW21316   2.181   1.434   5.463 -0.1420  0.2616  0.0372
 3285SOL    HW121317   2.097   1.451   5.506 -0.8822  2.1490 -2.1533
 3285SOL    HW221318   2.172   1.482   5.381 -1.5334  1.3993  0.8485
 3286SOL     OW21319   1.419   1.056  13.977 -0.6830  0.1041 -0.3668
 3286SOL    HW121320   1.452   0.975  13.939 -0.2877 -0.1015  0.4346
 3286SOL    HW221321   1.432   1.119  13.906 -1.2182 -0.7816 -1.2544
 3287SOL     OW21322   4.231   1.182   3.293  0.7319  0.2038  0.0246
 3287SOL    HW121323   4.305   1.192   3.353  1.7800 -0.3142 -1.1723
 3287SOL    HW221324   4.257   1.101   3.248  3.7379  0.4087  1.3839
 3288SOL     OW21325   3.095   2.366   8.466 -0.3557  0.2431  0.6783
 3288SOL    HW121326   3.036   2.440   8.478  0.9256  1.4490 -0.4173
 3288SOL    HW221327   3.150   2.388   8.541 -0.6083 -1.8666  1.4719
 3289SOL     OW21328   3.713   1.918  10.940  0.1452  0.0848  0.0364
 3289SOL    HW121329   3.662   1.850  10.896 -0.4580  1.8328 -1.9305
 3289SOL    HW221330   3.649   1.985  10.963 -0.7681 -1.4356  1.9491
 3290SOL     OW21331   0.400   0.935   3.605  0.2218  0.1460  0.3594
 3290SOL    HW121332   0.387   0.851   3.648 -0.7329 -0.2059 -0.6274
 3290SOL    HW221333   0.494   0.942   3.622  0.6729 -3.5448 -0.6845
 3291SOL     OW21334   1.122   3.339  15.110 -0.2539  0.6961 -0.1480
 3291SOL    HW121335   1.037   3.311  15.143  0.4681 -2.6294 -1.0361
 3291SOL    HW221336   1.123   3.319  15.016 -1.8046 -2.1979  0.4381
 3292SOL     OW21337   0.715   2.309   6.894  0.0093 -0.3343  0.2083
 3292SOL    HW121338   0.735   2.364   6.818  0.1560 -1.0872 -0.2891
 3292SOL    HW221339   0.781   2.240   6.900 -0.7543 -0.8547  2.9240
 3293SOL     OW21340   0.838   2.668  13.609 -0.3129  0.7631 -0.1536
 3293SOL    HW121341   0.871   2.584  13.578 -2.8403 -0.9643  1.9781
 3293SOL    HW221342   0.752   2.651  13.645 -0.5100  0.8915 -0.5627
 3294SOL     OW21343   0.594   3.113  11.959 -0.0325  0.6861  0.4090
 3294SOL    HW121344   0.550   3.028  11.966  0.8058  0.2501  0.3474
 3294SOL    HW221345   0.573   3.153  11.875 -0.4012  1.0778  0.6892
 3295SOL     OW21346   4.596   0.620   2.876 -0.2977  0.4561  0.0653
 3295SOL    HW121347   4.621   0.531   2.853 -0.1614  0.6656 -0.6138
 3295SOL    HW221348   4.662   0.671   2.829 -0.9817  1.1816 -0.1167
 3296SOL     OW21349   1.858   1.129  17.675 -0.1684 -0.2835  0.2163
 3296SOL    HW121350   1.915   1.204  17.661  0.6092 -1.2280 -1.5923
 3296SOL    HW221351   1.769   1.151  17.645 -1.5094 -1.4240  3.2656
 3297SOL     OW21352   4.696   1.537   9.038  0.2013  0.4925 -0.0774
 3297SOL    HW121353   4.703   1.621   9.084  1.3779  0.4033 -0.0920
 3297SOL    HW221354   4.678   1.477   9.110 -1.1247 -0.1877 -0.9811
 3298SOL     OW21355   2.581   2.778   0.619 -0.1329  0.0201  0.0556
 3298SOL    HW121356   2.530   2.712   0.667  1.8515 -2.4510 -1.2390
 3298SOL    HW221357   2.564   2.858   0.669  1.3543  0.4317 -0.0981
 3299SOL     OW21358   3.732   4.009  13.254  0.0844  0.2639  0.3906
 3299SOL    HW121359   3.749   3.919  13.226  0.1310  0.4064 -0.0268
 3299SOL    HW221360   3.647   4.003  13.300 -0.9052  0.2362 -1.4488
 3300SOL     OW21361   0.929   0.761   0.204 -0.4904 -0.0272 -1.0805
 3300SOL    HW121362   1.008   0.739   0.254 -2.1955 -1.4627  1.0023
 3300SOL    HW221363   0.860   0.743   0.268  0.1122 -2.6368 -1.1393
 3301SOL     OW21364   0.200   2.315   5.194  0.2544  0.4106 -0.4222
 3301SOL    HW121365   0.197   2.404   5.158 -1.6316 -0.1586 -1.6902
 3301SOL    HW221366   0.294   2.303   5.207 -0.3176 -0.1701  3.1444
 3302SOL     OW21367   3.130   4.005   8.659 -0.0609  0.6316 -0.0568
 3302SOL    HW121368   3.141   4.071   8.728  3.3079  2.8953 -2.7676
 3302SOL    HW221369   3.191   4.033   8.591  2.7266  0.8588  2.5223
 3303SOL     OW21370   2.417   1.103   3.392 -0.1280  0.6057  0.2370
 3303SOL    HW121371   2.480   1.056   3.447  1.2041  1.7049 -0.3558
 3303SOL    HW221372   2.436   1.064   3.307  0.0232 -2.1228  1.5346
 3304SOL     OW21373   0.399   3.594  14.125  0.1678  0.0081  0.2011
 3304SOL    HW121374   0.407   3.688  14.104  3.3082 -0.0119  1.2913
 3304SOL    HW221375   0.484   3.558  14.098  1.3776  1.5252  1.9411
 3305SOL     OW21376   2.935   0.282   6.906  0.2325  0.1562  0.1694
 3305SOL    HW121377   3.019   0.280   6.952 -0.5154 -0.6308  1.5085
 3305SOL    HW221378   2.928   0.200   6.858  0.0439 -0.0086  0.4808
 3306SOL     OW21379   3.414   2.357   2.625 -0.7016  0.3600  0.4137
 3306SOL    HW121380   3.319   2.355   2.611 -0.4532  1.4671 -1.3221
 3306SOL    HW221381   3.429   2.284   2.685 -0.6813 -0.5611 -0.7188
 3307SOL     OW21382   3.979   0.842   9.318 -0.2420 -0.2376  0.4066
 3307SOL    HW121383   4.027   0.852   9.236  0.7325 -2.0361  0.7662
 3307SOL    HW221384   4.036   0.875   9.387 -0.9739 -1.1772  1.4629
 3308SOL     OW21385   2.785   2.200   6.432 -0.6931  0.0940  0.0654
 3308SOL    HW121386   2.785   2.203   6.528 -1.6429  1.7247  0.0086
 3308SOL    HW221387   2.871   2.159   6.421 -0.3136  1.4092 -1.8792
 3309SOL     OW21388   2.854   1.689   1.084 -0.0791  0.1789  0.6267
 3309SOL    HW121389   2.868   1.784   1.084 -0.3533  0.2203 -0.3345
 3309SOL    HW221390   2.760   1.682   1.101 -0.4830  0.4115 -1.4194
 3310SOL     OW21391   3.893   3.571   9.347 -0.7248  0.0489 -0.2139
 3310SOL    HW121392   3.842   3.513   9.291 -1.2123 -0.3019  0.5992
 3310SOL    HW221393   3.982   3.538   9.333 -0.5390  0.4112  0.1100
 3311SOL     OW21394   2.841   3.121   0.717 -0.0426  0.2846 -0.3344
 3311SOL    HW121395   2.773   3.056   0.735 -0.9546  1.2221 -0.3960
 3311SOL    HW221396   2.892   3.084   0.644 -3.0261 -1.3688 -1.6008
 3312SOL     OW21397   0.813   4.617  12.273 -0.5763  0.8818 -0.2594
 3312SOL    HW121398   0.835   4.660  12.190  1.8732 -0.0647 -0.0938
 3312SOL    HW221399   0.900   4.583  12.295 -0.7729 -0.6391 -1.7871
 3313SOL     OW21400   0.011   0.343  12.903 -0.1672 -0.1590 -0.0849
 3313SOL    HW121401   0.009   0.411  12.970  1.0515 -0.4669  0.2556
 3313SOL    HW221402   0.096   0.302  12.920  0.0624  0.7732  1.0146
 3314SOL     OW21403   1.636   3.969  16.421 -0.1271 -0.5737 -0.0559
 3314SOL    HW121404   1.676   3.904  16.478 -0.6015 -0.8922 -0.0796
 3314SOL    HW221405   1.645   4.049  16.472 -2.7248  0.4957 -1.2373
 3315SOL     OW21406   0.945   2.837   1.255  0.5059  0.4876 -0.4990
 3315SOL    HW121407   0.964   2.930   1.245  0.6224  0.3949 -1.1173
 3315SOL    HW221408   0.885   2.818   1.183  0.6483 -0.7246 -0.3053
 3316SOL     OW21409   4.320   2.368  13.754 -0.0131 -0.2384 -0.5086
 3316SOL    HW121410   4.286   2.287  13.716  0.6358 -0.1085 -1.3791
 3316SOL    HW221411   4.264   2.384  13.829 -0.2738 -1.9148 -0.3462
 3317SOL     OW21412   4.616   3.024   8.322  0.0997 -0.6208  0.4633
 3317SOL    HW121413   4.683   3.021   8.253  0.6267  1.1727  0.8866
 3317SOL    HW221414   4.673   3.004   8.396  0.2388 -1.0795  0.2285
 3318SOL     OW21415   3.724   2.768   7.807  0.3494  0.1850  0.6666
 3318SOL    HW121416   3.744   2.845   7.860 -2.1404  2.5008 -1.7321
 3318SOL    HW221417   3.803   2.716   7.823  1.0840  0.5710 -1.6612
 3319SOL     OW21418   2.039   0.929   3.985 -0.2090 -0.3724  0.0316
 3319SOL    HW121419   1.987   0.910   3.907 -2.4117  1.1683  1.0987
 3319SOL    HW221420   2.039   0.842   4.024 -2.1583 -0.1242  0.5790
 3320SOL     OW21421   3.613   1.531  17.403  0.4185 -0.1171 -0.6684
 3320SOL    HW121422   3.657   1.508  17.485 -0.2663 -2.1839 -0.8898
 3320SOL    HW221423   3.688   1.587  17.384  1.4909 -1.1851  0.4972
 3321SOL     OW21424   2.688   0.005   5.423 -0.0724 -0.4107  0.2071
 3321SOL    HW121425   2.626   4.703   5.491  0.8236 -5.1532 -0.7406
 3321SOL    HW221426   2.717   0.085   5.467 -0.5264 -0.3790  0.4464
 3322SOL     OW21427   1.453   2.334   4.072  0.4974 -0.0704  0.0325
 3322SOL    HW121428   1.480   2.411   4.021  2.4478 -0.4526  0.4704
 3322SOL    HW221429   1.499   2.350   4.155 -1.2574  0.6889  0.8660
 3323SOL     OW21430   4.043   4.431   8.836  0.1847 -0.2394  0.2483
 3323SOL    HW121431   4.001   4.494   8.778 -0.1331  0.8558  1.6670
 3323SOL    HW221432   4.134   4.440   8.805 -0.9511  0.6389 -2.8456
 3324SOL     OW21433   1.210   0.123   0.348  0.1982  0.4662  0.0899
 3324SOL    HW121434   1.120   0.097   0.326  0.4482  1.0049 -1.5368
 3324SOL    HW221435   1.195   0.169   0.431 -1.3301  1.0410 -0.5041
 3325SOL     OW21436   4.034   2.526   7.276  0.5337 -0.8755  0.2252
 3325SOL    HW121437   3.972   2.528   7.202 -0.5552 -3.8222  1.0565
 3325SOL    HW221438   3.995   2.448   7.316 -0.7654 -0.5415 -0.3934
 3326SOL     OW21439   4.710   3.477   8.444 -0.2927 -0.7949  0.4869
 3326SOL    HW121440   4.722   3.465   8.349 -1.9174  1.1897  0.0245
 3326SOL    HW221441   0.061   3.425   8.476  0.8831 -1.3284 -2.9866
 3327SOL     OW21442   1.087   3.680   1.933  0.3550 -0.1409  0.5190
 3327SOL    HW121443   1.148   3.608   1.946  0.7022  0.0430 -0.0809
 3327SOL    HW221444   1.116   3.708   1.846 -2.3321  1.3667  0.1175
 3328SOL     OW21445   4.476   4.472   4.331 -0.2028  0.5667 -0.2927
 3328SOL    HW121446   4.515   4.416   4.398  1.1135 -0.2530 -1.7568
 3328SOL    HW221447   4.549   4.530   4.311  0.9135 -1.3231 -1.6844
 3329SOL     OW21448   4.041   1.087   4.405  0.7611 -0.1753  0.5863
 3329SOL    HW121449   4.052   0.992   4.398  1.7690 -0.1472  2.0029
 3329SOL    HW221450   3.985   1.105   4.329  0.3588  3.1545  1.7022
 3330SOL     OW21451   3.077   3.065   8.268 -0.0497 -0.2024  0.1175
 3330SOL    HW121452   3.144   3.133   8.271 -0.6380  0.3693  0.3337
 3330SOL    HW221453   3.127   2.985   8.286  1.5500  0.8997  0.5703
 3331SOL     OW21454   0.731   3.267   1.360 -0.2460  0.1106  0.2843
 3331SOL    HW121455   0.711   3.284   1.268  0.1444 -0.5348  0.0750
 3331SOL    HW221456   0.812   3.317   1.374 -0.5976  0.7200  0.1264
 3332SOL     OW21457   4.276   0.790   8.007  0.0700  0.1778 -0.2646
 3332SOL    HW121458   4.232   0.848   8.070  0.5696  1.0123 -0.6838
 3332SOL    HW221459   4.258   0.839   7.926  2.0269  0.9064 -0.2574
 3333SOL     OW21460   2.669   3.199  13.978 -0.2783 -0.0615  0.3588
 3333SOL    HW121461   2.758   3.166  13.964  0.3363  1.9794 -0.5378
 3333SOL    HW221462   2.615   3.174  13.903 -1.1278  1.6454  0.3792
 3334SOL     OW21463   1.060   2.024   3.883 -0.1308  0.5886 -0.1069
 3334SOL    HW121464   1.013   2.047   3.803 -0.3521  3.1452  0.7524
 3334SOL    HW221465   0.990   1.974   3.926 -1.4079  1.4303 -1.2313
 3335SOL     OW21466   2.860   3.638   7.760  0.2384  0.1208  0.2567
 3335SOL    HW121467   2.863   3.717   7.815 -0.4351 -1.6939  2.8941
 3335SOL    HW221468   2.767   3.626   7.744 -0.1062  0.8140  1.6935
 3336SOL     OW21469   2.486   1.314   8.122 -0.4608  0.3855 -0.0466
 3336SOL    HW121470   2.428   1.290   8.194 -2.5117 -1.5743 -2.3325
 3336SOL    HW221471   2.457   1.250   8.056  2.6927  1.5762 -2.6194
 3337SOL     OW21472   3.487   0.141   1.553  0.2791 -0.3399 -0.0547
 3337SOL    HW121473   3.495   0.059   1.602  1.0597 -0.8838 -1.0831
 3337SOL    HW221474   3.431   0.130   1.476 -0.1172  0.1331  0.1652
 3338SOL     OW21475   1.829   1.394   4.295  0.1952  0.3037  0.0682
 3338SOL    HW121476   1.778   1.338   4.237  0.5735  0.6616 -0.6098
 3338SOL    HW221477   1.911   1.405   4.247  0.8335 -2.6503  0.4776
 3339SOL     OW21478   3.061   3.875   1.653 -0.4127 -0.4760  0.0248
 3339SOL    HW121479   3.015   3.939   1.599  1.5789  0.3706 -0.6668
 3339SOL    HW221480   3.153   3.898   1.650 -0.7803  0.6653 -2.4887
 3340SOL     OW21481   3.672   0.382   6.012 -0.3577 -0.4581 -0.2024
 3340SOL    HW121482   3.656   0.309   5.952  3.5318 -0.8827 -0.7506
 3340SOL    HW221483   3.765   0.363   6.025 -1.0035 -0.9484  3.8150
 3341SOL     OW21484   1.639   4.442  12.185  0.1585 -0.2911 -0.3694
 3341SOL    HW121485   1.617   4.366  12.131  1.2815 -0.8231 -0.0749
 3341SOL    HW221486   1.618   4.404  12.270  1.0234  1.1944  0.5176
 3342SOL     OW21487   1.738   2.095  13.671  0.3635  0.1204  0.5314
 3342SOL    HW121488   1.652   2.073  13.707 -0.7009  2.4139 -0.6040
 3342SOL    HW221489   1.749   2.177  13.719  1.2122  0.4087 -0.1430
 3343SOL     OW21490   1.992   4.605   7.796 -0.1097  0.2583  0.2301
 3343SOL    HW121491   2.036   4.677   7.840 -0.6239  0.5815  0.2182
 3343SOL    HW221492   1.964   4.554   7.872  0.1694 -0.9087 -0.4490
 3344SOL     OW21493   0.571   2.381   7.537 -0.6877  0.5540  0.3354
 3344SOL    HW121494   0.501   2.446   7.530 -0.0018  1.4768  2.2676
 3344SOL    HW221495   0.514   2.305   7.549 -1.7851  1.4997  1.1566
 3345SOL     OW21496   3.651   0.219  11.740  0.1768  0.3252  0.3504
 3345SOL    HW121497   3.735   0.218  11.785 -0.6636 -0.0302  1.9330
 3345SOL    HW221498   3.675   0.183  11.655 -0.1199  1.4442 -0.2036
 3346SOL     OW21499   4.547   2.475   2.727  0.7084 -0.3245 -0.3828
 3346SOL    HW121500   4.514   2.385   2.727  3.0323 -1.1759 -0.3370
 3346SOL    HW221501   4.594   2.479   2.810  0.5575  2.2845 -0.4247
 3347SOL     OW21502   2.363   4.559   6.227 -0.0848 -0.4570  0.1482
 3347SOL    HW121503   2.414   4.497   6.280  0.9851 -0.0990 -0.4642
 3347SOL    HW221504   2.273   4.528   6.241 -0.8571  0.6151 -2.6242
 3348SOL     OW21505   2.488   2.573   3.820  0.0099  0.0980  0.1280
 3348SOL    HW121506   2.461   2.496   3.770  1.7012 -0.4549  0.0512
 3348SOL    HW221507   2.400   2.604   3.799 -0.0471 -0.8411 -1.0500
 3349SOL     OW21508   4.708   1.660   5.534  0.0167 -0.0188  0.0931
 3349SOL    HW121509   0.078   1.670   5.557  0.1455 -0.5682 -0.2109
 3349SOL    HW221510   4.681   1.745   5.568  1.7991  0.4194  0.4386
 3350SOL     OW21511   3.483   3.491  14.781  0.6552 -0.1487  0.3163
 3350SOL    HW121512   3.481   3.409  14.730 -1.4417 -0.4376  0.8598
 3350SOL    HW221513   3.558   3.475  14.839  0.0108 -0.7687  0.9681
 3351SOL     OW21514   3.894   3.761  15.261  0.2878 -0.2739 -0.0727
 3351SOL    HW121515   3.809   3.727  15.289 -0.8376  2.7594  0.2371
 3351SOL    HW221516   3.930   3.784  15.347 -2.0407  0.0496  0.8063
 3352SOL     OW21517   3.545   3.845   5.701  0.4692  0.6020 -0.2466
 3352SOL    HW121518   3.504   3.914   5.648 -1.5801  0.6137  1.3804
 3352SOL    HW221519   3.471   3.818   5.754  1.2859 -0.3481  0.4054
 3353SOL     OW21520   3.345   2.715  16.133 -0.3507 -0.1039  0.2352
 3353SOL    HW121521   3.294   2.759  16.202 -0.8249 -2.0917  1.1341
 3353SOL    HW221522   3.416   2.684  16.189  0.6646  1.7906 -0.0069
 3354SOL     OW21523   2.519   3.805   6.057  0.3627 -0.3585  0.6080
 3354SOL    HW121524   2.443   3.844   6.014 -0.4210 -0.2240  2.1520
 3354SOL    HW221525   2.583   3.845   5.997 -2.0061  1.3478 -0.7495
 3355SOL     OW21526   0.307   4.626   9.940 -0.0723 -0.1169 -0.5258
 3355SOL    HW121527   0.384   4.682   9.949 -0.1801  0.2561 -2.0381
 3355SOL    HW221528   0.286   4.624  10.034  0.0573 -0.2361 -0.4998
 3356SOL     OW21529   2.074   0.178   9.878  0.9076  0.6993  0.4460
 3356SOL    HW121530   2.119   0.129   9.809 -0.7395  3.8913 -2.9184
 3356SOL    HW221531   2.012   0.106   9.896 -1.0679  2.9153  2.4684
 3357SOL     OW21532   4.363   4.111  15.345 -0.2006  0.0089 -0.1705
 3357SOL    HW121533   4.309   4.134  15.269  0.0844  0.5480 -0.2081
 3357SOL    HW221534   4.422   4.049  15.302 -0.0687 -0.1353  0.2205
 3358SOL     OW21535   4.094   0.962  13.547  0.2366 -0.1941  0.4033
 3358SOL    HW121536   4.063   1.051  13.565  1.3395  0.5024 -1.1407
 3358SOL    HW221537   4.034   0.905  13.596  0.8224  0.2746  1.6726
 3359SOL     OW21538   1.535   0.267   3.173 -0.3162 -0.2191 -0.2211
 3359SOL    HW121539   1.497   0.181   3.157 -1.1094 -0.2508  1.9188
 3359SOL    HW221540   1.527   0.304   3.085 -1.9656 -1.7521 -0.7099
 3360SOL     OW21541   0.016   1.704   7.703  0.2072  0.0928 -0.0559
 3360SOL    HW121542   0.107   1.695   7.676  0.0821 -1.1690 -0.0731
 3360SOL    HW221543   0.004   1.763   7.777  1.3815 -0.9891  1.0034
 3361SOL     OW21544   2.206   0.619   1.617 -0.2837  0.3157  0.4981
 3361SOL    HW121545   2.256   0.699   1.630 -0.4085  0.2883  1.1371
 3361SOL    HW221546   2.215   0.581   1.705  0.1935 -1.7468 -0.4390
 3362SOL     OW21547   4.400   3.395   7.613  0.4748  0.2995  0.0082
 3362SOL    HW121548   4.349   3.350   7.545 -0.2633  1.5662 -0.2820
 3362SOL    HW221549   4.470   3.438   7.564  1.1222 -2.3310 -1.3790
 3363SOL     OW21550   2.675   2.805   2.334  0.5662  0.6266  0.4291
 3363SOL    HW121551   2.753   2.859   2.319  1.9436 -0.1146  4.9911
 3363SOL    HW221552   2.661   2.825   2.426 -0.0403 -2.2872  0.9861
 3364SOL     OW21553   4.607   4.617   8.735 -0.1744  0.1646  0.1871
 3364SOL    HW121554   4.574   4.588   8.820  0.5180  0.2819  0.4974
 3364SOL    HW221555   4.700   4.602   8.748  0.2504  1.0268 -1.9326
 3365SOL     OW21556   1.907   2.141   4.623  0.5943  0.0567 -0.2199
 3365SOL    HW121557   1.878   2.097   4.703 -0.1647  1.3118  0.1984
 3365SOL    HW221558   1.937   2.066   4.571 -4.1570 -0.6655 -1.9042
 3366SOL     OW21559   0.364   4.242   3.786 -0.3005  0.2262 -0.2394
 3366SOL    HW121560   0.415   4.302   3.731  1.6860 -0.5211  0.7506
 3366SOL    HW221561   0.426   4.204   3.849  1.0602  0.1994 -1.5930
 3367SOL     OW21562   3.521   4.042  11.298 -0.7918  0.1444 -0.5769
 3367SOL    HW121563   3.484   4.030  11.385 -0.8622  2.3026 -0.3073
 3367SOL    HW221564   3.442   4.074  11.254  0.2597 -0.3082 -2.7761
 3368SOL     OW21565   3.454   1.227   3.129 -0.1640 -0.2261 -0.4003
 3368SOL    HW121566   3.527   1.274   3.088 -0.2173 -1.8014 -2.3133
 3368SOL    HW221567   3.394   1.223   3.054  1.2355 -1.5768 -1.4426
 3369SOL     OW21568   3.458   2.353   3.197 -0.5528  0.1409  0.0972
 3369SOL    HW121569   3.428   2.270   3.161  3.4234 -1.0087 -0.5544
 3369SOL    HW221570   3.532   2.324   3.250 -1.0864  2.2409  1.9813
 3370SOL     OW21571   3.306   1.660   6.956  0.2070  0.2161 -0.2542
 3370SOL    HW121572   3.333   1.570   6.937  0.1301  0.0418  0.4649
 3370SOL    HW221573   3.212   1.649   6.947  0.1661 -0.6296  1.0342
 3371SOL     OW21574   0.699   0.167   2.606  0.1070 -0.2531  0.1410
 3371SOL    HW121575   0.613   0.198   2.579 -0.1542  0.0871  1.3752
 3371SOL    HW221576   0.685   0.072   2.603 -0.4237 -0.1698  0.0443
 3372SOL     OW21577   2.819   3.232  12.622 -0.5807 -0.2816  0.1733
 3372SOL    HW121578   2.820   3.312  12.569 -1.9074  0.0633  0.6686
 3372SOL    HW221579   2.907   3.248  12.657  0.7212 -3.0815 -1.8203
 3373SOL     OW21580   4.464   4.191   3.445 -0.1363 -0.0071 -0.3924
 3373SOL    HW121581   4.493   4.250   3.514 -3.6391  0.7115  0.4623
 3373SOL    HW221582   4.424   4.252   3.384 -0.2719  0.2803 -0.0107
 3374SOL     OW21583   1.434   2.290  11.317 -0.0578  0.1943 -0.2296
 3374SOL    HW121584   1.486   2.211  11.302 -0.2023  0.4789 -2.2401
 3374SOL    HW221585   1.496   2.345  11.366  0.1124 -1.9280  1.9476
 3375SOL     OW21586   1.011   3.962   4.304 -0.3069  0.1802 -0.3301
 3375SOL    HW121587   0.944   3.993   4.365 -0.9375  0.0700 -0.9601
 3375SOL    HW221588   0.992   4.016   4.227 -1.6356 -0.3591 -0.3821
 3376SOL     OW21589   0.014   3.050  17.549 -0.0078  0.5662 -0.0496
 3376SOL    HW121590   0.008   3.106  17.627  2.0582 -0.4097  0.7959
 3376SOL    HW221591   4.645   3.051  17.522  0.1756  4.0013 -0.6306
 3377SOL     OW21592   4.571   4.117  10.781  0.2181  0.3161  0.3971
 3377SOL    HW121593   4.621   4.078  10.853  0.0685 -1.8806 -0.6857
 3377SOL    HW221594   4.612   4.202  10.766  3.5466 -1.4859 -0.8854
 3378SOL     OW21595   1.147   3.218  17.693  0.2781  0.5029 -0.1129
 3378SOL    HW121596   1.162   3.293   0.055  0.1901  0.2305  0.2757
 3378SOL    HW221597   1.239   3.203  17.671 -0.1745  1.3963 -2.6091
 3379SOL     OW21598   2.906   0.339   6.440 -0.5944 -0.2466  0.0913
 3379SOL    HW121599   2.920   0.431   6.417 -0.5709 -0.7675 -1.9219
 3379SOL    HW221600   2.812   0.332   6.425 -0.6965  0.6405  0.3007
 3380SOL     OW21601   1.023   1.390  17.116  0.1726 -0.5424 -0.0585
 3380SOL    HW121602   0.971   1.312  17.094 -0.1861 -0.0749 -0.8881
 3380SOL    HW221603   0.971   1.453  17.066  2.8354  1.0178 -0.8333
 3381SOL     OW21604   2.524   3.164   2.523 -0.2838  0.1824  0.0457
 3381SOL    HW121605   2.599   3.223   2.517  1.4890 -1.7667  2.9545
 3381SOL    HW221606   2.572   3.093   2.565 -0.5273 -0.8835 -1.4893
 3382SOL     OW21607   2.422   3.371   2.366 -0.5152  0.5541 -0.0530
 3382SOL    HW121608   2.493   3.400   2.309 -0.9113  0.4952 -0.5770
 3382SOL    HW221609   2.465   3.305   2.421  0.1374  0.4440 -0.7015
 3383SOL     OW21610   3.234   0.669   5.174  0.2408  0.4518  0.2847
 3383SOL    HW121611   3.198   0.724   5.243  0.2717  0.1036  0.5745
 3383SOL    HW221612   3.325   0.697   5.183  0.1667  0.9911 -0.6102
 3384SOL     OW21613   1.893   0.076   6.576 -0.5262  0.3462 -0.7136
 3384SOL    HW121614   1.900   0.026   6.657  0.7411  1.0139 -0.4259
 3384SOL    HW221615   1.974   0.039   6.540 -0.3070  1.4032 -1.2906
 3385SOL     OW21616   3.652   2.572  12.137 -0.0181 -0.2183 -0.0982
 3385SOL    HW121617   3.679   2.608  12.221 -0.8385  0.2425 -0.0294
 3385SOL    HW221618   3.736   2.552  12.097  0.6153  2.4475 -0.0714
 3386SOL     OW21619   2.809   0.212   8.500  0.0396 -0.0732  0.4681
 3386SOL    HW121620   2.827   0.125   8.535  0.2830 -1.0086 -1.9607
 3386SOL    HW221621   2.742   0.193   8.435 -1.8199  0.6210  2.2027
 3387SOL     OW21622   0.088   2.634   7.282 -0.4419  0.3785  0.3409
 3387SOL    HW121623   0.107   2.716   7.236  0.0136 -1.2079 -2.3242
 3387SOL    HW221624   0.047   2.672   7.360  0.8553  0.8267  0.7999
 3388SOL     OW21625   2.900   0.505  14.305 -0.5214  0.1817 -0.2009
 3388SOL    HW121626   2.917   0.556  14.226  0.4945  2.2429  1.3552
 3388SOL    HW221627   2.814   0.539  14.330 -0.7365 -1.2964  1.1149
 3389SOL     OW21628   4.396   3.146   8.608 -0.6089 -0.3433  0.0250
 3389SOL    HW121629   4.426   3.237   8.612  1.0719 -0.8600 -1.1876
 3389SOL    HW221630   4.344   3.136   8.688 -2.3466 -0.6665 -1.1448
 3390SOL     OW21631   1.227   0.571   4.382 -0.5227 -0.1761 -0.3228
 3390SOL    HW121632   1.262   0.601   4.299  0.1184  0.2362  0.0979
 3390SOL    HW221633   1.293   0.597   4.446 -0.7958 -2.0913  0.7404
 3391SOL     OW21634   2.888   3.883   8.661 -0.2687  0.0047  0.1507
 3391SOL    HW121635   2.829   3.949   8.699 -1.4373 -0.6867 -0.4559
 3391SOL    HW221636   2.966   3.935   8.644 -0.0207 -0.1126  0.8945
 3392SOL     OW21637   1.062   3.940  14.471 -0.2139 -0.9794 -0.3206
 3392SOL    HW121638   1.113   3.860  14.462 -0.9065 -1.5159  0.4911
 3392SOL    HW221639   1.028   3.927  14.560  0.8338 -1.7915 -0.0428
 3393SOL     OW21640   3.922   0.634   3.455  0.0864  0.4412 -0.5465
 3393SOL    HW121641   3.933   0.550   3.412  1.2316 -0.0097  0.6108
 3393SOL    HW221642   3.904   0.603   3.544 -1.7843 -0.8516 -1.3673
 3394SOL     OW21643   2.468   3.611   7.411 -0.3724  0.0782 -0.2926
 3394SOL    HW121644   2.420   3.627   7.330  2.3124 -0.7111 -2.0275
 3394SOL    HW221645   2.499   3.522   7.398 -2.2871 -0.5571 -0.4202
 3395SOL     OW21646   1.885   3.589  10.969 -0.1400  0.3379 -0.0260
 3395SOL    HW121647   1.841   3.553  10.892 -0.2686 -0.1147  0.2576
 3395SOL    HW221648   1.907   3.500  10.998  0.0977  0.1719 -0.6999
 3396SOL     OW21649   2.630   2.425   7.960  0.4821 -0.0457 -0.0468
 3396SOL    HW121650   2.720   2.396   7.974  1.0833  2.0219  0.3770
 3396SOL    HW221651   2.615   2.475   8.039 -0.0096  3.3877 -2.3312
 3397SOL     OW21652   1.286   1.539   3.492 -0.0867 -0.0236 -0.6501
 3397SOL    HW121653   1.293   1.476   3.564 -0.7813  1.6467  0.8558
 3397SOL    HW221654   1.227   1.606   3.524  0.2845 -0.7090  1.4204
 3398SOL     OW21655   2.281   3.299   8.813  0.3426  0.0172  0.2696
 3398SOL    HW121656   2.201   3.253   8.791  0.4013 -0.0445  0.1876
 3398SOL    HW221657   2.240   3.358   8.877  1.6004  1.9489 -0.6973
 3399SOL     OW21658   1.646   3.552   7.683  0.0689 -0.3127  0.3191
 3399SOL    HW121659   1.736   3.571   7.656  0.2644  0.2195  1.3478
 3399SOL    HW221660   1.614   3.472   7.643  0.6866 -0.1087 -0.5965
 3400SOL     OW21661   4.130   1.036   7.012  0.0088  0.0872  0.1821
 3400SOL    HW121662   4.181   0.995   6.942  0.3660  0.6984  0.0869
 3400SOL    HW221663   4.093   0.961   7.058  1.9103 -1.0471 -0.1358
 3401SOL     OW21664   1.253   1.591   4.853  0.1926 -0.2688  0.7055
 3401SOL    HW121665   1.231   1.677   4.816  0.7030 -0.2948  0.3490
 3401SOL    HW221666   1.341   1.610   4.883  0.3766 -1.1859  0.7367
 3402SOL     OW21667   4.141   2.326   2.814  0.0839  0.0950 -0.3390
 3402SOL    HW121668   4.192   2.392   2.861 -1.4210 -1.2587  3.1416
 3402SOL    HW221669   4.210   2.282   2.763  0.5642  1.4522 -0.8661
 3403SOL     OW21670   4.153   0.585  17.377  0.0961  0.1840 -0.3774
 3403SOL    HW121671   4.221   0.650  17.393 -0.0902  0.7510 -2.0030
 3403SOL    HW221672   4.147   0.536  17.460 -4.1189 -0.3717 -1.0153
 3404SOL     OW21673   1.145   4.482   1.956  0.4541  1.1013 -0.5160
 3404SOL    HW121674   1.120   4.439   1.874  0.9292 -1.2138  0.5391
 3404SOL    HW221675   1.206   4.551   1.929  1.1181 -0.0953 -2.0608
 3405SOL     OW21676   4.403   1.473   6.073 -0.9623 -0.1650  0.5180
 3405SOL    HW121677   4.342   1.401   6.088 -0.2511 -1.1019 -1.1166
 3405SOL    HW221678   4.482   1.421   6.057  0.0787  1.3377  0.8177
 3406SOL     OW21679   0.873   3.851   3.316  0.2265  0.1124 -0.1239
 3406SOL    HW121680   0.878   3.900   3.234  3.3885  0.4986  0.3083
 3406SOL    HW221681   0.924   3.903   3.378 -1.0965 -1.0323  1.9144
 3407SOL     OW21682   0.959   1.933   5.677 -0.0145 -0.4220 -0.4940
 3407SOL    HW121683   0.930   1.895   5.594 -2.3288 -1.2127  0.6754
 3407SOL    HW221684   0.898   1.886   5.734 -0.5667  2.0030  0.9330
 3408SOL     OW21685   2.843   0.496   1.784  0.1778  1.0176  0.3976
 3408SOL    HW121686   2.756   0.491   1.824  0.4857 -0.6203  0.8336
 3408SOL    HW221687   2.839   0.424   1.722 -0.4805  0.6139  0.9003
 3409SOL     OW21688   2.575   3.526  11.424  0.8920  0.5186 -0.2619
 3409SOL    HW121689   2.590   3.565  11.338 -2.0725  1.7279 -0.2359
 3409SOL    HW221690   2.520   3.591  11.469 -1.6647 -0.3793 -2.0987
 3410SOL     OW21691   3.910   0.544   5.426  0.2933 -0.1638  0.1424
 3410SOL    HW121692   3.819   0.567   5.447  0.5594  2.1994 -1.2394
 3410SOL    HW221693   3.957   0.627   5.424  3.4372 -1.9235  1.0867
 3411SOL     OW21694   4.334   2.855   5.804 -0.1012  0.0411  0.0317
 3411SOL    HW121695   4.427   2.843   5.823  0.2672  1.0219 -1.1199
 3411SOL    HW221696   4.316   2.780   5.747  1.0857 -0.8785  0.8703
 3412SOL     OW21697   0.812   1.380  12.511 -0.1532 -0.6176  0.2689
 3412SOL    HW121698   0.775   1.429  12.585  0.4856 -0.5768  0.5619
 3412SOL    HW221699   0.744   1.314  12.493  1.6329 -2.3994  0.1328
 3413SOL     OW21700   0.293   3.233   9.143 -0.5894  0.0665  0.4288
 3413SOL    HW121701   0.354   3.240   9.215  1.9944  0.1067 -1.7624
 3413SOL    HW221702   0.268   3.324   9.126  1.4408  0.7960  1.3766
 3414SOL     OW21703   3.783   0.660   4.284 -0.0934 -0.4174  0.0062
 3414SOL    HW121704   3.788   0.745   4.240 -1.6909 -0.5551 -0.4266
 3414SOL    HW221705   3.723   0.603   4.237 -0.4371 -1.8728  2.2052
 3415SOL     OW21706   1.104   3.979   0.152  0.1576  0.4305  0.1948
 3415SOL    HW121707   1.182   3.940   0.192  0.3277  1.8068  1.2314
 3415SOL    HW221708   1.085   4.034   0.228  0.4940  0.5456  0.1958
 3416SOL     OW21709   1.916   0.186  14.815  0.1007 -0.4218 -0.5287
 3416SOL    HW121710   1.897   0.185  14.721 -0.2575 -1.0862 -0.4482
 3416SOL    HW221711   1.877   0.271  14.834 -1.4968 -0.9155 -1.5868
 3417SOL     OW21712   3.844   2.523   2.774  0.1410 -0.1390 -0.5968
 3417SOL    HW121713   3.769   2.573   2.741 -0.9425  0.2980  2.4557
 3417SOL    HW221714   3.892   2.591   2.820 -0.0073  0.1833 -0.9206
 3418SOL     OW21715   0.086   4.229   6.766  0.1675 -0.6635  0.3674
 3418SOL    HW121716   0.024   4.279   6.819 -1.0401 -0.6060 -1.1240
 3418SOL    HW221717   0.052   4.141   6.776 -1.8329  0.1103  0.2810
 3419SOL     OW21718   4.046   0.002   5.979  0.2681 -0.6329  0.6283
 3419SOL    HW121719   4.087   4.671   5.911 -0.2987  1.0333 -1.0446
 3419SOL    HW221720   3.963   0.017   5.934  1.2332  2.8520  0.0186
 3420SOL     OW21721   3.024   4.367   1.804  0.4072 -0.6391 -0.0420
 3420SOL    HW121722   2.986   4.283   1.778 -1.1437 -0.4490  1.6242
 3420SOL    HW221723   2.941   4.416   1.805  1.0531  0.4713 -1.5170
 3421SOL     OW21724   2.298   2.920  17.280 -0.1309  0.0902  0.2314
 3421SOL    HW121725   2.256   3.005  17.294  1.2240  1.0166 -1.4315
 3421SOL    HW221726   2.375   2.934  17.226 -1.3140 -0.6257 -1.6305
 3422SOL     OW21727   4.309   1.506  14.849 -0.3309 -0.1814  0.3613
 3422SOL    HW121728   4.382   1.448  14.829  0.1427  0.4049  0.3992
 3422SOL    HW221729   4.343   1.576  14.794 -1.4782  1.7027  2.0672
 3423SOL     OW21730   3.029   4.227   4.368  0.4986 -0.3683 -0.1657
 3423SOL    HW121731   3.123   4.242   4.360  0.9966 -1.1074  4.1983
 3423SOL    HW221732   3.027   4.185   4.454  0.3471  2.2539  1.1089
 3424SOL     OW21733   0.643   2.765   6.404 -0.1671  0.5423  0.8128
 3424SOL    HW121734   0.713   2.765   6.339 -2.1132 -1.5156 -1.2386
 3424SOL    HW221735   0.636   2.673   6.431 -0.9522 -0.0033 -1.2625
 3425SOL     OW21736   2.970   1.103   3.019  0.5479  0.8956  0.2275
 3425SOL    HW121737   3.014   1.019   3.035  0.4030  1.0533  1.4530
 3425SOL    HW221738   2.930   1.071   2.938  1.7407  1.3795 -0.5576
 3426SOL     OW21739   1.174   4.472   7.831 -0.0827  0.0903 -0.5082
 3426SOL    HW121740   1.089   4.481   7.788 -0.9725  0.8632  1.4007
 3426SOL    HW221741   1.243   4.469   7.765  1.3586  1.0666  0.9278
 3427SOL     OW21742   0.129   3.748   4.597  0.0238  0.0002  0.5651
 3427SOL    HW121743   0.139   3.720   4.688  0.0406 -0.9232  0.2793
 3427SOL    HW221744   0.190   3.690   4.552  0.4054  0.9886 -0.1837
 3428SOL     OW21745   3.978   3.292   5.492 -0.3935  0.2862  0.1181
 3428SOL    HW121746   3.929   3.324   5.568 -1.1331 -1.0715  0.1971
 3428SOL    HW221747   4.048   3.357   5.482 -0.2970  0.4325  1.7324
 3429SOL     OW21748   1.116   3.644  15.465  0.1427  0.0802  0.2910
 3429SOL    HW121749   1.080   3.673  15.548 -1.2274  0.9595 -0.6188
 3429SOL    HW221750   1.116   3.549  15.472  0.0494  0.0308 -0.3306
 3430SOL     OW21751   1.393   1.475   4.128 -0.2388 -0.0532 -0.6388
 3430SOL    HW121752   1.377   1.446   4.038  0.6268  0.4166 -0.9361
 3430SOL    HW221753   1.378   1.400   4.186  0.4516  1.5272  1.6015
 3431SOL     OW21754   1.690   2.143   7.597 -0.3468  0.3334 -0.2074
 3431SOL    HW121755   1.658   2.066   7.644  0.2351 -0.6147 -1.4072
 3431SOL    HW221756   1.719   2.206   7.664  0.4380 -0.3363  0.0679
 3432SOL     OW21757   1.047   2.130   7.055 -0.3152 -0.2656  0.0922
 3432SOL    HW121758   1.133   2.093   7.073 -1.3513 -1.9672  1.5735
 3432SOL    HW221759   1.021   2.166   7.140  1.7561  0.5725  0.3661
 3433SOL     OW21760   2.462   2.129  17.435 -0.6234  0.7204  0.5784
 3433SOL    HW121761   2.478   2.204  17.492 -1.1529  1.6460 -0.5006
 3433SOL    HW221762   2.422   2.069  17.498  0.2019 -1.1336 -0.6408
 3434SOL     OW21763   2.826   3.064   3.266 -0.3173  0.6638  0.1480
 3434SOL    HW121764   2.789   3.124   3.331  0.9507 -1.8616  3.1853
 3434SOL    HW221765   2.781   3.098   3.189  0.6192  1.0742 -0.2154
 3435SOL     OW21766   1.781   3.947   9.699  0.4152 -0.6268  0.7463
 3435SOL    HW121767   1.782   3.859   9.660  2.7169 -0.3661  0.1999
 3435SOL    HW221768   1.877   3.948   9.706  0.6457 -1.6765 -2.1291
 3436SOL     OW21769   3.282   3.962  13.768 -0.4993  0.3425 -0.0033
 3436SOL    HW121770   3.200   4.007  13.784  1.2953  3.4575  0.4034
 3436SOL    HW221771   3.249   3.880  13.730  1.4675 -0.8029  0.7427
 3437SOL     OW21772   1.094   3.020  14.927  0.1796  0.8963  0.8228
 3437SOL    HW121773   1.005   3.021  14.893  0.3181 -1.9492  0.3462
 3437SOL    HW221774   1.130   3.096  14.882  0.6026 -0.3799 -0.9909
 3438SOL     OW21775   0.243   0.675   0.281  0.3737  0.0880 -0.2399
 3438SOL    HW121776   0.207   0.589   0.300  1.1949  0.1557  1.6504
 3438SOL    HW221777   0.312   0.676   0.347 -0.2583  0.3599  0.4151
 3439SOL     OW21778   1.045   0.179  12.579  0.7216 -0.6847 -0.4822
 3439SOL    HW121779   0.973   0.226  12.536  0.5530 -0.2289  0.2987
 3439SOL    HW221780   1.019   0.088  12.568  2.0216 -1.1271  0.1423
 3440SOL     OW21781   1.787   1.550   3.030  0.0015 -0.1091  0.2601
 3440SOL    HW121782   1.717   1.492   3.061 -1.2484  0.1218 -2.1511
 3440SOL    HW221783   1.754   1.636   3.057  1.0722  0.2440  0.4432
 3441SOL     OW21784   0.185   3.747   7.815 -0.0677  0.5834 -1.1554
 3441SOL    HW121785   0.110   3.791   7.855  0.4523  0.0338  0.4155
 3441SOL    HW221786   0.249   3.760   7.885 -0.3930  0.2472 -0.7904
 3442SOL     OW21787   2.370   0.506   4.144  0.8211  0.2745  0.2662
 3442SOL    HW121788   2.423   0.450   4.200  0.6264 -0.7763 -0.5941
 3442SOL    HW221789   2.435   0.545   4.085  0.5128  0.6270  0.1595
 3443SOL     OW21790   3.916   3.047   4.625 -0.7623 -0.2505  0.2984
 3443SOL    HW121791   3.882   2.971   4.672  0.5314  0.0324  1.7150
 3443SOL    HW221792   3.964   3.094   4.695 -0.2052 -0.9633  0.3943
 3444SOL     OW21793   1.967   4.022  10.626  0.4756  0.1069  0.1042
 3444SOL    HW121794   1.886   3.987  10.665  1.1162  0.3031  1.6100
 3444SOL    HW221795   2.014   4.025  10.709 -1.2449 -0.0216  1.0845
 3445SOL     OW21796   0.589   3.357   8.838  0.5621 -1.0514  0.6573
 3445SOL    HW121797   0.584   3.299   8.915  0.2928 -0.3721  1.1506
 3445SOL    HW221798   0.634   3.298   8.778  1.9168 -1.0479  1.6614
 3446SOL     OW21799   4.233   0.850   1.966  0.3549  0.1469 -0.2651
 3446SOL    HW121800   4.215   0.810   2.051  0.1190  2.7796  0.9328
 3446SOL    HW221801   4.264   0.773   1.919  0.6483  1.9579 -3.0394
 3447SOL     OW21802   4.390   1.636  14.236 -0.4305 -0.4586 -0.4378
 3447SOL    HW121803   4.475   1.667  14.269 -0.2693 -1.0314 -0.3167
 3447SOL    HW221804   4.334   1.668  14.307  1.4404  2.0444 -0.0486
 3448SOL     OW21805   2.032   4.655   2.555  0.3138  0.2110  0.1119
 3448SOL    HW121806   2.100   4.621   2.613 -0.4565 -0.7119  0.4869
 3448SOL    HW221807   2.009   0.015   2.597  1.8149 -0.8671  3.0504
 3449SOL     OW21808   1.711   1.588   5.098 -0.4070 -0.0018 -0.6191
 3449SOL    HW121809   1.699   1.678   5.069 -1.3349  0.2155  0.4411
 3449SOL    HW221810   1.745   1.545   5.020 -1.4715 -0.3716 -0.8673
 3450SOL     OW21811   2.853   2.401   1.577  0.1728 -0.8445 -0.4539
 3450SOL    HW121812   2.876   2.309   1.566 -1.4081 -1.0438 -2.0574
 3450SOL    HW221813   2.765   2.391   1.613  0.8216  0.3789  1.4389
 3451SOL     OW21814   0.761   1.916   8.329 -0.0765 -0.2093 -0.0359
 3451SOL    HW121815   0.815   1.853   8.282 -0.5865 -0.4279 -0.3286
 3451SOL    HW221816   0.721   1.858   8.394 -1.3277  1.9797  1.1206
 3452SOL     OW21817   0.536   2.787   7.857 -0.1533 -0.4624 -0.1637
 3452SOL    HW121818   0.547   2.698   7.892 -1.6133 -1.8672 -3.3690
 3452SOL    HW221819   0.597   2.804   7.785  0.2834 -0.1253  0.2842
 3453SOL     OW21820   1.493   2.001  11.323  0.0544  0.8941 -0.5334
 3453SOL    HW121821   1.564   1.945  11.293  0.8104  1.0806  0.8887
 3453SOL    HW221822   1.424   1.986  11.258  0.5179 -2.1407 -0.3171
 3454SOL     OW21823   3.842   2.206  17.199 -0.7739  0.8179 -0.1817
 3454SOL    HW121824   3.875   2.209  17.109  3.1774  0.1876  1.2871
 3454SOL    HW221825   3.916   2.236  17.252 -3.0543  0.0108  3.4742
 3455SOL     OW21826   0.899   2.739  17.196  0.2888 -0.4764  0.8442
 3455SOL    HW121827   0.964   2.738  17.125  0.8565 -0.6914  1.3718
 3455SOL    HW221828   0.958   2.767  17.265  1.4996  0.7389 -0.6953
 3456SOL     OW21829   1.541   4.576   4.745  0.5124 -0.0607 -1.2165
 3456SOL    HW121830   1.534   4.517   4.671  0.0885 -0.6177 -0.7355
 3456SOL    HW221831   1.508   4.522   4.817  0.4287 -0.0260 -1.2283
 3457SOL     OW21832   4.105   0.877   6.239 -0.1196  0.2968 -0.0960
 3457SOL    HW121833   4.196   0.903   6.225 -0.4469  2.6364  2.0076
 3457SOL    HW221834   4.098   0.806   6.176 -0.1280  2.0872 -2.1076
 3458SOL     OW21835   3.858   3.419   5.694  0.0930  0.7391  0.1188
 3458SOL    HW121836   3.917   3.485   5.729 -1.8814  2.3743  0.3555
 3458SOL    HW221837   3.795   3.482   5.659  1.4692  1.8795 -0.2828
 3459SOL     OW21838   1.716   2.075   2.884 -0.2293 -0.0059  0.4684
 3459SOL    HW121839   1.781   2.015   2.847  0.8781  0.9565  0.8631
 3459SOL    HW221840   1.638   2.049   2.836 -0.6596  0.3439  0.9758
 3460SOL     OW21841   0.296   0.750   6.611 -0.0187  0.1534 -0.0642
 3460SOL    HW121842   0.326   0.771   6.699  1.3535 -0.4525 -0.3924
 3460SOL    HW221843   0.207   0.725   6.636  1.1290 -2.2842  1.5983
 3461SOL     OW21844   3.926   4.693   9.740 -0.1512 -0.8464  0.0847
 3461SOL    HW121845   3.838   4.668   9.768 -0.1948  0.3565  1.0137
 3461SOL    HW221846   3.980   4.666   9.815 -1.6214 -0.8835  1.1269
 3462SOL     OW21847   1.214   0.105   4.270 -0.0175  0.1088  0.0537
 3462SOL    HW121848   1.218   0.011   4.286  1.4204  0.0723 -0.4757
 3462SOL    HW221849   1.299   0.124   4.310  0.3598 -0.6753 -0.3863
 3463SOL     OW21850   0.668   0.268   7.264  0.6584 -0.3701  0.1076
 3463SOL    HW121851   0.725   0.313   7.326 -0.7410  2.8126 -0.9392
 3463SOL    HW221852   0.673   0.335   7.196 -2.3646  0.0022  0.2479
 3464SOL     OW21853   1.526   3.018   3.233  0.4020 -0.1839  0.0776
 3464SOL    HW121854   1.466   3.007   3.159  0.7384  1.0283 -0.3608
 3464SOL    HW221855   1.545   2.926   3.251 -1.3132 -0.1351  2.1535
 3465SOL     OW21856   1.567   3.025  17.598  0.1341 -0.0053 -0.6863
 3465SOL    HW121857   1.529   3.112  17.609 -0.1547 -0.2360  0.1124
 3465SOL    HW221858   1.656   3.028  17.634 -0.1799  0.0838  0.0782
 3466SOL     OW21859   2.440   2.008   7.725  0.0162  0.0205  0.3423
 3466SOL    HW121860   2.382   2.005   7.801 -0.8225 -1.2364 -0.3449
 3466SOL    HW221861   2.442   2.102   7.711 -1.1389  0.1232  0.8295
 3467SOL     OW21862   1.666   4.513   2.804  0.0350  0.8393  0.0800
 3467SOL    HW121863   1.625   4.504   2.718  0.5777 -2.6213  0.1713
 3467SOL    HW221864   1.638   4.602   2.822 -0.0817  0.9809 -0.7676
 3468SOL     OW21865   4.433   1.811   0.828  0.4882 -0.4336 -0.3069
 3468SOL    HW121866   4.398   1.732   0.869 -0.7598 -0.8565 -2.1588
 3468SOL    HW221867   4.362   1.872   0.850 -0.4411 -1.0595 -1.5478
 3469SOL     OW21868   1.227   3.693   3.047  0.2513  0.1802  0.2408
 3469SOL    HW121869   1.238   3.700   2.952  0.7278 -3.1340  0.0366
 3469SOL    HW221870   1.244   3.783   3.073 -1.5452  0.1234  1.5855
 3470SOL     OW21871   3.702   1.982   6.591  0.0223  0.2207 -0.1234
 3470SOL    HW121872   3.610   1.962   6.573 -0.2720  1.2214  0.2616
 3470SOL    HW221873   3.696   2.058   6.650 -0.7750 -0.2259  0.3850
 3471SOL     OW21874   4.707   0.746  11.649  0.4737 -0.0386  0.1072
 3471SOL    HW121875   0.031   0.759  11.566  0.6543  0.2889  0.2588
 3471SOL    HW221876   4.656   0.826  11.634  0.7589  0.8227  3.7812
 3472SOL     OW21877   1.864   1.631  13.734 -0.3793 -0.1045 -0.7190
 3472SOL    HW121878   1.871   1.647  13.828 -0.2280 -1.3220 -0.5261
 3472SOL    HW221879   1.910   1.547  13.725 -1.2021 -0.7258  0.9295
 3473SOL     OW21880   1.361   1.174  14.741 -0.3775  0.1286 -0.4385
 3473SOL    HW121881   1.273   1.136  14.750 -0.3605  0.1260 -0.2937
 3473SOL    HW221882   1.375   1.217  14.824 -0.7086 -0.0910 -0.2658
 3474SOL     OW21883   0.943   1.973   6.347 -0.0553  0.0140  0.4114
 3474SOL    HW121884   0.930   1.907   6.415  0.6324 -0.6610 -0.1088
 3474SOL    HW221885   0.966   2.050   6.399  1.0187  0.0760 -0.1553
 3475SOL     OW21886   4.709   2.363   8.522 -0.0883 -0.1140 -0.0612
 3475SOL    HW121887   4.646   2.373   8.450  0.2296  1.3103 -0.1375
 3475SOL    HW221888   4.663   2.402   8.597  0.8534 -0.8078  0.8868
 3476SOL     OW21889   4.187   0.971   9.782  0.2785 -0.3823  0.2170
 3476SOL    HW121890   4.163   0.970   9.875 -0.5810  0.7953  0.0030
 3476SOL    HW221891   4.172   1.063   9.763 -0.1187 -0.2420  1.2116
 3477SOL     OW21892   3.009   0.200   8.801  0.0952  0.2359  0.1303
 3477SOL    HW121893   2.945   0.131   8.785 -0.1093  0.5607 -0.4729
 3477SOL    HW221894   3.077   0.160   8.747  0.2413 -1.2377  1.4051
 3478SOL     OW21895   4.476   3.726   0.274 -0.4206  0.4231 -0.1652
 3478SOL    HW121896   4.470   3.716   0.369  0.6400  1.4644  0.0179
 3478SOL    HW221897   4.483   3.637   0.241  2.1771  0.0738  1.3211
 3479SOL     OW21898   1.968   3.599   5.415  0.0405 -0.1542  0.3091
 3479SOL    HW121899   1.892   3.597   5.473 -0.6117 -0.9675 -0.5721
 3479SOL    HW221900   1.941   3.540   5.345  0.8614 -0.7320  0.4828
 3480SOL     OW21901   4.068   2.654  11.258 -0.0418 -0.1433  0.0756
 3480SOL    HW121902   4.103   2.714  11.193  1.5714  0.9694  1.9694
 3480SOL    HW221903   4.116   2.692  11.332  2.8716 -1.9397 -0.9124
 3481SOL     OW21904   4.087   3.040  14.683 -0.0139  0.2942 -0.3389
 3481SOL    HW121905   3.993   3.025  14.693 -0.2973  2.4503  0.1790
 3481SOL    HW221906   4.096   3.043  14.588  1.2973 -0.0625 -0.2339
 3482SOL     OW21907   1.785   3.624   3.029  0.2518 -0.4467 -0.4417
 3482SOL    HW121908   1.811   3.611   3.120 -1.4442 -1.6435 -0.1435
 3482SOL    HW221909   1.866   3.609   2.980 -0.0261 -2.8847 -0.1275
 3483SOL     OW21910   2.751   3.287   8.811  0.7232 -0.4933 -0.1624
 3483SOL    HW121911   2.706   3.368   8.786  2.4207  0.9478  1.4052
 3483SOL    HW221912   2.788   3.259   8.727  0.2005  0.4440 -0.7066
 3484SOL     OW21913   4.458   1.587   4.825  0.0839  0.0132 -0.3312
 3484SOL    HW121914   4.385   1.536   4.791 -0.9697  0.7381  0.8444
 3484SOL    HW221915   4.441   1.590   4.919  0.3552  1.3990 -0.3283
 3485SOL     OW21916   2.648   4.139   7.038 -0.2002 -0.3337  0.2098
 3485SOL    HW121917   2.697   4.177   7.111  0.7378 -2.1153  0.5182
 3485SOL    HW221918   2.561   4.159   7.071 -0.3760 -1.3160  0.3475
 3486SOL     OW21919   0.571   2.594   7.239 -0.2130 -0.5464  0.3597
 3486SOL    HW121920   0.478   2.592   7.260 -0.1242  0.4071  0.8266
 3486SOL    HW221921   0.603   2.505   7.223  0.8178 -0.0751 -0.2345
 3487SOL     OW21922   2.362   3.663  10.808 -0.0449  0.5941  0.1617
 3487SOL    HW121923   2.358   3.664  10.712  0.3472  1.7766  0.1635
 3487SOL    HW221924   2.276   3.703  10.823 -0.1958  0.4725 -0.3794
 3488SOL     OW21925   1.396   3.368  12.599 -0.1572 -0.0244 -0.2370
 3488SOL    HW121926   1.441   3.332  12.675 -1.7631  1.2581  1.2921
 3488SOL    HW221927   1.351   3.441  12.640  0.9654 -0.0849  1.0930
 3489SOL     OW21928   0.827   1.677   1.987 -0.6380  0.2717 -0.2153
 3489SOL    HW121929   0.914   1.685   1.947 -0.8427 -1.3034 -0.9667
 3489SOL    HW221930   0.851   1.642   2.073  0.3070  2.3009  0.3544
 3490SOL     OW21931   2.477   3.587  12.647 -0.3045 -0.1092  0.3592
 3490SOL    HW121932   2.503   3.679  12.655  0.5499 -0.3973  0.8578
 3490SOL    HW221933   2.525   3.545  12.718 -2.1028 -1.0693  0.9814
 3491SOL     OW21934   2.223   0.777   6.853  0.0546  0.5046  0.0652
 3491SOL    HW121935   2.280   0.850   6.877 -0.1105  0.0217  1.8933
 3491SOL    HW221936   2.290   0.710   6.838 -0.2107 -0.0409  1.3043
 3492SOL     OW21937   1.947   0.821   1.920  0.4340  0.7065  0.8153
 3492SOL    HW121938   2.024   0.864   1.883  0.6849  1.5064  2.2887
 3492SOL    HW221939   1.981   0.786   2.003  0.0651 -1.1290  0.1941
 3493SOL     OW21940   4.690   1.554   8.125  0.0183  0.5746  0.0651
 3493SOL    HW121941   4.653   1.524   8.041 -1.2487 -0.5488  1.0332
 3493SOL    HW221942   0.030   1.485   8.143  0.1251  0.5067 -0.5448
 3494SOL     OW21943   3.377   2.777   5.394 -0.3359 -0.0923  0.5758
 3494SOL    HW121944   3.416   2.860   5.422  1.0198  0.3271 -2.5318
 3494SOL    HW221945   3.286   2.808   5.384 -0.5120  0.2399  3.0428
 3495SOL     OW21946   1.539   4.406   4.021  0.1790  0.1969 -0.0241
 3495SOL    HW121947   1.473   4.368   4.079 -0.3316 -0.7617 -1.2231
 3495SOL    HW221948   1.610   4.342   4.028  0.0206  0.2214  1.6520
 3496SOL     OW21949   3.509   3.267  14.612  0.6431  0.0012  0.4023
 3496SOL    HW121950   3.453   3.197  14.647 -0.5263  0.0546 -1.3456
 3496SOL    HW221951   3.503   3.248  14.519  0.4002  2.8596 -0.1647
 3497SOL     OW21952   0.387   1.160   6.381 -0.1050  0.6894 -0.6067
 3497SOL    HW121953   0.316   1.166   6.317 -2.3184 -0.3549  1.7996
 3497SOL    HW221954   0.334   1.158   6.460 -1.2683 -0.9728 -1.4343
 3498SOL     OW21955   0.875   0.030  14.038 -0.1787  0.3821  0.0103
 3498SOL    HW121956   0.896   0.116  14.074  0.0072  0.1033  0.5630
 3498SOL    HW221957   0.791   0.023  14.083  1.0580  1.5792  2.4846
 3499SOL     OW21958   3.243   3.119   6.011 -0.4044  0.0884 -0.3193
 3499SOL    HW121959   3.254   3.129   5.917  0.9277 -0.6059 -0.2317
 3499SOL    HW221960   3.153   3.086   6.016 -0.1412 -0.8944 -2.3813
 3500SOL     OW21961   0.435   1.589  10.439  0.1465  0.8418 -0.3334
 3500SOL    HW121962   0.408   1.629  10.521  0.4185  1.9830 -0.7997
 3500SOL    HW221963   0.530   1.590  10.450 -0.1880 -0.3653  2.7135
 3501SOL     OW21964   3.769   1.979   3.018 -0.1861 -0.0806 -0.2988
 3501SOL    HW121965   3.760   1.884   3.009  1.5704 -0.4084  1.4744
 3501SOL    HW221966   3.693   1.997   3.073  2.1349  3.5439  1.6673
 3502SOL     OW21967   1.675   1.115   3.231  0.3944 -0.7419 -0.5645
 3502SOL    HW121968   1.720   1.200   3.228  1.9025 -1.5006  0.5109
 3502SOL    HW221969   1.718   1.065   3.301 -0.0485  0.0106  0.2533
 3503SOL     OW21970   3.695   1.586   2.616 -0.4619  0.3646 -0.2072
 3503SOL    HW121971   3.622   1.601   2.676 -1.2439 -0.7705 -0.8635
 3503SOL    HW221972   3.673   1.503   2.573 -1.6549  0.6708 -0.1655
 3504SOL     OW21973   0.978   3.452   2.665  0.1394 -0.1999 -0.7113
 3504SOL    HW121974   1.015   3.370   2.631 -1.4610 -0.7811 -1.0550
 3504SOL    HW221975   1.036   3.519   2.629 -0.6585  0.1832 -1.2869
 3505SOL     OW21976   1.089   3.851  17.484  0.0921 -0.1028  0.9765
 3505SOL    HW121977   1.098   3.935  17.529 -4.0186  0.3232  1.0112
 3505SOL    HW221978   0.997   3.833  17.501  0.1253  2.4554  4.0105
 3506SOL     OW21979   2.120   0.512   9.912 -0.9504  0.5040  0.4257
 3506SOL    HW121980   2.159   0.486   9.829 -0.6522 -2.0138  1.3541
 3506SOL    HW221981   2.152   0.601   9.925 -0.9044  0.2408  2.1418
 3507SOL     OW21982   1.046   0.363   4.605 -0.3212  0.5189 -0.3315
 3507SOL    HW121983   1.138   0.338   4.611  0.0425  1.2960 -2.5860
 3507SOL    HW221984   1.037   0.349   4.511 -1.6944 -2.3517  0.2159
 3508SOL     OW21985   3.217   3.172   9.787  0.1621  0.1933  0.3336
 3508SOL    HW121986   3.275   3.177   9.711  1.7069  0.5679  1.5414
 3508SOL    HW221987   3.227   3.262   9.816  0.8657 -0.3048  1.6462
 3509SOL     OW21988   4.331   3.599   0.867  0.4366 -0.1785  0.5401
 3509SOL    HW121989   4.250   3.587   0.917  0.6075 -0.4452  0.7527
 3509SOL    HW221990   4.366   3.511   0.874 -0.9738 -0.7260  0.6511
 3510SOL     OW21991   2.379   4.454   6.597 -0.2301 -0.0022 -0.2682
 3510SOL    HW121992   2.468   4.471   6.628 -0.6030  2.1122 -0.3669
 3510SOL    HW221993   2.392   4.419   6.508  1.5073  1.5905 -0.6407
 3511SOL     OW21994   3.075   4.339   7.166  0.3805 -0.2318 -0.2415
 3511SOL    HW121995   3.147   4.340   7.229 -2.2901  0.9513  2.7783
 3511SOL    HW221996   3.101   4.259   7.121 -0.5782 -0.9524  0.5217
 3512SOL     OW21997   2.311   0.224  17.411  0.4988  0.5391  0.3521
 3512SOL    HW121998   2.235   0.198  17.358  1.0378 -0.7344  0.2262
 3512SOL    HW221999   2.334   0.298  17.354  1.9816 -0.7065 -0.6400
 3513SOL     OW22000   2.730   1.226   3.777 -0.6735  0.1998 -0.1028
 3513SOL    HW122001   2.754   1.317   3.792  0.3380 -0.4239  2.1270
 3513SOL    HW222002   2.635   1.226   3.768 -0.6639  1.0398 -0.1963
 3514SOL     OW22003   0.192   1.118   4.985  0.3216 -0.1812  0.0907
 3514SOL    HW122004   0.220   1.031   4.957  0.2897 -0.3179  0.4816
 3514SOL    HW222005   0.167   1.095   5.075  0.3227 -0.5781 -0.0099
 3515SOL     OW22006   1.874   4.073   5.594 -0.2045 -0.6066 -0.2647
 3515SOL    HW122007   1.929   4.073   5.673  2.6297 -2.6461 -2.2361
 3515SOL    HW222008   1.884   3.993   5.542 -1.5928 -0.3190 -0.9705
 3516SOL     OW22009   2.204   0.752   3.173  0.1637  0.3612  0.2829
 3516SOL    HW122010   2.203   0.680   3.110 -3.1151  1.6073 -1.0686
 3516SOL    HW222011   2.151   0.814   3.124 -0.8260 -0.9374 -0.3021
 3517SOL     OW22012   4.601   3.271   8.992 -0.7431 -0.5281  0.4223
 3517SOL    HW122013   4.666   3.279   8.923 -0.4822  0.9588  0.8524
 3517SOL    HW222014   4.570   3.181   8.984 -0.8506 -0.5534  1.1454
 3518SOL     OW22015   1.763   3.653  11.910  0.3250  0.0066  0.4413
 3518SOL    HW122016   1.839   3.595  11.911 -0.8009 -1.5133 -0.9671
 3518SOL    HW222017   1.788   3.714  11.841  0.3351 -0.5249 -0.0237
 3519SOL     OW22018   0.458   2.831   0.931 -0.6610  0.1557  0.5196
 3519SOL    HW122019   0.533   2.773   0.920  0.4166  1.7869 -0.8302
 3519SOL    HW222020   0.464   2.830   1.026 -0.2467  0.0971  0.4932
 3520SOL     OW22021   1.591   1.383   7.898 -0.3666  0.1106 -0.0748
 3520SOL    HW122022   1.624   1.317   7.836 -0.9618  0.4958 -0.8031
 3520SOL    HW222023   1.500   1.354   7.908 -0.3867  1.0384  2.3902
 3521SOL     OW22024   0.746   3.367   7.751 -0.2823 -0.0595 -0.1911
 3521SOL    HW122025   0.788   3.281   7.755 -0.4084 -0.0538  1.3382
 3521SOL    HW222026   0.669   3.358   7.807 -0.0766  2.1824  0.4817
 3522SOL     OW22027   3.310   0.383   5.209  0.0290  0.6136  0.4216
 3522SOL    HW122028   3.226   0.411   5.244 -0.8567 -0.7708 -0.5854
 3522SOL    HW222029   3.334   0.456   5.151 -2.2157  0.0149 -1.2566
 3523SOL     OW22030   4.358   3.295   6.445  0.3959 -0.5704  0.1204
 3523SOL    HW122031   4.376   3.389   6.441  0.0745 -0.3119  4.0886
 3523SOL    HW222032   4.347   3.265   6.355 -2.5903  0.1288  0.2532
 3524SOL     OW22033   4.254   0.297   6.859  0.7496 -0.3645 -0.0287
 3524SOL    HW122034   4.236   0.284   6.952  1.2327 -0.8058  0.0008
 3524SOL    HW222035   4.167   0.327   6.833  1.1869  0.2113 -0.8002
 3525SOL     OW22036   2.969   0.481  15.897  0.1207 -0.1867  0.3002
 3525SOL    HW122037   2.943   0.475  15.805 -0.2033 -2.1094  0.5184
 3525SOL    HW222038   2.891   0.496  15.951  0.0443  1.3595 -0.2476
 3526SOL     OW22039   2.700   0.763  15.811 -0.3595  0.1601 -0.0341
 3526SOL    HW122040   2.671   0.826  15.746 -0.0989  0.6571  0.3298
 3526SOL    HW222041   2.771   0.813  15.851 -1.3248 -0.2832  2.2425
 3527SOL     OW22042   4.489   0.990   8.970 -0.0728 -0.7011 -0.8163
 3527SOL    HW122043   4.503   0.899   8.996  0.4210 -0.7429 -1.2337
 3527SOL    HW222044   4.399   1.002   8.999  0.2914 -0.1245  0.0922
 3528SOL     OW22045   2.357   3.561   2.558 -0.3511  0.0613 -0.4799
 3528SOL    HW122046   2.270   3.599   2.547 -0.1325  0.0659 -2.1944
 3528SOL    HW222047   2.357   3.493   2.491 -1.2733  0.0049 -0.4258
 3529SOL     OW22048   0.649   4.322  12.667  0.0764  0.7105 -0.1539
 3529SOL    HW122049   0.706   4.249  12.691 -0.3166 -0.0272 -1.4363
 3529SOL    HW222050   0.611   4.291  12.584 -1.1859  3.0041 -0.4439
 3530SOL     OW22051   2.745   0.155   5.651 -0.4545  0.0106  0.3082
 3530SOL    HW122052   2.681   0.144   5.721  0.6057  0.4724  1.3657
 3530SOL    HW222053   2.814   0.209   5.691 -0.2266  0.5263 -0.7909
 3531SOL     OW22054   3.702   4.525   5.221 -0.1281 -0.8194 -0.7678
 3531SOL    HW122055   3.764   4.494   5.155  1.2898 -1.5087  0.9124
 3531SOL    HW222056   3.736   4.610   5.249  0.5119 -0.8514 -1.4433
 3532SOL     OW22057   2.294   0.898   5.414 -0.5938  0.2459 -0.2883
 3532SOL    HW122058   2.348   0.975   5.430 -0.1592 -0.2081  0.3778
 3532SOL    HW222059   2.364   0.835   5.397  0.2482  0.9034  0.8038
 3533SOL     OW22060   2.062   3.194   2.627 -0.8071  0.2420  0.0249
 3533SOL    HW122061   2.009   3.216   2.704 -0.9033 -0.5508  0.1766
 3533SOL    HW222062   2.153   3.194   2.655 -0.5543 -1.1526 -0.8307
 3534SOL     OW22063   0.455   2.420  10.761  0.0198 -0.0821  0.0884
 3534SOL    HW122064   0.362   2.431  10.780  0.0070  3.0474 -1.6694
 3534SOL    HW222065   0.465   2.497  10.705 -0.8870 -0.3815 -0.4834
 3535SOL     OW22066   2.414   1.789   2.625  0.0717 -0.2861  0.3497
 3535SOL    HW122067   2.397   1.765   2.534  1.3685 -1.9093  0.5410
 3535SOL    HW222068   2.471   1.716   2.650  1.3879  0.6266  0.0142
 3536SOL     OW22069   2.136   4.254   9.348  0.1481 -0.6262  0.0268
 3536SOL    HW122070   2.184   4.223   9.271  0.7015 -0.7046  0.4023
 3536SOL    HW222071   2.118   4.170   9.390 -0.8087 -0.2026  0.4362
 3537SOL     OW22072   2.088   3.602  13.003 -0.0240 -0.1806 -0.0646
 3537SOL    HW122073   2.059   3.570  12.918  0.8664  0.2483 -0.5266
 3537SOL    HW222074   2.172   3.642  12.981 -0.3815  0.2944 -0.5683
 3538SOL     OW22075   0.042   4.631   0.449 -0.2181  0.0007 -0.3964
 3538SOL    HW122076   4.670   4.647   0.449 -0.0299  1.1632  0.8007
 3538SOL    HW222077   0.051   4.578   0.370  0.3778 -0.7522  0.1759
 3539SOL     OW22078   4.103   3.058   5.451 -0.2913  0.0274 -0.4977
 3539SOL    HW122079   4.063   3.145   5.446 -1.7148 -0.6342 -0.8453
 3539SOL    HW222080   4.095   3.049   5.546  0.5043 -3.4763 -0.7410
 3540SOL     OW22081   0.390   3.467   1.151 -0.3789  0.6977 -0.0943
 3540SOL    HW122082   0.411   3.547   1.102  0.9786 -0.3652 -1.2423
 3540SOL    HW222083   0.425   3.394   1.099  2.3129  0.6006  1.8368
 3541SOL     OW22084   0.732   1.698   9.686  0.6769  0.2685  0.4655
 3541SOL    HW122085   0.821   1.701   9.652 -0.1250  0.5988 -1.6034
 3541SOL    HW222086   0.678   1.743   9.621 -0.6425 -0.1448  1.2779
 3542SOL     OW22087   3.011   4.493  15.326 -0.2712 -0.0826  0.3536
 3542SOL    HW122088   3.103   4.513  15.308  0.5522 -1.1576  3.3954
 3542SOL    HW222089   3.001   4.548  15.405  0.6663 -0.4366  0.7221
 3543SOL     OW22090   3.583   4.660  12.160  0.5357 -0.2040  0.2805
 3543SOL    HW122091   3.655   4.712  12.196  2.0704 -1.6160 -0.7791
 3543SOL    HW222092   3.594   4.691  12.070 -0.1881  1.5842  0.7921
 3544SOL     OW22093   0.622   2.211   3.540 -0.4880 -0.3429 -0.5051
 3544SOL    HW122094   0.646   2.297   3.507 -0.8939  0.3022  0.9153
 3544SOL    HW222095   0.630   2.213   3.635  0.6139  0.2086 -0.6094
 3545SOL     OW22096   1.782   0.891   1.144 -0.1703 -0.1662 -0.2353
 3545SOL    HW122097   1.853   0.951   1.165 -0.6607  0.5822 -0.7317
 3545SOL    HW222098   1.821   0.874   1.058  0.7321  0.7372 -0.0073
 3546SOL     OW22099   0.183   2.009   6.592 -0.1921  0.0393 -0.0001
 3546SOL    HW122100   0.139   2.034   6.511 -0.6609  0.0016  0.2404
 3546SOL    HW222101   0.119   2.031   6.659 -0.7803  0.6508 -0.7640
 3547SOL     OW22102   1.317   0.464   0.671 -0.1348 -0.6796 -0.5975
 3547SOL    HW122103   1.222   0.470   0.661 -0.1619  0.0119  0.0527
 3547SOL    HW222104   1.335   0.549   0.631 -0.3971  0.3754  1.5362
 3548SOL     OW22105   0.360   2.834   4.485 -0.1581 -0.1839 -0.2417
 3548SOL    HW122106   0.411   2.765   4.442 -1.3031  0.8564 -3.2881
 3548SOL    HW222107   0.345   2.894   4.412  1.9544 -1.5128 -1.7626
 3549SOL     OW22108   2.244   1.968   3.807  0.8041  0.4442 -0.0352
 3549SOL    HW122109   2.164   2.012   3.835  1.2026  2.1198 -1.5694
 3549SOL    HW222110   2.228   1.944   3.716  0.5619  0.8199 -0.0915
 3550SOL     OW22111   4.715   1.112   9.278 -0.5401 -0.4715  0.1930
 3550SOL    HW122112   0.032   1.096   9.364 -0.7263 -0.8919  0.2007
 3550SOL    HW222113   4.687   1.204   9.281  1.1265  0.0027  1.5030
 3551SOL     OW22114   4.150   2.740   7.882  0.2044  0.7393  0.3363
 3551SOL    HW122115   4.220   2.753   7.946 -0.0241 -0.1462  0.7637
 3551SOL    HW222116   4.167   2.817   7.827 -0.4384  2.0015  1.9088
 3552SOL     OW22117   0.232   2.457   8.544 -0.8460 -0.6534  0.0162
 3552SOL    HW122118   0.140   2.431   8.541 -0.7852 -0.8988  0.2427
 3552SOL    HW222119   0.247   2.507   8.464  1.8310 -2.0160 -0.3206
 3553SOL     OW22120   3.144   2.842   0.366 -0.1092  0.1998  0.5949
 3553SOL    HW122121   3.093   2.869   0.442 -1.1863 -1.0243  0.3095
 3553SOL    HW222122   3.167   2.922   0.319 -0.8707  0.1704  0.1653
 3554SOL     OW22123   0.663   3.701   5.576  0.3811  0.5163  1.0880
 3554SOL    HW122124   0.652   3.639   5.504 -2.9449  1.9859  0.3295
 3554SOL    HW222125   0.688   3.777   5.524 -2.8652  0.5261 -0.4651
 3555SOL     OW22126   2.658   2.096   0.002 -0.4319 -0.3714 -0.4071
 3555SOL    HW122127   2.599   2.168  17.677 -0.9471 -0.5715  0.4198
 3555SOL    HW222128   2.729   2.138   0.051  0.4332 -3.2008  0.7938
 3556SOL     OW22129   0.482   2.991   1.359  0.1287 -0.2808 -0.1350
 3556SOL    HW122130   0.424   3.002   1.434 -1.3633 -1.0619 -1.1798
 3556SOL    HW222131   0.446   3.051   1.293  0.4255  1.1692  1.0209
 3557SOL     OW22132   0.709   3.957   1.042  0.0434  0.4713 -0.0436
 3557SOL    HW122133   0.671   4.041   1.069 -0.2609 -0.0515  1.1104
 3557SOL    HW222134   0.799   3.962   1.074  0.1007  1.7133 -0.3778
 3558SOL     OW22135   1.446   3.180   6.614 -0.5428  0.2386  0.5824
 3558SOL    HW122136   1.518   3.151   6.670  0.2004  0.5897 -0.1855
 3558SOL    HW222137   1.489   3.171   6.529 -1.4290 -2.2574  0.4001
 3559SOL     OW22138   4.427   2.136  16.248  0.0323 -0.3732 -0.3279
 3559SOL    HW122139   4.343   2.093  16.231 -0.5508  0.5604  0.1753
 3559SOL    HW222140   4.452   2.080  16.321 -0.4871 -0.4282 -0.1955
 3560SOL     OW22141   2.496   1.138   2.340 -0.2914  0.4881 -0.0065
 3560SOL    HW122142   2.479   1.195   2.266 -1.3576  0.9154  0.5748
 3560SOL    HW222143   2.476   1.199   2.411 -1.2029 -0.6448  0.7243
 3561SOL     OW22144   2.969   3.175   8.035  0.1597 -0.1375  0.5551
 3561SOL    HW122145   2.996   3.245   8.094  2.8059 -1.3597  0.8035
 3561SOL    HW222146   2.984   3.100   8.092 -1.3406 -1.1407 -0.3711
 3562SOL     OW22147   1.620   2.589   5.139 -0.1314  0.3012  0.1435
 3562SOL    HW122148   1.589   2.522   5.199 -2.4960 -0.0676 -1.5122
 3562SOL    HW222149   1.539   2.625   5.104  0.6967  1.5007 -0.5641
 3563SOL     OW22150   4.399   0.016  15.458  0.4404 -0.1252 -0.1497
 3563SOL    HW122151   4.433   0.006  15.370  2.4310  0.9363  0.4929
 3563SOL    HW222152   4.449   0.094  15.484 -1.4342  0.7945  0.7094
 3564SOL     OW22153   1.895   1.147  15.579 -0.5161 -0.0600  0.0603
 3564SOL    HW122154   1.888   1.180  15.489 -2.7770 -0.3566  0.1291
 3564SOL    HW222155   1.986   1.123  15.566 -1.1793 -3.8208  2.2648
 3565SOL     OW22156   0.691   3.128  17.569 -0.0414 -0.4626  0.1378
 3565SOL    HW122157   0.694   3.057  17.505  0.8727 -3.2523  3.3058
 3565SOL    HW222158   0.783   3.157  17.564  0.2773 -1.3067  1.2844
 3566SOL     OW22159   4.700   4.371   7.769 -0.1908 -0.3890 -0.5686
 3566SOL    HW122160   4.678   4.431   7.841  1.8556  0.2714 -0.4797
 3566SOL    HW222161   0.073   4.375   7.774 -0.3100  0.2209  1.2580
 3567SOL     OW22162   4.461   4.336   0.457  0.5841 -0.5974 -0.4699
 3567SOL    HW122163   4.465   4.423   0.419 -1.5859 -0.9991 -1.6754
 3567SOL    HW222164   4.418   4.278   0.393 -1.5619 -1.2398  1.5286
 3568SOL     OW22165   3.622   2.516   8.504  0.2173  0.0117 -0.2431
 3568SOL    HW122166   3.596   2.425   8.516  2.5184 -0.3497  2.0239
 3568SOL    HW222167   3.674   2.514   8.424  1.2132 -0.0545  0.3921
 3569SOL     OW22168   0.261   0.896   6.879 -0.1551 -0.3267  0.2914
 3569SOL    HW122169   0.177   0.860   6.908 -1.8076  1.1348 -2.6998
 3569SOL    HW222170   0.291   0.937   6.960 -0.3917 -1.4551  0.9415
 3570SOL     OW22171   3.139   1.772   9.450  0.0800 -0.2495 -0.0204
 3570SOL    HW122172   3.132   1.679   9.475 -0.1572  0.4115  2.3828
 3570SOL    HW222173   3.149   1.814   9.536  1.5778 -0.7203  0.0329
 3571SOL     OW22174   1.403   1.985   0.443 -0.0842 -0.6082 -0.2205
 3571SOL    HW122175   1.347   2.050   0.400  0.7533 -1.0986 -2.0829
 3571SOL    HW222176   1.337   1.957   0.507  1.3426 -0.7261  1.1864
 3572SOL     OW22177   1.711   2.694  13.554  0.1324 -0.3314  0.0753
 3572SOL    HW122178   1.758   2.680  13.636  2.8070  1.6358 -1.1567
 3572SOL    HW222179   1.711   2.790  13.555  0.0251 -0.3300  0.0098
 3573SOL     OW22180   4.044   1.452  12.263  0.3849  0.2061  0.2797
 3573SOL    HW122181   3.979   1.521  12.270 -1.4696 -1.3833 -1.3496
 3573SOL    HW222182   4.012   1.377  12.314  1.1362 -0.1575  0.2208
 3574SOL     OW22183   1.162   2.733  15.872 -0.3978 -0.3506 -0.0404
 3574SOL    HW122184   1.160   2.725  15.776  0.8178 -3.3653  0.2057
 3574SOL    HW222185   1.077   2.691  15.883 -0.7925  0.6117  0.5408
 3575SOL     OW22186   0.141   2.286  10.733  0.0442  0.0768  0.4117
 3575SOL    HW122187   0.211   2.226  10.709  0.8334 -0.0982  3.1789
 3575SOL    HW222188   0.162   2.351  10.665  1.8266 -0.8084  0.1200
 3576SOL     OW22189   0.435   3.680   0.997  0.1728 -0.1335  0.4345
 3576SOL    HW122190   0.505   3.691   0.932 -1.4801 -0.9025 -1.4690
 3576SOL    HW222191   0.404   3.771   0.998  0.0338 -0.1733 -0.7327
 3577SOL     OW22192   3.488   0.344  11.470  0.0688 -0.1412  0.1817
 3577SOL    HW122193   3.506   0.433  11.500 -2.2201  0.0820  0.8361
 3577SOL    HW222194   3.571   0.296  11.478 -1.7578 -3.3704 -0.2500
 3578SOL     OW22195   1.392   3.357   1.371  0.4256  0.5217 -0.0273
 3578SOL    HW122196   1.338   3.364   1.292  0.9843 -0.2231 -0.4691
 3578SOL    HW222197   1.345   3.401   1.442 -0.5247 -0.2871 -0.1387
 3579SOL     OW22198   3.207   2.919   4.208 -0.0104  0.4849  0.6685
 3579SOL    HW122199   3.222   2.924   4.113 -0.9477  3.3957  0.6728
 3579SOL    HW222200   3.114   2.902   4.222  0.2263  1.9404  3.8790
 3580SOL     OW22201   4.271   3.917   5.671  0.4052  0.1994  0.2989
 3580SOL    HW122202   4.359   3.947   5.694  0.8378 -1.0086  0.2009
 3580SOL    HW222203   4.284   3.836   5.622  1.1912  0.2151  0.4921
 3581SOL     OW22204   0.518   2.260   6.606 -0.6229 -0.0576 -0.1488
 3581SOL    HW122205   0.441   2.263   6.663 -0.1699 -0.5854  0.4932
 3581SOL    HW222206   0.550   2.171   6.622  0.7926  0.3696 -0.6242
 3582SOL     OW22207   2.463   0.496   8.759  0.1620 -0.0313 -0.4887
 3582SOL    HW122208   2.481   0.570   8.817 -0.1400  0.0374 -0.4836
 3582SOL    HW222209   2.545   0.487   8.711  1.1839  0.6769  1.1495
 3583SOL     OW22210   2.909   0.957   0.393  0.3571  0.0556 -0.0865
 3583SOL    HW122211   2.984   1.003   0.355 -0.8079  1.0819 -1.1390
 3583SOL    HW222212   2.842   0.993   0.335  0.1102  0.3925  0.4017
 3584SOL     OW22213   1.319   1.913   6.196 -0.4917  0.0474  0.1167
 3584SOL    HW122214   1.235   1.951   6.172 -0.9461 -0.3718  1.0262
 3584SOL    HW222215   1.318   1.915   6.292 -2.3451 -2.2336  0.1735
 3585SOL     OW22216   4.425   3.886  17.617  0.1913 -0.3942 -0.3292
 3585SOL    HW122217   4.380   3.813  17.574 -1.0378 -0.1481  0.5407
 3585SOL    HW222218   4.499   3.899  17.558 -0.2607 -0.7755 -0.9786
 3586SOL     OW22219   1.724   1.918   3.934  0.0882 -0.1785 -0.1676
 3586SOL    HW122220   1.688   1.918   4.023  0.5245 -1.1066  0.0074
 3586SOL    HW222221   1.694   2.000   3.895 -1.0715  0.2956  1.7234
 3587SOL     OW22222   3.605   2.229   8.886  0.5089  0.0237  0.9485
 3587SOL    HW122223   3.540   2.159   8.876  1.7697 -0.8104 -1.5265
 3587SOL    HW222224   3.619   2.233   8.980  1.2357  1.3380  0.7797
 3588SOL     OW22225   2.977   2.620   8.479  0.2071  0.1376  0.3443
 3588SOL    HW122226   2.999   2.713   8.468  1.0875  0.0899  1.5863
 3588SOL    HW222227   2.894   2.627   8.434  0.2898 -3.6759 -0.4094
 3589SOL     OW22228   3.370   2.109   8.764 -0.3789 -0.0461  0.0488
 3589SOL    HW122229   3.309   2.053   8.716  0.4601 -0.7483 -0.1936
 3589SOL    HW222230   3.301   2.163   8.802  2.2817  3.7561 -0.5358
 3590SOL     OW22231   2.469   0.160  13.625  0.1641 -0.4029 -0.6425
 3590SOL    HW122232   2.415   0.234  13.600  1.3143  0.4103 -0.7001
 3590SOL    HW222233   2.418   0.081  13.604 -0.9551  0.6004 -1.6792
 3591SOL     OW22234   1.379   2.193   2.623 -0.6792  0.0103 -0.5336
 3591SOL    HW122235   1.357   2.185   2.531  0.2576  0.8984 -0.8342
 3591SOL    HW222236   1.309   2.140   2.661 -2.5959  2.2436 -1.0059
 3592SOL     OW22237   0.755   3.549   6.774  0.1958  0.1654 -0.1840
 3592SOL    HW122238   0.709   3.470   6.744 -1.6997  0.9835  0.6131
 3592SOL    HW222239   0.783   3.519   6.860 -0.2369  1.2260  0.3206
 3593SOL     OW22240   4.680   4.366   5.659  0.1480  0.3760 -0.0386
 3593SOL    HW122241   4.616   4.301   5.690 -0.5219  0.9987 -0.1354
 3593SOL    HW222242   0.006   4.307   5.602  1.8729  1.1368  0.6477
 3594SOL     OW22243   0.119   1.831   3.221 -0.1239  0.0469  0.4881
 3594SOL    HW122244   0.095   1.781   3.142  2.0381 -2.8454  1.6501
 3594SOL    HW222245   0.205   1.797   3.246 -0.1196  0.5711  1.1709
 3595SOL     OW22246   3.335   1.662   6.569  0.5393  0.9002 -0.4258
 3595SOL    HW122247   3.353   1.711   6.649 -0.4368  2.4537 -1.1610
 3595SOL    HW222248   3.240   1.648   6.563  0.4746  2.2264 -2.4476
 3596SOL     OW22249   4.232   2.177   3.495 -0.4635  0.3002  0.7293
 3596SOL    HW122250   4.279   2.245   3.446 -1.9121  1.1149  0.4804
 3596SOL    HW222251   4.306   2.125   3.528  1.9106  2.9871 -0.3162
 3597SOL     OW22252   0.147   3.037   6.678 -0.0507  0.8026 -0.3392
 3597SOL    HW122253   0.238   3.011   6.693  0.3858  1.8954 -1.0713
 3597SOL    HW222254   0.107   2.957   6.644 -0.7447  0.5289  1.1201
 3598SOL     OW22255   0.449   0.975  11.589  0.0915  0.3565  0.2840
 3598SOL    HW122256   0.433   0.991  11.496 -0.2705  3.0923  0.8234
 3598SOL    HW222257   0.544   0.982  11.593  0.3252 -0.7118 -3.3114
 3599SOL     OW22258   2.242   1.117   2.451 -0.2008  0.3517  0.1232
 3599SOL    HW122259   2.217   1.180   2.383 -0.7518 -1.5476 -1.4354
 3599SOL    HW222260   2.328   1.088   2.421 -0.4654 -1.4831  1.1295
 3600SOL     OW22261   0.850   1.872   6.584 -0.5339 -0.6445  0.0848
 3600SOL    HW122262   0.929   1.834   6.623 -0.6631 -2.5976 -1.5615
 3600SOL    HW222263   0.796   1.796   6.564 -1.2150 -0.3214  0.6507
 3601SOL     OW22264   2.789   4.322   4.603 -0.1928  0.0084 -0.0959
 3601SOL    HW122265   2.866   4.377   4.586  0.0827  0.0309  1.1808
 3601SOL    HW222266   2.805   4.288   4.691  0.3906  0.2594 -0.1029
 3602SOL     OW22267   4.698   3.895   4.435 -0.5812  0.1700 -0.4008
 3602SOL    HW122268   0.024   3.850   4.504 -1.4803 -1.1687 -0.6377
 3602SOL    HW222269   4.714   3.989   4.444  0.5813 -0.2891  2.4558
 3603SOL     OW22270   2.844   1.434   3.422 -0.4830 -0.8131 -0.1517
 3603SOL    HW122271   2.861   1.384   3.342  0.0786  1.1928 -1.2833
 3603SOL    HW222272   2.757   1.403   3.447  0.1936 -1.8111  0.9422
 3604SOL     OW22273   2.087   1.229   1.935  0.4425 -0.1827 -0.6993
 3604SOL    HW122274   2.158   1.263   1.988  1.1642 -1.0398 -1.1169
 3604SOL    HW222275   2.098   1.134   1.928 -1.4607 -0.5274  0.8951
 3605SOL     OW22276   2.146   1.900   6.964 -0.0855 -0.1675 -0.7269
 3605SOL    HW122277   2.080   1.831   6.957 -1.1948  0.9248 -0.9820
 3605SOL    HW222278   2.095   1.979   6.947 -1.4211 -1.0697 -0.8487
 3606SOL     OW22279   2.649   2.571   4.879 -0.2349 -0.0984  0.3863
 3606SOL    HW122280   2.557   2.587   4.856 -1.0112 -0.7714  2.9583
 3606SOL    HW222281   2.664   2.476   4.885  1.7479  0.2079  0.0166
 3607SOL     OW22282   0.183   3.927  17.049  0.6205 -0.4678 -0.4058
 3607SOL    HW122283   0.229   3.844  17.040  0.0843 -0.6338 -1.6148
 3607SOL    HW222284   0.247   3.979  17.097 -0.3260  1.4259 -1.2055
 3608SOL     OW22285   1.286   4.485   3.090  0.0552 -0.3768 -0.3141
 3608SOL    HW122286   1.223   4.416   3.070 -3.3155  2.4050  0.8671
 3608SOL    HW222287   1.322   4.459   3.175 -1.5720  0.7164  0.6892
 3609SOL     OW22288   1.197   0.840   5.170  0.0684  0.6257  0.2154
 3609SOL    HW122289   1.174   0.931   5.149 -0.1449  0.4329 -0.3846
 3609SOL    HW222290   1.226   0.855   5.260 -1.0417 -1.0364  0.8430
 3610SOL     OW22291   4.083   1.066   7.925  0.1544 -0.1173 -0.6767
 3610SOL    HW122292   4.128   1.112   7.996 -2.6687  1.6789 -0.0667
 3610SOL    HW222293   3.991   1.084   7.944  0.5823  0.2958  1.0674
 3611SOL     OW22294   3.596   0.673   9.598 -0.2132  0.1343  0.0898
 3611SOL    HW122295   3.522   0.729   9.579 -1.8996 -2.1961 -0.2623
 3611SOL    HW222296   3.647   0.681   9.517  1.2741  0.5511  1.0582
 3612SOL     OW22297   4.077   0.362   7.224 -0.2356  0.1628  0.0050
 3612SOL    HW122298   3.997   0.372   7.172 -0.7517  0.4975  0.8689
 3612SOL    HW222299   4.148   0.344   7.162 -1.2511  0.0665 -1.1376
 3613SOL     OW22300   0.238   0.482  10.374  0.2366 -0.3727 -0.3312
 3613SOL    HW122301   0.200   0.465  10.288  0.0339  2.4041 -0.8135
 3613SOL    HW222302   0.299   0.555  10.358  0.8563 -0.9296 -0.4868
 3614SOL     OW22303   4.392   3.447   8.999 -0.2381  0.6623 -0.0757
 3614SOL    HW122304   4.474   3.401   9.013 -0.5192  0.4705  0.9418
 3614SOL    HW222305   4.329   3.375   8.994  1.7064 -0.9736 -0.5143
 3615SOL     OW22306   3.533   1.684   4.397 -0.0943 -0.1945  0.0271
 3615SOL    HW122307   3.562   1.717   4.482 -0.2612  0.5037 -0.1842
 3615SOL    HW222308   3.607   1.710   4.342 -0.1720  1.8678  0.8855
 3616SOL     OW22309   3.180   0.173   2.912  0.0551  0.2025  0.2366
 3616SOL    HW122310   3.220   0.232   2.848  0.2406 -0.9772 -0.7446
 3616SOL    HW222311   3.252   0.123   2.949 -0.0163 -0.3386 -0.3440
 3617SOL     OW22312   2.959   4.109   5.920  0.0019 -0.3217  0.1649
 3617SOL    HW122313   2.872   4.147   5.931  0.1540  0.1690 -0.3388
 3617SOL    HW222314   2.956   4.037   5.983  2.5037 -0.3551  0.2649
 3618SOL     OW22315   2.248   1.892   7.541  0.1573 -0.2996 -0.1170
 3618SOL    HW122316   2.307   1.965   7.559  0.8811 -1.5987  2.8965
 3618SOL    HW222317   2.160   1.924   7.561 -0.1205 -1.7902  1.0512
 3619SOL     OW22318   0.842   1.439  12.013 -0.4245  0.0564 -0.1870
 3619SOL    HW122319   0.762   1.485  11.985 -1.6612 -1.0774  1.5368
 3619SOL    HW222320   0.854   1.477  12.100 -0.0797  2.6334 -1.3461
 3620SOL     OW22321   3.593   1.116  10.413 -0.4540 -0.2688 -0.3371
 3620SOL    HW122322   3.676   1.162  10.425 -1.7804  1.7068  1.1956
 3620SOL    HW222323   3.564   1.138  10.325  0.8752 -0.5821 -0.8496
 3621SOL     OW22324   0.965   3.579  16.688  0.3863  0.3282 -0.4542
 3621SOL    HW122325   0.904   3.635  16.641  0.3632 -0.7461 -1.7209
 3621SOL    HW222326   0.937   3.600  16.777 -0.7488 -2.4179 -0.1493
 3622SOL     OW22327   3.118   0.769  17.308  0.3336 -0.3893  0.3632
 3622SOL    HW122328   3.167   0.735  17.233 -0.7657  0.5778 -0.7879
 3622SOL    HW222329   3.046   0.706  17.318  0.0260 -0.0016  0.5910
 3623SOL     OW22330   0.275   1.718   5.116 -0.2068  0.0901 -0.0853
 3623SOL    HW122331   0.199   1.744   5.065 -0.0283  3.5660  1.4462
 3623SOL    HW222332   0.235   1.742   5.199 -2.0689  1.1302 -1.2742
 3624SOL     OW22333   1.490   1.363   3.126  0.2564 -0.0543  0.3795
 3624SOL    HW122334   1.412   1.358   3.181 -0.6906 -0.0432 -0.9605
 3624SOL    HW222335   1.558   1.338   3.189  0.4772 -1.4571 -0.4083
 3625SOL     OW22336   4.579   4.711   2.843  0.4736  0.3547 -0.4760
 3625SOL    HW122337   4.490   0.000   2.809 -0.6124 -1.1120  1.8701
 3625SOL    HW222338   4.584   0.062   2.905 -0.2460  0.9847 -1.1656
 3626SOL     OW22339   0.226   1.026  14.170  0.3135  0.4335  0.3116
 3626SOL    HW122340   0.319   1.042  14.189  0.5999  1.6561 -2.0717
 3626SOL    HW222341   0.233   0.991  14.081 -1.5433 -2.5925  1.3856
 3627SOL     OW22342   3.544   2.783  11.970 -0.2047 -0.2704 -0.5398
 3627SOL    HW122343   3.530   2.697  12.010 -1.5332 -0.3933 -1.2821
 3627SOL    HW222344   3.622   2.816  12.015  0.4429 -1.2728 -0.9250
 3628SOL     OW22345   1.591   3.558   6.525 -0.0466  0.3933 -0.0601
 3628SOL    HW122346   1.536   3.632   6.499 -0.1375 -1.2000 -4.3842
 3628SOL    HW222347   1.540   3.505   6.586 -1.5796  2.1335  0.1674
 3629SOL     OW22348   1.582   1.079  11.683 -0.3813 -0.3257  0.1916
 3629SOL    HW122349   1.532   0.997  11.677 -1.5027  0.1930  2.3849
 3629SOL    HW222350   1.580   1.114  11.594  0.2355  3.3999  1.6317
 3630SOL     OW22351   2.664   0.099   8.282  0.0743  0.0506 -0.2762
 3630SOL    HW122352   2.686   0.078   8.191  1.7212 -1.5397  0.4929
 3630SOL    HW222353   2.582   0.149   8.274 -0.3933 -0.3480  2.0679
 3631SOL     OW22354   4.248   2.902   4.017  0.6335  1.0393 -1.0797
 3631SOL    HW122355   4.321   2.928   4.073 -0.1880  1.7970 -0.3456
 3631SOL    HW222356   4.180   2.959   4.055 -0.2838 -2.0484  1.9283
 3632SOL     OW22357   4.049   0.832   1.506 -0.1736 -0.0063 -0.7406
 3632SOL    HW122358   4.043   0.805   1.598  2.0388 -0.3791 -0.7032
 3632SOL    HW222359   4.144   0.845   1.498 -0.3742  0.8776 -1.6469
 3633SOL     OW22360   0.819   1.702  13.084  0.7145  0.0971 -0.0076
 3633SOL    HW122361   0.786   1.770  13.025  1.0875 -0.8789 -1.3426
 3633SOL    HW222362   0.897   1.742  13.121  0.9616  1.5038 -2.0499
 3634SOL     OW22363   4.572   3.091   7.953 -0.3606 -0.0379 -0.0355
 3634SOL    HW122364   4.535   3.157   8.011  1.1508  0.4829  0.3226
 3634SOL    HW222365   4.600   3.145   7.879 -0.2234 -2.6323 -1.8987
 3635SOL     OW22366   2.747   2.323   7.283 -0.3760 -0.1480 -0.0114
 3635SOL    HW122367   2.822   2.374   7.314  0.5061 -0.2896 -1.9189
 3635SOL    HW222368   2.692   2.335   7.360 -1.6622 -0.0077 -0.9521
 3636SOL     OW22369   3.115   0.501   8.937  0.4877  0.1365 -0.3360
 3636SOL    HW122370   3.131   0.459   9.021  1.6464  1.5753  0.1595
 3636SOL    HW222371   3.207   0.519   8.913  0.2452  1.4280 -0.3202
 3637SOL     OW22372   0.049   3.101   4.533 -0.0027  0.0006 -0.2674
 3637SOL    HW122373   4.681   3.071   4.540 -1.1166  3.1163 -1.6552
 3637SOL    HW222374   0.081   3.061   4.453 -0.0478 -0.5936  0.0099
 3638SOL     OW22375   3.791   2.978  13.461  0.0635 -0.5713  0.2174
 3638SOL    HW122376   3.698   2.972  13.478  0.3559  1.1895  2.3981
 3638SOL    HW222377   3.829   3.025  13.535 -1.8762  1.8273 -0.3378
 3639SOL     OW22378   1.381   3.027   5.008 -0.3714 -0.0577  0.3533
 3639SOL    HW122379   1.463   3.039   5.055  1.3092  0.5663 -2.7436
 3639SOL    HW222380   1.404   3.037   4.916  1.6202  0.2971  0.8950
 3640SOL     OW22381   0.267   3.412   1.386 -0.1166 -0.6508 -0.1710
 3640SOL    HW122382   0.299   3.419   1.296 -1.1335 -1.7353 -0.6154
 3640SOL    HW222383   0.254   3.319   1.400 -1.1765 -0.4348  0.2266
 3641SOL     OW22384   4.446   3.222   5.505 -0.3066  0.0475  0.2928
 3641SOL    HW122385   4.536   3.229   5.537 -0.4060  0.4390  0.4881
 3641SOL    HW222386   4.416   3.164   5.575 -0.4922  0.6136  0.6726
 3642SOL     OW22387   1.050   0.281  11.329  0.2094  0.5011 -0.2332
 3642SOL    HW122388   1.028   0.272  11.422  3.9498  1.7278  0.7505
 3642SOL    HW222389   0.965   0.311  11.295  0.5472  0.3716 -1.1921
 3643SOL     OW22390   2.705   3.118   7.389  0.0735 -0.3695  0.1150
 3643SOL    HW122391   2.627   3.140   7.439 -0.2194  0.0784 -0.5422
 3643SOL    HW222392   2.747   3.051   7.443  0.4113  1.1633  1.7417
 3644SOL     OW22393   1.628   2.576  12.525  0.5768 -0.2626 -0.3688
 3644SOL    HW122394   1.616   2.613  12.438  0.4349  1.8334  0.5386
 3644SOL    HW222395   1.723   2.566  12.514  0.6119  0.9117 -1.1288
 3645SOL     OW22396   1.298   1.351   5.931 -0.2715 -0.0859  0.6637
 3645SOL    HW122397   1.349   1.323   5.855 -1.2564  1.5603 -0.6032
 3645SOL    HW222398   1.364   1.375   5.996 -1.3881 -0.3693  1.9164
 3646SOL     OW22399   3.233   3.508   6.085 -0.0091 -0.6153  0.4035
 3646SOL    HW122400   3.327   3.510   6.106  0.5722  0.8116 -2.3534
 3646SOL    HW222401   3.213   3.598   6.060  1.5025 -0.1526  0.8562
 3647SOL     OW22402   0.304   0.547   6.969 -0.2779  0.9861  0.2524
 3647SOL    HW122403   0.366   0.553   6.895 -0.6384  1.6033 -0.0044
 3647SOL    HW222404   0.314   0.627   7.020 -0.1515  0.8466  0.4451
 3648SOL     OW22405   1.834   4.120   8.361  0.3738  0.3226  0.4703
 3648SOL    HW122406   1.847   4.200   8.413 -2.2271 -0.3543  2.1444
 3648SOL    HW222407   1.756   4.144   8.311  1.1743  0.0249 -0.9427
 3649SOL     OW22408   1.017   0.647   2.192  0.0508  0.2202  0.6669
 3649SOL    HW122409   1.012   0.574   2.255 -1.5848  0.2053  0.5187
 3649SOL    HW222410   1.110   0.665   2.179  0.0744  0.5044  1.2427
 3650SOL     OW22411   1.395   1.163   1.734 -0.5240 -0.2422 -0.2638
 3650SOL    HW122412   1.461   1.125   1.793 -2.0010  0.3373  1.7673
 3650SOL    HW222413   1.438   1.161   1.649  0.2161 -2.0711  0.1542
 3651SOL     OW22414   4.330   0.731   6.531 -0.4025  0.4131 -0.2655
 3651SOL    HW122415   4.268   0.706   6.599  2.5456 -0.8298  1.9932
 3651SOL    HW222416   4.319   0.661   6.467 -1.7735 -0.0255  0.4559
 3652SOL     OW22417   1.317   3.381   6.764 -0.0542 -0.1665 -0.3610
 3652SOL    HW122418   1.275   3.350   6.844  0.3615 -0.0477 -0.0965
 3652SOL    HW222419   1.338   3.300   6.717  2.3212 -0.1566  0.6634
 3653SOL     OW22420   4.203   4.265   7.693  0.6819  0.0458 -0.0972
 3653SOL    HW122421   4.219   4.287   7.785 -0.5324  1.8837 -0.3276
 3653SOL    HW222422   4.295   4.272   7.666  0.6047  0.0277 -0.3681
 3654SOL     OW22423   4.364   3.766   1.099  0.4921  0.0617  0.0728
 3654SOL    HW122424   4.441   3.792   1.049 -0.9791  0.3473 -2.0311
 3654SOL    HW222425   4.333   3.690   1.050 -2.2217 -0.6169  2.8093
 3655SOL     OW22426   0.696   3.681  15.915 -0.1625  0.3299 -0.4917
 3655SOL    HW122427   0.715   3.749  15.979 -1.3622  1.8987 -1.7886
 3655SOL    HW222428   0.681   3.611  15.978 -3.7840  0.3303 -1.3410
 3656SOL     OW22429   0.496   2.488   8.873 -0.2142 -0.7555 -0.2409
 3656SOL    HW122430   0.561   2.418   8.864  0.2123 -0.5796  1.3831
 3656SOL    HW222431   0.438   2.445   8.937  0.5125 -1.3901 -0.0073
 3657SOL     OW22432   1.903   3.471   3.655 -0.2546  0.7133  0.3098
 3657SOL    HW122433   1.955   3.528   3.598  1.2081  0.1329  1.0703
 3657SOL    HW222434   1.875   3.397   3.601  1.4105  0.5829 -0.3634
 3658SOL     OW22435   3.072   1.603  11.896  0.1451  0.1245  0.2014
 3658SOL    HW122436   2.984   1.578  11.925  0.6566 -0.5850  1.1132
 3658SOL    HW222437   3.095   1.531  11.837 -1.4091  1.7116 -2.3700
 3659SOL     OW22438   1.373   2.675   8.790  0.2840 -0.2471  0.0136
 3659SOL    HW122439   1.437   2.610   8.821  0.0705 -0.4397  0.0568
 3659SOL    HW222440   1.356   2.722   8.872 -1.0855  2.6381 -1.9374
 3660SOL     OW22441   1.179   3.461  10.113  0.1577 -0.3238 -0.3551
 3660SOL    HW122442   1.142   3.515  10.182 -0.6418  0.4130 -1.3491
 3660SOL    HW222443   1.096   3.443  10.068  0.7085 -2.2317 -0.6163
 3661SOL     OW22444   3.163   1.248   3.471  0.4997 -0.3904  0.1824
 3661SOL    HW122445   3.169   1.252   3.566 -2.0799 -1.2009  0.3889
 3661SOL    HW222446   3.255   1.254   3.447  0.6473  0.3000  0.8949
 3662SOL     OW22447   2.194   3.222   6.560  0.3058  0.2450 -0.0117
 3662SOL    HW122448   2.187   3.311   6.526 -0.7356 -0.1690 -0.8817
 3662SOL    HW222449   2.273   3.202   6.509 -1.3944 -1.9746 -1.7224
 3663SOL     OW22450   3.096   3.140   1.594 -0.1874 -0.4864 -0.1760
 3663SOL    HW122451   3.062   3.174   1.677  1.1028  0.6075 -0.0916
 3663SOL    HW222452   3.026   3.112   1.535  1.1211 -2.5918 -0.7294
 3664SOL     OW22453   4.269   0.289  15.417 -0.6563  0.0557 -0.1126
 3664SOL    HW122454   4.357   0.305  15.383  0.2873 -3.1759  0.7917
 3664SOL    HW222455   4.232   0.218  15.364 -3.2644  1.3828 -0.0332
 3665SOL     OW22456   3.408   2.783   5.952  0.1963  0.0470 -0.5004
 3665SOL    HW122457   3.401   2.878   5.945 -0.0909  0.0785  0.2455
 3665SOL    HW222458   3.318   2.758   5.932  0.0342 -0.3626  0.7403
 3666SOL     OW22459   3.793   0.896   7.690  0.7030  0.5397 -0.4311
 3666SOL    HW122460   3.779   0.988   7.671 -1.0243  0.0977 -1.3111
 3666SOL    HW222461   3.762   0.859   7.607  2.0642  1.4677 -1.3448
 3667SOL     OW22462   1.395   4.560   1.842  0.2514 -0.1844  0.0968
 3667SOL    HW122463   1.381   4.630   1.905  1.6372 -0.3467  0.5814
 3667SOL    HW222464   1.488   4.543   1.856  0.6038  1.3596 -0.4142
 3668SOL     OW22465   2.901   2.647   5.337  0.2327  0.1045 -0.5012
 3668SOL    HW122466   2.881   2.555   5.354  1.6616  0.0277  0.7483
 3668SOL    HW222467   2.949   2.626   5.257  0.6585  0.7721 -0.4218
 3669SOL     OW22468   2.419   2.173   7.014 -0.0262  0.1074 -0.2346
 3669SOL    HW122469   2.382   2.176   6.926 -1.0686  0.7990  0.2139
 3669SOL    HW222470   2.364   2.239   7.058 -0.5357 -0.2172 -0.3835
 3670SOL     OW22471   0.042   4.386   0.828 -0.4600  0.2535 -0.0241
 3670SOL    HW122472   0.084   4.428   0.753 -0.8915  1.5096  0.4441
 3670SOL    HW222473   4.680   4.430   0.834 -1.6420 -2.3472  2.6332
 3671SOL     OW22474   2.713   2.103   6.016 -0.0040 -0.1119 -0.4649
 3671SOL    HW122475   2.733   2.046   6.090 -1.2888 -1.7273 -1.3751
 3671SOL    HW222476   2.689   2.179   6.068  0.6107  0.7562 -1.4513
 3672SOL     OW22477   4.165   4.539   8.199  0.1885 -0.5585 -0.0376
 3672SOL    HW122478   4.123   4.622   8.180  1.4853  0.3989  1.2519
 3672SOL    HW222479   4.254   4.558   8.230  0.2383  1.1987 -1.2350
 3673SOL     OW22480   1.562   4.687   4.019 -0.2805 -0.3965  0.1918
 3673SOL    HW122481   1.536   4.597   4.003  0.2575 -0.2938 -1.2601
 3673SOL    HW222482   1.657   4.678   4.029 -0.3397  2.0078  2.9454
 3674SOL     OW22483   1.859   2.485   4.057  0.4625 -0.3711 -0.0402
 3674SOL    HW122484   1.903   2.553   4.108  1.2595 -1.2594  0.4471
 3674SOL    HW222485   1.881   2.517   3.969  0.4534  1.7461  0.7204
 3675SOL     OW22486   3.585   3.001   2.066 -0.6192 -0.3912 -0.2449
 3675SOL    HW122487   3.617   2.985   1.977 -0.5309 -1.6643  0.0076
 3675SOL    HW222488   3.644   2.939   2.110  0.3761 -0.3320 -1.4811
 3676SOL     OW22489   0.367   0.562   8.432  0.7588 -0.4574  0.1131
 3676SOL    HW122490   0.389   0.652   8.456  0.3414  0.5209 -3.1131
 3676SOL    HW222491   0.316   0.584   8.353 -0.3846  0.5778  1.1425
 3677SOL     OW22492   2.803   2.583  13.067  0.2587 -0.5317 -0.3780
 3677SOL    HW122493   2.734   2.526  13.033  0.2208 -0.4528 -0.4320
 3677SOL    HW222494   2.769   2.622  13.148 -2.0394  1.5673 -2.3697
 3678SOL     OW22495   4.652   4.080   2.301 -0.2855 -0.2017 -0.4823
 3678SOL    HW122496   4.656   4.170   2.270 -1.1203 -0.3209 -0.9408
 3678SOL    HW222497   4.719   4.041   2.245 -0.9580  2.2787 -3.0055
 3679SOL     OW22498   4.063   4.401   6.904 -0.5743  0.0159 -0.1448
 3679SOL    HW122499   4.066   4.305   6.902  0.1292  0.0256  0.1955
 3679SOL    HW222500   4.157   4.415   6.917 -0.7759  0.6313  0.6536
 3680SOL     OW22501   1.825   2.002   9.583 -0.2901  0.2784  0.1277
 3680SOL    HW122502   1.815   2.086   9.629 -1.4857  0.1219  0.1599
 3680SOL    HW222503   1.868   2.034   9.503 -1.2629  0.3200 -0.3838
 3681SOL     OW22504   3.566   1.588   7.675 -0.0728  0.3774 -0.0872
 3681SOL    HW122505   3.635   1.642   7.715 -0.4389  2.0052 -1.6179
 3681SOL    HW222506   3.564   1.612   7.582 -2.5984  3.6935  0.8260
 3682SOL     OW22507   0.301   0.495   4.187  0.4098  0.2062 -0.0456
 3682SOL    HW122508   0.396   0.505   4.193  0.6411 -0.7701 -1.9939
 3682SOL    HW222509   0.261   0.555   4.250  1.1402 -0.1262  0.7366
 3683SOL     OW22510   1.440   4.189   2.512  0.2326  0.3680  0.2609
 3683SOL    HW122511   1.450   4.269   2.459 -0.5334  0.1456 -0.2213
 3683SOL    HW222512   1.475   4.134   2.443 -1.5728 -0.7948  0.2614
 3684SOL     OW22513   2.846   0.173   3.112 -0.0600 -0.3912 -0.0613
 3684SOL    HW122514   2.862   0.267   3.103 -4.7602  0.4560  0.7317
 3684SOL    HW222515   2.836   0.164   3.207 -0.1300  1.1052  0.0614
 3685SOL     OW22516   0.740   3.486   5.257  0.2785 -0.0212 -0.2465
 3685SOL    HW122517   0.770   3.415   5.313  1.0071  1.1043  0.7801
 3685SOL    HW222518   0.655   3.511   5.293  1.1322  2.8811 -0.2834
 3686SOL     OW22519   3.453   1.585   5.554  0.2199  0.9677  0.1368
 3686SOL    HW122520   3.362   1.572   5.530  0.7322  0.8897 -1.8236
 3686SOL    HW222521   3.451   1.535   5.635  0.3578  2.2166  0.9124
 3687SOL     OW22522   1.644   3.244   3.770 -0.0067  0.3403  0.9212
 3687SOL    HW122523   1.551   3.226   3.753  0.3352  0.5372 -1.2393
 3687SOL    HW222524   1.678   3.245   3.680 -1.4510 -1.7574  0.3428
 3688SOL     OW22525   0.204   0.430   2.398 -0.1287  0.3992  0.5369
 3688SOL    HW122526   0.295   0.460   2.386  0.2255  0.3882  3.2141
 3688SOL    HW222527   0.189   0.376   2.321 -0.8934 -1.0667  1.7154
 3689SOL     OW22528   4.272   2.941   4.702  0.1934 -0.2864 -0.1015
 3689SOL    HW122529   4.305   2.968   4.616 -1.6961  0.0504 -0.7082
 3689SOL    HW222530   4.315   2.856   4.713  0.5100 -0.2833 -1.3303
 3690SOL     OW22531   3.753   4.009   0.220 -0.5729 -0.2375 -0.2937
 3690SOL    HW122532   3.707   4.026   0.302 -0.8338 -0.8399 -0.3150
 3690SOL    HW222533   3.680   3.998   0.159 -0.6853 -3.3965  0.3856
 3691SOL     OW22534   0.916   1.793   7.568  0.5896  0.4310 -0.4812
 3691SOL    HW122535   0.883   1.757   7.486 -1.0075 -1.0074  0.7744
 3691SOL    HW222536   0.846   1.854   7.590  0.8907  0.9825 -1.0655
 3692SOL     OW22537   3.578   4.555   1.090  0.1072 -0.2876 -0.0477
 3692SOL    HW122538   3.531   4.637   1.075  2.4056  0.5938 -2.3115
 3692SOL    HW222539   3.554   4.545   1.183 -0.7554  1.3294 -0.0919
 3693SOL     OW22540   4.127   1.637   3.590  0.5382 -0.0924 -0.0271
 3693SOL    HW122541   4.040   1.605   3.615 -0.0969  1.4234 -0.2536
 3693SOL    HW222542   4.165   1.561   3.547 -1.6464 -1.4892  0.4912
 3694SOL     OW22543   0.092   1.253  13.199  0.1921  0.4375 -0.5698
 3694SOL    HW122544   0.103   1.330  13.144  2.6086 -1.2725 -2.5050
 3694SOL    HW222545   4.721   1.252  13.215  0.3844  1.4821  0.6421
 3695SOL     OW22546   3.104   1.414   0.166 -0.5528  0.3556 -0.5064
 3695SOL    HW122547   3.123   1.505   0.143 -0.9732 -0.1846 -3.0190
 3695SOL    HW222548   3.138   1.367   0.089 -1.6588  0.4967 -1.0795
 3696SOL     OW22549   3.585   1.344   2.353 -0.6109  0.2521 -0.5352
 3696SOL    HW122550   3.622   1.388   2.277  0.4522 -1.6811 -1.1350
 3696SOL    HW222551   3.496   1.332   2.319  0.3641 -0.5612 -2.8056
 3697SOL     OW22552   1.635   3.100   4.557 -0.0138 -0.3039  0.8588
 3697SOL    HW122553   1.631   3.049   4.475 -2.3201 -0.5379  1.1159
 3697SOL    HW222554   1.728   3.110   4.573  0.2010 -0.7959 -0.0673
 3698SOL     OW22555   1.954   3.619   6.860 -0.3417  0.6429 -0.4562
 3698SOL    HW122556   1.943   3.666   6.777 -1.0666  0.6556 -0.3542
 3698SOL    HW222557   1.889   3.551   6.844  0.2586  0.2011 -1.0105
 3699SOL     OW22558   3.344   3.760  16.284 -0.0491 -0.1782  0.0460
 3699SOL    HW122559   3.306   3.843  16.313 -2.0642 -1.1244  0.1542
 3699SOL    HW222560   3.402   3.730  16.354  0.5821  2.3387  0.5986
 3700SOL     OW22561   0.142   1.270  15.197  0.2562 -0.0253  0.3484
 3700SOL    HW122562   0.182   1.309  15.275 -1.1521  1.1224  0.4875
 3700SOL    HW222563   0.206   1.296  15.131  0.4901 -1.7081 -0.0908
 3701SOL     OW22564   1.649   2.713   3.992  0.1952  0.5885  0.1456
 3701SOL    HW122565   1.588   2.781   3.964 -2.2663 -2.8012 -2.7125
 3701SOL    HW222566   1.601   2.636   3.961  1.6887 -1.9367  4.0804
 3702SOL     OW22567   3.966   0.835   7.057 -0.6388 -0.2525  0.2018
 3702SOL    HW122568   3.968   0.739   7.058 -1.6050 -0.2581  0.9714
 3702SOL    HW222569   3.886   0.860   7.011 -0.3513 -1.5845 -1.0507
 3703SOL     OW22570   3.254   0.271   3.920 -0.2934  0.0615  0.2130
 3703SOL    HW122571   3.340   0.230   3.912  0.6883  2.0452  0.6757
 3703SOL    HW222572   3.215   0.219   3.849  2.7153 -1.2390 -0.4955
 3704SOL     OW22573   0.167   0.860   6.071  0.0273 -0.3052  0.2443
 3704SOL    HW122574   0.167   0.786   6.132  0.8796  1.3996  2.3225
 3704SOL    HW222575   0.257   0.847   6.041 -0.1226  0.1875 -0.4198
 3705SOL     OW22576   1.546   3.041   7.243  0.8353  0.2992 -0.3472
 3705SOL    HW122577   1.554   3.040   7.338  2.8607  3.3090 -0.4950
 3705SOL    HW222578   1.546   2.947   7.222  1.6151  0.0598  0.7621
 3706SOL     OW22579   2.972   0.219   9.886 -0.4785 -0.7461  0.1565
 3706SOL    HW122580   2.951   0.260   9.970 -1.0680  0.3876 -0.5357
 3706SOL    HW222581   3.065   0.241   9.881  0.0958 -2.8206  2.0164
 3707SOL     OW22582   1.347   3.828  15.547  0.0546  0.0422  0.5792
 3707SOL    HW122583   1.258   3.796  15.536  1.3065 -2.2718 -2.4808
 3707SOL    HW222584   1.386   3.781  15.474  1.9000  1.6422  0.5351
 3708SOL     OW22585   3.401   2.837   9.358 -0.3848 -0.3883 -0.4813
 3708SOL    HW122586   3.315   2.804   9.331 -0.5159 -0.3400 -0.1267
 3708SOL    HW222587   3.372   2.915   9.405 -0.9085 -0.8038 -0.1178
 3709SOL     OW22588   3.336   2.215  11.703  0.2235  0.3718  0.1613
 3709SOL    HW122589   3.356   2.123  11.688  1.3541  0.8277 -1.1268
 3709SOL    HW222590   3.297   2.223  11.790 -4.5465  1.6077 -2.0634
 3710SOL     OW22591   0.692   1.813   3.224  0.6108 -0.0495  0.6052
 3710SOL    HW122592   0.684   1.908   3.225  1.4321  0.0140  1.3478
 3710SOL    HW222593   0.738   1.795   3.306 -0.6622 -0.3867  1.2574
 3711SOL     OW22594   0.659   3.270   6.722  0.0803  0.2673  0.5994
 3711SOL    HW122595   0.584   3.245   6.667  0.2944 -0.9847  0.8822
 3711SOL    HW222596   0.729   3.242   6.663 -1.8441  0.0883 -1.5772
 3712SOL     OW22597   2.740   1.042   9.186 -0.3553 -0.1222 -1.2800
 3712SOL    HW122598   2.681   1.013   9.255  2.0431 -2.7424 -0.3188
 3712SOL    HW222599   2.751   0.962   9.134  1.7867 -0.5619 -0.1454
 3713SOL     OW22600   4.717   2.368  12.569  0.4545 -0.7109 -0.4270
 3713SOL    HW122601   0.016   2.373  12.476 -0.3737 -0.1547 -0.5970
 3713SOL    HW222602   0.043   2.292  12.600  0.0773 -0.0324  1.8651
 3714SOL     OW22603   1.438   2.820   2.523 -0.0602 -0.3447  0.0504
 3714SOL    HW122604   1.455   2.890   2.459  0.5442 -1.2391 -0.7727
 3714SOL    HW222605   1.344   2.803   2.520  0.0423 -0.8475 -0.4224
 3715SOL     OW22606   3.990   1.846   8.093 -1.0297 -0.0785  0.4006
 3715SOL    HW122607   4.007   1.928   8.048 -1.3754  0.1892  0.7662
 3715SOL    HW222608   4.055   1.841   8.163  1.1180 -0.6272 -1.6054
 3716SOL     OW22609   0.406   1.187  11.789  0.6623 -1.0291 -0.3678
 3716SOL    HW122610   0.339   1.123  11.810  1.8938 -3.2390 -3.2363
 3716SOL    HW222611   0.458   1.139  11.725 -0.2718 -1.8272 -0.5171
 3717SOL     OW22612   0.847   0.556   8.766  0.5383 -0.1474 -0.2633
 3717SOL    HW122613   0.910   0.570   8.837  1.6409  2.5387 -1.7385
 3717SOL    HW222614   0.875   0.612   8.694  2.4638  0.4836  0.9718
 3718SOL     OW22615   2.959   3.409   5.516  0.3735 -0.4824 -0.7918
 3718SOL    HW122616   3.002   3.461   5.448  1.1101  1.8778  1.4994
 3718SOL    HW222617   2.882   3.460   5.542  0.8280  0.0457 -0.4946
 3719SOL     OW22618   4.280   4.535   2.729  0.2887  0.1217  0.0812
 3719SOL    HW122619   4.218   4.558   2.660 -0.3870  0.1602  0.6990
 3719SOL    HW222620   4.279   4.608   2.792  1.0921 -1.0618  1.4723
 3720SOL     OW22621   4.335   3.287   0.166 -0.1850  0.0576  0.2572
 3720SOL    HW122622   4.370   3.324   0.085 -0.4574 -0.2428  0.0019
 3720SOL    HW222623   4.276   3.349   0.211  1.5773  1.5761  0.4760
 3721SOL     OW22624   0.548   3.258  16.040  0.0778 -0.4716  1.0941
 3721SOL    HW122625   0.458   3.288  16.028  0.7378  1.0161 -0.1617
 3721SOL    HW222626   0.535   3.178  16.092 -1.2826 -1.0521 -0.1345
 3722SOL     OW22627   1.791   2.457   4.961  0.3974  0.1563 -0.0813
 3722SOL    HW122628   1.735   2.515   4.911  0.1536 -1.3794 -1.5928
 3722SOL    HW222629   1.771   2.480   5.052 -1.2855  3.4723 -1.2997
 3723SOL     OW22630   2.282   3.704   3.649 -0.2882  0.0645 -0.0281
 3723SOL    HW122631   2.228   3.783   3.643  1.4912  1.1376 -1.8727
 3723SOL    HW222632   2.320   3.735   3.731 -1.0902  0.8751  0.0390
 3724SOL     OW22633   0.344   3.235   2.518  0.5115 -0.1978  0.3759
 3724SOL    HW122634   0.334   3.194   2.433  1.6366  2.3760 -0.9868
 3724SOL    HW222635   0.428   3.201   2.548  0.2506  0.1938  1.5594
 3725SOL     OW22636   1.862   0.524   1.192 -0.1102 -0.0397 -0.7047
 3725SOL    HW122637   1.897   0.518   1.103  0.8087  1.1120 -0.4266
 3725SOL    HW222638   1.859   0.430   1.213  0.5314  0.3042  0.9104
 3726SOL     OW22639   3.287   1.576   3.011  0.7116 -0.4937  0.2300
 3726SOL    HW122640   3.229   1.518   3.061 -2.4941 -0.0842 -3.0128
 3726SOL    HW222641   3.226   1.644   2.984  0.8044 -0.3362  0.4152
 3727SOL     OW22642   3.553   3.608  12.086 -0.7134  0.2647 -0.4021
 3727SOL    HW122643   3.466   3.578  12.058 -1.2880  0.9443  0.6763
 3727SOL    HW222644   3.525   3.671  12.152 -0.6956 -1.3675  1.1381
 3728SOL     OW22645   1.106   0.632   0.927  0.0375  0.3690  0.4234
 3728SOL    HW122646   1.080   0.678   0.847 -1.0400 -2.0140 -0.6014
 3728SOL    HW222647   1.193   0.672   0.929  0.8788 -1.1557 -4.3747
 3729SOL     OW22648   0.175   3.852   4.266 -0.9868 -0.2888  0.2173
 3729SOL    HW122649   0.187   3.759   4.283 -0.1262 -0.4141 -1.0467
 3729SOL    HW222650   0.102   3.876   4.322 -1.2182 -1.1230  0.2672
 3730SOL     OW22651   3.186   4.009   1.081 -0.3709  0.3755 -1.0031
 3730SOL    HW122652   3.153   4.093   1.113 -0.6559  0.0524 -0.4424
 3730SOL    HW222653   3.258   4.000   1.144 -0.8446  1.9580 -0.2428
 3731SOL     OW22654   4.454   2.221   5.642  0.3221 -0.5341 -0.1609
 3731SOL    HW122655   4.440   2.135   5.601  2.6602 -1.4971  1.0055
 3731SOL    HW222656   4.372   2.262   5.615  1.7224  2.0734 -0.3681
 3732SOL     OW22657   4.657   1.347   5.780 -0.7086  0.3783  0.2664
 3732SOL    HW122658   4.618   1.260   5.770 -0.6437  0.5022 -1.0743
 3732SOL    HW222659   4.644   1.390   5.696 -0.0213 -3.1206 -1.6257
 3733SOL     OW22660   1.411   3.077  10.060 -0.3527  0.1954  0.4445
 3733SOL    HW122661   1.385   3.147  10.120  1.0924  0.9239  0.2260
 3733SOL    HW222662   1.466   3.118   9.994  0.6586 -1.2338  0.3926
 3734SOL     OW22663   3.474   0.864  10.474  0.3673 -0.2649 -0.2626
 3734SOL    HW122664   3.525   0.869  10.555  2.5315  0.0615 -1.6366
 3734SOL    HW222665   3.495   0.951  10.440 -0.2601  0.2509  0.6626
 3735SOL     OW22666   1.424   1.151   4.224  0.3014  0.0556 -0.3862
 3735SOL    HW122667   1.504   1.199   4.200 -0.2153  1.1031 -0.0224
 3735SOL    HW222668   1.458   1.062   4.226  1.7861  0.6024 -0.9719
 3736SOL     OW22669   2.317   4.491   1.517  0.4432  0.4493 -0.6542
 3736SOL    HW122670   2.290   4.462   1.430  2.7587 -0.6375 -1.0057
 3736SOL    HW222671   2.264   4.439   1.577 -0.1376 -0.6923 -2.1722
 3737SOL     OW22672   4.437   3.555   6.442 -0.3547 -0.1060  0.4033
 3737SOL    HW122673   4.523   3.546   6.400 -0.0014  4.0845  0.2003
 3737SOL    HW222674   4.467   3.590   6.527  2.6962 -0.9025 -0.3363
 3738SOL     OW22675   4.575   4.079   1.224  0.2103 -0.0879 -0.0128
 3738SOL    HW122676   4.520   4.011   1.185 -1.4137  1.5420 -0.5588
 3738SOL    HW222677   4.533   4.155   1.183 -0.1107  0.6252  1.6300
 3739SOL     OW22678   1.146   1.926   7.492 -0.3293 -0.5083 -0.1678
 3739SOL    HW122679   1.070   1.870   7.511  0.0897 -1.8449 -2.4160
 3739SOL    HW222680   1.226   1.875   7.488  0.5900  0.9474 -0.3274
 3740SOL     OW22681   0.766   4.459   8.150  0.3389  0.1141  0.6808
 3740SOL    HW122682   0.702   4.389   8.162  0.8865 -0.8850 -2.3877
 3740SOL    HW222683   0.840   4.423   8.198  0.0417 -1.7901 -0.3009
 3741SOL     OW22684   3.722   1.461   9.291 -0.0931  0.5892  0.5914
 3741SOL    HW122685   3.751   1.370   9.288 -2.0260  0.0168 -1.1377
 3741SOL    HW222686   3.632   1.455   9.258  0.3513  0.1429 -0.5280
 3742SOL     OW22687   0.625   4.230   6.414 -0.3025  0.0287  0.6479
 3742SOL    HW122688   0.643   4.140   6.384 -0.6270  0.0642  0.3420
 3742SOL    HW222689   0.530   4.224   6.418 -0.3663  0.1635 -0.4971
 3743SOL     OW22690   2.702   4.418   4.061 -0.3060 -0.2638  0.0876
 3743SOL    HW122691   2.630   4.428   4.123  0.7309 -1.5362  1.4864
 3743SOL    HW222692   2.746   4.339   4.091 -0.1642  0.4175  1.6710
 3744SOL     OW22693   0.769   1.056   5.389 -0.0359  0.6593 -0.1355
 3744SOL    HW122694   0.739   1.110   5.316  0.3080 -1.8270 -2.1029
 3744SOL    HW222695   0.690   1.022   5.431  0.8731  1.0589  1.8954
 3745SOL     OW22696   1.583   0.885   7.008  0.3360 -0.3006  0.2569
 3745SOL    HW122697   1.619   0.832   6.937 -0.7338  0.6158 -0.9624
 3745SOL    HW222698   1.658   0.915   7.058  1.6916 -0.4725 -1.6915
 3746SOL     OW22699   2.826   1.203   4.063  0.3016  0.1742 -0.0283
 3746SOL    HW122700   2.735   1.191   4.037  0.7384  1.6923 -2.2393
 3746SOL    HW222701   2.852   1.113   4.081 -0.5883  0.0779  0.7498
 3747SOL     OW22702   0.187   4.581   0.665  0.1822 -0.0455  0.3753
 3747SOL    HW122703   0.144   4.606   0.583  1.3799 -1.5738 -0.7232
 3747SOL    HW222704   0.263   4.641   0.660  0.3532 -0.4797 -2.1939
 3748SOL     OW22705   2.348   1.619   5.676 -0.1658 -0.6256 -0.0454
 3748SOL    HW122706   2.340   1.559   5.602  1.4032 -0.6829 -0.1613
 3748SOL    HW222707   2.303   1.568   5.743  1.0612 -1.7685 -0.0858
 3749SOL     OW22708   4.054   3.047   5.732  0.5193 -0.4360 -1.4185
 3749SOL    HW122709   3.963   3.079   5.736  1.3043  1.4836  0.9442
 3749SOL    HW222710   4.036   2.969   5.783 -1.9362  1.5228  0.7305
 3750SOL     OW22711   4.603   3.304   3.173 -0.9272 -0.2886 -0.4893
 3750SOL    HW122712   4.517   3.309   3.133 -1.1309 -3.4962 -0.3985
 3750SOL    HW222713   4.667   3.302   3.102  0.7599  0.0372  0.9885
 3751SOL     OW22714   1.344   2.185   3.205 -0.1624 -0.3305 -1.3143
 3751SOL    HW122715   1.255   2.187   3.170 -1.2542  1.0165  1.5368
 3751SOL    HW222716   1.376   2.256   3.150 -0.4690  1.7059  1.1719
 3752SOL     OW22717   1.183   1.418  16.868  0.0873 -0.2459  0.0935
 3752SOL    HW122718   1.093   1.390  16.852  0.7578 -1.9941 -0.6179
 3752SOL    HW222719   1.186   1.416  16.964 -0.1991  2.9088  0.1715
 3753SOL     OW22720   2.564   3.941  15.229 -0.5643  0.1471 -0.1287
 3753SOL    HW122721   2.615   4.022  15.225  1.6756 -1.2360  0.2693
 3753SOL    HW222722   2.626   3.879  15.191 -1.6559 -1.4775  0.7652
 3754SOL     OW22723   1.272   1.105   4.803  0.0154 -0.3791  0.2235
 3754SOL    HW122724   1.333   1.036   4.830  1.5734  1.5633  1.6520
 3754SOL    HW222725   1.218   1.065   4.735 -0.2675 -1.5441  1.1347
 3755SOL     OW22726   1.984   2.967   4.165  0.0297  0.6253 -0.4490
 3755SOL    HW122727   2.044   2.998   4.097  1.4368 -0.3260  0.3692
 3755SOL    HW222728   1.954   3.054   4.194  0.4645  0.1631  1.3502
 3756SOL     OW22729   2.872   3.118   1.436 -0.4399 -0.7850 -0.7279
 3756SOL    HW122730   2.828   3.051   1.488 -1.1809 -0.4520 -0.9271
 3756SOL    HW222731   2.815   3.195   1.435  0.0355 -0.4221  0.4299
 3757SOL     OW22732   3.385   3.541   4.307 -0.6181 -0.1178  0.4160
 3757SOL    HW122733   3.320   3.490   4.355 -0.5525  1.9260  2.6398
 3757SOL    HW222734   3.411   3.475   4.243 -2.7711 -0.1811 -0.4112
 3758SOL     OW22735   4.424   3.070   1.529  0.5189 -0.1954 -0.1108
 3758SOL    HW122736   4.371   3.072   1.450 -0.1463 -0.5820  0.3269
 3758SOL    HW222737   4.417   2.981   1.564 -1.0628  0.3785  0.9818
 3759SOL     OW22738   2.117   4.694   6.460  0.1075  0.0909 -0.2623
 3759SOL    HW122739   2.198   0.007   6.423 -0.7286  1.4165 -0.7958
 3759SOL    HW222740   2.130   4.600   6.446  3.1714  0.9346 -3.1713
 3760SOL     OW22741   4.719   0.495   4.353 -0.0686  0.5430  0.2636
 3760SOL    HW122742   4.668   0.513   4.432 -0.6412  0.4644 -0.0910
 3760SOL    HW222743   0.062   0.563   4.369  0.7390 -0.5310  1.5100
 3761SOL     OW22744   4.068   2.860   4.960  0.2456 -0.1731  0.2430
 3761SOL    HW122745   4.114   2.809   4.893 -1.0384 -0.8390 -0.1372
 3761SOL    HW222746   4.138   2.868   5.025 -1.6419  1.1030  2.1269
 3762SOL     OW22747   2.681   3.962  16.636 -0.0823  0.0063  0.2470
 3762SOL    HW122748   2.678   4.054  16.612 -3.9220  0.2803  1.7686
 3762SOL    HW222749   2.747   3.958  16.706 -0.8643  0.4292  1.0153
 3763SOL     OW22750   4.231   4.150   8.138 -0.3938 -0.1417 -0.5484
 3763SOL    HW122751   4.218   4.065   8.096 -1.3092 -0.3223  0.1114
 3763SOL    HW222752   4.233   4.111   8.225 -0.9318  0.3740 -0.3057
 3764SOL     OW22753   3.691   2.394   5.231  0.3129 -0.6547  0.1824
 3764SOL    HW122754   3.638   2.365   5.306  0.8891  0.6323  1.0915
 3764SOL    HW222755   3.653   2.354   5.153 -1.5796  2.8425 -0.6878
 3765SOL     OW22756   2.335   4.418   7.074 -0.0336 -0.2526  0.1683
 3765SOL    HW122757   2.334   4.500   7.125  2.4347 -0.2648  0.2453
 3765SOL    HW222758   2.312   4.457   6.990  1.0386  0.2211  0.0943
 3766SOL     OW22759   2.114   2.002   6.384 -0.9648 -0.2181  0.7200
 3766SOL    HW122760   2.095   2.092   6.409  1.8281  0.7825 -0.8236
 3766SOL    HW222761   2.190   1.990   6.441 -1.3032 -1.3033  0.9504
 3767SOL     OW22762   4.196   2.621  14.877 -0.3078 -0.5501 -0.3006
 3767SOL    HW122763   4.188   2.542  14.929 -2.6830  0.8886  1.5350
 3767SOL    HW222764   4.268   2.590  14.822 -0.6950 -2.8705  0.5272
 3768SOL     OW22765   0.577   3.132  11.654 -0.8401 -0.1200 -0.3978
 3768SOL    HW122766   0.502   3.128  11.594  0.6293  0.9496 -2.2977
 3768SOL    HW222767   0.587   3.037  11.666 -0.9195 -0.1255 -0.3717
 3769SOL     OW22768   2.161   3.343   3.000 -0.2463  0.4311  0.1228
 3769SOL    HW122769   2.193   3.299   3.078 -0.5768 -0.7158 -0.3958
 3769SOL    HW222770   2.237   3.358   2.945 -1.2149  2.1132 -0.7646
 3770SOL     OW22771   0.419   0.000   9.125 -0.2849  0.2814  0.2969
 3770SOL    HW122772   0.352   0.046   9.175 -0.0108  1.0032 -0.0012
 3770SOL    HW222773   0.412   4.640   9.172  2.3256 -0.3597 -0.4071
 3771SOL     OW22774   2.518   2.057   2.593 -0.2501 -0.3866  0.0292
 3771SOL    HW122775   2.489   1.974   2.630  0.2653 -0.6751 -0.2157
 3771SOL    HW222776   2.468   2.063   2.512 -0.1553 -0.8023 -0.0589
 3772SOL     OW22777   4.155   2.786  14.264  0.1790  0.7897 -0.6517
 3772SOL    HW122778   4.170   2.704  14.218  0.2979 -0.4056  1.5082
 3772SOL    HW222779   4.065   2.798  14.231  0.0822  0.3977 -0.5330
 3773SOL     OW22780   3.336   3.073   2.304  0.1133 -0.5168 -0.2934
 3773SOL    HW122781   3.248   3.072   2.266  0.8238 -0.1295 -1.9620
 3773SOL    HW222782   3.375   3.001   2.255 -0.0601  1.4202 -3.2442
 3774SOL     OW22783   4.044   2.854   4.455  0.1265 -0.2988 -0.0380
 3774SOL    HW122784   4.043   2.892   4.543 -0.3360  1.5451 -0.8201
 3774SOL    HW222785   4.129   2.880   4.418  0.5858 -0.6173  0.7946
 3775SOL     OW22786   1.224   3.185   4.445 -0.7202  0.0951  0.2285
 3775SOL    HW122787   1.310   3.227   4.446  0.3018 -2.0231  1.9827
 3775SOL    HW222788   1.171   3.234   4.508 -0.7484  0.6137 -0.1998
 3776SOL     OW22789   1.095   4.689   1.143  0.3541  0.2669  0.4124
 3776SOL    HW122790   1.167   4.712   1.203  1.2251  2.3566 -1.4270
 3776SOL    HW222791   1.043   4.636   1.204 -2.0783  0.4225 -1.5560
 3777SOL     OW22792   3.327   4.525   8.193  0.2260 -0.2982  0.2038
 3777SOL    HW122793   3.408   4.563   8.160  0.8548 -2.6611 -0.9883
 3777SOL    HW222794   3.312   4.583   8.267  0.0460  1.3140 -1.1171
 3778SOL     OW22795   4.261   0.606   7.237  0.3162 -0.5033  0.5214
 3778SOL    HW122796   4.175   0.566   7.254 -0.2674  0.3396 -0.4582
 3778SOL    HW222797   4.318   0.529   7.240  1.3785  0.2957  0.8878
 3779SOL     OW22798   4.169   0.969   8.187  0.3300 -0.0903 -0.1868
 3779SOL    HW122799   4.215   1.037   8.237  0.4273 -0.8716  0.8057
 3779SOL    HW222800   4.106   0.943   8.254  0.8668 -2.7728 -0.7091
 3780SOL     OW22801   4.009   1.052   2.356  0.5468  0.3398 -0.0309
 3780SOL    HW122802   4.017   0.961   2.326  0.1448 -0.3301  1.8976
 3780SOL    HW222803   3.924   1.071   2.316  0.5600 -2.1105 -1.2680
 3781SOL     OW22804   1.332   3.384   5.089  0.0210 -0.1780  0.2458
 3781SOL    HW122805   1.253   3.430   5.059 -0.8233 -0.3064  2.2631
 3781SOL    HW222806   1.364   3.343   5.008 -1.6779 -0.5610 -0.2372
 3782SOL     OW22807   3.267   2.671   3.249 -0.2621 -0.6035  0.3814
 3782SOL    HW122808   3.325   2.620   3.192 -0.3042  0.8885 -1.0249
 3782SOL    HW222809   3.231   2.608   3.312 -0.9841  0.9928  1.5510
 3783SOL     OW22810   2.004   0.137   4.417  0.0721 -0.2976  0.2097
 3783SOL    HW122811   2.076   0.201   4.414  0.7140 -1.1235 -2.4192
 3783SOL    HW222812   2.060   0.061   4.405 -0.6559 -1.2720  3.1065
 3784SOL     OW22813   0.496   0.493   1.670 -0.0412  0.0659  0.2278
 3784SOL    HW122814   0.545   0.411   1.682 -2.1659 -0.9944  1.6509
 3784SOL    HW222815   0.435   0.465   1.603  2.8026 -0.7520 -2.0209
 3785SOL     OW22816   3.432   2.432   2.209  0.1607  0.0202 -0.4573
 3785SOL    HW122817   3.422   2.492   2.282 -0.6455 -0.3989 -0.2225
 3785SOL    HW222818   3.418   2.491   2.135  2.1344  0.8230 -0.1788
 3786SOL     OW22819   0.998   1.275   0.421 -0.2358  0.4871 -0.3596
 3786SOL    HW122820   0.953   1.191   0.410 -2.4773  1.8465 -1.6220
 3786SOL    HW222821   0.947   1.318   0.352 -2.9167  0.0579  1.3256
 3787SOL     OW22822   2.323   3.418   3.518 -0.8103  0.3394  0.3848
 3787SOL    HW122823   2.256   3.375   3.572  0.6762 -1.9909  0.3676
 3787SOL    HW222824   2.390   3.442   3.582  0.2604 -0.7351 -0.3406
 3788SOL     OW22825   3.340   4.641   9.819  0.0029 -0.0521  0.4696
 3788SOL    HW122826   3.336   4.560   9.871  0.7417 -0.4036 -0.0067
 3788SOL    HW222827   3.323   4.707   9.886  0.1833 -1.7006  2.1594
 3789SOL     OW22828   2.172   3.369   3.307 -0.1881 -0.1468  0.2277
 3789SOL    HW122829   2.138   3.451   3.270  1.0752 -0.2023 -1.0177
 3789SOL    HW222830   2.226   3.407   3.376 -1.4012  0.8482  0.6317
 3790SOL     OW22831   0.214   3.292  17.046 -0.1264  0.0220  0.0086
 3790SOL    HW122832   0.205   3.378  17.086 -1.3879 -0.7313  1.3175
 3790SOL    HW222833   0.122   3.277  17.023 -0.2980  1.1417 -0.0340
 3791SOL     OW22834   4.288   0.644   2.769  0.0886 -0.2237 -0.1167
 3791SOL    HW122835   4.248   0.596   2.697 -1.1373 -1.6636  1.5132
 3791SOL    HW222836   4.371   0.597   2.773  0.3057  0.1182 -0.7159
 3792SOL     OW22837   3.354   1.966   8.286 -0.1779  0.3355  0.7840
 3792SOL    HW122838   3.445   1.990   8.268 -0.7449  1.6552 -0.3075
 3792SOL    HW222839   3.311   2.023   8.222 -1.0608 -2.5412 -1.1563
 3793SOL     OW22840   4.662   3.889   6.482  0.2597  0.0667 -0.1246
 3793SOL    HW122841   4.580   3.911   6.439  0.8917 -0.3518 -1.5474
 3793SOL    HW222842   4.714   3.856   6.408 -0.7999 -0.2521 -0.7200
 3794SOL     OW22843   3.206   4.517   1.964 -0.3842  0.8588  0.3353
 3794SOL    HW122844   3.211   4.438   2.017  1.4387  1.1143  0.5550
 3794SOL    HW222845   3.161   4.480   1.888  1.4188 -0.2532 -0.2028
 3795SOL     OW22846   3.862   4.579   6.718 -0.0355  0.1218 -0.0791
 3795SOL    HW122847   3.935   4.540   6.766  0.0540  0.8605  0.3852
 3795SOL    HW222848   3.791   4.516   6.727  0.9318 -0.9755 -0.0877
 3796SOL     OW22849   4.272   4.102   5.942 -0.0327 -0.3437 -0.1009
 3796SOL    HW122850   4.240   4.181   5.985 -1.1419 -0.6987 -0.2868
 3796SOL    HW222851   4.329   4.069   6.012 -0.3054  1.4065  0.9464
 3797SOL     OW22852   3.683   1.973  10.174  0.2862 -0.3637 -0.1542
 3797SOL    HW122853   3.733   1.999  10.252 -0.5049  0.4088  0.0918
 3797SOL    HW222854   3.664   2.064  10.152 -0.4898 -0.6631 -0.7038
 3798SOL     OW22855   4.176   4.107   2.625  0.2266  0.0466  0.0465
 3798SOL    HW122856   4.115   4.108   2.551  0.1701 -1.3211  0.0853
 3798SOL    HW222857   4.222   4.026   2.607  0.1617 -0.4912  2.2658
 3799SOL     OW22858   0.390   3.262   4.524 -0.0935 -0.6512 -0.2103
 3799SOL    HW122859   0.295   3.256   4.526 -0.1038  0.2225  1.4082
 3799SOL    HW222860   0.412   3.172   4.551  3.7033 -0.1657 -1.5666
 3800SOL     OW22861   2.098   3.753  10.885 -0.1513  0.2632  0.0557
 3800SOL    HW122862   2.072   3.845  10.893 -1.8596 -0.1558 -0.7588
 3800SOL    HW222863   2.012   3.714  10.902 -1.4797  2.4420 -1.6958
 3801SOL     OW22864   4.338   1.521  14.542 -0.0244 -0.0346 -0.3147
 3801SOL    HW122865   4.376   1.433  14.537  1.0123  0.3458  0.9336
 3801SOL    HW222866   4.248   1.506  14.570 -0.0106 -0.0337 -0.2701
 3802SOL     OW22867   3.445   2.060   3.368  0.0536 -0.1197 -0.1932
 3802SOL    HW122868   3.518   2.039   3.426  0.7759  3.9298  0.3903
 3802SOL    HW222869   3.366   2.059   3.422 -1.8681 -2.8514 -3.0641
 3803SOL     OW22870   1.667   2.116   6.339  0.6022 -0.0232 -0.0382
 3803SOL    HW122871   1.615   2.176   6.392 -0.9171 -1.3242 -0.0637
 3803SOL    HW222872   1.713   2.179   6.283  0.9165 -0.4376 -0.2537
 3804SOL     OW22873   0.714   1.997  10.383  0.2434 -0.4509  0.3721
 3804SOL    HW122874   0.747   1.910  10.359  4.6731  1.3214  0.0448
 3804SOL    HW222875   0.784   2.046  10.340 -2.3281  0.2803 -2.9607
 3805SOL     OW22876   2.950   3.844   4.777  0.9201 -0.0542  0.0037
 3805SOL    HW122877   2.932   3.917   4.836  3.1595  0.1119  0.4731
 3805SOL    HW222878   3.003   3.787   4.832 -0.8222 -1.6543  0.0335
 3806SOL     OW22879   2.392   4.085   6.605 -0.1737 -0.7154 -0.0448
 3806SOL    HW122880   2.310   4.050   6.641  0.1168 -2.0054 -0.6630
 3806SOL    HW222881   2.424   4.125   6.686 -3.5806  0.6174  0.6625
 3807SOL     OW22882   4.113   4.112  15.213 -0.3067  0.0266 -0.0116
 3807SOL    HW122883   4.133   4.024  15.180  1.6954  0.7977 -0.8129
 3807SOL    HW222884   4.051   4.139  15.146 -0.4624 -2.4754 -0.8884
 3808SOL     OW22885   0.548   3.168  10.272  0.2602  0.1121  0.0907
 3808SOL    HW122886   0.522   3.077  10.283  1.9467 -0.4430 -0.6450
 3808SOL    HW222887   0.633   3.168  10.316  0.5969  0.4159 -0.5566
 3809SOL     OW22888   0.698   1.296   8.608  0.0487  0.2056 -0.0332
 3809SOL    HW122889   0.663   1.242   8.537  1.5670  1.7607 -1.9686
 3809SOL    HW222890   0.785   1.256   8.620  0.1738  0.2642 -0.7568
 3810SOL     OW22891   0.154   3.624  14.918  0.6141  0.1879  0.4515
 3810SOL    HW122892   0.156   3.687  14.847 -0.0980  1.6355  1.7205
 3810SOL    HW222893   0.174   3.676  14.995 -1.3231  1.0115  0.3936
 3811SOL     OW22894   2.159   1.811   8.052 -0.8077  0.1432 -0.4679
 3811SOL    HW122895   2.194   1.722   8.044 -0.1757  0.2210  1.4617
 3811SOL    HW222896   2.232   1.863   8.018 -0.7959  0.9013  0.7351
 3812SOL     OW22897   1.719   1.771   9.432  0.2879 -0.2527 -0.2895
 3812SOL    HW122898   1.763   1.686   9.441  0.2260 -0.3148 -0.5950
 3812SOL    HW222899   1.758   1.827   9.500  0.8902 -2.5868  1.3268
 3813SOL     OW22900   1.520   3.525   3.831  0.0355  0.0515 -0.1123
 3813SOL    HW122901   1.504   3.433   3.852  2.7954 -0.2963  0.4899
 3813SOL    HW222902   1.603   3.538   3.877  0.9569 -0.5118 -1.6163
 3814SOL     OW22903   2.011   2.404   6.624 -0.6620 -0.1827 -0.1055
 3814SOL    HW122904   2.080   2.450   6.672 -0.6888  1.0571 -1.2532
 3814SOL    HW222905   1.961   2.482   6.600 -0.2332 -0.1247 -0.8305
 3815SOL     OW22906   2.125   2.648   2.121 -0.4754 -0.1931  0.7731
 3815SOL    HW122907   2.104   2.555   2.117 -2.5019  0.2718  0.4884
 3815SOL    HW222908   2.159   2.649   2.210 -1.4900 -0.1810  1.1495
 3816SOL     OW22909   0.053   2.723   7.988  0.0927 -0.1649  0.1257
 3816SOL    HW122910   0.069   2.684   7.903 -2.8937  2.1071 -1.5082
 3816SOL    HW222911   4.688   2.701   8.018  0.1012  0.4550  0.6326
 3817SOL     OW22912   1.871   2.353   1.107  0.1520  0.4470  0.3136
 3817SOL    HW122913   1.913   2.371   1.191 -0.8883  3.2360  0.2580
 3817SOL    HW222914   1.792   2.406   1.121 -0.0658  0.0574  0.5427
 3818SOL     OW22915   1.084   2.891   8.882 -0.1017 -0.4319  0.2101
 3818SOL    HW122916   1.117   2.969   8.927 -0.7591  0.5400 -1.0028
 3818SOL    HW222917   0.991   2.914   8.881 -0.4558 -1.8189  1.1595
 3819SOL     OW22918   1.213   3.945   1.672  0.2844 -0.0086  0.5331
 3819SOL    HW122919   1.235   3.963   1.580  0.7606 -0.5479  0.5400
 3819SOL    HW222920   1.118   3.958   1.675  0.1633 -0.6510 -0.3840
 3820SOL     OW22921   3.744   0.694   1.246  0.4317  0.0306 -0.1717
 3820SOL    HW122922   3.770   0.686   1.338 -2.1692  0.9750  0.6315
 3820SOL    HW222923   3.761   0.788   1.240  1.1936 -0.1621 -1.1560
 3821SOL     OW22924   0.481   1.636   8.313  0.4119  0.4509 -0.1851
 3821SOL    HW122925   0.411   1.604   8.257  0.1403 -0.1015  0.4620
 3821SOL    HW222926   0.542   1.563   8.308 -0.1740 -0.0049 -0.5987
 3822SOL     OW22927   2.401   3.645   5.696 -0.7017 -0.4287 -0.1141
 3822SOL    HW122928   2.473   3.692   5.738 -0.9401 -0.6785  0.5657
 3822SOL    HW222929   2.410   3.664   5.602  0.1587 -0.1324  0.0307
 3823SOL     OW22930   2.099   3.614   7.111  0.4912 -0.6495  0.5975
 3823SOL    HW122931   2.076   3.700   7.147  1.1568 -0.3306  0.2490
 3823SOL    HW222932   2.047   3.623   7.031  2.1047 -1.9428 -0.5917
 3824SOL     OW22933   3.924   2.662   5.085 -0.0721 -0.8870 -0.0217
 3824SOL    HW122934   3.834   2.696   5.086 -0.2304 -1.3437  1.0944
 3824SOL    HW222935   3.961   2.729   5.027  0.7698 -1.1891  0.1760
 3825SOL     OW22936   2.707   3.638   2.820  0.1199  0.1539  0.2365
 3825SOL    HW122937   2.777   3.581   2.850 -0.1111 -0.0947  0.3092
 3825SOL    HW222938   2.757   3.711   2.784 -0.6011 -0.2013 -1.4983
 3826SOL     OW22939   1.443   2.109   9.574 -0.4865  0.2127  0.0988
 3826SOL    HW122940   1.456   2.020   9.543  1.0262 -0.3395  2.3666
 3826SOL    HW222941   1.535   2.124   9.598 -0.3480 -2.0327  0.9381
 3827SOL     OW22942   1.750   0.402   1.925  0.1109 -0.0145 -0.2240
 3827SOL    HW122943   1.714   0.400   2.014  0.5653  1.0703 -0.0182
 3827SOL    HW222944   1.764   0.308   1.912  0.0165 -0.0644  0.0406
 3828SOL     OW22945   0.542   3.558   9.213 -0.4508 -0.1546  0.1750
 3828SOL    HW122946   0.484   3.552   9.136  2.0928 -0.7765 -1.6849
 3828SOL    HW222947   0.485   3.612   9.269  0.6759  1.6636 -0.4339
 3829SOL     OW22948   1.136   1.385   5.673  0.2962  0.0276  0.4690
 3829SOL    HW122949   1.177   1.317   5.620 -1.2514 -0.3323 -0.2760
 3829SOL    HW222950   1.152   1.359   5.764 -1.4988 -1.0347  0.4956
 3830SOL     OW22951   0.060   2.905  16.301 -0.4880 -0.2349 -0.1640
 3830SOL    HW122952   0.046   2.819  16.262  0.6511  0.0457 -1.1773
 3830SOL    HW222953   0.089   2.957  16.227  0.0545  0.5498  0.6141
 3831SOL     OW22954   3.881   1.811   6.699 -0.1090  0.9654 -0.2975
 3831SOL    HW122955   3.816   1.881   6.688 -1.2031  0.0584  0.3962
 3831SOL    HW222956   3.839   1.742   6.647 -0.0323 -0.9906  2.2434
 3832SOL     OW22957   3.099   1.248  12.504 -0.2197  0.1519 -0.4847
 3832SOL    HW122958   3.056   1.310  12.563  0.2711 -2.8767  3.0692
 3832SOL    HW222959   3.131   1.192  12.575 -0.9617 -1.0856 -1.1242
 3833SOL     OW22960   3.037   2.392   3.789  0.8346 -0.3050 -0.0890
 3833SOL    HW122961   3.084   2.400   3.706  1.1937 -0.8509  0.0658
 3833SOL    HW222962   2.954   2.357   3.756  0.4637 -0.1580  0.6909
 3834SOL     OW22963   2.223   0.497   0.728  0.2982 -0.3590  0.6359
 3834SOL    HW122964   2.299   0.555   0.727 -0.3453  0.4671 -1.2372
 3834SOL    HW222965   2.232   0.452   0.644 -2.6184  1.4447 -0.6394
 3835SOL     OW22966   2.379   2.329   8.304  0.1041  0.1318 -0.7527
 3835SOL    HW122967   2.419   2.248   8.337 -2.1397 -0.7178 -0.1395
 3835SOL    HW222968   2.302   2.340   8.359  1.2412  1.7815  0.5077
 3836SOL     OW22969   1.030   0.112   5.623  0.0431  0.1879  0.7034
 3836SOL    HW122970   1.082   0.192   5.618  1.5137 -0.8079 -0.2411
 3836SOL    HW222971   0.989   0.103   5.537 -1.7316  0.6633  1.5032
 3837SOL     OW22972   2.427   2.810  12.650  0.3943  0.3193  0.4505
 3837SOL    HW122973   2.444   2.887  12.705  0.5181 -0.7378  1.8866
 3837SOL    HW222974   2.435   2.741  12.716  3.0077 -0.4182 -0.6377
 3838SOL     OW22975   0.347   3.980   7.749  0.0170 -0.1918  0.1241
 3838SOL    HW122976   0.366   3.891   7.777  0.5267  0.0107  0.4223
 3838SOL    HW222977   0.252   3.987   7.743  0.0174 -0.3620 -0.0736
 3839SOL     OW22978   1.057   2.716   7.569  0.3701  0.0454 -0.3205
 3839SOL    HW122979   1.046   2.622   7.558 -0.4239  0.2758 -1.4471
 3839SOL    HW222980   1.144   2.712   7.610  0.2819  1.3263 -0.0042
 3840SOL     OW22981   3.837   0.062   8.310  0.0847  0.1582  0.4293
 3840SOL    HW122982   3.906   0.038   8.371 -0.6098 -3.5596 -0.2569
 3840SOL    HW222983   3.859   0.011   8.232  3.2707  1.7927  0.2682
 3841SOL     OW22984   1.159   0.401   1.338  0.4762 -0.8495 -1.4526
 3841SOL    HW122985   1.131   0.493   1.341 -0.4241 -1.1286 -1.3234
 3841SOL    HW222986   1.077   0.356   1.319 -0.6984 -0.3544  2.4222
 3842SOL     OW22987   0.017   0.726   6.699 -0.1374  0.4364 -0.3475
 3842SOL    HW122988   4.694   0.798   6.658 -1.9411 -0.0488  0.7992
 3842SOL    HW222989   4.689   0.723   6.780 -1.5205 -1.5644 -1.2858
 3843SOL     OW22990   0.435   1.194   5.121 -0.2340  0.0047  0.2999
 3843SOL    HW122991   0.393   1.275   5.092 -1.7318 -0.9883 -0.2807
 3843SOL    HW222992   0.357   1.144   5.144  1.2882 -2.2347  0.6381
 3844SOL     OW22993   4.277   4.399  13.107 -0.4442  0.0090 -0.0803
 3844SOL    HW122994   4.274   4.473  13.046  2.9800  0.5872  0.4211
 3844SOL    HW222995   4.336   4.339  13.063 -1.5935 -0.4953 -0.9167
 3845SOL     OW22996   3.514   2.165  10.990  0.3433  0.0929  0.1156
 3845SOL    HW122997   3.489   2.213  10.911 -0.0555 -0.2211  0.0511
 3845SOL    HW222998   3.435   2.117  11.015  1.6608 -1.5373  1.1271
 3846SOL     OW22999   4.454   0.791   8.724  0.0304  0.1234  0.1730
 3846SOL    HW123000   4.493   0.873   8.695  1.6068 -0.6149  0.1838
 3846SOL    HW223001   4.500   0.769   8.805  1.6030  0.0060 -0.7368
 3847SOL     OW23002   1.626   1.543  11.129 -0.2351 -0.1531  0.0454
 3847SOL    HW123003   1.536   1.513  11.145  0.1101  0.5121  3.3254
 3847SOL    HW223004   1.654   1.475  11.068  0.3301  0.1621 -0.0416
 3848SOL     OW23005   4.451   1.015   5.618  0.2614 -0.0239  0.0155
 3848SOL    HW123006   4.448   0.920   5.616 -0.7392  0.0478 -2.6023
 3848SOL    HW223007   4.387   1.039   5.686 -0.5855  2.0612 -1.4949
 3849SOL     OW23008   2.814   1.447  14.471 -0.7040  0.1837  0.5136
 3849SOL    HW123009   2.796   1.411  14.557 -0.8549  1.2293  0.9186
 3849SOL    HW223010   2.812   1.368  14.416 -0.5134 -0.9017  2.0727
 3850SOL     OW23011   2.227   1.451   7.902  0.2352 -0.3114  0.2585
 3850SOL    HW123012   2.177   1.495   7.832  0.5183  1.8193  1.3882
 3850SOL    HW223013   2.178   1.369   7.902 -0.6790  0.2269  0.2369
 3851SOL     OW23014   2.888   1.462   0.918  0.7118  0.5253  0.2630
 3851SOL    HW123015   2.899   1.539   0.974  2.0616  0.9670 -0.6046
 3851SOL    HW223016   2.805   1.423   0.942  0.7734  0.7985  0.9220
 3852SOL     OW23017   2.733   4.143   3.367 -0.0204 -0.2571  0.3408
 3852SOL    HW123018   2.699   4.169   3.453 -0.3983 -1.4872  0.5686
 3852SOL    HW223019   2.731   4.219   3.308  1.1132  1.1362  2.0867
 3853SOL     OW23020   1.776   2.646  11.565 -0.2424 -0.3911 -0.1965
 3853SOL    HW123021   1.710   2.672  11.629  0.0591  2.8885 -1.1670
 3853SOL    HW223022   1.847   2.606  11.614  0.3129 -0.0954 -0.7616
 3854SOL     OW23023   0.725   3.875   1.629  0.0584 -0.4427 -0.2661
 3854SOL    HW123024   0.701   3.795   1.584 -1.7194 -0.0073 -0.1142
 3854SOL    HW223025   0.645   3.924   1.647  0.2780 -0.3023  0.3289
 3855SOL     OW23026   4.609   1.364   8.696  0.4027 -0.3059  0.3218
 3855SOL    HW123027   4.665   1.345   8.771  2.1010 -2.8285 -1.5686
 3855SOL    HW223028   4.555   1.432   8.736 -0.1074  0.3026 -1.4032
 3856SOL     OW23029   3.370   3.231   9.553  0.1668 -0.5469 -0.0568
 3856SOL    HW123030   3.395   3.204   9.465 -1.0974 -1.1299 -0.2348
 3856SOL    HW223031   3.434   3.299   9.576 -2.4857  1.7384  0.6638
 3857SOL     OW23032   2.037   1.113   4.956 -0.2692  0.0650 -0.0120
 3857SOL    HW123033   2.122   1.088   4.993 -0.4459 -1.4618 -0.6470
 3857SOL    HW223034   2.020   1.030   4.912  0.4087  0.0144 -0.1755
 3858SOL     OW23035   0.290   3.899  11.454 -0.6943 -0.0466  0.1400
 3858SOL    HW123036   0.205   3.856  11.462  0.1674 -2.0249 -1.3835
 3858SOL    HW223037   0.304   3.885  11.360  0.2019 -1.5856  0.5094
 3859SOL     OW23038   4.259   1.007  14.484 -0.0153  0.1951 -0.3458
 3859SOL    HW123039   4.254   1.018  14.579 -0.5908 -2.1276 -0.0908
 3859SOL    HW223040   4.312   0.927  14.480 -1.3511 -0.5470 -3.2000
 3860SOL     OW23041   3.035   0.551   6.834  0.1881  0.0425  0.2395
 3860SOL    HW123042   2.979   0.601   6.775  1.6700 -0.4058 -1.5472
 3860SOL    HW223043   3.009   0.461   6.817  1.8968 -0.3629 -0.2786
 3861SOL     OW23044   3.784   2.192   3.825 -0.6066 -0.4608 -0.8855
 3861SOL    HW123045   3.859   2.233   3.783  0.0337  1.1533  1.8113
 3861SOL    HW223046   3.761   2.252   3.895  0.2374 -0.9769 -0.1569
 3862SOL     OW23047   1.326   3.494   0.616  0.0898 -0.4398 -0.1527
 3862SOL    HW123048   1.331   3.447   0.532 -2.4596  0.4691 -0.8182
 3862SOL    HW223049   1.354   3.424   0.675 -1.1886 -2.2051 -1.6229
 3863SOL     OW23050   0.665   4.344   3.986  0.4629 -0.2648  0.7009
 3863SOL    HW123051   0.716   4.284   3.931 -0.9377  0.7934 -1.7501
 3863SOL    HW223052   0.583   4.295   3.996 -0.2536  0.8204  0.1908
 3864SOL     OW23053   3.869   4.464   7.108  0.0688  0.4929  0.0913
 3864SOL    HW123054   3.888   4.390   7.166  3.0382 -0.0873 -1.6336
 3864SOL    HW223055   3.909   4.431   7.028 -0.7223  2.4273 -1.1009
 3865SOL     OW23056   3.165   1.519   2.407 -0.1255  0.2353  0.0667
 3865SOL    HW123057   3.091   1.459   2.412  0.9941 -1.2414 -1.1919
 3865SOL    HW223058   3.225   1.456   2.367 -0.6531 -0.0139 -0.3366
 3866SOL     OW23059   0.638   3.873   9.498  0.0746  0.4989  0.3537
 3866SOL    HW123060   0.664   3.936   9.565 -2.7581  1.5425  0.4917
 3866SOL    HW223061   0.598   3.806   9.553  0.2659  0.1998  0.1265
 3867SOL     OW23062   2.382   2.714  15.182 -0.4817  0.0918  0.0613
 3867SOL    HW123063   2.298   2.758  15.189 -0.8437 -0.7088  0.7960
 3867SOL    HW223064   2.356   2.634  15.136 -0.0781 -1.2500  2.1487
 3868SOL     OW23065   2.788   2.396   5.388 -0.1646  0.5243 -0.2918
 3868SOL    HW123066   2.754   2.309   5.411 -1.4288  0.5286 -2.2139
 3868SOL    HW223067   2.725   2.408   5.318 -0.3186  1.0689 -0.0602
 3869SOL     OW23068   3.571   0.452   6.284 -0.3798  0.5220  0.0776
 3869SOL    HW123069   3.622   0.374   6.305 -1.1472 -0.4231 -1.4846
 3869SOL    HW223070   3.519   0.463   6.363  0.1478 -0.3954  0.5552
 3870SOL     OW23071   0.446   3.872   2.414 -0.1100 -0.4166  0.6629
 3870SOL    HW123072   0.357   3.877   2.449 -0.8243  1.1734 -1.4096
 3870SOL    HW223073   0.444   3.789   2.366  0.9703 -0.9865  1.5978
 3871SOL     OW23074   3.389   0.720   7.522 -0.1763 -0.7810  0.1017
 3871SOL    HW123075   3.424   0.808   7.530 -2.7671  0.3745 -1.0209
 3871SOL    HW223076   3.393   0.687   7.611 -0.5592 -3.3260 -0.8166
 3872SOL     OW23077   2.540   0.842   1.431  0.1843  0.7050 -0.4078
 3872SOL    HW123078   2.503   0.848   1.343  2.4051  2.5342 -1.2292
 3872SOL    HW223079   2.509   0.755   1.455  1.8639  0.8525  2.3254
 3873SOL     OW23080   2.878   1.442   7.561  0.1160  0.3913 -0.3076
 3873SOL    HW123081   2.826   1.362   7.567  0.2581  0.3875  0.8272
 3873SOL    HW223082   2.926   1.451   7.643  0.0683  0.7181 -0.3131
 3874SOL     OW23083   3.843   2.518   8.855  0.5618 -0.4044 -0.3653
 3874SOL    HW123084   3.919   2.523   8.797 -1.0399  3.6699 -2.1709
 3874SOL    HW223085   3.785   2.577   8.807  1.3743  0.3559 -0.4293
 3875SOL     OW23086   3.894   2.274  14.137 -0.3539 -0.1881  0.0150
 3875SOL    HW123087   3.818   2.331  14.150  1.7710  2.4303  1.0250
 3875SOL    HW223088   3.857   2.186  14.135  0.3815 -0.4811 -0.6025
 3876SOL     OW23089   3.258   1.795   2.635  0.2223 -0.4362  0.3394
 3876SOL    HW123090   3.282   1.743   2.558 -0.5579 -2.0774  1.2042
 3876SOL    HW223091   3.235   1.881   2.599 -0.3388 -1.7377 -2.4428
 3877SOL     OW23092   1.191   2.923   4.424  0.2574  0.0989 -0.6536
 3877SOL    HW123093   1.191   3.009   4.383  1.1828  0.2637 -0.3285
 3877SOL    HW223094   1.284   2.903   4.442 -0.4637  0.2727  3.4318
 3878SOL     OW23095   2.111   1.608   6.746  0.2489  0.0268 -0.1415
 3878SOL    HW123096   2.062   1.666   6.688 -0.6131  0.0173  0.5837
 3878SOL    HW223097   2.060   1.615   6.826  0.4525  1.7898 -0.1675
 3879SOL     OW23098   4.449   0.615   3.257  0.2296  0.2557 -0.0955
 3879SOL    HW123099   4.412   0.663   3.184  0.1939  0.8083  0.2860
 3879SOL    HW223100   4.484   0.534   3.219 -1.1582 -0.2508 -0.3049
 3880SOL     OW23101   2.423   0.959   2.000  0.0748 -0.1093 -0.0162
 3880SOL    HW123102   2.453   1.048   2.016 -2.1996  0.9980 -1.8117
 3880SOL    HW223103   2.470   0.912   2.068 -1.0328  0.0081  0.8355
 3881SOL     OW23104   1.363   2.691  11.477 -0.0062 -0.2885  0.1508
 3881SOL    HW123105   1.354   2.771  11.529  1.3259  0.8128 -1.3145
 3881SOL    HW223106   1.269   2.680  11.463 -0.3195  0.8017  1.4716
 3882SOL     OW23107   4.690   0.297  12.135 -0.0903 -0.6077 -0.6359
 3882SOL    HW123108   4.625   0.300  12.206  0.2662  0.5696 -0.3498
 3882SOL    HW223109   4.641   0.348  12.070  0.6336 -1.7204 -2.0363
 3883SOL     OW23110   4.040   3.576   2.994 -0.4365  0.2117  0.5907
 3883SOL    HW123111   4.135   3.570   2.986 -0.6499 -0.8607 -1.1242
 3883SOL    HW223112   4.019   3.594   2.903  3.1867  0.1113 -0.2395
 3884SOL     OW23113   4.388   0.569   7.920  0.3992 -0.4667  0.7910
 3884SOL    HW123114   4.427   0.594   8.004  0.6982 -0.0285  0.5265
 3884SOL    HW223115   4.305   0.616   7.926  1.1909  1.3429 -2.5264
 3885SOL     OW23116   1.822   0.032   8.815 -0.1657  0.6496 -0.5540
 3885SOL    HW123117   1.908   0.073   8.819 -0.1466  0.6316 -0.7488
 3885SOL    HW223118   1.801   0.028   8.908  2.3597  0.7191  0.0048
 3886SOL     OW23119   3.173   3.594   1.198  0.1688  0.1490 -0.4280
 3886SOL    HW123120   3.187   3.508   1.158 -1.1541 -0.9535  1.4568
 3886SOL    HW223121   3.181   3.643   1.117  3.1742  2.7205  1.4019
 3887SOL     OW23122   2.417   1.633   8.083  0.1373 -0.1054 -0.1230
 3887SOL    HW123123   2.484   1.675   8.029 -0.7941  0.7632 -0.5880
 3887SOL    HW223124   2.400   1.549   8.040  0.9203 -0.8056  0.9119
 3888SOL     OW23125   2.047   4.372   7.069 -0.0035  0.3693 -0.2472
 3888SOL    HW123126   2.070   4.462   7.094 -1.4076  0.9191 -0.9073
 3888SOL    HW223127   2.081   4.324   7.144 -0.7620 -0.3642 -0.3765
 3889SOL     OW23128   1.582   0.660   3.462  0.0045 -0.4305 -0.2608
 3889SOL    HW123129   1.542   0.599   3.524 -0.7479  1.0399  0.6764
 3889SOL    HW223130   1.551   0.745   3.493  1.4275 -0.5186  1.4678
 3890SOL     OW23131   2.020   1.482   9.719 -0.6569 -0.0197  0.7168
 3890SOL    HW123132   2.042   1.555   9.777  0.3544  1.3022 -1.3327
 3890SOL    HW223133   1.999   1.417   9.786 -2.6495  0.7002  0.7997
 3891SOL     OW23134   0.997   4.052   2.335 -0.2217 -0.3041 -0.6812
 3891SOL    HW123135   1.034   4.035   2.421  1.2205 -0.0504 -1.2389
 3891SOL    HW223136   1.079   4.056   2.286  0.9007 -2.5142  1.0465
 3892SOL     OW23137   0.032   4.648  17.027 -0.0427  0.3418 -0.4765
 3892SOL    HW123138   0.013   4.560  16.993  1.0586 -0.9477  2.2117
 3892SOL    HW223139   0.121   4.633  17.060  0.0245  1.2784 -0.2286
 3893SOL     OW23140   2.161   4.197   0.260 -0.1167  0.1749 -0.4537
 3893SOL    HW123141   2.225   4.127   0.252 -2.5901 -1.9411 -1.8506
 3893SOL    HW223142   2.210   4.259   0.314 -2.0767 -1.4590  3.2076
 3894SOL     OW23143   0.542   1.165   6.753  0.0515 -0.4060  0.1809
 3894SOL    HW123144   0.548   1.106   6.678  1.5729 -0.9659  0.7390
 3894SOL    HW223145   0.448   1.182   6.764  0.1918  1.1030 -1.0687
 3895SOL     OW23146   1.935   3.378  13.943  0.2803  0.7635 -0.4470
 3895SOL    HW123147   1.934   3.473  13.934 -0.6022  0.8784  0.7594
 3895SOL    HW223148   2.023   3.343  13.956 -0.0137  0.1061 -0.1854
 3896SOL     OW23149   3.742   3.477  14.950  0.0745  0.6256  0.4096
 3896SOL    HW123150   3.801   3.497  15.022 -0.5829 -0.0227  1.1255
 3896SOL    HW223151   3.769   3.523  14.870 -2.4563  0.5797 -0.4641
 3897SOL     OW23152   1.510   1.423   0.540  0.4467 -0.1582  0.4139
 3897SOL    HW123153   1.458   1.348   0.513  0.4809 -0.2049  0.4787
 3897SOL    HW223154   1.594   1.379   0.552  0.5116  0.0676  0.7931
 3898SOL     OW23155   0.537   4.137  12.322  0.4517  0.8569  0.3093
 3898SOL    HW123156   0.458   4.113  12.371  0.8330  1.4846  1.2336
 3898SOL    HW223157   0.581   4.052  12.322  1.6577  1.4844  0.1156
 3899SOL     OW23158   1.444   4.152   8.616 -0.1383 -0.7014 -0.3396
 3899SOL    HW123159   1.496   4.230   8.596 -1.2843  0.2148  0.2268
 3899SOL    HW223160   1.494   4.104   8.551 -2.0222 -0.5482 -1.8800
 3900SOL     OW23161   0.212   3.101   7.493  0.3540  0.4802  0.4103
 3900SOL    HW123162   0.276   3.108   7.564 -2.4993 -1.2034  3.1627
 3900SOL    HW223163   0.251   3.024   7.452  0.2192 -0.7466  2.5983
 3901SOL     OW23164   0.359   2.512  11.500  0.0614 -0.0829 -0.7535
 3901SOL    HW123165   0.360   2.497  11.405  1.7030  0.5089 -0.8342
 3901SOL    HW223166   0.421   2.586  11.497  1.9562 -1.6098  0.5986
 3902SOL     OW23167   4.336   2.124   4.126 -0.5495 -0.0998 -0.2836
 3902SOL    HW123168   4.275   2.162   4.063 -0.4100 -0.4908 -0.6617
 3902SOL    HW223169   4.362   2.041   4.085 -2.7706 -0.2727 -1.3126
 3903SOL     OW23170   2.875   1.383  13.640 -0.4516 -0.1325  0.1356
 3903SOL    HW123171   2.965   1.414  13.638 -0.7019  0.3624 -3.6797
 3903SOL    HW223172   2.842   1.438  13.568  1.7174 -0.6273 -1.2325
 3904SOL     OW23173   0.967   1.374  16.617  0.3265  0.3081  0.2694
 3904SOL    HW123174   0.975   1.468  16.637 -0.7173  0.6156 -0.7422
 3904SOL    HW223175   0.945   1.334  16.702 -1.1381 -0.6435 -0.5596
 3905SOL     OW23176   3.593   1.592   2.150  0.2461 -0.2618  0.2233
 3905SOL    HW123177   3.582   1.588   2.055  0.1036  1.3443  0.1775
 3905SOL    HW223178   3.670   1.649   2.148 -0.5840  0.7415 -2.9815
 3906SOL     OW23179   1.481   1.251   8.709 -0.6369  0.6291  0.2017
 3906SOL    HW123180   1.391   1.266   8.739 -1.5251  0.0478 -2.1094
 3906SOL    HW223181   1.503   1.168   8.750 -2.6838 -0.0670 -0.0713
 3907SOL     OW23182   1.817   0.244  15.293  0.0977 -0.5375 -0.8196
 3907SOL    HW123183   1.760   0.257  15.370  0.4462  1.6815 -0.9524
 3907SOL    HW223184   1.767   0.301  15.234 -0.0923 -0.5534 -0.6761
 3908SOL     OW23185   2.131   3.154   1.327 -0.0439  0.2103 -0.1097
 3908SOL    HW123186   2.117   3.236   1.280  0.7976  0.4780  0.1151
 3908SOL    HW223187   2.200   3.122   1.270  0.6493 -0.9281  1.3732
 3909SOL     OW23188   4.131   2.133   9.422  0.2190  0.0584  0.2655
 3909SOL    HW123189   4.170   2.089   9.497  0.1907 -0.8133 -0.2356
 3909SOL    HW223190   4.175   2.098   9.344  1.2103  0.7103  0.5390
 3910SOL     OW23191   2.410   0.399   3.079  0.2802 -0.3187  0.3924
 3910SOL    HW123192   2.334   0.446   3.047  0.3974  0.9231  1.9287
 3910SOL    HW223193   2.466   0.415   3.003  1.2700  2.1273  1.6527
 3911SOL     OW23194   1.256   3.982   6.724  0.4907 -0.1755  0.3837
 3911SOL    HW123195   1.238   3.998   6.817 -1.5190 -3.3233  0.5491
 3911SOL    HW223196   1.173   3.950   6.688  0.6199  0.9551 -0.9360
 3912SOL     OW23197   0.509   0.094   7.043 -0.4131  0.0011 -0.2563
 3912SOL    HW123198   0.521   0.163   6.978 -0.5961 -0.8599 -1.1927
 3912SOL    HW223199   0.540   0.136   7.124 -0.3893  0.4705 -0.5047
 3913SOL     OW23200   3.286   2.848   8.317 -0.1895  0.3212 -0.0567
 3913SOL    HW123201   3.297   2.767   8.267 -0.4055  0.1694  0.1439
 3913SOL    HW223202   3.345   2.836   8.392 -0.4843 -1.1994 -0.0559
 3914SOL     OW23203   0.124   1.369   9.896 -0.3906  0.0011  0.2647
 3914SOL    HW123204   0.087   1.360   9.984 -0.2109 -1.2406  0.2009
 3914SOL    HW223205   0.050   1.387   9.838 -0.5027 -0.7275  0.1890
 3915SOL     OW23206   3.656   0.543   9.206 -0.0590  0.3874  0.1542
 3915SOL    HW123207   3.669   0.621   9.260 -0.0989 -0.0210  0.7470
 3915SOL    HW223208   3.656   0.568   9.113 -2.7930 -1.0638 -0.2239
 3916SOL     OW23209   2.652   1.968   8.405 -0.1434  0.0935 -0.0124
 3916SOL    HW123210   2.696   1.912   8.470  0.8724 -0.5904 -1.2966
 3916SOL    HW223211   2.667   2.058   8.433  0.2732 -0.2163  0.7762
 3917SOL     OW23212   3.734   2.622   7.512 -0.4585  0.6714 -0.3681
 3917SOL    HW123213   3.758   2.676   7.587 -1.3291  1.7345 -0.8421
 3917SOL    HW223214   3.808   2.563   7.500 -1.1008  0.0883 -1.5026
 3918SOL     OW23215   1.966   1.358   2.920 -0.1802 -0.1125 -0.0372
 3918SOL    HW123216   1.994   1.273   2.885  1.8927  0.8944 -0.8243
 3918SOL    HW223217   1.874   1.351   2.895 -0.2817  0.6990  0.0995
 3919SOL     OW23218   2.790   4.038   9.242 -0.0731 -0.4597 -0.3918
 3919SOL    HW123219   2.884   4.057   9.237 -0.4881  1.6409 -0.1105
 3919SOL    HW223220   2.769   4.055   9.334 -0.1757  0.6536 -0.6295
 3920SOL     OW23221   3.764   3.788   2.105 -0.2522 -0.2118 -0.6561
 3920SOL    HW123222   3.787   3.849   2.035 -0.2662  0.0884 -0.3989
 3920SOL    HW223223   3.675   3.816   2.127  0.2457  1.8535 -1.3278
 3921SOL     OW23224   4.209   4.257   5.377 -0.4549 -0.3223  0.2071
 3921SOL    HW123225   4.179   4.178   5.422 -3.5429  0.3285 -0.7296
 3921SOL    HW223226   4.130   4.281   5.328  1.0276  1.9628 -1.0332
 3922SOL     OW23227   4.668   1.645  14.092 -0.0347 -0.0673  0.3808
 3922SOL    HW123228   0.025   1.592  14.101 -1.2955 -1.6671  2.1201
 3922SOL    HW223229   4.643   1.656  14.183  1.4075 -1.8970  0.9996
 3923SOL     OW23230   2.648   1.662   9.382  0.3904  0.0496  0.5596
 3923SOL    HW123231   2.672   1.651   9.474  0.0186 -1.4216  0.4785
 3923SOL    HW223232   2.736   1.687   9.353 -1.1317  2.6390 -1.8493
 3924SOL     OW23233   4.269   1.470   7.859 -0.7063 -0.2356 -0.6918
 3924SOL    HW123234   4.255   1.558   7.893  0.5555  0.1509 -1.1457
 3924SOL    HW223235   4.354   1.446   7.897 -1.7104 -1.3753  0.8153
 3925SOL     OW23236   4.435   1.714  14.694 -0.0827 -0.0097  0.0088
 3925SOL    HW123237   4.527   1.722  14.669  0.0037 -0.2635  0.2480
 3925SOL    HW223238   4.407   1.657  14.622  1.0705 -0.9824  0.3279
 3926SOL     OW23239   2.199   0.075   9.371 -0.4599 -0.1003 -0.4857
 3926SOL    HW123240   2.214   0.167   9.393 -2.6492  0.5985 -1.9546
 3926SOL    HW223241   2.131   0.050   9.433 -2.9412  2.7810 -2.0250
 3927SOL     OW23242   1.068   0.861   8.595  0.2534 -0.3590 -0.1097
 3927SOL    HW123243   1.134   0.930   8.607 -1.4851  1.7445 -2.8170
 3927SOL    HW223244   1.048   0.846   8.688 -2.6437 -0.2706 -0.7279
 3928SOL     OW23245   2.373   2.346   5.036 -0.6534 -0.0305 -0.4908
 3928SOL    HW123246   2.375   2.315   4.946  1.1501 -1.6281  0.1097
 3928SOL    HW223247   2.318   2.424   5.026 -1.8415 -0.8322 -0.1478
 3929SOL     OW23248   4.289   3.534   8.011 -0.2738 -0.2173 -0.1744
 3929SOL    HW123249   4.277   3.566   7.921  1.4517 -0.9728 -0.6776
 3929SOL    HW223250   4.355   3.469   7.985  1.4756  1.7003 -0.5290
 3930SOL     OW23251   4.422   1.790   4.574 -0.5758 -0.0459 -0.1141
 3930SOL    HW123252   4.501   1.748   4.606 -0.8574 -1.3514 -1.1716
 3930SOL    HW223253   4.450   1.864   4.520  1.6212 -1.3102 -0.6757
 3931SOL     OW23254   1.433   0.460   7.182 -0.6097 -0.7511 -0.1163
 3931SOL    HW123255   1.395   0.515   7.113 -2.2131 -1.5824  0.1335
 3931SOL    HW223256   1.412   0.369   7.161 -0.1809 -1.1021  0.9811
 3932SOL     OW23257   1.417   1.496   9.685 -0.0189 -0.2416 -0.0151
 3932SOL    HW123258   1.424   1.410   9.727  1.0172 -0.1598 -0.0346
 3932SOL    HW223259   1.494   1.544   9.714 -1.4056  0.1326  3.0446
 3933SOL     OW23260   1.798   1.431   5.882  0.0681 -0.3998 -0.1369
 3933SOL    HW123261   1.754   1.465   5.804 -1.3490 -0.6333  0.5450
 3933SOL    HW223262   1.751   1.475   5.954  0.9770  1.4756 -0.6926
 3934SOL     OW23263   3.612   3.888   6.305 -0.1277 -0.1657 -0.3228
 3934SOL    HW123264   3.552   3.934   6.246  0.9128  0.7032 -0.7122
 3934SOL    HW223265   3.601   3.800   6.269  3.0835 -0.0033 -1.7502
 3935SOL     OW23266   0.501   3.559   5.372  0.1315 -0.3691  0.0650
 3935SOL    HW123267   0.470   3.630   5.316  1.7550  0.2441 -0.0484
 3935SOL    HW223268   0.424   3.510   5.400 -1.1079  1.5304 -0.0565
 3936SOL     OW23269   1.372   1.199  14.195  0.6692 -0.0589  0.1700
 3936SOL    HW123270   1.398   1.145  14.120 -1.7696 -0.6891 -0.2328
 3936SOL    HW223271   1.303   1.255  14.162  2.8540  2.2191 -0.5316
 3937SOL     OW23272   1.756   0.359   1.523 -0.0674 -0.7899 -0.4183
 3937SOL    HW123273   1.835   0.311   1.547  1.6985  2.1621 -0.3236
 3937SOL    HW223274   1.756   0.350   1.427 -1.0977 -0.5205 -0.4348
 3938SOL     OW23275   3.391   0.812   6.713  0.3165  0.0116  0.1044
 3938SOL    HW123276   3.453   0.837   6.782 -0.8693 -1.8136  1.8146
 3938SOL    HW223277   3.320   0.874   6.731  0.9746  0.7743  0.0820
 3939SOL     OW23278   2.530   2.312   3.992  0.6887 -0.2792 -0.1867
 3939SOL    HW123279   2.535   2.386   3.932 -1.0440 -1.2353 -1.4845
 3939SOL    HW223280   2.489   2.363   4.062  2.0716  0.7367 -0.1071
 3940SOL     OW23281   3.326   1.966   5.169  0.0115  0.0033  0.3589
 3940SOL    HW123282   3.352   2.051   5.134 -1.0373  0.4643  0.7178
 3940SOL    HW223283   3.362   1.966   5.258  3.3687 -0.5847 -0.9956
 3941SOL     OW23284   3.863   0.558   2.922 -0.0484  0.0560 -0.6788
 3941SOL    HW123285   3.812   0.555   3.003  1.2374 -0.5236  0.1086
 3941SOL    HW223286   3.942   0.594   2.961 -1.8454  2.6286  0.5655
 3942SOL     OW23287   4.523   3.399   2.877 -0.0235 -0.3448 -0.0165
 3942SOL    HW123288   4.595   3.342   2.851 -1.1764 -1.6387 -0.3235
 3942SOL    HW223289   4.524   3.473   2.815  1.0516 -0.4637 -0.1452
 3943SOL     OW23290   1.673   2.265   4.490 -0.1870 -0.3173 -0.1900
 3943SOL    HW123291   1.667   2.199   4.421  1.0281 -0.6813  0.0670
 3943SOL    HW223292   1.736   2.221   4.546  0.0347 -0.0832 -0.2591
 3944SOL     OW23293   0.125   3.110   7.185 -0.2209  0.0280 -0.2412
 3944SOL    HW123294   0.083   3.126   7.101  0.0631  0.7379 -0.2510
 3944SOL    HW223295   0.136   3.015   7.185  0.1161  0.0642 -3.1811
 3945SOL     OW23296   4.544   4.652   7.421 -0.7822  0.3524 -0.0058
 3945SOL    HW123297   4.544   4.699   7.504  0.1326  1.4306 -0.6262
 3945SOL    HW223298   4.627   4.605   7.434 -0.5250  0.8863  0.2551
 3946SOL     OW23299   0.313   4.361  16.952 -0.2046 -0.4722 -0.3416
 3946SOL    HW123300   0.303   4.431  16.887 -2.8465 -0.9892 -0.5077
 3946SOL    HW223301   0.312   4.283  16.895  1.0574 -0.8276  0.1272
 3947SOL     OW23302   4.149   1.483   6.990 -0.3547  0.2314  0.1835
 3947SOL    HW123303   4.149   1.478   6.894  0.9369  0.1766  0.1895
 3947SOL    HW223304   4.207   1.557   7.010  1.5695 -0.7578 -1.6925
 3948SOL     OW23305   3.849   0.237   1.521  0.4861  0.6112 -0.8544
 3948SOL    HW123306   3.805   0.322   1.523 -0.1137  0.2983 -0.4206
 3948SOL    HW223307   3.854   0.197   1.608  1.0786 -1.3104 -1.7610
 3949SOL     OW23308   0.012   0.258   6.657 -0.2215 -0.1550 -0.1318
 3949SOL    HW123309   4.721   0.312   6.735 -0.0220  1.1977 -1.0349
 3949SOL    HW223310   0.038   0.329   6.600  1.7586 -1.6981 -1.1444
 3950SOL     OW23311   3.410   0.867  16.557  0.2020 -0.3981  0.6855
 3950SOL    HW123312   3.500   0.840  16.577 -0.0208 -1.2419  0.5705
 3950SOL    HW223313   3.417   0.922  16.479  2.4679 -0.0428  1.1314
 3951SOL     OW23314   4.171   0.711   3.669  0.4750 -0.0866  0.6124
 3951SOL    HW123315   4.079   0.707   3.696  0.5160  1.7122  1.0004
 3951SOL    HW223316   4.214   0.745   3.747  0.6067 -0.8988  0.8938
 3952SOL     OW23317   3.681   2.262   7.981 -0.0396 -0.7396 -0.2963
 3952SOL    HW123318   3.673   2.320   8.057  0.4605  0.5553 -1.2364
 3952SOL    HW223319   3.667   2.319   7.905  1.3194  1.3138  0.9801
 3953SOL     OW23320   1.428   1.362   3.832  0.1031 -0.3213  0.3251
 3953SOL    HW123321   1.476   1.279   3.842  1.4664  0.4648  0.3300
 3953SOL    HW223322   1.495   1.418   3.793  0.2960  1.4949  3.2091
 3954SOL     OW23323   1.360   2.335   7.032  0.2055 -0.4194  0.1994
 3954SOL    HW123324   1.406   2.282   6.967 -1.3767 -1.3802 -0.1660
 3954SOL    HW223325   1.300   2.384   6.975 -0.3106 -0.9074  0.3185
 3955SOL     OW23326   2.058   1.297   3.727 -0.0873  0.0164 -0.0325
 3955SOL    HW123327   2.109   1.373   3.751 -0.0746  0.1499 -0.4846
 3955SOL    HW223328   2.134   1.248   3.695 -0.5492  0.7202 -2.1812
 3956SOL     OW23329   4.170   3.047   8.765  0.3586 -0.1205 -0.1106
 3956SOL    HW123330   4.167   3.042   8.860  1.5278  1.5350  0.0174
 3956SOL    HW223331   4.127   3.130   8.748 -2.2632 -0.9964  2.3358
 3957SOL     OW23332   2.451   1.303  16.281  1.0722  0.6409  0.2719
 3957SOL    HW123333   2.386   1.285  16.349  0.3678 -0.1748 -0.6103
 3957SOL    HW223334   2.476   1.393  16.299  1.6784  0.4359  0.4312
 3958SOL     OW23335   4.412   4.300   6.344 -0.0824  0.0107  0.3880
 3958SOL    HW123336   4.488   4.352   6.316 -0.1286 -0.0200  0.2025
 3958SOL    HW223337   4.355   4.308   6.267 -0.5009 -0.3004  0.6673
 3959SOL     OW23338   3.498   0.900   8.410  0.0086  0.2210 -0.5107
 3959SOL    HW123339   3.442   0.970   8.377  0.2511  0.6708  0.0317
 3959SOL    HW223340   3.494   0.917   8.504 -1.7805  0.5737 -0.6444
 3960SOL     OW23341   4.471   0.643  13.990  0.2000  0.6950 -0.4000
 3960SOL    HW123342   4.397   0.629  13.930 -1.5987 -0.0459  1.9915
 3960SOL    HW223343   4.465   0.565  14.045 -2.1573  1.4981  0.4776
 3961SOL     OW23344   1.939   1.462   2.566  0.1811  0.6153  0.2551
 3961SOL    HW123345   1.959   1.553   2.590 -0.1989  0.3713  1.5418
 3961SOL    HW223346   1.953   1.420   2.651  1.6290  0.8984  0.1638
 3962SOL     OW23347   4.135   0.136   6.635  0.6045 -0.9878 -0.1751
 3962SOL    HW123348   4.210   0.133   6.695  1.7855  0.9118 -1.5423
 3962SOL    HW223349   4.171   0.178   6.557  1.0715 -0.6736  0.2070
 3963SOL     OW23350   0.226   1.177  11.002 -0.2856 -0.7713 -0.6576
 3963SOL    HW123351   0.153   1.115  11.012  0.1945 -1.1945  0.1868
 3963SOL    HW223352   0.191   1.261  11.034  0.3000 -1.1901  1.0590
 3964SOL     OW23353   0.657   0.394   2.775 -0.5543  0.6990 -0.0598
 3964SOL    HW123354   0.605   0.440   2.708 -0.2068 -0.7006 -1.3039
 3964SOL    HW223355   0.663   0.304   2.742  1.2128 -0.2506  2.8788
 3965SOL     OW23356   1.254   0.495   8.835  0.0450 -0.5273  0.2857
 3965SOL    HW123357   1.271   0.401   8.840  2.9720 -0.1422 -3.2761
 3965SOL    HW223358   1.197   0.507   8.911  0.3621 -0.5072  0.5193
 3966SOL     OW23359   4.352   1.011  16.477 -0.5530 -0.3095 -0.0545
 3966SOL    HW123360   4.258   0.993  16.478 -0.5402 -0.3582  1.1710
 3966SOL    HW223361   4.367   1.012  16.383 -1.4082 -2.1615 -0.2115
 3967SOL     OW23362   2.872   0.358  11.827  0.1557 -0.4798 -0.1122
 3967SOL    HW123363   2.846   0.394  11.912  1.1754 -0.1660  0.0604
 3967SOL    HW223364   2.853   0.266  11.845 -0.5604 -0.8246 -2.6547
 3968SOL     OW23365   1.479   1.888   9.384  0.0063 -0.1249 -0.4157
 3968SOL    HW123366   1.560   1.839   9.401 -0.9614 -2.0630 -1.4869
 3968SOL    HW223367   1.498   1.921   9.297  2.5675  0.1637  0.2455
 3969SOL     OW23368   1.688   2.880   5.606  0.3843  0.0762 -0.6036
 3969SOL    HW123369   1.649   2.806   5.560 -0.8810  0.0372  0.5200
 3969SOL    HW223370   1.632   2.945   5.564 -1.9836 -0.7506  1.2465
 3970SOL     OW23371   3.687   3.402  15.430 -0.1080 -0.2266 -0.6714
 3970SOL    HW123372   3.782   3.396  15.425 -0.0779  0.1640 -0.5789
 3970SOL    HW223373   3.676   3.488  15.388  0.9535 -0.2956 -1.0927
 3971SOL     OW23374   1.092   4.136   0.366  0.0425 -0.2059 -0.2585
 3971SOL    HW123375   1.117   4.093   0.448  0.2716  0.2316 -0.1001
 3971SOL    HW223376   1.053   4.220   0.392  0.1462  0.1651 -1.3109
 3972SOL     OW23377   1.428   4.257  13.758 -0.2974 -0.5909  0.0766
 3972SOL    HW123378   1.458   4.187  13.701 -0.0944 -1.5089  1.3167
 3972SOL    HW223379   1.497   4.254  13.823  0.3951 -3.0513 -0.7884
 3973SOL     OW23380   0.551   2.764   3.671 -0.4836 -0.3435 -0.1608
 3973SOL    HW123381   0.587   2.839   3.623 -1.0209  0.3549  0.5173
 3973SOL    HW223382   0.623   2.749   3.733  2.1302  0.2152 -3.0267
 3974SOL     OW23383   0.407   1.487  13.121  0.3016 -0.4004  0.4652
 3974SOL    HW123384   0.322   1.512  13.158  0.8359 -0.6072  1.8404
 3974SOL    HW223385   0.377   1.408  13.075  3.4371 -0.5170 -1.3481
 3975SOL     OW23386   0.046   0.155   4.045  0.5318  0.6175 -0.0957
 3975SOL    HW123387   0.000   0.150   4.130  0.1404  1.7288 -0.2521
 3975SOL    HW223388   0.126   0.195   4.080 -0.3675  1.6181  0.8040
 3976SOL     OW23389   3.252   3.728  16.026  0.4056  0.3894  0.4124
 3976SOL    HW123390   3.163   3.694  16.035 -0.1923  1.9426  0.5180
 3976SOL    HW223391   3.286   3.716  16.115  2.3622  0.4523 -0.3233
 3977SOL     OW23392   1.718   4.553   6.970 -0.4556  0.0265  0.7396
 3977SOL    HW123393   1.723   4.470   7.018  1.2485 -0.6265 -0.5717
 3977SOL    HW223394   1.738   4.614   7.041  0.7227  0.2779  0.1856
 3978SOL     OW23395   3.991   4.104   3.961  0.5336 -0.4634  0.3377
 3978SOL    HW123396   3.973   4.161   3.886 -0.8318 -0.7416  0.4565
 3978SOL    HW223397   3.896   4.096   3.972  0.5934 -0.1044  1.0893
 3979SOL     OW23398   3.555   3.851   3.836 -0.1954  0.3753 -0.3027
 3979SOL    HW123399   3.623   3.803   3.789 -0.0752 -0.4811  0.7575
 3979SOL    HW223400   3.522   3.786   3.898  0.5140  1.0796  0.8173
 3980SOL     OW23401   0.674   3.208  15.018 -0.2124  0.2893  0.4235
 3980SOL    HW123402   0.627   3.134  14.979  0.6675 -2.0548  3.8128
 3980SOL    HW223403   0.664   3.186  15.110 -1.1757  0.3944  0.3495
 3981SOL     OW23404   4.322   4.647   3.598 -0.1860  0.0565 -0.8782
 3981SOL    HW123405   4.313   4.708   3.525  0.4676  0.8746 -0.2740
 3981SOL    HW223406   4.229   4.645   3.620 -0.3922  0.5835 -1.6801
 3982SOL     OW23407   1.838   1.471   7.155  0.2335 -0.0713  0.0629
 3982SOL    HW123408   1.801   1.466   7.243 -0.4157  1.4252 -0.1326
 3982SOL    HW223409   1.772   1.429   7.100 -2.5472  2.6124  1.3226
 3983SOL     OW23410   0.632   4.206   8.444 -0.1600  0.0138  0.7115
 3983SOL    HW123411   0.538   4.195   8.433 -0.4352  0.6000  2.5284
 3983SOL    HW223412   0.624   4.300   8.457 -0.9167  0.0020  0.3381
 3984SOL     OW23413   1.093   3.094   4.983  0.2417 -0.6971  0.1070
 3984SOL    HW123414   1.183   3.072   5.008 -0.0296  0.5803  2.2366
 3984SOL    HW223415   1.054   3.064   5.065 -0.3959 -0.3353 -0.0678
 3985SOL     OW23416   3.661   0.170   2.952  0.0713  0.0240  0.4845
 3985SOL    HW123417   3.607   0.121   2.889 -0.5452 -0.0828  1.0979
 3985SOL    HW223418   3.620   0.255   2.935 -1.2125 -0.4597  1.2138
 3986SOL     OW23419   1.170   1.950   9.848  0.2051  0.0191  0.3332
 3986SOL    HW123420   1.130   2.011   9.786 -1.9312  0.2532  1.9117
 3986SOL    HW223421   1.088   1.930   9.895  1.2603 -1.5803  1.5105
 3987SOL     OW23422   3.493   2.475   8.864  0.0925 -0.7356 -0.1976
 3987SOL    HW123423   3.446   2.509   8.940  1.7318 -0.4962  0.7114
 3987SOL    HW223424   3.526   2.393   8.901  1.7070 -0.1079 -0.2609
 3988SOL     OW23425   2.325   0.984  16.810  0.1181  0.3181 -0.5778
 3988SOL    HW123426   2.285   1.057  16.763 -0.5493 -0.1242 -0.7042
 3988SOL    HW223427   2.361   0.919  16.749  2.3712  1.1289 -0.0870
 3989SOL     OW23428   1.126   2.713  11.222  0.1399 -0.5013  0.3954
 3989SOL    HW123429   1.159   2.624  11.214  0.6281 -0.3651  0.9078
 3989SOL    HW223430   1.174   2.750  11.148  2.9987 -0.5919  2.2078
 3990SOL     OW23431   3.594   3.555   7.724 -0.6469  0.0482  0.8148
 3990SOL    HW123432   3.631   3.603   7.798 -1.9036  1.6743  0.3782
 3990SOL    HW223433   3.669   3.501   7.697 -0.7887  0.0704  0.3782
 3991SOL     OW23434   0.666   0.476   7.584 -0.0899  0.3555 -0.1101
 3991SOL    HW123435   0.728   0.429   7.528  1.2278  1.0139  0.7993
 3991SOL    HW223436   0.728   0.528   7.635  0.2146 -2.2031  2.0938
 3992SOL     OW23437   0.100   0.312   5.627  0.2424 -0.3095  0.3298
 3992SOL    HW123438   0.177   0.288   5.575  1.2987 -0.8947  2.1727
 3992SOL    HW223439   0.134   0.381   5.685  2.6788  0.1590 -1.6547
 3993SOL     OW23440   1.899   1.725   9.028 -0.4320  0.0319 -0.1720
 3993SOL    HW123441   1.889   1.819   9.012 -5.7529 -0.2334  1.6889
 3993SOL    HW223442   1.932   1.717   9.118  0.7520 -0.4228 -0.6424
 3994SOL     OW23443   0.025   1.360   8.454 -0.2142 -0.0509  0.1775
 3994SOL    HW123444   4.709   1.336   8.537 -2.3611 -3.2619 -1.7794
 3994SOL    HW223445   0.004   1.454   8.451 -3.1800 -0.7479 -0.5126
 3995SOL     OW23446   1.229   1.237   8.803 -0.3296 -0.3477 -0.4605
 3995SOL    HW123447   1.196   1.180   8.872 -1.0870 -1.8110 -2.0415
 3995SOL    HW223448   1.161   1.303   8.788  2.6816  2.3131 -2.5157
 3996SOL     OW23449   0.158   2.742   2.520 -0.2401  0.3133  0.3448
 3996SOL    HW123450   0.133   2.651   2.504  0.3093  0.4103 -1.0739
 3996SOL    HW223451   0.210   2.753   2.440  0.2354  0.0726  0.6179
 3997SOL     OW23452   4.434   3.012   5.164  0.8838 -0.3112  0.1844
 3997SOL    HW123453   4.368   2.943   5.156 -0.8374  1.2019  1.5504
 3997SOL    HW223454   4.506   2.971   5.212  0.9429 -0.3983  0.0246
 3998SOL     OW23455   3.735   3.553  12.989 -0.3054  0.3556  0.2151
 3998SOL    HW123456   3.659   3.551  12.932 -0.0939  1.1108 -0.1010
 3998SOL    HW223457   3.710   3.497  13.063 -3.0136  0.9525 -0.2487
 3999SOL     OW23458   1.527   1.552  17.446  0.4549  0.5484  0.4667
 3999SOL    HW123459   1.444   1.550  17.492 -0.6184 -2.4917 -1.5619
 3999SOL    HW223460   1.504   1.489  17.377 -0.5831 -0.2895  1.5752
 4000SOL     OW23461   0.286   4.501  13.262 -0.1553  0.5981 -0.1311
 4000SOL    HW123462   0.346   4.519  13.189  0.6208  0.6749  0.5207
 4000SOL    HW223463   0.345   4.499  13.337 -1.3630  1.7300  0.8356
 4001SOL     OW23464   4.402   1.080   4.954 -0.0399 -0.4011 -0.5155
 4001SOL    HW123465   4.322   1.132   4.964 -0.6904 -1.7832  1.6235
 4001SOL    HW223466   4.384   1.015   5.023  3.8487 -3.4069 -2.3234
 4002SOL     OW23467   4.600   3.364   3.670 -0.0932 -0.6870  0.6401
 4002SOL    HW123468   4.644   3.341   3.752 -1.2754  0.4956  1.5979
 4002SOL    HW223469   4.657   3.328   3.602  0.6644 -2.1486  2.0371
 4003SOL     OW23470   2.626   3.570  14.419  0.1881 -0.3209  0.0375
 4003SOL    HW123471   2.553   3.631  14.431  1.2809  0.8540  0.7327
 4003SOL    HW223472   2.697   3.601  14.477 -0.5527 -0.2404  0.9053
 4004SOL     OW23473   4.410   2.639   3.478 -0.2492  0.2944  0.7591
 4004SOL    HW123474   4.477   2.572   3.490  0.5168  0.7955 -0.8243
 4004SOL    HW223475   4.466   2.717   3.483 -0.7674  0.7701 -0.9538
 4005SOL     OW23476   4.403   2.930   2.348 -0.0327  0.6919  0.1349
 4005SOL    HW123477   4.481   2.944   2.295 -0.0580 -1.5782 -0.5358
 4005SOL    HW223478   4.444   2.873   2.414 -1.9749  0.2073  0.9167
 4006SOL     OW23479   2.245   2.732   8.412 -0.0186  0.2652  0.3462
 4006SOL    HW123480   2.234   2.701   8.323  1.3632  0.0192  0.2492
 4006SOL    HW223481   2.184   2.667   8.447 -0.3664  1.2501  1.5573
 4007SOL     OW23482   2.470   1.374   2.509  0.2861  0.2085 -0.0493
 4007SOL    HW123483   2.520   1.410   2.582  0.7474 -0.0136 -0.2528
 4007SOL    HW223484   2.528   1.402   2.438  0.8998 -1.3184 -0.1564
 4008SOL     OW23485   3.611   1.685   5.924  0.4753  0.0451 -0.4411
 4008SOL    HW123486   3.669   1.753   5.957  0.5260 -1.7465  3.0886
 4008SOL    HW223487   3.610   1.622   5.995 -2.6121 -0.8500 -1.2542
 4009SOL     OW23488   2.908   4.440   3.580 -0.1396 -0.0546 -0.2454
 4009SOL    HW123489   2.822   4.402   3.599 -0.2237  0.8724  1.2689
 4009SOL    HW223490   2.960   4.365   3.552  1.1389  0.2407  1.3580
 4010SOL     OW23491   0.537   0.881   7.117 -0.0707 -0.2691 -0.1145
 4010SOL    HW123492   0.477   0.817   7.157 -2.5595 -0.0350 -3.4503
 4010SOL    HW223493   0.513   0.961   7.162  0.4885  1.0373 -2.1238
 4011SOL     OW23494   1.198   4.650   3.753  0.5311  0.2423  0.6699
 4011SOL    HW123495   1.206   4.697   3.670 -0.1072 -0.6115  0.1367
 4011SOL    HW223496   1.278   4.597   3.761  1.6190  1.7250 -0.2711
 4012SOL     OW23497   2.640   3.255   9.817  0.4491  0.0793 -0.2298
 4012SOL    HW123498   2.623   3.239   9.724  0.6821  1.3338 -0.4973
 4012SOL    HW223499   2.732   3.237   9.832  0.8351  0.0325 -2.5607
 4013SOL     OW23500   2.990   1.712   8.652  0.0396  0.3334  0.2402
 4013SOL    HW123501   3.009   1.735   8.742  2.3228 -2.1159  0.4081
 4013SOL    HW223502   3.073   1.704   8.604 -1.2856 -3.1379 -1.5476
 4014SOL     OW23503   1.843   2.015   3.161  0.3138  0.4439 -0.1457
 4014SOL    HW123504   1.854   1.920   3.160  0.7159  0.4725  1.2632
 4014SOL    HW223505   1.772   2.021   3.097 -0.6054  1.5078  0.9644
 4015SOL     OW23506   1.342   2.793   7.076  0.2808  0.0871  0.2137
 4015SOL    HW123507   1.339   2.888   7.066 -1.6485 -0.1208 -1.2249
 4015SOL    HW223508   1.247   2.785   7.082  0.2559 -0.7816 -1.1865
 4016SOL     OW23509   1.343   1.878   8.833  0.6556  0.0050 -0.1091
 4016SOL    HW123510   1.438   1.869   8.837  0.4641 -2.3747 -1.0193
 4016SOL    HW223511   1.324   1.924   8.915  3.3709 -0.4145  0.7683
 4017SOL     OW23512   1.368   3.882   5.251  0.2715  0.1332  0.1646
 4017SOL    HW123513   1.304   3.856   5.318 -1.0678  0.1738 -1.1144
 4017SOL    HW223514   1.393   3.795   5.219 -1.9181 -0.7468  0.8961
 4018SOL     OW23515   1.616   0.699   0.193 -0.3386  0.0432 -0.1379
 4018SOL    HW123516   1.618   0.624   0.252  1.2479  0.6551  0.5974
 4018SOL    HW223517   1.609   0.772   0.255 -1.4051 -0.6531  0.5570
 4019SOL     OW23518   1.273   0.688   3.056 -0.6754  0.6194 -0.1709
 4019SOL    HW123519   1.213   0.725   3.121  0.0422  1.4122  0.0508
 4019SOL    HW223520   1.330   0.642   3.118 -0.5239 -0.4070 -1.0710
 4020SOL     OW23521   4.649   1.237   4.923 -0.5323  0.0663  0.5973
 4020SOL    HW123522   4.566   1.190   4.933  0.4965 -1.6261  1.1340
 4020SOL    HW223523   4.711   1.165   4.935  0.2886  1.0648  2.2806
 4021SOL     OW23524   2.152   4.422   6.372  0.0454  0.1535  0.3123
 4021SOL    HW123525   2.155   4.369   6.451 -1.2471  0.0553  0.2957
 4021SOL    HW223526   2.058   4.431   6.356  0.2414  0.3686 -0.7584
 4022SOL     OW23527   2.921   3.172   8.605  0.1525  0.8061 -0.0075
 4022SOL    HW123528   3.015   3.187   8.607  0.5580 -1.8972  0.1184
 4022SOL    HW223529   2.890   3.206   8.521  1.3410 -0.5685 -0.9983
 4023SOL     OW23530   3.072   2.542   9.173  0.1742 -0.2997  0.0207
 4023SOL    HW123531   3.160   2.512   9.149  0.1269 -2.5083  2.5131
 4023SOL    HW223532   3.097   2.622   9.218 -0.8104 -0.2717  0.5259
 4024SOL     OW23533   2.884   1.067   2.758  0.4321  0.0868 -0.2264
 4024SOL    HW123534   2.919   0.978   2.754  0.3126  0.0640 -0.8175
 4024SOL    HW223535   2.937   1.109   2.690 -1.5174  1.2842 -0.9760
 4025SOL     OW23536   0.083   4.641   2.183  0.2987 -0.2904  0.1218
 4025SOL    HW123537   0.170   4.608   2.161  0.4104  0.1112 -0.0520
 4025SOL    HW223538   0.075   4.714   2.120  1.3011 -0.9216 -0.7277
 4026SOL     OW23539   2.363   0.220   6.588 -0.4094 -0.4981  0.0299
 4026SOL    HW123540   2.454   0.204   6.611  0.1186  1.2864 -0.8655
 4026SOL    HW223541   2.365   0.185   6.499 -0.5410 -0.2126 -0.0850
 4027SOL     OW23542   4.254   3.758   4.629  0.3610 -0.0933  0.2515
 4027SOL    HW123543   4.204   3.760   4.547  0.1194  0.0552  0.4035
 4027SOL    HW223544   4.223   3.835   4.676  0.6361  0.0496  0.1991
 4028SOL     OW23545   0.278   2.272   8.257  0.1114  0.1252  0.2308
 4028SOL    HW123546   0.257   2.365   8.266 -1.1472 -0.1067 -0.3939
 4028SOL    HW223547   0.229   2.231   8.328 -1.6066  0.2378 -0.8989
 4029SOL     OW23548   0.261   1.905  10.888 -0.0173 -0.3095 -0.1191
 4029SOL    HW123549   0.168   1.921  10.870 -0.3311 -1.6686  0.2988
 4029SOL    HW223550   0.295   1.976  10.833 -0.6147  1.7094  2.1070
 4030SOL     OW23551   2.454   2.594   0.766 -0.6366  0.0163  0.3868
 4030SOL    HW123552   2.398   2.533   0.814  0.2737 -0.8069  0.3864
 4030SOL    HW223553   2.450   2.547   0.682 -1.5521  0.3507  0.2387
 4031SOL     OW23554   1.567   0.219   4.185  0.0402  0.2816  0.5174
 4031SOL    HW123555   1.526   0.215   4.098  0.2468 -1.5570  0.5102
 4031SOL    HW223556   1.652   0.180   4.169  0.3333  0.5224  1.4931
 4032SOL     OW23557   1.650   1.799   7.513 -0.3227  0.1269 -0.3035
 4032SOL    HW123558   1.690   1.831   7.594  0.0722 -0.3202 -0.3272
 4032SOL    HW223559   1.726   1.796   7.456  0.8051  0.0731  1.2198
 4033SOL     OW23560   4.207   1.468   2.122 -0.6212 -0.0192 -0.2313
 4033SOL    HW123561   4.241   1.478   2.211 -0.4069  1.6439 -0.4898
 4033SOL    HW223562   4.159   1.385   2.128 -2.6310  0.9007 -3.7392
 4034SOL     OW23563   3.821   3.526   2.015  0.2751  0.2700 -0.0446
 4034SOL    HW123564   3.801   3.617   2.037  0.9364  0.8819 -2.0382
 4034SOL    HW223565   3.737   3.507   1.973  0.2875 -1.4038  0.6739
 4035SOL     OW23566   3.363   1.405   6.902  0.1430  0.2126  0.3646
 4035SOL    HW123567   3.288   1.346   6.911  0.9451 -0.8143  0.2975
 4035SOL    HW223568   3.436   1.351   6.931  1.2313  1.4481 -0.0729
 4036SOL     OW23569   0.910   2.641   8.666 -0.8585  0.0165 -0.1218
 4036SOL    HW123570   0.982   2.583   8.641  0.2661  1.1942  0.3182
 4036SOL    HW223571   0.940   2.675   8.751  1.3415  0.2222 -0.9720
 4037SOL     OW23572   2.486   0.036   3.617 -0.1308  0.0870 -0.3155
 4037SOL    HW123573   2.525   0.023   3.704  0.8464 -0.8561 -0.8925
 4037SOL    HW223574   2.396   0.002   3.617  0.0005 -0.2604 -0.1307
 4038SOL     OW23575   3.757   0.913  11.324  0.2021  0.1045 -0.2053
 4038SOL    HW123576   3.730   0.822  11.333 -3.2330  1.2118  0.8407
 4038SOL    HW223577   3.680   0.958  11.288 -0.3707  0.5306  1.5521
 4039SOL     OW23578   4.574   0.863   6.495  0.0151  0.1473  0.2810
 4039SOL    HW123579   4.584   0.822   6.410  0.5062  0.3137  0.2551
 4039SOL    HW223580   4.486   0.839   6.524  0.8609 -2.7137  0.4829
 4040SOL     OW23581   2.836   2.105   3.000 -0.6457  0.3217 -0.5183
 4040SOL    HW123582   2.827   2.012   3.023  0.4696  0.0375 -1.2058
 4040SOL    HW223583   2.765   2.140   3.054 -1.5730  1.5924 -2.5705
 4041SOL     OW23584   1.195   3.509  12.709 -0.0128  0.5432 -1.3215
 4041SOL    HW123585   1.134   3.457  12.762  0.1115 -0.1959 -1.8993
 4041SOL    HW223586   1.146   3.572  12.656 -0.6930  0.9362 -0.2293
 4042SOL     OW23587   0.406   3.265   5.249  0.1848 -0.0123  0.0759
 4042SOL    HW123588   0.408   3.220   5.165 -2.4867 -0.5118  0.2579
 4042SOL    HW223589   0.491   3.233   5.278  0.3007  1.0118  0.8728
 4043SOL     OW23590   4.549   2.449   8.735  0.0532  0.2159  0.3840
 4043SOL    HW123591   4.597   2.532   8.743  1.4558 -0.5911  0.4188
 4043SOL    HW223592   4.467   2.443   8.783 -0.4480  1.4964 -0.2992
 4044SOL     OW23593   2.366   3.626   7.158  0.4653  0.4155  0.6531
 4044SOL    HW123594   2.349   3.694   7.093  2.4270  0.1463 -0.1521
 4044SOL    HW223595   2.276   3.595   7.154  0.0245  1.9992 -1.4086
 4045SOL     OW23596   4.613   0.486  14.864 -0.4164  0.6725  0.4565
 4045SOL    HW123597   4.632   0.542  14.939  1.0597  1.2498 -0.3282
 4045SOL    HW223598   4.702   0.463  14.836 -1.7277 -1.0754 -2.3149
 4046SOL     OW23599   3.878   4.459   2.762  0.3417  0.1629  0.0672
 4046SOL    HW123600   3.913   4.455   2.673 -0.3855 -1.1880 -0.1525
 4046SOL    HW223601   3.844   4.370   2.771  0.4537 -0.0576 -1.6862
 4047SOL     OW23602   1.597   0.679   7.961  0.1879  0.1025 -0.6318
 4047SOL    HW123603   1.527   0.625   7.999  0.1365 -1.6252 -3.1860
 4047SOL    HW223604   1.593   0.674   7.866  1.9069  0.7094 -0.7263
 4048SOL     OW23605   0.638   2.703   2.345 -0.1761  0.2567  0.1242
 4048SOL    HW123606   0.713   2.651   2.374 -1.3920  0.5136  3.6815
 4048SOL    HW223607   0.622   2.750   2.426 -0.3403 -0.9533  0.7881
 4049SOL     OW23608   2.401   2.585   4.784 -0.2483  0.4528  0.2716
 4049SOL    HW123609   2.354   2.589   4.867 -1.5431  0.6987 -0.4872
 4049SOL    HW223610   2.379   2.496   4.755 -1.4509  1.0349 -0.5938
 4050SOL     OW23611   0.854   0.539   6.623 -0.3186  0.1040  0.4162
 4050SOL    HW123612   0.906   0.490   6.559 -0.3511 -1.6456  1.7398
 4050SOL    HW223613   0.873   0.493   6.705 -2.9869 -0.8414  0.5002
 4051SOL     OW23614   1.201   0.359   4.023  0.0139 -0.5284  0.0885
 4051SOL    HW123615   1.147   0.305   4.081 -1.0252  0.5636  0.1409
 4051SOL    HW223616   1.273   0.301   3.997  0.3796 -0.7419  1.6203
 4052SOL     OW23617   4.067   4.568   4.287 -0.1258 -0.0091  0.3446
 4052SOL    HW123618   4.096   4.502   4.224  0.4366 -0.3383  0.9552
 4052SOL    HW223619   4.045   4.642   4.229  0.9371  0.0180 -0.0170
 4053SOL     OW23620   4.106   3.019   1.872 -0.2665  0.1089  0.1285
 4053SOL    HW123621   4.184   2.972   1.842 -0.3888 -0.8534  1.2918
 4053SOL    HW223622   4.144   3.099   1.908  1.1226 -0.8085  0.7045
 4054SOL     OW23623   2.687   4.519   2.857  0.1783  0.0167 -0.1527
 4054SOL    HW123624   2.682   4.499   2.951 -2.0205  4.4055  0.6422
 4054SOL    HW223625   2.780   4.539   2.846 -0.3757  2.2401 -0.6753
 4055SOL     OW23626   0.639   1.203  14.005 -0.0496 -0.5542  0.5107
 4055SOL    HW123627   0.717   1.185  13.953  0.9844  2.0780  1.1149
 4055SOL    HW223628   0.649   1.126  14.060 -3.4263 -1.1943  0.2736
 4056SOL     OW23629   2.456   4.069   6.326 -0.1943  0.3019 -0.6577
 4056SOL    HW123630   2.466   4.096   6.417 -2.8175  3.4385 -1.3045
 4056SOL    HW223631   2.435   3.975   6.328  1.8077 -0.1059  1.2779
 4057SOL     OW23632   0.583   2.365  10.321  0.2244  0.0963 -0.0421
 4057SOL    HW123633   0.612   2.375  10.231  1.6386 -0.0592  0.3886
 4057SOL    HW223634   0.655   2.394  10.377 -1.3296  0.7705  1.6189
 4058SOL     OW23635   0.523   3.609   4.355 -0.2767  0.3033  0.4941
 4058SOL    HW123636   0.490   3.543   4.293  0.6707  1.0460 -0.7920
 4058SOL    HW223637   0.454   3.627   4.419 -1.6864 -0.2091 -0.8453
 4059SOL     OW23638   1.718   2.349   2.826 -0.6074  0.2007  0.0701
 4059SOL    HW123639   1.706   2.262   2.863 -1.3389  0.7982  1.2495
 4059SOL    HW223640   1.785   2.330   2.760 -0.9120  0.1757 -0.2303
 4060SOL     OW23641   0.559   2.721  11.468  0.1880  0.0212  0.0099
 4060SOL    HW123642   0.574   2.776  11.546 -0.3879  0.0169  0.1227
 4060SOL    HW223643   0.602   2.768  11.397 -2.5451  0.2184 -1.4988
 4061SOL     OW23644   1.279   0.211   7.409 -0.1937  0.2657 -0.1371
 4061SOL    HW123645   1.235   0.172   7.333 -1.1202  1.2800 -0.1222
 4061SOL    HW223646   1.217   0.199   7.480 -0.9597  3.3339 -0.2771
 4062SOL     OW23647   0.251   2.010   7.122 -0.3609 -0.0313  0.4890
 4062SOL    HW123648   0.226   1.933   7.070  0.2572  0.5942 -0.7232
 4062SOL    HW223649   0.199   2.006   7.202 -0.2720 -1.8601  0.4541
 4063SOL     OW23650   0.557   1.506   6.104  0.1771 -0.2655 -0.0211
 4063SOL    HW123651   0.591   1.479   6.189 -1.2442 -2.5279 -0.1768
 4063SOL    HW223652   0.465   1.487   6.118  0.4409 -1.1651  0.5127
 4064SOL     OW23653   2.617   2.340  13.446 -0.2689 -0.0152 -0.0999
 4064SOL    HW123654   2.638   2.401  13.517 -0.7923 -1.2933  1.1586
 4064SOL    HW223655   2.629   2.251  13.479  2.1016  0.1570 -0.4603
 4065SOL     OW23656   4.462   0.430   7.313  0.0975  0.1130  0.2710
 4065SOL    HW123657   4.518   0.450   7.388  0.6488 -0.5213  0.0258
 4065SOL    HW223658   4.449   0.336   7.320  0.1242  0.2596  2.3445
 4066SOL     OW23659   3.936   2.439  11.203  0.0865 -0.3135  0.1189
 4066SOL    HW123660   3.978   2.443  11.117 -3.1634 -1.3000 -1.5330
 4066SOL    HW223661   3.958   2.529  11.224  0.5031  0.0410 -1.8133
 4067SOL     OW23662   1.119   4.410   8.895 -0.6001  0.0367  0.0393
 4067SOL    HW123663   1.204   4.373   8.917 -0.5076 -0.8837 -1.9293
 4067SOL    HW223664   1.124   4.482   8.957  2.2169 -0.9162  0.9105
 4068SOL     OW23665   3.932   3.759   2.340 -0.2429  0.5880  0.3237
 4068SOL    HW123666   3.913   3.849   2.368  0.4369  0.2206  1.9533
 4068SOL    HW223667   3.873   3.756   2.264 -1.4112 -4.5962  1.4122
 4069SOL     OW23668   3.145   1.131   4.684  0.4903  0.5918 -0.1642
 4069SOL    HW123669   3.133   1.216   4.642  1.3766  0.5884 -0.4168
 4069SOL    HW223670   3.054   1.105   4.674  0.2169  1.5657 -0.2510
 4070SOL     OW23671   3.845   3.811   4.049 -0.2956  0.5661  0.3595
 4070SOL    HW123672   3.801   3.830   4.132  2.6522 -2.3828  2.6233
 4070SOL    HW223673   3.773   3.815   3.986  0.4604 -0.0196 -0.5340
 4071SOL     OW23674   4.243   0.409   2.627 -0.7213 -0.1689  0.1569
 4071SOL    HW123675   4.266   0.345   2.560 -3.3752  0.0166 -0.9167
 4071SOL    HW223676   4.148   0.400   2.636 -0.8768  0.8633 -0.3974
 4072SOL     OW23677   4.015   0.017   6.252 -0.2069  0.1476  0.0720
 4072SOL    HW123678   4.070   4.667   6.280 -2.6016 -2.0617 -0.9480
 4072SOL    HW223679   4.019   0.011   6.157 -0.6878  0.7898  0.0148
 4073SOL     OW23680   3.744   4.288  15.809  0.1666 -0.4418 -0.4312
 4073SOL    HW123681   3.718   4.196  15.809 -1.1978 -0.0419  2.1821
 4073SOL    HW223682   3.673   4.321  15.753  0.5603  0.9315 -0.1331
 4074SOL     OW23683   3.425   2.089  13.751  0.3394  0.2352  0.3302
 4074SOL    HW123684   3.452   2.075  13.660  1.2268  2.0737  0.3139
 4074SOL    HW223685   3.367   2.014  13.758  0.3279  0.0837 -1.4980
 4075SOL     OW23686   3.913   2.515   8.379  0.5816 -0.1705 -0.2838
 4075SOL    HW123687   3.993   2.463   8.384  0.0425 -1.1615 -1.9436
 4075SOL    HW223688   3.924   2.566   8.460 -0.1380  0.6801 -0.7261
 4076SOL     OW23689   0.061   0.371   6.937 -0.1354 -0.1530  0.1215
 4076SOL    HW123690   0.032   0.417   7.016 -1.4647  1.2398 -1.1724
 4076SOL    HW223691   0.147   0.413   6.937 -1.5998  2.8582  1.8592
 4077SOL     OW23692   2.961   2.650   7.335  0.6504  0.2483 -0.2564
 4077SOL    HW123693   3.010   2.732   7.334  0.3969  0.3801 -1.3692
 4077SOL    HW223694   3.024   2.585   7.368 -0.0242 -0.1013  0.3275
 4078SOL     OW23695   0.592   2.847   4.145  0.1079 -0.0959 -0.4403
 4078SOL    HW123696   0.611   2.925   4.196  1.2895 -0.7876  0.1668
 4078SOL    HW223697   0.615   2.868   4.054  2.8517 -1.2924 -0.0020
 4079SOL     OW23698   3.199   3.940  10.793 -0.0132 -0.3040 -0.0376
 4079SOL    HW123699   3.194   3.845  10.784 -2.1221 -0.3638  1.9134
 4079SOL    HW223700   3.277   3.952  10.847  1.7483 -1.6429 -2.2856
 4080SOL     OW23701   1.001   0.325   9.193  1.0770  0.0349  0.1676
 4080SOL    HW123702   0.975   0.417   9.201 -1.0344 -0.6720  1.5141
 4080SOL    HW223703   1.097   0.320   9.193  1.1265  1.0249  1.0719
 4081SOL     OW23704   3.698   0.155  11.458 -0.6877  0.1093 -0.0346
 4081SOL    HW123705   3.617   0.148  11.407 -0.2641 -0.6723 -0.6044
 4081SOL    HW223706   3.756   0.096  11.410 -0.5953  0.8545 -0.8451
 4082SOL     OW23707   2.141   2.859   9.374  0.3126 -0.1531  0.7556
 4082SOL    HW123708   2.144   2.812   9.290 -1.4383  0.4393  0.3593
 4082SOL    HW223709   2.056   2.831   9.407 -0.4316  0.7874 -0.3569
 4083SOL     OW23710   2.689   1.287  12.432 -0.1388 -0.4117  0.1480
 4083SOL    HW123711   2.770   1.330  12.406 -1.2385  1.9432  0.6927
 4083SOL    HW223712   2.670   1.222  12.364  3.7008  0.9457 -2.2728
 4084SOL     OW23713   1.043   0.805   7.728 -0.2208  0.0335 -0.3401
 4084SOL    HW123714   1.119   0.805   7.786 -1.5234 -1.4503  1.3814
 4084SOL    HW223715   1.084   0.828   7.645 -1.6981 -3.9910 -2.1908
 4085SOL     OW23716   4.671   1.435   4.354  0.4150 -0.2511  0.7629
 4085SOL    HW123717   4.683   1.521   4.393  3.6665 -0.6645  0.6557
 4085SOL    HW223718   0.018   1.383   4.394  0.2717 -2.2487 -1.5856
 4086SOL     OW23719   2.230   2.413   5.908  0.0929 -0.3645 -0.6466
 4086SOL    HW123720   2.285   2.341   5.878 -0.9806 -1.3127 -0.3330
 4086SOL    HW223721   2.249   2.405   6.002  1.7589 -0.6827 -1.0232
 4087SOL     OW23722   0.650   3.769  15.669 -0.3044 -0.4650  0.0610
 4087SOL    HW123723   0.581   3.704  15.653 -3.2813  2.4392  1.0353
 4087SOL    HW223724   0.669   3.750  15.761  0.1381  0.8608  0.2477
 4088SOL     OW23725   3.772   3.005  11.297 -0.2051 -0.4055 -0.2938
 4088SOL    HW123726   3.742   2.920  11.267 -0.9777  0.1399 -1.0485
 4088SOL    HW223727   3.839   2.984  11.362 -0.7780 -0.9915  0.1058
 4089SOL     OW23728   3.439   2.587   6.316  0.0762 -0.3180  0.2926
 4089SOL    HW123729   3.498   2.553   6.248  0.5373  1.6531 -0.2987
 4089SOL    HW223730   3.370   2.629   6.264  1.0934  1.5116  0.4385
 4090SOL     OW23731   1.786   0.277   8.216  0.2590 -0.2435 -0.2592
 4090SOL    HW123732   1.878   0.305   8.211  0.6130 -1.4042 -0.1229
 4090SOL    HW223733   1.789   0.235   8.302 -0.7264  2.1983  0.9532
 4091SOL     OW23734   3.214   1.878   9.729  0.5102  0.2259 -0.0576
 4091SOL    HW123735   3.285   1.924   9.774 -0.2016  1.7509 -0.5237
 4091SOL    HW223736   3.143   1.916   9.781  0.4051  1.8197 -1.3668
 4092SOL     OW23737   1.102   0.713   7.358  0.8861  0.3245 -0.0513
 4092SOL    HW123738   1.179   0.740   7.309  0.4225  2.1902  0.2525
 4092SOL    HW223739   1.123   0.621   7.376 -0.9069  0.3295  2.0634
 4093SOL     OW23740   2.638   4.488   6.092 -0.0005 -0.0375 -0.3083
 4093SOL    HW123741   2.615   4.565   6.041 -1.8992 -0.4050  0.0257
 4093SOL    HW223742   2.584   4.504   6.169  0.5413 -0.8317  0.2380
 4094SOL     OW23743   1.707   3.162  11.534  1.0494 -0.1009  0.1045
 4094SOL    HW123744   1.776   3.117  11.486 -0.0872 -0.3284 -1.3169
 4094SOL    HW223745   1.700   3.245  11.486  1.0166  0.7755  1.6089
 4095SOL     OW23746   2.248   0.441   8.960  0.1158 -0.0677 -0.3766
 4095SOL    HW123747   2.217   0.351   8.949 -1.7262  0.6907 -1.3379
 4095SOL    HW223748   2.313   0.451   8.891  1.7242  2.7967  1.5399
 4096SOL     OW23749   4.120   3.002   9.324  0.2866 -0.0650 -0.0542
 4096SOL    HW123750   4.131   2.907   9.324 -1.5699 -0.2615 -2.3787
 4096SOL    HW223751   4.212   3.029   9.318 -0.4979  2.4487 -0.6182
 4097SOL     OW23752   3.959   0.344  10.505 -0.1357 -0.2505 -0.4150
 4097SOL    HW123753   3.966   0.428  10.551  1.3639  0.4520 -1.9305
 4097SOL    HW223754   3.999   0.287  10.571 -2.3058 -0.5486  0.6610
 4098SOL     OW23755   0.076   0.910   4.089  0.3263  0.3096 -0.0959
 4098SOL    HW123756   0.024   0.950   4.019  0.1092 -1.4046 -0.9104
 4098SOL    HW223757   0.046   0.947   4.172 -1.5103 -3.0416  0.7296
 4099SOL     OW23758   0.269   0.754   0.020  0.6218 -0.2356  0.1828
 4099SOL    HW123759   0.246   0.716   0.105  3.3829 -0.6802  0.7481
 4099SOL    HW223760   0.204   0.821   0.001 -1.9402 -3.4082 -2.1321
 4100SOL     OW23761   3.779   0.744  15.498 -0.5546  0.1620 -0.1678
 4100SOL    HW123762   3.685   0.727  15.496 -0.3807 -0.7508 -0.6044
 4100SOL    HW223763   3.814   0.660  15.466  2.1639  1.7621 -1.4168
 4101SOL     OW23764   1.161   3.450   8.396  0.2561 -0.4365 -0.5249
 4101SOL    HW123765   1.210   3.380   8.439 -0.4293  0.2282  1.3511
 4101SOL    HW223766   1.083   3.400   8.372 -0.4853 -0.2461  1.4562
 4102SOL     OW23767   4.042   2.790   9.675 -0.1623 -0.9854  0.1811
 4102SOL    HW123768   4.098   2.760   9.746  2.1918  1.8981 -0.4409
 4102SOL    HW223769   4.092   2.742   9.609 -1.2878 -0.9593 -0.6910
 4103SOL     OW23770   0.927   0.630   4.019  0.6418  0.1372 -0.5825
 4103SOL    HW123771   0.916   0.634   4.114 -0.1311 -1.4493 -0.6132
 4103SOL    HW223772   1.015   0.595   4.006  0.5477 -0.8659  1.5409
 4104SOL     OW23773   3.802   0.767  15.896  0.3720  0.7596  0.6652
 4104SOL    HW123774   3.767   0.691  15.849 -1.1784  1.7256  0.2741
 4104SOL    HW223775   3.897   0.753  15.891  0.0398 -1.3370  0.1668
 4105SOL     OW23776   1.313   3.030  15.300  0.6045  0.6501 -0.0448
 4105SOL    HW123777   1.300   3.088  15.376  0.9260 -0.9876  1.2425
 4105SOL    HW223778   1.223   3.015  15.271  0.4992 -0.0554  0.6611
 4106SOL     OW23779   1.608   1.912  10.093  0.1039  0.0833 -0.2391
 4106SOL    HW123780   1.553   1.938  10.019  0.0532 -0.4631 -0.3977
 4106SOL    HW223781   1.616   1.997  10.136  0.7142  0.1124 -0.4088
 4107SOL     OW23782   3.932   3.970   8.620  0.7807 -0.4460 -0.0994
 4107SOL    HW123783   4.021   3.952   8.650  1.8392  2.6161 -1.3413
 4107SOL    HW223784   3.895   3.924   8.696 -1.7103 -0.5859 -1.4118
 4108SOL     OW23785   1.668   0.725  14.129 -0.4226  0.5505  0.5114
 4108SOL    HW123786   1.630   0.766  14.051 -0.9841 -1.3610 -0.2216
 4108SOL    HW223787   1.605   0.656  14.152 -1.0864  1.0664  0.2213
 4109SOL     OW23788   4.236   4.506   4.493 -0.1259 -0.1883  0.7681
 4109SOL    HW123789   4.196   4.531   4.410  0.0084  0.2375  0.8330
 4109SOL    HW223790   4.325   4.491   4.461 -1.2657 -3.4159 -0.8694
 4110SOL     OW23791   3.069   1.892   4.839  0.3277 -0.1747  0.2636
 4110SOL    HW123792   3.122   1.970   4.822 -0.6432  0.4443  0.0712
 4110SOL    HW223793   3.037   1.928   4.921  0.0291 -0.8943  0.4589
 4111SOL     OW23794   1.944   0.513   3.800  0.1441  0.0734  0.4372
 4111SOL    HW123795   2.016   0.576   3.788  0.0185 -0.5206 -3.4468
 4111SOL    HW223796   1.889   0.540   3.728 -2.5170 -0.6582  2.2107
 4112SOL     OW23797   0.052   0.443   8.528  0.0802  0.1758 -0.0771
 4112SOL    HW123798   0.112   0.491   8.585  1.5449 -2.4623  0.6051
 4112SOL    HW223799   0.025   0.507   8.462  0.6226 -0.4888 -0.9596
 4113SOL     OW23800   2.803   3.728   0.413  0.4058 -0.3379  0.1324
 4113SOL    HW123801   2.769   3.812   0.383 -2.4596 -0.9165  1.6796
 4113SOL    HW223802   2.830   3.692   0.328  2.4916  0.7391  0.3459
 4114SOL     OW23803   0.430   1.730  10.997 -0.4374  0.3044  0.2386
 4114SOL    HW123804   0.375   1.804  10.972 -1.6395 -0.7267 -0.1747
 4114SOL    HW223805   0.469   1.760  11.079 -3.2677 -0.1499  1.7694
 4115SOL     OW23806   0.477   0.616   6.185 -0.1328  0.2211 -0.3952
 4115SOL    HW123807   0.544   0.547   6.181 -1.3647 -0.9670 -0.4558
 4115SOL    HW223808   0.448   0.603   6.275 -0.8514 -0.5093 -0.7364
 4116SOL     OW23809   1.940   1.805   7.832  0.4386  0.1444  0.3669
 4116SOL    HW123810   1.981   1.851   7.905 -0.9735  0.5041  0.9270
 4116SOL    HW223811   1.902   1.736   7.887 -3.3427  0.8054 -1.4672
 4117SOL     OW23812   0.094   2.035   3.413 -0.1261  0.0557  0.7954
 4117SOL    HW123813   0.171   2.090   3.403  0.2072 -0.8116 -1.4724
 4117SOL    HW223814   0.107   1.960   3.355  0.9051  0.6014  0.3375
 4118SOL     OW23815   0.719   3.404  10.654 -0.4639  0.0270 -0.0361
 4118SOL    HW123816   0.803   3.374  10.688 -0.1670  0.3860 -0.4579
 4118SOL    HW223817   0.683   3.326  10.612  3.9531 -1.2855 -1.4106
 4119SOL     OW23818   1.687   0.211   6.361 -0.4884 -0.3787  0.0146
 4119SOL    HW123819   1.767   0.190   6.409 -1.0826 -2.6537 -0.0062
 4119SOL    HW223820   1.654   0.127   6.329  0.3498 -1.1220  1.0876
 4120SOL     OW23821   4.581   1.367   9.233  0.3346 -0.0215 -0.5697
 4120SOL    HW123822   4.487   1.384   9.238  0.6786  1.3820  0.7871
 4120SOL    HW223823   4.578   1.313   9.153  2.2293  1.2134 -1.4632
 4121SOL     OW23824   0.379   0.581   2.904  0.0004  0.6052  0.0637
 4121SOL    HW123825   0.413   0.610   2.988 -1.1566 -0.6131  0.9454
 4121SOL    HW223826   0.330   0.508   2.940  0.2165  0.5192  0.1799
 4122SOL     OW23827   0.778   4.517   3.090  0.0696 -0.4212 -0.1663
 4122SOL    HW123828   0.740   4.569   3.019 -0.4853 -1.6764 -0.7847
 4122SOL    HW223829   0.765   4.585   3.157 -0.0761 -2.6647  2.1054
 4123SOL     OW23830   1.141   4.506   7.427 -0.1874 -0.0185 -0.1526
 4123SOL    HW123831   1.132   4.542   7.339  0.9605  0.9745  0.1291
 4123SOL    HW223832   1.078   4.434   7.431 -2.3818  1.7845 -1.8585
 4124SOL     OW23833   0.725   4.670  11.875 -1.0277 -0.6038 -0.6138
 4124SOL    HW123834   0.655   4.711  11.926 -2.8963 -2.2498 -1.8452
 4124SOL    HW223835   0.712   4.578  11.899 -0.1798 -0.7234 -0.6238
 4125SOL     OW23836   1.560   0.096   2.489 -0.4013 -0.1977  0.0686
 4125SOL    HW123837   1.560   0.117   2.582  1.7451  1.9438 -0.4299
 4125SOL    HW223838   1.583   0.003   2.476 -0.7352 -0.1788 -0.6152
 4126SOL     OW23839   1.451   0.712   5.318 -0.4112  0.5272 -0.1544
 4126SOL    HW123840   1.409   0.798   5.323 -1.3210  0.0272  0.9040
 4126SOL    HW223841   1.467   0.707   5.412  0.1708  4.6011 -0.0285
 4127SOL     OW23842   2.748   0.999   7.748  0.8089  0.1415  0.2373
 4127SOL    HW123843   2.794   1.039   7.822  0.3833  0.1568  0.4999
 4127SOL    HW223844   2.799   1.038   7.678 -1.7757  1.0625 -1.1230
 4128SOL     OW23845   3.639   3.803   2.721  0.6869 -0.7024  0.1756
 4128SOL    HW123846   3.712   3.751   2.688  0.8645  0.1043 -0.7101
 4128SOL    HW223847   3.569   3.746   2.687  0.3309 -1.3525  1.9926
 4129SOL     OW23848   2.010   2.189   5.426 -0.1892 -0.8321  0.3109
 4129SOL    HW123849   2.057   2.173   5.344  1.1902  1.9741  0.5256
 4129SOL    HW223850   2.043   2.112   5.472  0.2495 -0.4612  0.6255
 4130SOL     OW23851   1.150   1.499   7.390 -0.1909  0.1414  0.2976
 4130SOL    HW123852   1.215   1.561   7.424 -1.0675 -0.1870  2.5025
 4130SOL    HW223853   1.144   1.440   7.465 -0.6198  1.5772  1.3790
 4131SOL     OW23854   0.312   1.088   5.949  0.0137 -0.2654  0.1542
 4131SOL    HW123855   0.292   1.173   5.987 -0.1006 -1.0136  1.7585
 4131SOL    HW223856   0.256   1.038   6.009 -0.9673  0.1766 -0.3890
 4132SOL     OW23857   4.674   3.182   7.470  0.0398  0.0927  0.3852
 4132SOL    HW123858   0.044   3.162   7.457  0.2750  1.2957  0.2113
 4132SOL    HW223859   4.678   3.217   7.560  1.9071  1.4294 -0.2071
 4133SOL     OW23860   1.406   2.562   6.560  0.3966 -0.3063 -0.0407
 4133SOL    HW123861   1.476   2.592   6.619 -1.1615  0.4078  1.4281
 4133SOL    HW223862   1.396   2.638   6.503  0.7653  1.0903  1.7476
 4134SOL     OW23863   0.245   0.943  11.273 -0.5200  0.4307 -0.0163
 4134SOL    HW123864   0.309   0.960  11.204 -1.5859  0.8597 -0.8893
 4134SOL    HW223865   0.243   1.022  11.328 -1.4014  1.6759 -1.8317
 4135SOL     OW23866   2.216   2.910  13.111  0.0213 -0.0111  0.5617
 4135SOL    HW123867   2.289   2.865  13.069 -0.2522 -1.3297  1.4869
 4135SOL    HW223868   2.175   2.944  13.031 -0.5812 -1.2521  0.3400
 4136SOL     OW23869   3.717   0.750   9.365  0.5309 -0.3644 -0.5943
 4136SOL    HW123870   3.807   0.776   9.347  0.3716  2.9070  3.4540
 4136SOL    HW223871   3.675   0.824   9.321  0.1373  1.1338  2.2994
 4137SOL     OW23872   3.055   3.506   1.420 -0.3750  0.5598  0.1420
 4137SOL    HW123873   3.020   3.439   1.362 -0.6979  3.1916 -2.7171
 4137SOL    HW223874   3.115   3.555   1.364  0.8752 -1.3775 -0.2066
 4138SOL     OW23875   3.935   1.857  11.591  0.5338 -0.3646 -0.2051
 4138SOL    HW123876   3.970   1.854  11.502  2.1991 -1.3120  0.4880
 4138SOL    HW223877   3.844   1.885  11.580 -0.0067 -1.4555  1.5572
 4139SOL     OW23878   0.452   1.053   8.045 -0.6620 -0.0851 -0.0073
 4139SOL    HW123879   0.419   1.137   8.078  2.1863  1.7739 -1.8322
 4139SOL    HW223880   0.547   1.062   8.053 -0.8073  1.4574  0.0405
 4140SOL     OW23881   3.512   2.455  11.011 -0.6122  0.1934  0.1293
 4140SOL    HW123882   3.453   2.399  10.961 -0.2406  0.9688 -1.1865
 4140SOL    HW223883   3.588   2.456  10.953 -1.2965  2.0338 -0.7640
 4141SOL     OW23884   1.361   0.762   1.891 -0.2240  0.1745  0.6043
 4141SOL    HW123885   1.358   0.678   1.847  0.2316  0.5539 -0.1586
 4141SOL    HW223886   1.415   0.807   1.826 -0.1944  1.4375  1.4977
 4142SOL     OW23887   1.000   4.319   2.582 -0.0596 -0.8692 -0.2355
 4142SOL    HW123888   1.020   4.355   2.496 -0.9513  0.2851  0.0392
 4142SOL    HW223889   1.037   4.232   2.569  0.2468 -0.6903 -0.5408
 4143SOL     OW23890   3.400   3.316   7.328 -0.0132  0.5488  0.6140
 4143SOL    HW123891   3.420   3.373   7.402 -3.2736  1.0365  1.1370
 4143SOL    HW223892   3.305   3.304   7.331  0.1839 -0.9533  0.6191
 4144SOL     OW23893   1.186   2.288  15.746  0.2798 -0.1969  0.1170
 4144SOL    HW123894   1.268   2.257  15.785 -0.0923 -0.2676  0.8295
 4144SOL    HW223895   1.218   2.378  15.734 -0.2950 -0.1690 -1.2283
 4145SOL     OW23896   2.148   3.269   8.510  0.1011 -0.0115  0.2753
 4145SOL    HW123897   2.165   3.176   8.493 -2.2008 -0.6397  1.2677
 4145SOL    HW223898   2.088   3.255   8.584  0.0065  1.2590  0.4335
 4146SOL     OW23899   2.968   0.528  11.631 -0.4965 -0.7871 -0.5164
 4146SOL    HW123900   3.041   0.568  11.678 -1.5227 -0.4076  0.7411
 4146SOL    HW223901   2.925   0.473  11.696 -1.6572  0.8187  0.0964
 4147SOL     OW23902   4.003   3.304   9.652 -0.1409 -0.1677 -0.2800
 4147SOL    HW123903   4.028   3.219   9.616 -0.1089 -0.4178  0.3331
 4147SOL    HW223904   3.989   3.353   9.571  0.8577  0.4630 -0.0704
 4148SOL     OW23905   4.147   1.478   6.317  0.2066 -0.0146 -0.3271
 4148SOL    HW123906   4.127   1.495   6.225 -1.7229  1.5655  0.3715
 4148SOL    HW223907   4.108   1.392   6.329 -0.4051 -0.1028 -2.8626
 4149SOL     OW23908   3.460   0.312   7.643  0.4591  0.2211  0.2617
 4149SOL    HW123909   3.461   0.403   7.671  0.2521  0.4243 -0.3821
 4149SOL    HW223910   3.513   0.330   7.565  2.1989  0.7073  1.5550
 4150SOL     OW23911   1.751   0.391   6.173 -0.0209  0.0749  0.3811
 4150SOL    HW123912   1.716   0.327   6.235 -0.7217 -0.0464 -0.1357
 4150SOL    HW223913   1.776   0.460   6.234 -0.9041  2.0949 -1.5826
 4151SOL     OW23914   4.366   0.972   7.354 -0.4040  0.1373 -0.3159
 4151SOL    HW123915   4.322   0.895   7.389  1.9353 -1.2195 -0.3346
 4151SOL    HW223916   4.305   1.046   7.350 -1.3041 -0.6046 -0.3929
 4152SOL     OW23917   2.227   1.878  10.836 -0.3332  0.1399 -0.5886
 4152SOL    HW123918   2.279   1.956  10.855  0.3762 -0.5821  0.4396
 4152SOL    HW223919   2.285   1.828  10.778  1.3117  1.5623 -0.1795
 4153SOL     OW23920   1.401   4.585  13.726 -0.2581  0.3696  0.1797
 4153SOL    HW123921   1.492   4.609  13.708 -0.0473 -1.5953 -1.4029
 4153SOL    HW223922   1.416   4.502  13.772 -0.4127  0.4292  0.3360
 4154SOL     OW23923   3.752   1.001   6.529  0.2301  0.1628  0.0162
 4154SOL    HW123924   3.685   0.933   6.522 -0.3136  0.4376  2.5485
 4154SOL    HW223925   3.777   1.022   6.439 -0.3532  0.1130 -0.1555
 4155SOL     OW23926   3.476   4.373  14.749  0.5209  0.4242  0.5124
 4155SOL    HW123927   3.389   4.373  14.709 -0.2336 -0.7471  2.1544
 4155SOL    HW223928   3.526   4.337  14.676 -1.3717 -3.1920  0.9942
 4156SOL     OW23929   1.847   1.553  11.392 -0.5614 -0.1265 -0.3835
 4156SOL    HW123930   1.759   1.558  11.356 -0.2507  1.2995 -0.9616
 4156SOL    HW223931   1.879   1.629  11.344 -1.7609 -0.7650 -2.1855
 4157SOL     OW23932   2.265   2.010   5.974  0.6528 -0.5065 -0.8393
 4157SOL    HW123933   2.348   1.981   6.011 -0.2405 -0.1853  1.4016
 4157SOL    HW223934   2.199   1.952   6.014  3.6584 -1.3408  2.9035
 4158SOL     OW23935   0.541   3.208   2.794 -0.0757  0.5253 -0.7967
 4158SOL    HW123936   0.582   3.266   2.730  1.6143 -0.6118 -0.7425
 4158SOL    HW223937   0.620   3.156   2.807 -2.1871 -2.6499 -0.7949
 4159SOL     OW23938   2.088   2.776   9.098  0.3318  0.5136 -0.0268
 4159SOL    HW123939   1.996   2.797   9.081  0.3007  0.9852  0.7371
 4159SOL    HW223940   2.138   2.846   9.057  0.0385 -0.9498 -2.9342
 4160SOL     OW23941   2.275   0.620   2.062 -0.1684 -0.7780  0.0947
 4160SOL    HW123942   2.305   0.640   2.151 -0.1948 -0.1553 -0.0396
 4160SOL    HW223943   2.304   0.700   2.018 -0.0896  0.3621  2.1944
 4161SOL     OW23944   1.554   1.990   5.125  0.2936  0.6746 -0.4339
 4161SOL    HW123945   1.536   1.914   5.181 -0.3027  0.5025 -0.8606
 4161SOL    HW223946   1.615   2.033   5.185 -0.1885  0.0273  0.5284
 4162SOL     OW23947   3.293   0.344   3.485  0.8894  0.0244  0.0903
 4162SOL    HW123948   3.277   0.270   3.426 -0.9694 -0.1371  0.8114
 4162SOL    HW223949   3.302   0.421   3.428 -0.9769  0.9237  1.0096
 4163SOL     OW23950   1.554   3.920   4.018  0.1707 -0.4477 -0.0385
 4163SOL    HW123951   1.554   3.826   4.034 -1.2378 -0.4273  0.1536
 4163SOL    HW223952   1.626   3.925   3.956 -0.2497  4.6027 -0.1277
 4164SOL     OW23953   1.075   0.298   7.620 -0.2729 -0.2569 -0.3894
 4164SOL    HW123954   1.055   0.371   7.678 -1.6974  0.2761 -1.5322
 4164SOL    HW223955   1.010   0.235   7.650  0.2798  0.5511  2.5350
 4165SOL     OW23956   2.540   0.993   0.039 -0.4480 -0.2738  0.1452
 4165SOL    HW123957   2.570   0.937  17.661  0.5057  0.1167  0.2380
 4165SOL    HW223958   2.560   1.081   0.009  1.3746 -0.9463 -0.6176
 4166SOL     OW23959   1.927   1.950   8.321  0.1323  0.0593 -0.1663
 4166SOL    HW123960   1.907   1.899   8.242 -0.0661  1.0692 -0.7578
 4166SOL    HW223961   2.009   1.908   8.348 -0.6338 -0.3107  1.5313
 4167SOL     OW23962   3.301   2.818   4.454  0.3516 -0.0936  0.0293
 4167SOL    HW123963   3.273   2.866   4.375 -3.1257  0.2390  1.4611
 4167SOL    HW223964   3.218   2.772   4.469  0.7033 -1.4130 -2.0429
 4168SOL     OW23965   0.462   4.404   7.952  0.1802 -0.5494 -0.0500
 4168SOL    HW123966   0.479   4.337   8.018  2.5308 -0.1457 -0.2463
 4168SOL    HW223967   0.550   4.430   7.924 -0.6414  1.1840 -0.9919
 4169SOL     OW23968   3.519   2.574   7.987 -0.5448 -0.4023  0.6384
 4169SOL    HW123969   3.613   2.594   7.993 -0.9392  1.2149  1.5685
 4169SOL    HW223970   3.487   2.637   7.922  0.9461  0.1388  0.4231
 4170SOL     OW23971   0.471   4.361   2.509  0.0248 -0.2074  0.3813
 4170SOL    HW123972   0.463   4.278   2.463 -0.0304  0.2322 -0.4036
 4170SOL    HW223973   0.509   4.424   2.449 -0.1477 -0.0942  0.3897
 4171SOL     OW23974   1.124   1.218   5.385 -0.6410 -0.0649  0.1046
 4171SOL    HW123975   1.201   1.210   5.329 -0.3743 -0.4121  0.5255
 4171SOL    HW223976   1.064   1.249   5.317  0.5059  0.0356 -0.8637
 4172SOL     OW23977   3.942   2.214   8.560  0.6183 -0.1927  0.0977
 4172SOL    HW123978   3.853   2.199   8.530 -0.1624  3.2430  0.7108
 4172SOL    HW223979   3.919   2.238   8.650  2.8415  0.4284  0.5024
 4173SOL     OW23980   2.132   1.976   5.549  0.0439  0.0247  0.4554
 4173SOL    HW123981   2.108   1.884   5.539  0.5807 -0.1654  0.8941
 4173SOL    HW223982   2.189   1.970   5.626  2.4582  0.8081 -1.2972
 4174SOL     OW23983   2.993   0.382   8.383 -0.5876  0.4431  0.1804
 4174SOL    HW123984   3.047   0.314   8.343  0.4571  1.4565 -0.1477
 4174SOL    HW223985   2.939   0.323   8.435  0.4286 -0.4684  0.2132
 4175SOL     OW23986   0.511   3.942   9.798  0.0981 -0.2476  0.1632
 4175SOL    HW123987   0.550   4.009   9.855 -0.3793 -1.0209  1.3834
 4175SOL    HW223988   0.438   3.987   9.754  1.2748 -1.0597 -2.6571
 4176SOL     OW23989   0.926   1.822   7.947 -0.1958  0.9105 -0.0823
 4176SOL    HW123990   0.853   1.777   7.990  1.0241 -1.5293 -0.5953
 4176SOL    HW223991   0.907   1.912   7.974  1.2863  0.4013  2.7102
 4177SOL     OW23992   3.567   1.347   4.068 -0.0174  0.6354 -0.5741
 4177SOL    HW123993   3.661   1.358   4.082 -0.0523  1.2546 -0.8375
 4177SOL    HW223994   3.548   1.290   4.143 -0.3721  2.7173  0.9509
 4178SOL     OW23995   0.079   3.109  16.077 -0.3665 -0.3301  0.4193
 4178SOL    HW123996   4.707   3.097  16.072 -0.5463  1.3409 -0.1499
 4178SOL    HW223997   0.086   3.194  16.121  1.6262 -0.0026 -0.4891
 4179SOL     OW23998   3.542   0.804   3.074  0.4453 -0.2375 -0.0552
 4179SOL    HW123999   3.520   0.711   3.072  0.1844 -0.1933  0.5396
 4179SOL    HW224000   3.627   0.805   3.119 -1.4116 -0.6565  3.5230
 4180SOL     OW24001   2.697   3.637   4.176 -0.7292  0.5173 -0.2411
 4180SOL    HW124002   2.628   3.674   4.231 -1.1506  0.2548 -0.5971
 4180SOL    HW224003   2.768   3.664   4.235  0.1525  1.5765 -1.7972
 4181SOL     OW24004   3.000   2.416   8.809 -0.2125 -0.0814  0.0415
 4181SOL    HW124005   3.095   2.420   8.803 -0.1963 -0.0013  0.3246
 4181SOL    HW224006   2.966   2.506   8.801 -3.4453 -1.3815 -0.8256
 4182SOL     OW24007   0.139   3.849   2.427  0.2813  0.6053 -0.2306
 4182SOL    HW124008   0.126   3.795   2.349  2.2076  1.0887 -0.8873
 4182SOL    HW224009   0.058   3.835   2.476 -0.7385  0.3210 -2.0035
 4183SOL     OW24010   3.489   3.111  10.221  0.4021 -0.1368 -0.0989
 4183SOL    HW124011   3.499   3.017  10.205  0.4583  0.1346 -1.6266
 4183SOL    HW224012   3.503   3.099  10.315  2.7777 -0.8023 -0.5436
 4184SOL     OW24013   3.368   2.227   6.523 -0.1544 -0.0543  0.4067
 4184SOL    HW124014   3.285   2.273   6.529 -1.4277 -2.2062 -0.7215
 4184SOL    HW224015   3.378   2.202   6.431  0.5754  0.9328  0.2234
 4185SOL     OW24016   0.094   3.574   3.621 -0.2935  0.3824  0.1525
 4185SOL    HW124017   0.067   3.537   3.705  4.3493 -0.8784  1.1026
 4185SOL    HW224018   0.096   3.668   3.642 -1.3294  0.8456 -1.7709
 4186SOL     OW24019   4.152   4.715   9.107  0.3116  0.1258 -0.2671
 4186SOL    HW124020   4.151   0.035   9.193  1.3561 -0.4834  0.0589
 4186SOL    HW224021   4.082   4.650   9.114 -0.1834  0.7576  0.5477
 4187SOL     OW24022   3.652   1.786  14.803 -0.1329 -0.2793  0.1771
 4187SOL    HW124023   3.725   1.848  14.800  0.6809 -1.2224  0.2284
 4187SOL    HW224024   3.628   1.759  14.714  0.1604  0.4314 -0.1193
 4188SOL     OW24025   4.676   0.594  12.784 -0.2043  0.2571  0.1883
 4188SOL    HW124026   0.048   0.608  12.794  0.5095 -3.5806 -1.5521
 4188SOL    HW224027   4.670   0.499  12.790 -2.6448  0.3069 -1.7396
 4189SOL     OW24028   1.534   1.298   3.489 -0.6649 -0.2857 -0.1254
 4189SOL    HW124029   1.455   1.246   3.503 -1.9128  1.6212 -0.0872
 4189SOL    HW224030   1.541   1.354   3.567  0.5712 -1.2574  0.4693
 4190SOL     OW24031   3.222   3.707   3.793  0.1068 -0.3810  0.3074
 4190SOL    HW124032   3.171   3.633   3.824 -1.8951  0.8316 -0.1006
 4190SOL    HW224033   3.250   3.673   3.708 -1.7996 -0.2878 -0.3535
 4191SOL     OW24034   2.373   2.191   5.796  0.1667  0.1148  0.0237
 4191SOL    HW124035   2.466   2.169   5.801 -0.3767 -1.8095  1.7932
 4191SOL    HW224036   2.331   2.129   5.857  0.7249 -0.9554 -0.6785
 4192SOL     OW24037   0.828   2.990  15.058 -0.0892 -0.4607  0.0097
 4192SOL    HW124038   0.838   3.080  15.088  0.5874 -0.1742 -1.0654
 4192SOL    HW224039   0.820   2.997  14.963 -1.3806  1.6799  0.2835
 4193SOL     OW24040   3.456   3.513   0.938 -0.3193  0.6521 -0.2470
 4193SOL    HW124041   3.368   3.474   0.940  0.2102 -0.4425  1.1860
 4193SOL    HW224042   3.498   3.496   1.022  0.9244  0.6452 -0.8720
 4194SOL     OW24043   2.211   3.416   6.764  0.1242  0.3138 -0.7004
 4194SOL    HW124044   2.232   3.467   6.686 -1.6135  0.4332 -1.0848
 4194SOL    HW224045   2.186   3.333   6.722 -1.7494 -0.2577  1.5558
 4195SOL     OW24046   0.011   4.055   6.155  0.4484  0.0175 -0.1478
 4195SOL    HW124047   4.722   4.022   6.066 -0.2051  3.1613 -1.2400
 4195SOL    HW224048   0.020   3.969   6.197  1.6045 -0.1526 -0.7319
 4196SOL     OW24049   0.726   3.573   8.946 -0.2882 -0.3766 -0.0903
 4196SOL    HW124050   0.788   3.564   8.873 -0.3193  1.1659 -0.3196
 4196SOL    HW224051   0.673   3.497   8.925  1.4623 -1.4048 -0.8269
 4197SOL     OW24052   3.920   2.595  15.953  0.0284  0.5190 -0.0366
 4197SOL    HW124053   3.898   2.686  15.971  0.5060  0.7649 -0.6943
 4197SOL    HW224054   3.952   2.603  15.864 -0.3612  1.3116 -0.0983
 4198SOL     OW24055   3.324   2.811   9.676  0.1065 -0.3973 -0.0886
 4198SOL    HW124056   3.278   2.876   9.623 -0.6437  0.6162  1.7764
 4198SOL    HW224057   3.257   2.747   9.652 -0.2380  0.9962 -2.8776
 4199SOL     OW24058   0.125   1.390   7.315 -0.6413  0.2776  0.6275
 4199SOL    HW124059   0.060   1.449   7.355  1.3114  2.2039  0.9348
 4199SOL    HW224060   0.077   1.308   7.315  0.5929 -0.4427  3.5733
 4200SOL     OW24061   4.202   3.009   8.063  0.2493  0.0495  0.5094
 4200SOL    HW124062   4.238   3.022   8.150 -2.8046 -0.3128  1.8380
 4200SOL    HW224063   4.279   2.996   8.007 -0.3380 -1.4156  0.0217
 4201SOL     OW24064   2.398   3.440   8.098 -0.3630 -0.3866 -0.2206
 4201SOL    HW124065   2.441   3.391   8.169 -0.1186  0.7708  0.4249
 4201SOL    HW224066   2.310   3.440   8.136 -0.3334  2.3442 -0.1822
 4202SOL     OW24067   0.862   1.088   9.077  0.0896 -1.0533  0.4095
 4202SOL    HW124068   0.815   1.016   9.036  0.2267 -0.3689 -0.9375
 4202SOL    HW224069   0.870   1.154   9.008 -3.6833 -0.2810  0.7146
 4203SOL     OW24070   0.325   4.182  11.640 -0.2649  0.4130  0.0956
 4203SOL    HW124071   0.395   4.118  11.648 -0.7129 -0.1999 -0.7757
 4203SOL    HW224072   0.272   4.143  11.570 -0.2711 -1.7346  1.2896
 4204SOL     OW24073   1.319   2.238   8.807 -0.0342  0.1352  0.6592
 4204SOL    HW124074   1.262   2.314   8.817 -0.1096  0.2828 -0.8384
 4204SOL    HW224075   1.277   2.181   8.742  1.7262 -1.4056  0.8680
 4205SOL     OW24076   3.704   2.348   2.174  0.0140  0.3279  0.4535
 4205SOL    HW124077   3.705   2.262   2.217  0.2632 -1.7896 -3.8244
 4205SOL    HW224078   3.617   2.369   2.209  0.7404  0.3340  2.2796
 4206SOL     OW24079   2.960   3.779  15.760  0.2466  0.0374 -0.1617
 4206SOL    HW124080   2.998   3.722  15.827 -0.6382  0.0930  0.3897
 4206SOL    HW224081   2.875   3.790  15.803  0.9188 -3.8749  2.2465
 4207SOL     OW24082   0.838   4.626   8.695  0.5518 -0.2184 -0.1304
 4207SOL    HW124083   0.893   4.549   8.679  1.2886  0.5575 -1.3922
 4207SOL    HW224084   0.869   4.637   8.785 -0.5936 -0.7743  0.3250
 4208SOL     OW24085   2.755   2.123  11.348  0.0917 -0.5056 -0.2355
 4208SOL    HW124086   2.809   2.178  11.404 -1.0641  0.1800  0.2160
 4208SOL    HW224087   2.767   2.045  11.403 -0.5571 -0.2192  0.3226
 4209SOL     OW24088   2.106   4.670  12.090  0.4990 -0.7003 -0.2069
 4209SOL    HW124089   2.032   4.695  12.145 -0.0117  0.2347 -1.3166
 4209SOL    HW224090   2.115   0.013  12.021 -1.1869 -1.3643 -1.0631
 4210SOL     OW24091   4.709   0.459   7.190  0.1674 -0.2031 -0.8678
 4210SOL    HW124092   4.615   0.465   7.206  0.3822  1.6968 -0.3500
 4210SOL    HW224093   0.020   0.489   7.274  0.4624 -1.3012 -0.6000
 4211SOL     OW24094   3.257   3.853   0.704  0.3557  0.3403  0.4861
 4211SOL    HW124095   3.283   3.910   0.776  1.1751 -2.3265  2.2925
 4211SOL    HW224096   3.336   3.819   0.662  0.1691 -0.6646  0.9440
 4212SOL     OW24097   0.750   3.790   8.598  0.4826  0.1206  0.3278
 4212SOL    HW124098   0.834   3.819   8.634  1.2092 -1.5742  0.0231
 4212SOL    HW224099   0.738   3.859   8.533 -0.7525 -0.2445  0.1776
 4213SOL     OW24100   0.168   0.764   5.120  0.4869 -0.0510 -0.2649
 4213SOL    HW124101   0.205   0.677   5.103 -1.0955 -0.8626  0.4762
 4213SOL    HW224102   0.228   0.797   5.187 -0.2834 -0.9684  0.8718
 4214SOL     OW24103   0.993   1.546  13.920  0.3636  0.0546 -0.7079
 4214SOL    HW124104   1.037   1.630  13.932  2.6485 -1.2220 -0.1999
 4214SOL    HW224105   1.069   1.489  13.926 -0.3510 -0.8378 -0.0634
 4215SOL     OW24106   3.107   2.087   3.245  0.5329  0.2622  0.4486
 4215SOL    HW124107   3.130   2.162   3.191  1.7405  1.0099  1.9785
 4215SOL    HW224108   3.109   2.134   3.328 -0.8655  2.2067 -0.6257
 4216SOL     OW24109   0.362   2.197   4.006  0.2006  0.0888  0.0485
 4216SOL    HW124110   0.358   2.117   4.057  0.4233 -0.0149 -0.0984
 4216SOL    HW224111   0.321   2.175   3.922 -0.6529 -2.4686  1.1466
 4217SOL     OW24112   0.644   0.282   5.559 -0.3161  0.1272  0.0299
 4217SOL    HW124113   0.663   0.369   5.525 -0.6020  0.0470 -0.3335
 4217SOL    HW224114   0.574   0.248   5.503 -0.5780  0.8631 -0.0891
 4218SOL     OW24115   4.239   3.558   3.544  0.1417  0.5104 -0.2028
 4218SOL    HW124116   4.152   3.518   3.550  0.9000 -0.9092  1.2078
 4218SOL    HW224117   4.223   3.605   3.462  1.6306  1.3316 -0.0176
 4219SOL     OW24118   1.134   1.864   8.374  0.0610 -0.1582  0.6371
 4219SOL    HW124119   1.093   1.949   8.358 -0.5083 -0.3394  1.1187
 4219SOL    HW224120   1.161   1.864   8.466  0.8059 -2.7059  0.4317
 4220SOL     OW24121   2.116   0.396   5.707  0.3132  0.4996  0.2963
 4220SOL    HW124122   2.184   0.328   5.710  0.4519  0.7142  2.1190
 4220SOL    HW224123   2.034   0.348   5.714 -0.0084  0.9926 -0.0775
 4221SOL     OW24124   2.557   0.595   5.036  0.3080  0.5894  0.1367
 4221SOL    HW124125   2.464   0.616   5.031  0.1209  0.1048  1.6749
 4221SOL    HW224126   2.589   0.674   5.079 -0.1629  2.0217 -2.1706
 4222SOL     OW24127   1.583   4.499   7.888  0.0363  0.0611  0.0746
 4222SOL    HW124128   1.529   4.529   7.961  0.6810  0.7636  0.2624
 4222SOL    HW224129   1.615   4.581   7.852 -1.4054  1.3490  1.7608
 4223SOL     OW24130   4.629   3.289  15.735 -0.7039 -0.1301  0.7087
 4223SOL    HW124131   4.713   3.327  15.709 -0.7335 -0.9670 -0.5807
 4223SOL    HW224132   4.646   3.305  15.828 -1.6517  0.7806  0.7293
 4224SOL     OW24133   1.160   1.855  13.687  0.0748  0.3085  0.1477
 4224SOL    HW124134   1.145   1.947  13.707  0.0495 -0.0570  1.8809
 4224SOL    HW224135   1.110   1.823  13.763 -0.8346  0.6027 -0.3341
 4225SOL     OW24136   1.036   2.777   5.646  0.0283  0.3656  0.1531
 4225SOL    HW124137   1.000   2.778   5.735  2.3899 -1.9403  1.1042
 4225SOL    HW224138   1.116   2.727   5.661  0.2183  0.6319  0.0292
 4226SOL     OW24139   2.823   0.741   7.818 -0.9873  0.3320  0.3962
 4226SOL    HW124140   2.789   0.681   7.751 -1.1743  1.2933 -0.3650
 4226SOL    HW224141   2.786   0.825   7.792 -1.5816 -0.2025 -0.5048
 4227SOL     OW24142   1.149   4.560   7.098 -0.4493 -0.2575 -0.2625
 4227SOL    HW124143   1.243   4.563   7.084 -0.5830 -0.3628 -1.1588
 4227SOL    HW224144   1.118   4.515   7.019  1.0135  0.3149 -1.1545
 4228SOL     OW24145   3.386   0.710   8.204 -0.5972  0.2604  0.3284
 4228SOL    HW124146   3.348   0.698   8.292 -0.2579 -1.4158  0.2448
 4228SOL    HW224147   3.480   0.703   8.218 -0.5365 -1.1312 -0.8277
 4229SOL     OW24148   4.587   4.506   7.982 -0.2585 -0.5530  0.0260
 4229SOL    HW124149   4.551   4.532   8.067  1.0776 -0.6860  0.6302
 4229SOL    HW224150   4.538   4.568   7.930  2.0166  0.6728 -0.6458
 4230SOL     OW24151   3.157   0.503   0.271  0.2821  0.6805  0.0546
 4230SOL    HW124152   3.080   0.523   0.324  1.5197  1.4463  1.5581
 4230SOL    HW224153   3.117   0.529   0.189  1.0859 -3.0129 -1.5204
 4231SOL     OW24154   0.234   4.480  15.710  0.1711  0.2843  0.7971
 4231SOL    HW124155   0.313   4.451  15.757  1.0067 -1.5214 -1.7281
 4231SOL    HW224156   0.252   4.543  15.640 -2.0272  0.3783  0.3333
 4232SOL     OW24157   0.102   0.390   3.796  0.1215  0.4893 -0.1981
 4232SOL    HW124158   0.169   0.350   3.852  0.6644 -0.7044 -1.7116
 4232SOL    HW224159   0.115   0.484   3.795  1.5837  0.3175  2.9051
 4233SOL     OW24160   3.965   0.354   6.848  0.3305  0.0841  0.0083
 4233SOL    HW124161   3.900   0.288   6.871  0.1006  0.2905 -0.0479
 4233SOL    HW224162   3.933   0.387   6.764 -0.3000  1.6800  0.8855
 4234SOL     OW24163   0.422   0.017   4.496 -0.1009 -0.0385 -0.4407
 4234SOL    HW124164   0.462   0.103   4.489  0.2037  0.0210  1.8459
 4234SOL    HW224165   0.366   0.019   4.418 -1.0367  1.5425  0.2512
 4235SOL     OW24166   2.712   4.722   2.462 -0.0022  0.2236 -0.1685
 4235SOL    HW124167   2.775   4.688   2.526 -0.2914  1.6145  0.8494
 4235SOL    HW224168   2.768   0.027   2.389 -0.1117  1.6152  0.2763
 4236SOL     OW24169   0.332   3.084   8.476  0.3991  0.4858  0.0059
 4236SOL    HW124170   0.378   3.091   8.393  0.4130  0.6148  0.0241
 4236SOL    HW224171   0.400   3.056   8.536  0.9097 -2.0674 -1.7745
 4237SOL     OW24172   3.904   0.750  12.015  0.2123 -0.1053 -0.6505
 4237SOL    HW124173   3.988   0.771  12.056  0.5792  0.2197 -1.5852
 4237SOL    HW224174   3.857   0.759  12.098  1.4210 -0.7718  0.1027
 4238SOL     OW24175   3.447   1.754   2.840  0.5979  0.0334 -0.3182
 4238SOL    HW124176   3.394   1.792   2.770  1.6268  2.7521  0.3757
 4238SOL    HW224177   3.379   1.700   2.879 -1.5813  2.4381 -0.8149
 4239SOL     OW24178   2.129   1.535   0.508 -0.3109 -0.3912 -0.1431
 4239SOL    HW124179   2.191   1.574   0.446 -1.3455  0.2041 -0.8029
 4239SOL    HW224180   2.061   1.601   0.520  0.5292 -0.0894  2.8567
 4240SOL     OW24181   4.639   2.462   7.700  0.3712  0.9513 -0.0523
 4240SOL    HW124182   0.007   2.491   7.707  0.0059  1.8887  0.9183
 4240SOL    HW224183   4.593   2.545   7.716  0.2324  0.9173 -0.2715
 4241SOL     OW24184   1.434   0.573   3.251 -0.0989 -0.0466  0.1377
 4241SOL    HW124185   1.490   0.615   3.316  0.6281 -1.9679  0.7548
 4241SOL    HW224186   1.393   0.507   3.306 -0.6634 -0.5505 -0.8849
 4242SOL     OW24187   0.885   3.522   0.549 -0.2345  0.2781  0.2528
 4242SOL    HW124188   0.800   3.564   0.559 -0.6639 -0.4827 -0.1678
 4242SOL    HW224189   0.929   3.565   0.622 -0.5310  1.3928 -0.2209
 4243SOL     OW24190   1.770   4.176   4.037  0.1529  0.1984  0.1824
 4243SOL    HW124191   1.863   4.185   4.055 -0.1102  1.7550  0.7057
 4243SOL    HW224192   1.784   4.152   3.945 -0.9589 -2.0971  0.6004
 4244SOL     OW24193   2.040   2.095  17.540  0.2168  0.2780 -0.6269
 4244SOL    HW124194   2.025   2.002  17.526 -0.6685  0.2594  0.4138
 4244SOL    HW224195   1.958   2.118  17.584  1.2421  0.9876  0.9404
 4245SOL     OW24196   2.212   4.670   9.709 -0.2892  0.3687 -0.2005
 4245SOL    HW124197   2.284   4.690   9.650 -1.8098 -1.7290 -2.7612
 4245SOL    HW224198   2.164   4.598   9.667  0.5792 -0.2217 -0.1762
 4246SOL     OW24199   2.681   4.465   9.826 -0.5559 -0.1847  0.0788
 4246SOL    HW124200   2.745   4.535   9.837 -1.2354  0.0950  2.2657
 4246SOL    HW224201   2.684   4.457   9.731 -1.5250  0.1991  0.0260
 4247SOL     OW24202   3.044   4.185  17.173  0.0911 -0.4900  0.1044
 4247SOL    HW124203   3.072   4.153  17.259 -1.8782  2.1385  1.7161
 4247SOL    HW224204   3.106   4.255  17.152  0.4449 -1.1811 -1.1268
 4248SOL     OW24205   0.430   4.411   1.832 -0.4287  0.2734 -0.7704
 4248SOL    HW124206   0.417   4.337   1.772  1.4518 -2.3545  2.0097
 4248SOL    HW224207   0.357   4.397   1.891  1.5470 -0.6063  1.4783
 4249SOL     OW24208   1.816   1.255   8.563  0.3727 -0.5183 -0.1321
 4249SOL    HW124209   1.863   1.337   8.545 -1.2268  0.9919  2.5596
 4249SOL    HW224210   1.845   1.225   8.649 -0.2886  0.7580  0.5390
 4250SOL     OW24211   3.383   0.497   8.905 -0.1900  0.1425 -0.1406
 4250SOL    HW124212   3.430   0.533   8.829 -1.5428  2.0905 -0.0740
 4250SOL    HW224213   3.461   0.481   8.957 -0.6404 -2.0697 -0.1509
 4251SOL     OW24214   2.927   1.097   1.389 -0.3234  0.2689  0.1550
 4251SOL    HW124215   2.992   1.123   1.323  1.5525  1.7209  2.5580
 4251SOL    HW224216   2.938   1.157   1.463  0.6344  1.0207 -0.5916
 4252SOL     OW24217   2.449   1.694   5.334  0.0029  0.0872  0.5872
 4252SOL    HW124218   2.440   1.699   5.429 -0.4415  2.0450  0.4334
 4252SOL    HW224219   2.489   1.781   5.330 -1.8337  1.0868  3.7952
 4253SOL     OW24220   2.889   0.462  15.637  0.0315  0.1058 -0.2677
 4253SOL    HW124221   2.920   0.514  15.563 -1.6089 -0.6086 -1.4734
 4253SOL    HW224222   2.796   0.484  15.626 -0.2922 -0.1617  1.8468
 4254SOL     OW24223   2.071   4.303   4.099  0.5035 -0.5142  0.3101
 4254SOL    HW124224   2.027   4.364   4.039 -0.1360 -0.3530  0.9414
 4254SOL    HW224225   2.085   4.238   4.030 -1.3146  0.8042 -1.3045
 4255SOL     OW24226   0.014   2.705   0.829  0.0605 -0.0316 -0.2471
 4255SOL    HW124227   0.068   2.687   0.906  0.7519 -1.0466 -0.9739
 4255SOL    HW224228   4.707   2.615   0.820 -2.4549  0.4205  3.3030
 4256SOL     OW24229   0.948   3.926   4.773 -0.0292  0.4690  0.2034
 4256SOL    HW124230   0.994   3.882   4.844  1.0041  1.7546  0.3291
 4256SOL    HW224231   0.974   3.870   4.700 -1.5915 -0.0005  0.0009
 4257SOL     OW24232   0.332   2.709   6.537  0.4611 -0.6480  0.2154
 4257SOL    HW124233   0.346   2.803   6.547 -1.0942 -0.5031  1.0222
 4257SOL    HW224234   0.250   2.691   6.582  0.2826  0.0087  0.1495
 4258SOL     OW24235   0.028   3.642  17.561  0.1715  0.0858  0.2452
 4258SOL    HW124236   0.061   3.622  17.473 -1.3693  0.6384 -0.4577
 4258SOL    HW224237   0.055   3.564  17.610  0.9060  1.1520  1.5268
 4259SOL     OW24238   4.616   1.144  16.885 -0.6117 -0.0343 -0.4779
 4259SOL    HW124239   4.702   1.130  16.924 -1.3800  0.6665  1.4954
 4259SOL    HW224240   4.633   1.122  16.794 -2.2182 -2.4979 -0.1846
 4260SOL     OW24241   3.016   0.624  10.315 -0.0022  0.5604  0.2580
 4260SOL    HW124242   3.083   0.676  10.359 -0.0327  0.3364  0.5697
 4260SOL    HW224243   3.075   0.563  10.271 -0.8227  1.0253 -1.5096
 4261SOL     OW24244   1.364   2.195   8.245 -0.3552  0.2974 -0.4019
 4261SOL    HW124245   1.440   2.140   8.230 -0.4772 -0.0461  0.2254
 4261SOL    HW224246   1.339   2.177   8.336  0.4024 -2.0337 -0.6420
 4262SOL     OW24247   0.917   3.252   4.825 -0.3563 -0.3499 -0.7253
 4262SOL    HW124248   0.838   3.199   4.827  0.2329 -1.2285 -0.5706
 4262SOL    HW224249   0.980   3.198   4.873 -1.8336 -0.1838  1.4423
 4263SOL     OW24250   3.141   2.426  15.474  0.0761 -0.0992  0.5159
 4263SOL    HW124251   3.156   2.457  15.563 -1.7007 -0.9470  1.1213
 4263SOL    HW224252   3.130   2.513  15.436 -1.1621  0.2480  1.6853
 4264SOL     OW24253   0.207   3.701   1.418  0.2341  0.9874  0.2453
 4264SOL    HW124254   0.115   3.719   1.395  0.1212 -1.3962 -1.1678
 4264SOL    HW224255   0.207   3.607   1.401  0.1590  0.9360  0.5381
 4265SOL     OW24256   3.405   3.998   3.590  0.4884  0.2241 -0.5700
 4265SOL    HW124257   3.398   3.925   3.527  0.4696 -0.8525  0.6852
 4265SOL    HW224258   3.459   3.958   3.657  1.0930  2.2048  0.1184
 4266SOL     OW24259   2.284   4.533   4.088 -0.0912  0.4287 -0.1459
 4266SOL    HW124260   2.251   4.557   4.001 -1.5850 -1.5471 -0.1327
 4266SOL    HW224261   2.290   4.437   4.082  0.3241  0.5194 -1.2236
 4267SOL     OW24262   3.722   3.991   1.212  0.0354  0.0204 -0.4765
 4267SOL    HW124263   3.682   3.904   1.215 -1.4154  0.7608  1.3088
 4267SOL    HW224264   3.749   3.998   1.304 -0.6313 -0.2213 -0.2687
 4268SOL     OW24265   3.285   3.099  16.511 -0.0137  0.2830 -0.1654
 4268SOL    HW124266   3.192   3.083  16.493 -0.0378  0.5811 -0.3219
 4268SOL    HW224267   3.291   3.183  16.557 -1.2079  0.3670 -0.1588
 4269SOL     OW24268   3.835   2.113   2.251  0.6477  0.5006 -0.0328
 4269SOL    HW124269   3.766   2.046   2.254  0.9811  0.2481  2.5929
 4269SOL    HW224270   3.903   2.052   2.222 -1.1312 -1.1763 -0.7433
 4270SOL     OW24271   3.183   3.786   8.900  0.0797 -0.0972 -0.5690
 4270SOL    HW124272   3.124   3.861   8.897 -0.3737 -0.4008  0.8960
 4270SOL    HW224273   3.168   3.758   8.990  1.0097 -1.4391 -0.8317
 4271SOL     OW24274   3.441   0.001   5.369  1.0809 -0.1392  0.0529
 4271SOL    HW124275   3.481   0.088   5.361  0.7927 -0.0271 -0.1886
 4271SOL    HW224276   3.435   4.693   5.279  0.8247  1.2635 -0.4253
 4272SOL     OW24277   1.981   0.468   9.043 -0.1106 -0.3079  0.0647
 4272SOL    HW124278   2.075   0.466   9.026  0.1365  2.2490  1.0387
 4272SOL    HW224279   1.964   0.562   9.049  1.4099 -0.1593  2.1665
 4273SOL     OW24280   0.074   0.781  13.253 -0.8366  0.2547 -0.3226
 4273SOL    HW124281   0.075   0.698  13.205  0.6819 -0.1293  0.3729
 4273SOL    HW224282   4.709   0.782  13.292 -0.7767 -0.0815 -0.1742
 4274SOL     OW24283   1.673   4.415   6.061  0.8083 -0.0346  0.0134
 4274SOL    HW124284   1.649   4.391   6.150  1.7250  0.3725  0.3726
 4274SOL    HW224285   1.655   4.345   5.999  3.1502  0.9435 -1.7781
 4275SOL     OW24286   4.556   2.400   3.493  0.1697  0.2552  0.2701
 4275SOL    HW124287   4.490   2.364   3.434  0.5684  1.3407 -0.8308
 4275SOL    HW224288   4.580   2.317   3.534  2.0707  1.2146  1.1177
 4276SOL     OW24289   4.059   0.327  12.821  0.2179  0.2899 -0.1486
 4276SOL    HW124290   4.109   0.289  12.749 -2.7963 -0.0464 -2.0366
 4276SOL    HW224291   3.978   0.359  12.780  0.8998  1.4091 -0.6238
 4277SOL     OW24292   4.185   0.901   7.726 -0.0325  0.4003 -0.1414
 4277SOL    HW124293   4.271   0.945   7.726  0.1729  0.0179 -1.3425
 4277SOL    HW224294   4.140   0.957   7.790 -0.8485 -0.3213 -0.0908
 4278SOL     OW24295   0.308   3.918  11.190 -0.0833  0.1506 -0.4067
 4278SOL    HW124296   0.270   3.859  11.124 -1.4155  0.9258 -0.3336
 4278SOL    HW224297   0.373   3.969  11.142  0.3132  0.2049  0.1910
 4279SOL     OW24298   2.767   3.718   3.507 -0.7816 -0.7842  0.0743
 4279SOL    HW124299   2.681   3.708   3.466 -0.0192 -1.3759 -1.3844
 4279SOL    HW224300   2.755   3.801   3.552 -1.3605 -1.1466  0.5794
 4280SOL     OW24301   2.120   4.638   7.095 -0.0354  0.0365  0.1244
 4280SOL    HW124302   2.117   0.010   7.081  1.8686  0.5170  3.1882
 4280SOL    HW224303   2.163   4.612   7.014  0.5975 -1.7408  1.0429
 4281SOL     OW24304   1.443   4.226   7.289 -0.0398 -0.2152  0.0914
 4281SOL    HW124305   1.445   4.297   7.353  0.3769 -1.1557  1.1135
 4281SOL    HW224306   1.350   4.203   7.286 -0.5165  1.5116  1.3856
 4282SOL     OW24307   1.029   0.519   6.419 -0.1128  0.7664 -0.5486
 4282SOL    HW124308   1.108   0.478   6.383 -0.4016 -0.0328 -0.2682
 4282SOL    HW224309   1.057   0.610   6.412  3.1534 -0.2527 -1.0100
 4283SOL     OW24310   3.503   3.412   4.045 -0.2037 -0.0877 -0.1359
 4283SOL    HW124311   3.460   3.329   4.027  0.9944 -0.8174  0.4014
 4283SOL    HW224312   3.583   3.407   3.992  0.7231 -1.2656  1.3927
 4284SOL     OW24313   4.227   4.420  14.795  0.3095  0.8070  0.1894
 4284SOL    HW124314   4.236   4.397  14.703 -0.0530 -0.6004  0.5178
 4284SOL    HW224315   4.283   4.498  14.795  1.0233  0.2969  2.8241
 4285SOL     OW24316   2.842   1.597   7.867  0.2439  0.0306 -0.1808
 4285SOL    HW124317   2.803   1.538   7.932 -0.5156  0.1565 -0.5159
 4285SOL    HW224318   2.781   1.670   7.878 -0.4774 -0.2938 -2.0019
 4286SOL     OW24319   0.498   4.142   5.177  0.5898  0.1072 -0.1712
 4286SOL    HW124320   0.529   4.053   5.160 -1.2148 -0.5227 -0.1716
 4286SOL    HW224321   0.428   4.124   5.239  0.3784 -0.8038 -0.6786
 4287SOL     OW24322   0.503   2.037   8.599 -0.6459  0.1446  0.1658
 4287SOL    HW124323   0.450   2.102   8.646 -1.7873  0.4206 -1.4677
 4287SOL    HW224324   0.563   2.015   8.670  2.4210  1.8381 -1.9591
 4288SOL     OW24325   2.129   1.596   2.980 -0.1365 -0.2885 -0.0669
 4288SOL    HW124326   2.212   1.550   2.970  0.2449  0.3406  0.2430
 4288SOL    HW224327   2.070   1.534   2.936  0.7617 -0.8037 -0.5347
 4289SOL     OW24328   4.191   3.449  15.003 -0.1470  0.1478  0.1527
 4289SOL    HW124329   4.168   3.482  14.917  0.5593  0.7466  0.1922
 4289SOL    HW224330   4.192   3.355  14.985 -0.7934 -0.0967  1.3727
 4290SOL     OW24331   1.973   1.497  14.032 -0.1139 -0.4522 -0.5805
 4290SOL    HW124332   1.939   1.485  14.120  0.0392 -0.6686 -0.5487
 4290SOL    HW224333   2.060   1.462  14.054 -0.2931 -0.2571  0.4045
 4291SOL     OW24334   4.463   0.470  17.355  0.1302  0.5544 -0.1499
 4291SOL    HW124335   4.432   0.560  17.364 -3.8736 -0.4914 -3.2966
 4291SOL    HW224336   4.546   0.486  17.400  0.2523 -0.4655 -0.0015
 4292SOL     OW24337   0.361   0.709   3.745  0.2004 -0.2328  0.2212
 4292SOL    HW124338   0.427   0.691   3.811  1.8293  0.8378 -1.1158
 4292SOL    HW224339   0.279   0.688   3.789 -0.3409 -0.2648 -0.7997
 4293SOL     OW24340   1.117   1.104  17.237  0.1204  0.2695 -0.6556
 4293SOL    HW124341   1.171   1.075  17.164  0.3063 -2.3954  0.5681
 4293SOL    HW224342   1.064   1.028  17.258  2.0448 -1.2514 -1.3321
 4294SOL     OW24343   3.426   4.140   7.341 -0.1835 -0.6591 -0.2531
 4294SOL    HW124344   3.370   4.196   7.288  0.6314 -0.8188 -1.2988
 4294SOL    HW224345   3.459   4.092   7.264  0.2635  1.2516 -1.2522
 4295SOL     OW24346   0.455   4.412   5.047  0.5670  0.0205 -0.6713
 4295SOL    HW124347   0.387   4.428   5.112 -0.7304 -0.6242 -1.8818
 4295SOL    HW224348   0.484   4.329   5.086  1.8716  0.1934 -1.2552
 4296SOL     OW24349   4.300   3.893   9.243  0.4539  0.4868 -0.5446
 4296SOL    HW124350   4.313   3.857   9.155 -1.0089 -0.0058 -0.5596
 4296SOL    HW224351   4.210   3.862   9.253  1.2977 -2.2130 -1.3182
 4297SOL     OW24352   2.974   3.495   0.901 -0.1850  0.0721 -0.0007
 4297SOL    HW124353   3.003   3.580   0.934 -0.2109  0.3199 -0.6024
 4297SOL    HW224354   2.984   3.520   0.809  1.9932 -1.7926 -0.2660
 4298SOL     OW24355   1.670   0.870   1.977 -0.8819  0.2305  0.2571
 4298SOL    HW124356   1.652   0.779   1.953  0.9066  0.1280 -0.7088
 4298SOL    HW224357   1.762   0.859   2.003 -0.5708  0.7148 -0.6420
 4299SOL     OW24358   0.536   2.718   6.853 -0.1103 -0.0262  0.6409
 4299SOL    HW124359   0.600   2.757   6.913  1.7153 -0.6962 -0.8495
 4299SOL    HW224360   0.596   2.679   6.789 -2.2596 -1.9478 -0.2017
 4300SOL     OW24361   3.483   0.676  10.095 -0.7420  0.5733 -0.5223
 4300SOL    HW124362   3.568   0.649  10.132 -0.3487  1.6052 -0.6655
 4300SOL    HW224363   3.429   0.633  10.161  1.8734  2.0456  2.6064
 4301SOL     OW24364   1.039   4.601   5.819 -0.1177  0.2892 -0.0385
 4301SOL    HW124365   1.075   4.538   5.756 -0.0217  1.3857 -1.0873
 4301SOL    HW224366   1.041   4.678   5.762  1.1213  0.6760  0.5426
 4302SOL     OW24367   0.177   2.434   2.125  0.1657 -0.1979 -0.4185
 4302SOL    HW124368   0.226   2.369   2.075 -0.2382  2.1162 -3.8498
 4302SOL    HW224369   0.189   2.397   2.213 -0.8535  0.1190 -0.1500
 4303SOL     OW24370   4.101   4.420   8.451 -0.0903 -0.2951  0.1628
 4303SOL    HW124371   4.071   4.509   8.431  0.0176 -0.4159 -0.5407
 4303SOL    HW224372   4.074   4.386   8.366 -2.4265 -0.5975  1.0266
 4304SOL     OW24373   3.547   1.161   2.058  0.5696 -0.1236 -0.1114
 4304SOL    HW124374   3.524   1.100   1.988  0.4579 -0.7136  0.4380
 4304SOL    HW224375   3.546   1.248   2.018 -0.3739  0.4003  1.0524
 4305SOL     OW24376   1.256   3.055   5.556  0.4712  0.1578 -0.3858
 4305SOL    HW124377   1.311   3.066   5.479  0.7253 -0.6790 -0.3282
 4305SOL    HW224378   1.280   2.965   5.579  0.1203  0.1362 -0.0974
 4306SOL     OW24379   1.300   2.182   6.604  0.6276  0.0922 -0.3313
 4306SOL    HW124380   1.230   2.236   6.639 -0.0436  1.3053 -3.5921
 4306SOL    HW224381   1.334   2.145   6.686 -2.1582 -0.5004  0.5591
 4307SOL     OW24382   2.828   4.543   3.838  0.1677  0.2557  0.2028
 4307SOL    HW124383   2.868   4.541   3.751 -1.0229 -0.8380 -0.3075
 4307SOL    HW224384   2.755   4.484   3.821 -0.1331  0.6986 -0.0562
 4308SOL     OW24385   1.975   2.124   0.205 -0.6597  0.5194  0.2608
 4308SOL    HW124386   1.909   2.183   0.242 -1.2130 -0.4243  0.7669
 4308SOL    HW224387   1.923   2.048   0.181 -0.3901  0.4583 -0.1362
 4309SOL     OW24388   0.755   3.744   4.403 -0.1519 -0.3207 -0.1478
 4309SOL    HW124389   0.748   3.827   4.356 -1.3134  0.7532  1.9003
 4309SOL    HW224390   0.674   3.702   4.375  0.2304 -1.3331  0.2686
 4310SOL     OW24391   1.436   0.278  11.117  0.2223  0.1393 -0.0568
 4310SOL    HW124392   1.520   0.236  11.137  0.1095  0.9625  2.1335
 4310SOL    HW224393   1.372   0.208  11.129 -0.2550  0.2476 -1.9487
 4311SOL     OW24394   4.008   2.564   6.389  0.1756  0.2540 -0.0038
 4311SOL    HW124395   3.921   2.591   6.418 -0.8623 -3.0821  0.0333
 4311SOL    HW224396   3.982   2.552   6.297 -0.3143  1.6206 -0.0367
 4312SOL     OW24397   4.188   3.947   0.934 -0.0642  0.0284 -0.6044
 4312SOL    HW124398   4.279   3.925   0.913 -0.5148 -2.7066  0.3188
 4312SOL    HW224399   4.180   3.910   1.022 -0.4702  2.1174  0.2361
 4313SOL     OW24400   1.620   2.466   8.463  0.6681 -0.4127  0.5095
 4313SOL    HW124401   1.628   2.560   8.476  0.3394 -0.3368  0.1613
 4313SOL    HW224402   1.590   2.434   8.548  2.1687  1.9459  1.9252
 4314SOL     OW24403   2.498   3.195   7.131  0.1006 -0.3285  0.4716
 4314SOL    HW124404   2.434   3.264   7.117  1.6199  0.7997 -0.8248
 4314SOL    HW224405   2.537   3.171   7.047 -0.5521 -0.7701  0.2954
 4315SOL     OW24406   3.695   0.071   3.549  0.0868 -0.0684 -0.6461
 4315SOL    HW124407   3.607   0.046   3.521  0.2149 -1.1866 -0.0613
 4315SOL    HW224408   3.682   0.162   3.574  1.2981 -0.4626  1.4645
 4316SOL     OW24409   1.592   1.812   5.420  0.0320 -0.3719  0.2190
 4316SOL    HW124410   1.528   1.875   5.454  1.0124  1.9843 -2.2490
 4316SOL    HW224411   1.562   1.724   5.442  0.6159 -0.4654  0.6459
 4317SOL     OW24412   3.270   0.911  10.145 -0.1069  0.1526 -0.0898
 4317SOL    HW124413   3.362   0.886  10.153 -0.2011 -0.3605 -0.6238
 4317SOL    HW224414   3.224   0.854  10.207 -1.0000  2.2933  1.1983
 4318SOL     OW24415   1.230   3.388   6.358  0.2056 -0.2384 -0.2767
 4318SOL    HW124416   1.254   3.308   6.403  1.4965  0.0066 -0.5167
 4318SOL    HW224417   1.137   3.366   6.351 -0.3607  2.3296 -1.1033
 4319SOL     OW24418   0.555   1.810  14.653  0.2761 -0.3465  0.3872
 4319SOL    HW124419   0.624   1.788  14.717  0.4842 -1.3526 -0.1747
 4319SOL    HW224420   0.615   1.835  14.583 -0.6410  2.3271  0.5710
 4320SOL     OW24421   4.067   4.723   3.487  0.5118 -0.3748  0.2720
 4320SOL    HW124422   4.101   0.070   3.542 -0.6754  1.2699 -1.0990
 4320SOL    HW224423   4.133   4.720   3.418  2.6629  1.0890  2.3126
 4321SOL     OW24424   3.858   0.084   1.172  0.3832 -0.9313  0.3082
 4321SOL    HW124425   3.866   0.087   1.077 -0.9446 -0.8822  0.1944
 4321SOL    HW224426   3.774   0.130   1.178  1.1245  0.7527 -2.4520
 4322SOL     OW24427   4.554   4.263   3.804  0.3305  0.1197 -0.3840
 4322SOL    HW124428   4.550   4.347   3.758 -0.1748 -0.3801 -1.2527
 4322SOL    HW224429   4.643   4.264   3.838  0.4258 -1.5408 -0.5814
 4323SOL     OW24430   3.748   0.794   2.513 -0.3314  0.2789 -0.2214
 4323SOL    HW124431   3.664   0.816   2.473 -0.0081  0.7745 -0.6263
 4323SOL    HW224432   3.796   0.784   2.431  0.8167 -0.7332  0.5971
 4324SOL     OW24433   1.004   0.660   3.528 -0.1467 -0.2270 -0.2378
 4324SOL    HW124434   0.977   0.571   3.506 -0.9644  0.4383 -1.9547
 4324SOL    HW224435   0.915   0.681   3.555  0.3058 -1.9249  2.5801
 4325SOL     OW24436   3.478   1.361  13.305 -0.4949 -0.0719 -0.1005
 4325SOL    HW124437   3.524   1.369  13.388 -1.8963  2.5574  0.4221
 4325SOL    HW224438   3.550   1.371  13.243 -1.7570 -0.4851 -1.6338
 4326SOL     OW24439   1.005   4.658   6.088 -0.1129 -0.3356  0.1373
 4326SOL    HW124440   1.068   4.595   6.122 -1.1594 -1.1627  0.5357
 4326SOL    HW224441   1.022   4.644   5.995  0.5260  1.5933 -0.0438
 4327SOL     OW24442   0.920   0.087   4.741  0.1787 -0.3914  0.1704
 4327SOL    HW124443   0.842   0.136   4.768  0.4528 -0.8011  1.6659
 4327SOL    HW224444   0.914   0.100   4.646 -0.0827  0.0739  0.2471
 4328SOL     OW24445   0.150   1.288   8.129 -0.8890 -0.1467 -0.2569
 4328SOL    HW124446   0.113   1.247   8.208  1.6192  0.6397  1.3241
 4328SOL    HW224447   0.134   1.225   8.058  0.4486  0.0751 -0.7628
 4329SOL     OW24448   3.213   4.149   3.304 -0.2705  0.1011  0.5692
 4329SOL    HW124449   3.125   4.120   3.279 -0.8273 -0.1581  2.7687
 4329SOL    HW224450   3.258   4.065   3.310 -2.8760 -1.3289  0.2753
 4330SOL     OW24451   0.618   2.949   1.783  0.1549 -0.4722  0.0530
 4330SOL    HW124452   0.700   2.912   1.816  0.4812  1.4259  1.3328
 4330SOL    HW224453   0.646   2.998   1.706 -1.1052  1.8438  1.0809
 4331SOL     OW24454   4.669   4.431  17.569  0.1341  0.2483 -0.2662
 4331SOL    HW124455   4.616   4.439  17.489  0.3580  1.3204 -0.3150
 4331SOL    HW224456   4.704   4.343  17.554 -0.6063  0.0047 -0.5928
 4332SOL     OW24457   1.768   4.198   9.564  0.1157  0.5131 -0.0051
 4332SOL    HW124458   1.861   4.212   9.580 -0.3187  0.1127  2.8993
 4332SOL    HW224459   1.751   4.111   9.601 -0.9182 -0.2186 -2.1746
 4333SOL     OW24460   2.546   0.327   5.292 -0.3046 -0.1590 -0.8612
 4333SOL    HW124461   2.612   0.287   5.349 -0.4305 -0.6414 -1.0517
 4333SOL    HW224462   2.598   0.364   5.221  1.0569  0.2384  0.3388
 4334SOL     OW24463   3.921   0.741   5.684 -0.6607  0.3202 -0.4681
 4334SOL    HW124464   3.827   0.755   5.673 -1.0522 -2.1476 -0.2691
 4334SOL    HW224465   3.960   0.824   5.713 -0.8027  0.3684 -0.4187
 4335SOL     OW24466   2.687   2.760  15.736 -0.4788 -0.4743 -0.2435
 4335SOL    HW124467   2.712   2.668  15.735  1.0876 -0.0438 -1.0830
 4335SOL    HW224468   2.695   2.781  15.643  0.4349 -1.0860 -0.2956
 4336SOL     OW24469   2.739   2.688   8.351 -0.3957 -0.1166  0.4512
 4336SOL    HW124470   2.682   2.742   8.406  2.7997  2.6524  1.0349
 4336SOL    HW224471   2.687   2.649   8.280  1.3328  0.6335 -1.2314
 4337SOL     OW24472   1.151   0.515  13.935 -0.5464 -0.2330 -0.0281
 4337SOL    HW124473   1.235   0.470  13.934  0.6037  1.9177 -0.0492
 4337SOL    HW224474   1.166   0.605  13.907  1.8565 -0.7744 -0.5007
 4338SOL     OW24475   1.711   3.607   5.615  0.1730  0.4024 -0.1659
 4338SOL    HW124476   1.679   3.685   5.661  0.0575 -0.2004  0.7768
 4338SOL    HW224477   1.647   3.596   5.545  0.0634  0.2924 -0.0500
 4339SOL     OW24478   2.568   1.830   2.959  0.6724 -0.4206 -0.4071
 4339SOL    HW124479   2.479   1.861   2.947  1.4179  0.9696 -2.2194
 4339SOL    HW224480   2.598   1.863   3.044 -1.4103 -0.4272  0.3213
 4340SOL     OW24481   2.169   0.449   7.791 -0.1965  0.1237  0.1338
 4340SOL    HW124482   2.115   0.525   7.814 -2.1434 -1.6923  1.5101
 4340SOL    HW224483   2.242   0.473   7.848  0.6986 -3.4245  0.5134
 4341SOL     OW24484   3.868   4.463   7.818  0.1933 -0.3463  0.5669
 4341SOL    HW124485   3.787   4.413   7.825 -0.6928  1.4341  3.1952
 4341SOL    HW224486   3.838   4.549   7.846 -0.0270 -0.5306  0.9017
 4342SOL     OW24487   4.501   3.289  14.737  0.2672 -0.0797 -0.1529
 4342SOL    HW124488   4.474   3.220  14.798 -0.4164 -1.0618 -1.5574
 4342SOL    HW224489   4.563   3.242  14.682 -0.3633  2.9691 -3.4457
 4343SOL     OW24490   0.257   0.942  12.894  1.0525 -0.4309 -0.3851
 4343SOL    HW124491   0.242   0.960  12.987 -0.5969 -1.2776 -0.4856
 4343SOL    HW224492   0.347   0.971  12.878  0.9580 -0.7393 -1.4270
 4344SOL     OW24493   2.691   1.918   3.682 -0.6217 -0.1222 -0.3126
 4344SOL    HW124494   2.739   1.968   3.748  0.5205 -0.0699 -1.1788
 4344SOL    HW224495   2.762   1.881   3.630 -0.0023  0.4895  0.1049
 4345SOL     OW24496   1.461   1.377   8.466 -0.5210  0.2414 -0.2287
 4345SOL    HW124497   1.468   1.335   8.552  0.7326 -0.3851 -0.6199
 4345SOL    HW224498   1.519   1.452   8.482 -1.3324  1.0458 -1.0482
 4346SOL     OW24499   4.718   2.830   4.402  0.1647 -0.1640 -0.2353
 4346SOL    HW124500   4.627   2.800   4.405  0.5156 -1.1779  0.0102
 4346SOL    HW224501   0.035   2.759   4.354 -0.5028  0.2825 -1.4429
 4347SOL     OW24502   4.527   2.840  11.250 -0.2435  0.3397 -0.0467
 4347SOL    HW124503   4.617   2.825  11.279  0.2279  0.1961 -1.6223
 4347SOL    HW224504   4.500   2.748  11.240 -0.7143  0.5538 -0.7276
 4348SOL     OW24505   1.835   3.651  10.569  0.1775 -0.1104 -0.1095
 4348SOL    HW124506   1.870   3.573  10.613 -0.3710 -0.9076 -1.0614
 4348SOL    HW224507   1.804   3.704  10.642  0.1591 -0.7200  0.3289
 4349SOL     OW24508   0.492   3.605   0.028  0.1013 -0.1511  0.7018
 4349SOL    HW124509   0.426   3.669   0.055 -1.3788 -0.3187 -2.4968
 4349SOL    HW224510   0.432   3.544  17.679  0.6560  0.7563 -1.3933
 4350SOL     OW24511   4.239   4.470   1.580  0.0379 -0.0824 -0.2730
 4350SOL    HW124512   4.184   4.406   1.535  0.0107 -0.1965 -0.0797
 4350SOL    HW224513   4.202   4.555   1.555 -2.7436 -1.3795 -0.5589
 4351SOL     OW24514   4.591   1.132   5.371  0.5011  0.1773 -0.2265
 4351SOL    HW124515   4.672   1.096   5.408 -0.0916 -0.0602  0.8344
 4351SOL    HW224516   4.539   1.084   5.436 -1.9851  1.7319 -1.0673
 4352SOL     OW24517   4.589   1.609  16.524 -0.0434  0.7127  0.2890
 4352SOL    HW124518   4.601   1.589  16.431  0.7451 -1.6566  0.9009
 4352SOL    HW224519   4.620   1.699  16.536 -0.1475  0.8113 -0.1847
 4353SOL     OW24520   4.145   3.815  10.329 -0.4492 -0.5298 -0.4475
 4353SOL    HW124521   4.171   3.896  10.286 -0.5186 -0.3699 -0.1903
 4353SOL    HW224522   4.213   3.806  10.396 -0.3959  1.7881 -0.1807
 4354SOL     OW24523   4.706   2.088   1.634 -0.1460 -0.1248  0.5162
 4354SOL    HW124524   4.710   1.998   1.666 -1.8884 -0.5575 -0.4677
 4354SOL    HW224525   4.660   2.137   1.702 -0.2159  0.8405 -0.2187
 4355SOL     OW24526   2.905   0.938   4.083 -0.1600 -0.1609  0.5687
 4355SOL    HW124527   2.915   0.907   3.993  0.0977 -0.0226  0.5489
 4355SOL    HW224528   2.858   0.859   4.111  0.0041 -0.9289 -1.3486
 4356SOL     OW24529   3.639   0.214   2.617 -0.0558  0.3106  0.1790
 4356SOL    HW124530   3.634   0.288   2.678 -0.3719  0.1214  0.3800
 4356SOL    HW224531   3.669   0.252   2.534  0.4960  0.0807  0.2721
 4357SOL     OW24532   4.481   0.990   6.906  0.6761  0.4204  0.0994
 4357SOL    HW124533   4.410   0.997   6.842  1.4295 -1.1059 -0.9063
 4357SOL    HW224534   4.442   0.929   6.969 -1.2235  2.0436  0.4843
 4358SOL     OW24535   0.474   0.545  15.062  0.0134 -0.0084 -0.3754
 4358SOL    HW124536   0.461   0.459  15.022 -1.4322 -0.4287  0.9793
 4358SOL    HW224537   0.549   0.572  15.009 -1.0859  1.3248 -1.2259
 4359SOL     OW24538   2.632   4.535   6.664 -0.2371 -0.2151 -0.1887
 4359SOL    HW124539   2.723   4.512   6.682  0.0387  1.3420  0.3956
 4359SOL    HW224540   2.615   4.612   6.718 -2.4307 -1.6528  1.1941
 4360SOL     OW24541   3.039   2.970   5.167 -0.1115 -0.5355 -0.3891
 4360SOL    HW124542   2.985   2.893   5.150  0.9840 -1.4013  0.0787
 4360SOL    HW224543   3.014   3.043   5.110  0.9195  0.8765  0.9744
 4361SOL     OW24544   0.541   2.918   9.280  0.3573  0.7212  1.3746
 4361SOL    HW124545   0.596   2.977   9.332  0.5750  2.1312 -0.4747
 4361SOL    HW224546   0.575   2.829   9.294 -1.8655 -0.1273  1.3587
 4362SOL     OW24547   3.352   2.328   7.325 -0.6867 -0.2576 -0.7666
 4362SOL    HW124548   3.372   2.272   7.250 -1.3680 -0.6359 -0.6706
 4362SOL    HW224549   3.331   2.266   7.395  0.7736 -2.3256 -2.1645
 4363SOL     OW24550   3.308   0.348   2.753  0.0155 -0.5339 -0.0135
 4363SOL    HW124551   3.307   0.351   2.657 -1.2999 -1.0427 -0.0175
 4363SOL    HW224552   3.347   0.432   2.779  3.1254 -1.9554 -0.1874
 4364SOL     OW24553   4.389   4.452  13.887  0.6126  0.1288 -0.4124
 4364SOL    HW124554   4.423   4.457  13.797  2.2272  1.4876  0.2737
 4364SOL    HW224555   4.328   4.524  13.868  0.4688  0.1992  0.3257
 4365SOL     OW24556   2.152   1.479   3.458 -0.4787 -0.6983 -0.2299
 4365SOL    HW124557   2.088   1.514   3.519  0.3805  1.4952 -0.5895
 4365SOL    HW224558   2.106   1.454   3.378 -1.1092 -0.5286  0.0815
 4366SOL     OW24559   4.366   3.897   2.573  0.1828 -0.2274  0.3684
 4366SOL    HW124560   4.352   3.803   2.557  1.3643 -0.2315 -0.6525
 4366SOL    HW224561   4.460   3.904   2.558 -0.0188  0.8059 -0.4150
 4367SOL     OW24562   2.824   2.619   3.441 -0.0670 -0.2322 -1.0658
 4367SOL    HW124563   2.843   2.712   3.428  1.9581 -0.4992 -0.0382
 4367SOL    HW224564   2.793   2.614   3.532 -0.1122  1.4309 -0.9887
 4368SOL     OW24565   3.555   2.081  16.792 -0.1055 -0.1155  0.0221
 4368SOL    HW124566   3.518   2.140  16.858 -0.6729 -0.7902  0.3153
 4368SOL    HW224567   3.482   2.074  16.730  0.1614 -0.5798 -0.2347
 4369SOL     OW24568   1.994   2.489   4.709  0.7478 -0.4302 -0.3223
 4369SOL    HW124569   1.954   2.526   4.787 -3.5582 -0.9579 -2.2942
 4369SOL    HW224570   1.923   2.509   4.648  0.9660 -0.2318 -0.5176
 4370SOL     OW24571   1.563   2.983   8.176  0.0090 -0.5910  0.0542
 4370SOL    HW124572   1.575   2.999   8.270 -0.8291  1.5512 -0.1916
 4370SOL    HW224573   1.643   3.016   8.136 -1.9181  1.5108 -2.0759
 4371SOL     OW24574   0.061   1.098   3.180 -0.1407 -0.7715  0.4943
 4371SOL    HW124575   0.156   1.095   3.169 -0.3206 -1.3219 -0.9870
 4371SOL    HW224576   0.061   1.120   3.273  0.8507  0.1727  0.2789
 4372SOL     OW24577   4.501   3.897   3.973  0.5876 -0.3917 -0.1992
 4372SOL    HW124578   4.409   3.917   3.990  0.5116 -1.0333  0.1234
 4372SOL    HW224579   4.529   3.853   4.053 -1.8485  0.4329  1.0819
 4373SOL     OW24580   3.239   1.735  16.746 -0.1874 -0.1968 -0.3350
 4373SOL    HW124581   3.188   1.749  16.826  0.0418  0.9731 -0.4016
 4373SOL    HW224582   3.168   1.740  16.681  1.0064 -0.0350 -1.6129
 4374SOL     OW24583   2.633   0.108  14.047  0.5202  0.2100 -0.4173
 4374SOL    HW124584   2.575   0.042  14.010  0.5211  1.3651 -2.5133
 4374SOL    HW224585   2.711   0.052  14.049  1.6771  1.8261  0.5050
 4375SOL     OW24586   2.320   3.173   2.710 -0.3155  0.0609  0.1091
 4375SOL    HW124587   2.395   3.150   2.656 -0.3039 -1.6547  0.8411
 4375SOL    HW224588   2.348   3.149   2.798  1.0212  1.3793  0.0324
 4376SOL     OW24589   1.685   1.974   4.237 -0.2219  0.1836  0.0337
 4376SOL    HW124590   1.742   2.037   4.193 -0.2579  0.2171  0.0345
 4376SOL    HW224591   1.751   1.908   4.254 -0.3605 -0.0278 -0.2665
 4377SOL     OW24592   0.548   2.538   6.507 -0.6392  0.1714 -0.5031
 4377SOL    HW124593   0.486   2.604   6.537  2.3520  0.7550  4.4491
 4377SOL    HW224594   0.491   2.462   6.518  0.4310 -0.2805  1.8653
 4378SOL     OW24595   0.511   4.685   5.831 -0.1497  0.3915 -0.1824
 4378SOL    HW124596   0.593   4.717   5.792  1.6670 -0.9007  2.6099
 4378SOL    HW224597   0.450   4.696   5.758 -2.3175  0.9206  1.6975
 4379SOL     OW24598   3.717   2.170   4.573  0.0529  0.2119 -0.0690
 4379SOL    HW124599   3.676   2.126   4.499 -2.3928 -0.0274  1.4261
 4379SOL    HW224600   3.800   2.186   4.527  0.1136  3.6779  1.2231
 4380SOL     OW24601   0.384   3.760   5.233  0.1585 -0.3866 -0.0363
 4380SOL    HW124602   0.313   3.789   5.176 -1.2041  0.5766  2.1228
 4380SOL    HW224603   0.361   3.803   5.316  0.7940 -0.9754  0.4464
 4381SOL     OW24604   1.691   3.158   6.742  0.1227 -0.2756  0.0239
 4381SOL    HW124605   1.717   3.115   6.823 -1.3765 -2.2008 -0.5336
 4381SOL    HW224606   1.770   3.146   6.690  0.0729 -0.1385 -0.0853
 4382SOL     OW24607   2.261   2.256  10.307 -0.1574 -0.3320  0.3836
 4382SOL    HW124608   2.283   2.216  10.392 -0.2950 -1.5186 -0.1420
 4382SOL    HW224609   2.337   2.233  10.252 -1.1956 -0.9122 -0.8008
 4383SOL     OW24610   4.722   4.149  17.514  0.3194 -0.4348 -0.2496
 4383SOL    HW124611   4.656   4.106  17.459 -0.5874 -0.3681  0.7681
 4383SOL    HW224612   0.076   4.161  17.459  0.3562 -0.5155 -0.2160
 4384SOL     OW24613   3.384   3.256  11.338 -0.4286  0.4239 -0.7148
 4384SOL    HW124614   3.381   3.206  11.257  1.0947 -0.1740 -0.3934
 4384SOL    HW224615   3.294   3.290  11.338 -1.1640 -1.5808 -1.9076
 4385SOL     OW24616   4.674   3.791  13.763  0.0611  0.6141 -0.2938
 4385SOL    HW124617   4.722   3.859  13.716  1.7982 -0.1656  0.3148
 4385SOL    HW224618   0.004   3.777  13.842 -1.5875 -0.3512  0.6407
 4386SOL     OW24619   2.591   1.684  13.640  0.5985 -0.0561  0.7678
 4386SOL    HW124620   2.554   1.603  13.607  0.2772  0.1751  0.5685
 4386SOL    HW224621   2.515   1.740  13.626 -0.4568 -0.9957  2.7332
 4387SOL     OW24622   0.412   1.665   7.169 -0.6229 -0.1524 -0.0231
 4387SOL    HW124623   0.333   1.664   7.223  0.7708  0.8800  2.0349
 4387SOL    HW224624   0.471   1.726   7.214  0.1330  0.1178 -1.3768
 4388SOL     OW24625   4.462   1.416   2.806 -0.4614 -0.1097  0.4885
 4388SOL    HW124626   4.465   1.382   2.716 -0.3994  0.3395  0.3220
 4388SOL    HW224627   4.420   1.340   2.847 -1.6889 -0.0894 -0.7515
 4389SOL     OW24628   2.050   0.726   6.374  0.1956 -0.0178  0.4046
 4389SOL    HW124629   2.099   0.749   6.453 -2.0950  1.5239  1.3576
 4389SOL    HW224630   1.977   0.785   6.390 -0.1448 -0.7050  1.3938
 4390SOL     OW24631   4.092   2.721   0.136 -0.5262 -0.2220  0.8799
 4390SOL    HW124632   4.055   2.633   0.134  0.5710 -0.6620 -0.6549
 4390SOL    HW224633   4.078   2.741   0.043  1.1787 -1.7709  0.2945
 4391SOL     OW24634   4.342   3.925   3.449  0.1438  0.4241  0.1776
 4391SOL    HW124635   4.319   3.881   3.530 -1.2091 -1.5750 -1.2939
 4391SOL    HW224636   4.331   3.848   3.393  0.4293  1.5393 -1.4307
 4392SOL     OW24637   3.158   0.435  13.542 -0.0383 -0.1572 -0.6584
 4392SOL    HW124638   3.065   0.414  13.551  0.0472 -1.2363 -2.2916
 4392SOL    HW224639   3.185   0.420  13.633 -0.3665 -2.3567 -0.9293
 4393SOL     OW24640   3.139   3.747   4.195  0.2708 -0.1413  0.6462
 4393SOL    HW124641   3.212   3.691   4.225 -1.9851 -3.6103 -0.3712
 4393SOL    HW224642   3.179   3.834   4.198 -0.8775  0.4224 -0.9986
 4394SOL     OW24643   3.217   4.025  17.383  0.2423  0.1795  0.6194
 4394SOL    HW124644   3.280   4.069  17.326 -3.4266  1.5128 -2.3918
 4394SOL    HW224645   3.164   4.100  17.407 -2.3444 -1.1966 -0.8518
 4395SOL     OW24646   1.505   3.856   6.704  0.5593 -0.2648 -0.0456
 4395SOL    HW124647   1.479   3.775   6.746  1.4736 -0.5033  0.0721
 4395SOL    HW224648   1.424   3.906   6.712  0.0197 -1.4447  1.7290
 4396SOL     OW24649   1.461   2.936   0.486  0.3081 -0.0825 -0.0357
 4396SOL    HW124650   1.508   2.931   0.404  2.0184  1.3196  0.8673
 4396SOL    HW224651   1.381   2.884   0.475  0.1442 -0.3547  2.4052
 4397SOL     OW24652   3.333   3.968   1.673  0.6621  0.2495 -0.3947
 4397SOL    HW124653   3.402   3.955   1.737  0.8512 -0.5650 -0.7617
 4397SOL    HW224654   3.319   4.062   1.666 -1.9806 -0.0917  0.0608
 4398SOL     OW24655   0.787   3.759  16.570  0.0915  0.8578  0.0513
 4398SOL    HW124656   0.813   3.769  16.478 -0.4670  2.2207  0.0386
 4398SOL    HW224657   0.693   3.754  16.556  0.0980 -1.4513  0.9024
 4399SOL     OW24658   1.311   0.743   8.415 -0.6031  0.0114 -0.5181
 4399SOL    HW124659   1.309   0.656   8.455 -1.2710 -0.8105 -2.3479
 4399SOL    HW224660   1.248   0.793   8.467  0.1658  1.2809 -0.8038
 4400SOL     OW24661   4.057   2.086   4.830 -0.3368  0.1421  0.4766
 4400SOL    HW124662   4.132   2.064   4.774 -2.3444 -2.5052 -1.1792
 4400SOL    HW224663   3.988   2.085   4.764 -1.1575  1.5579  1.3070
 4401SOL     OW24664   2.350   3.296   9.971 -0.2157  0.2513 -0.2502
 4401SOL    HW124665   2.317   3.225   9.916 -0.7190  1.9559 -2.1489
 4401SOL    HW224666   2.327   3.251  10.052 -1.5505  0.0344 -0.7585
 4402SOL     OW24667   0.928   0.891   2.905  0.1431 -0.4459  0.6089
 4402SOL    HW124668   0.996   0.828   2.883  1.2567  0.8323  0.4746
 4402SOL    HW224669   0.852   0.832   2.901  1.1547 -1.7041 -0.0107
 4403SOL     OW24670   4.043   1.594  14.909  0.1678  0.1655  0.3227
 4403SOL    HW124671   4.034   1.595  14.814  0.9896 -1.5649  0.2335
 4403SOL    HW224672   4.133   1.560  14.907  0.9660  2.2845 -0.2538
 4404SOL     OW24673   4.318   0.119   0.282 -0.3100  0.9657  0.0427
 4404SOL    HW124674   4.256   0.081   0.344 -1.3150  0.9665 -0.9539
 4404SOL    HW224675   4.270   0.101   0.200 -1.5286  0.9611  0.7482
 4405SOL     OW24676   0.648   3.811   2.587 -0.4597  0.3357 -0.0222
 4405SOL    HW124677   0.696   3.815   2.505  0.1182  0.7607  0.3321
 4405SOL    HW224678   0.560   3.832   2.556 -0.7056 -0.3400  0.2221
 4406SOL     OW24679   1.063   0.721   0.439  0.4304  0.6208  0.0234
 4406SOL    HW124680   1.127   0.776   0.486  2.7838 -2.2221  0.1023
 4406SOL    HW224681   1.059   0.656   0.509  0.4668  0.3792 -0.2007
 4407SOL     OW24682   2.396   0.744   0.455 -0.2007 -0.1820 -0.1439
 4407SOL    HW124683   2.395   0.800   0.377 -0.7493  0.6700  0.4792
 4407SOL    HW224684   2.306   0.711   0.457  0.4992 -2.0306  0.6036
 4408SOL     OW24685   1.281   1.565   6.999 -0.0701  0.2969  0.0285
 4408SOL    HW124686   1.192   1.584   7.030  0.9055 -0.6876  3.3582
 4408SOL    HW224687   1.263   1.526   6.914 -1.0165 -2.5644  1.5433
 4409SOL     OW24688   1.917   1.130  11.754  0.2101  0.3907 -0.2514
 4409SOL    HW124689   1.872   1.209  11.724 -1.0974 -0.4940 -0.6344
 4409SOL    HW224690   1.879   1.061  11.700 -0.0949  2.4947 -2.7663
 4410SOL     OW24691   2.615   1.499  10.488 -0.1024  0.1087 -0.8088
 4410SOL    HW124692   2.605   1.594  10.478  4.5069  0.5456 -1.4051
 4410SOL    HW224693   2.545   1.474  10.549 -0.7927  0.7774 -1.3279
 4411SOL     OW24694   1.987   4.147   4.894 -0.3686  0.3611 -0.4597
 4411SOL    HW124695   1.964   4.223   4.841 -0.4042  0.3086 -0.5202
 4411SOL    HW224696   1.964   4.167   4.985 -2.3971  0.4505 -0.9967
 4412SOL     OW24697   0.321   3.911   6.769 -0.3458 -0.5805  0.4732
 4412SOL    HW124698   0.231   3.929   6.745 -0.3581 -2.2790 -0.7846
 4412SOL    HW224699   0.317   3.839   6.832 -0.2733 -1.7135 -0.8137
 4413SOL     OW24700   0.462   4.143   4.068  0.5533 -0.5625 -0.3352
 4413SOL    HW124701   0.408   4.127   4.146  1.0197 -0.8783 -0.0726
 4413SOL    HW224702   0.419   4.087   4.003 -0.2353 -1.1224  0.6450
 4414SOL     OW24703   3.103   4.048  16.860  0.1100 -0.3148  0.0002
 4414SOL    HW124704   3.153   4.129  16.849  2.6420 -1.9552 -0.5538
 4414SOL    HW224705   3.129   4.019  16.947 -0.2985  1.5137  0.7493
 4415SOL     OW24706   2.633   0.233   6.658  0.6360 -0.0614 -0.7636
 4415SOL    HW124707   2.657   0.182   6.735  2.0537 -0.2518 -1.3189
 4415SOL    HW224708   2.659   0.174   6.587  1.2498 -0.3726 -0.2845
 4416SOL     OW24709   4.254   0.792   5.550 -0.1443 -0.4489  1.0992
 4416SOL    HW124710   4.162   0.769   5.539 -0.0676  0.4822 -1.4709
 4416SOL    HW224711   4.265   0.838   5.467 -0.1441 -3.0147 -0.3445
 4417SOL     OW24712   4.480   3.124   4.906  0.2738 -0.3000 -0.2422
 4417SOL    HW124713   4.463   3.096   4.996  2.1586 -0.7810 -0.0502
 4417SOL    HW224714   4.524   3.043   4.880 -0.5943 -0.3197 -1.6615
 4418SOL     OW24715   0.597   1.516   7.816  0.1517 -0.5976 -0.4789
 4418SOL    HW124716   0.643   1.517   7.732  2.1224 -1.3410  0.5724
 4418SOL    HW224717   0.615   1.422   7.828  1.0157 -0.6906 -2.4106
 4419SOL     OW24718   4.655   4.470   2.919  0.1921 -0.3887  0.6918
 4419SOL    HW124719   4.593   4.406   2.885 -0.5894  0.8884 -0.2959
 4419SOL    HW224720   4.629   4.553   2.879  0.7073 -0.5824 -0.0423
 4420SOL     OW24721   0.981   4.019   9.459  0.5166 -0.0008 -0.0604
 4420SOL    HW124722   0.912   4.055   9.515  0.7695  2.4400 -1.3427
 4420SOL    HW224723   1.013   3.952   9.520  1.4165 -2.1634 -2.9402
 4421SOL     OW24724   1.143   3.440  11.189  0.1933  0.3090 -0.0146
 4421SOL    HW124725   1.208   3.409  11.251 -2.0407 -0.5340  1.8955
 4421SOL    HW224726   1.197   3.507  11.147 -0.3753 -0.0403 -1.3347
 4422SOL     OW24727   3.834   1.293   3.994 -0.3425 -0.7611  0.0931
 4422SOL    HW124728   3.766   1.322   3.933 -2.0714 -0.5872  2.1100
 4422SOL    HW224729   3.909   1.290   3.934 -0.5945  0.6117 -0.3080
 4423SOL     OW24730   2.410   1.199   8.819  0.1533  0.0562 -0.0950
 4423SOL    HW124731   2.476   1.230   8.757 -0.4367  1.0033 -0.2574
 4423SOL    HW224732   2.340   1.259   8.792  0.4321 -0.8057 -2.7352
 4424SOL     OW24733   0.320   0.161   8.840  0.0890 -0.1087 -0.2603
 4424SOL    HW124734   0.369   0.226   8.790  1.3696 -3.1304 -2.9528
 4424SOL    HW224735   0.240   0.179   8.790 -0.0698 -1.0670 -0.3461
 4425SOL     OW24736   1.375   3.969   5.891  0.5126 -0.5723  0.5235
 4425SOL    HW124737   1.369   4.020   5.972  0.2240  2.1179 -1.1894
 4425SOL    HW224738   1.375   4.042   5.829  3.0486  0.1740  1.4179
 4426SOL     OW24739   2.889   1.626   5.888  0.0454 -0.6243 -0.1312
 4426SOL    HW124740   2.862   1.666   5.805 -0.3702  1.0710  0.8414
 4426SOL    HW224741   2.823   1.662   5.946 -0.2703 -0.6243 -0.4877
 4427SOL     OW24742   4.443   3.168   4.616  0.3548  0.3884 -0.0814
 4427SOL    HW124743   4.446   3.110   4.692  0.6695  1.5954  0.8312
 4427SOL    HW224744   4.429   3.255   4.655 -0.5240 -1.3702  3.5645
 4428SOL     OW24745   3.514   4.671   7.844  0.3903 -0.0957 -0.2516
 4428SOL    HW124746   3.465   4.591   7.823  0.0083  0.2358 -0.6314
 4428SOL    HW224747   3.520   4.668   7.939 -0.7530  0.1205 -0.1726
 4429SOL     OW24748   1.789   1.766  16.830  0.4387 -0.1245 -0.0349
 4429SOL    HW124749   1.749   1.724  16.906 -0.2316  0.6041  0.0160
 4429SOL    HW224750   1.712   1.776  16.773  1.1883 -1.6504 -1.3087
 4430SOL     OW24751   3.211   0.306   2.455 -0.0396  0.4153 -0.7601
 4430SOL    HW124752   3.274   0.332   2.388 -1.2162 -0.8137 -2.3509
 4430SOL    HW224753   3.135   0.320   2.398 -1.5730 -1.4206  0.8461
 4431SOL     OW24754   3.574   1.495   5.036  0.1280 -0.3358  0.2861
 4431SOL    HW124755   3.598   1.574   4.989  0.2051 -1.3729 -1.4355
 4431SOL    HW224756   3.537   1.439   4.967 -1.3038  0.5300  0.3499
 4432SOL     OW24757   3.238   1.594   0.529  0.0685 -0.4469  0.1741
 4432SOL    HW124758   3.283   1.650   0.465  0.5034  0.8894  1.6529
 4432SOL    HW224759   3.263   1.647   0.604  2.4530  1.2077 -1.7884
 4433SOL     OW24760   3.265   2.560   0.156 -0.0226  0.6332  0.0226
 4433SOL    HW124761   3.243   2.473   0.123 -0.2176  0.7190 -0.0770
 4433SOL    HW224762   3.243   2.606   0.075  0.5282  0.2178 -0.3604
 4434SOL     OW24763   0.873   1.870   8.723  0.1260 -0.2020 -0.0876
 4434SOL    HW124764   0.801   1.814   8.697 -0.1421 -0.5911  1.4869
 4434SOL    HW224765   0.943   1.813   8.756  0.3494  0.4309  0.5401
 4435SOL     OW24766   0.228   2.177  13.700  0.1226 -0.3782  0.2034
 4435SOL    HW124767   0.176   2.105  13.664 -0.3136  0.2707 -0.4709
 4435SOL    HW224768   0.238   2.143  13.789  1.2182  0.7043  0.4910
 4436SOL     OW24769   0.810   3.398   4.148 -0.1247  0.2986 -0.8128
 4436SOL    HW124770   0.739   3.423   4.088  1.0351  1.3594 -1.7303
 4436SOL    HW224771   0.769   3.395   4.235 -0.2854  4.1593 -0.7388
 4437SOL     OW24772   4.709   3.328  16.223  0.1462 -0.1998  0.5888
 4437SOL    HW124773   4.683   3.407  16.269 -0.2400  0.5398 -0.9038
 4437SOL    HW224774   4.663   3.343  16.141  3.4273 -1.1316 -1.4379
 4438SOL     OW24775   3.300   4.574   8.767  0.2742 -0.3768  0.1905
 4438SOL    HW124776   3.317   4.652   8.819 -0.5365 -0.6380  0.8433
 4438SOL    HW224777   3.219   4.540   8.806 -0.0846 -0.2266 -0.4110
 4439SOL     OW24778   1.158   1.959   8.635 -0.3187  0.0860 -0.5826
 4439SOL    HW124779   1.068   1.944   8.664 -0.8640  1.0889 -1.7236
 4439SOL    HW224780   1.207   1.937   8.714  0.3881 -0.4778 -1.1778
 4440SOL     OW24781   1.925   1.286   5.129 -0.0256 -0.3769  0.2496
 4440SOL    HW124782   1.834   1.268   5.106  0.9824 -0.1747 -3.7853
 4440SOL    HW224783   1.956   1.240   5.051 -0.0038  0.8365 -0.4562
 4441SOL     OW24784   4.031   2.335   2.129  0.4021 -0.1862  0.5216
 4441SOL    HW124785   3.960   2.288   2.173  0.0049  2.4150  2.6462
 4441SOL    HW224786   4.006   2.328   2.037 -0.7258  1.9084  0.6729
 4442SOL     OW24787   1.843   4.018   9.077 -0.3180  0.2813  0.3445
 4442SOL    HW124788   1.815   4.100   9.036  1.4873  1.3182  1.2067
 4442SOL    HW224789   1.820   3.954   9.009 -1.3607  1.8759 -0.8148
 4443SOL     OW24790   2.826   4.669   9.568 -0.3226  0.2150  0.0420
 4443SOL    HW124791   2.885   4.594   9.556  1.3377  1.8144 -1.8069
 4443SOL    HW224792   2.841   4.687   9.660  0.6920  0.3086 -0.1370
 4444SOL     OW24793   1.371   0.181   6.783 -0.0585 -0.3534 -0.7853
 4444SOL    HW124794   1.371   0.234   6.703 -0.3499  1.1929  0.2454
 4444SOL    HW224795   1.320   0.104   6.759 -0.1576 -0.5505  0.0702
 4445SOL     OW24796   1.830   4.063   0.876 -0.0690  0.1915 -0.2481
 4445SOL    HW124797   1.868   4.105   0.953 -0.8648 -2.4802  1.5879
 4445SOL    HW224798   1.809   4.134   0.815 -0.2053  0.7563  0.4705
 4446SOL     OW24799   4.171   4.031  16.574 -0.3014 -0.0584 -0.0418
 4446SOL    HW124800   4.130   3.966  16.517 -2.1158  0.9535  0.0945
 4446SOL    HW224801   4.093   4.076  16.608  1.0650  1.1366  1.4905
 4447SOL     OW24802   0.162   2.698   3.104  0.0143  0.2804  0.7916
 4447SOL    HW124803   0.249   2.699   3.143  0.9680 -0.5535 -1.3075
 4447SOL    HW224804   0.158   2.793   3.100  0.3447  0.2809  0.5385
 4448SOL     OW24805   3.755   4.396   3.035  0.0470  0.3065  0.6828
 4448SOL    HW124806   3.776   4.372   2.944  1.2182  1.4540  0.6430
 4448SOL    HW224807   3.816   4.469   3.049 -1.7225  1.6488  1.4246
 4449SOL     OW24808   1.026   3.809   6.643 -0.3829 -0.1570 -0.1330
 4449SOL    HW124809   1.085   3.772   6.577  1.6873  0.9570  1.1297
 4449SOL    HW224810   1.029   3.745   6.714 -2.3624 -0.2187 -0.0808
 4450SOL     OW24811   1.994   3.125   2.178 -0.2571  0.1153  0.5588
 4450SOL    HW124812   1.973   3.198   2.120  1.0436 -1.2878 -1.6709
 4450SOL    HW224813   2.065   3.149   2.238  0.0714 -1.3868  0.7812
 4451SOL     OW24814   0.929   2.838   2.005  0.3873 -0.0648  0.0422
 4451SOL    HW124815   0.940   2.786   1.926 -0.3162 -2.7648  1.7252
 4451SOL    HW224816   0.838   2.822   2.031 -0.1383  2.4663 -0.2384
 4452SOL     OW24817   4.023   2.612   2.967 -0.2173 -0.0848 -0.0886
 4452SOL    HW124818   4.023   2.706   2.984  1.4662 -0.2987  1.1261
 4452SOL    HW224819   4.116   2.589   2.959 -0.9055 -2.3766 -1.6545
 4453SOL     OW24820   2.529   4.063  11.579 -0.2233  0.1635  0.2778
 4453SOL    HW124821   2.473   4.084  11.504 -2.8960  0.0025  2.2277
 4453SOL    HW224822   2.613   4.104  11.558  1.1921 -2.0168  1.6908
 4454SOL     OW24823   4.648   1.097   8.212  0.3849  0.9314  0.6496
 4454SOL    HW124824   4.607   1.024   8.166  0.7877  1.6020 -0.7613
 4454SOL    HW224825   4.573   1.148   8.242  0.1923 -0.1365  2.0044
 4455SOL     OW24826   3.040   4.046  11.603  0.2173  0.0396  0.3863
 4455SOL    HW124827   2.970   4.105  11.630  0.4879  0.9966 -1.0494
 4455SOL    HW224828   3.057   4.012  11.691 -0.9550 -0.2953  0.4874
 4456SOL     OW24829   3.989   2.842   3.486 -0.4753  0.2350  0.4626
 4456SOL    HW124830   4.074   2.830   3.443 -0.4396  0.0405  0.5844
 4456SOL    HW224831   3.933   2.798   3.422  0.3690  0.0655 -0.1582
 4457SOL     OW24832   2.819   1.314   5.371  0.3070 -0.1293  0.5177
 4457SOL    HW124833   2.893   1.258   5.393  0.8285  1.0335  1.7178
 4457SOL    HW224834   2.795   1.340   5.460 -0.5017  0.7067  0.0573
 4458SOL     OW24835   1.107   3.642  12.471 -0.3109  0.2389  1.0380
 4458SOL    HW124836   1.127   3.554  12.438  1.4735  0.1413  2.3537
 4458SOL    HW224837   1.034   3.629  12.531 -1.1604  0.8748  0.1307
 4459SOL     OW24838   0.537   4.621   3.723 -0.2517 -0.3818  0.3681
 4459SOL    HW124839   0.540   4.527   3.707  2.7875 -0.3204  0.5762
 4459SOL    HW224840   0.516   4.656   3.637  0.1298 -2.5773 -0.6173
 4460SOL     OW24841   3.747   1.304   5.149  0.1174 -0.0988 -0.0426
 4460SOL    HW124842   3.833   1.345   5.141 -0.0780  0.3948  0.3570
 4460SOL    HW224843   3.687   1.374   5.122  1.2321  0.5711 -0.7547
 4461SOL     OW24844   1.792   2.884   7.873 -0.6386  0.0692  0.2450
 4461SOL    HW124845   1.808   2.891   7.967 -0.5924 -2.7374  0.4572
 4461SOL    HW224846   1.792   2.788   7.869  0.7702  0.1307 -0.9381
 4462SOL     OW24847   3.887   4.483  15.641 -0.1603  0.2438  0.4851
 4462SOL    HW124848   3.874   4.558  15.698 -1.5821 -0.3207  0.9060
 4462SOL    HW224849   3.806   4.438  15.665 -0.5799  0.1172 -1.1543
 4463SOL     OW24850   4.356   1.488   6.511  0.2594  0.5980 -0.1351
 4463SOL    HW124851   4.289   1.483   6.444  2.3838 -1.8388 -2.0635
 4463SOL    HW224852   4.326   1.567   6.555 -1.9263 -0.4319  0.2655
 4464SOL     OW24853   3.068   4.690   3.546 -0.5274 -0.3728 -0.5047
 4464SOL    HW124854   3.142   4.642   3.582 -0.2513  0.4359  0.0133
 4464SOL    HW224855   3.017   4.616   3.514  1.3020 -1.3273 -1.2338
 4465SOL     OW24856   4.576   4.058   8.016 -0.5203 -0.3337 -0.1344
 4465SOL    HW124857   4.500   4.015   7.978  0.2522 -1.0482 -0.8932
 4465SOL    HW224858   4.581   4.014   8.101  0.1156  0.0657  0.0360
 4466SOL     OW24859   2.518   3.057   4.480  0.3352 -0.3376 -0.1596
 4466SOL    HW124860   2.520   3.004   4.560 -0.9842  1.6858  1.2290
 4466SOL    HW224861   2.597   3.016   4.446  0.2531 -2.1237  1.8323
 4467SOL     OW24862   1.022   3.364   0.352  0.2237 -0.8653 -0.4946
 4467SOL    HW124863   0.962   3.379   0.426  0.4469  1.6048 -0.8069
 4467SOL    HW224864   1.060   3.279   0.373 -1.5346 -1.4255  0.4073
 4468SOL     OW24865   2.932   0.969   8.796  0.0813 -0.2657 -0.0589
 4468SOL    HW124866   2.913   1.062   8.807 -0.9965 -0.6610  1.3324
 4468SOL    HW224867   2.968   0.971   8.707  0.0841 -0.6800 -0.0652
 4469SOL     OW24868   1.121   4.201   6.099 -0.2801  0.5139 -0.0527
 4469SOL    HW124869   1.183   4.273   6.085  1.0035 -0.5558  0.1109
 4469SOL    HW224870   1.179   4.127   6.118  1.2952  1.8598  0.4499
 4470SOL     OW24871   2.355   2.534   7.640 -0.3131 -0.0148  0.1743
 4470SOL    HW124872   2.383   2.591   7.569  1.7795 -0.3697  0.7158
 4470SOL    HW224873   2.260   2.539   7.624 -0.7299  0.6939  2.7848
 4471SOL     OW24874   0.217   4.215   3.369 -0.6181  0.7266 -0.0400
 4471SOL    HW124875   0.302   4.236   3.332 -0.4229 -0.9884 -0.5702
 4471SOL    HW224876   0.195   4.305   3.392  0.0628  1.5484 -2.6163
 4472SOL     OW24877   0.251   1.094   2.932 -0.6970 -0.0239  0.0319
 4472SOL    HW124878   0.273   1.187   2.940  0.2419 -0.4679  2.7822
 4472SOL    HW224879   0.156   1.093   2.948 -0.6964 -1.9935 -0.0317
 4473SOL     OW24880   3.970   3.787   8.315 -0.2213 -0.8654  1.0828
 4473SOL    HW124881   4.028   3.741   8.254  0.3567  0.1950  0.8236
 4473SOL    HW224882   4.006   3.876   8.308 -1.8748 -0.3993 -1.3454
 4474SOL     OW24883   2.867   0.811   0.145 -0.1885 -0.1680  0.0806
 4474SOL    HW124884   2.840   0.793   0.235  1.2963 -0.1293  0.5367
 4474SOL    HW224885   2.821   0.893   0.127 -1.3377 -0.4531  1.7639
 4475SOL     OW24886   0.182   0.762   5.750 -0.6925 -0.2336 -0.4350
 4475SOL    HW124887   0.276   0.756   5.768 -0.5363 -0.7225 -1.4646
 4475SOL    HW224888   0.147   0.714   5.825 -2.7511 -0.8359 -1.8016
 4476SOL     OW24889   0.717   1.898  13.308  0.3222 -0.0496  0.0522
 4476SOL    HW124890   0.623   1.887  13.298 -0.0260  0.8906  2.2774
 4476SOL    HW224891   0.746   1.912  13.218  0.8430 -1.4995 -0.0231
 4477SOL     OW24892   2.066   3.469   6.017  0.1192  0.0051  0.7406
 4477SOL    HW124893   2.116   3.457   5.937 -1.8522  1.6249 -0.7195
 4477SOL    HW224894   2.015   3.387   6.014  2.3109 -1.3060 -0.6525
 4478SOL     OW24895   4.485   2.983   4.146 -0.1094 -0.0432  0.3495
 4478SOL    HW124896   4.535   2.901   4.150 -3.5459 -2.0535  2.3622
 4478SOL    HW224897   4.540   3.041   4.094  1.7663 -1.3852  0.8216
 4479SOL     OW24898   0.379   2.845  13.166  0.9833 -0.0030 -0.6376
 4479SOL    HW124899   0.296   2.816  13.128  0.5850 -2.4567  2.1372
 4479SOL    HW224900   0.400   2.764  13.212  1.0680  1.9927  2.8815
 4480SOL     OW24901   3.282   3.566  13.832 -0.1975 -0.8137 -0.0770
 4480SOL    HW124902   3.371   3.560  13.798  0.7313 -1.0544  2.4152
 4480SOL    HW224903   3.294   3.612  13.915 -0.9983  0.6685 -0.7844
 4481SOL     OW24904   4.400   1.248   6.926  0.1329 -0.6799  0.0953
 4481SOL    HW124905   4.344   1.286   6.994 -0.3187 -2.2656  0.6236
 4481SOL    HW224906   4.382   1.154   6.940  1.4354 -0.8978  0.2864
 4482SOL     OW24907   3.101   3.203   2.511 -0.5411 -0.5993  0.1187
 4482SOL    HW124908   3.079   3.255   2.434  1.3709 -0.3447 -0.2597
 4482SOL    HW224909   3.022   3.150   2.517 -1.5911  0.8622 -0.8506
 4483SOL     OW24910   1.583   3.744   6.078  0.6715 -0.4568 -0.1926
 4483SOL    HW124911   1.550   3.705   5.997  0.8927 -0.1165 -0.4483
 4483SOL    HW224912   1.671   3.768   6.048  0.4040  2.0396  0.9910
 4484SOL     OW24913   2.871   2.673   6.311 -0.1156 -0.4797  0.3414
 4484SOL    HW124914   2.815   2.608   6.353 -0.9674  0.0385  0.0090
 4484SOL    HW224915   2.813   2.692   6.237 -0.3853 -0.6705  0.5042
 4485SOL     OW24916   0.702   0.324   1.963 -0.2692  0.1290  0.7325
 4485SOL    HW124917   0.671   0.303   1.875  1.1502  0.9494  0.0336
 4485SOL    HW224918   0.742   0.410   1.951 -0.1120  0.1237  1.2335
 4486SOL     OW24919   4.167   1.251   7.715  0.0095  0.1530  0.0409
 4486SOL    HW124920   4.228   1.201   7.769  1.9845  1.2251 -1.1883
 4486SOL    HW224921   4.201   1.340   7.726 -0.4946  0.5646 -1.7983
 4487SOL     OW24922   0.769   4.455  13.726  0.6062  0.0475 -0.0239
 4487SOL    HW124923   0.735   4.507  13.653 -1.0575 -1.5187 -0.3447
 4487SOL    HW224924   0.706   4.474  13.795  2.1173  3.9789  0.2733
 4488SOL     OW24925   1.692   3.432   6.012 -0.0000  0.5282 -0.4307
 4488SOL    HW124926   1.604   3.428   5.974 -0.8179  0.4146  1.4897
 4488SOL    HW224927   1.677   3.471   6.098  1.2373  0.8852 -0.3814
 4489SOL     OW24928   1.891   1.680   8.717 -0.4404 -0.8909 -0.1762
 4489SOL    HW124929   1.875   1.669   8.811  0.6874  0.2617  0.1481
 4489SOL    HW224930   1.968   1.736   8.719 -1.5169  0.5991 -0.4212
 4490SOL     OW24931   2.539   0.694  16.900  0.5580  0.0990 -0.3232
 4490SOL    HW124932   2.531   0.785  16.927 -1.2154  0.3596 -1.7514
 4490SOL    HW224933   2.569   0.654  16.982 -1.7407  0.5245  0.7127
 4491SOL     OW24934   0.294   3.037   3.629 -0.1341 -0.4892  0.4842
 4491SOL    HW124935   0.389   3.045   3.616 -0.4312  0.4188 -1.0598
 4491SOL    HW224936   0.297   2.964   3.691  2.4972 -2.2998 -1.7376
 4492SOL     OW24937   3.545   0.912  15.771 -0.4984 -0.0892 -0.2636
 4492SOL    HW124938   3.541   0.895  15.865  1.5027  1.7401  0.1535
 4492SOL    HW224939   3.637   0.886  15.760 -0.8079 -2.0630  1.8227
 4493SOL     OW24940   0.454   2.474   2.301  0.1085 -0.3429  0.1203
 4493SOL    HW124941   0.388   2.411   2.332 -1.2170  0.5820 -0.8558
 4493SOL    HW224942   0.509   2.404   2.267  1.5049  1.1451 -0.6554
 4494SOL     OW24943   2.465   4.448   8.292 -0.3334 -0.7909  0.7982
 4494SOL    HW124944   2.374   4.473   8.275 -0.1361 -1.8659 -1.7665
 4494SOL    HW224945   2.468   4.356   8.267  0.9935 -0.4123 -0.4152
 4495SOL     OW24946   1.956   0.516   7.262 -0.5144  0.2179 -0.1772
 4495SOL    HW124947   1.872   0.547   7.229 -0.5325  0.3409 -0.0184
 4495SOL    HW224948   1.926   0.475   7.343  0.3052  0.4423  0.2412
 4496SOL     OW24949   1.790   0.729   4.022 -0.0570 -0.2343 -0.4147
 4496SOL    HW124950   1.824   0.765   3.940  0.3606  0.4396  0.0522
 4496SOL    HW224951   1.848   0.653   4.030 -1.4158 -1.2606 -0.2700
 4497SOL     OW24952   1.220   0.970   1.613 -0.1850 -0.3255 -0.2215
 4497SOL    HW124953   1.237   0.990   1.705 -2.3644  1.2940 -0.1749
 4497SOL    HW224954   1.289   1.024   1.575 -1.9911  1.3164 -1.1507
 4498SOL     OW24955   3.555   0.239   3.727  0.6226 -0.1151 -0.0074
 4498SOL    HW124956   3.519   0.158   3.762  0.3108 -1.7335 -4.1343
 4498SOL    HW224957   3.509   0.242   3.643  0.6989  1.1937 -0.0120
 4499SOL     OW24958   2.401   4.150  11.343  0.3986 -0.4639 -0.0046
 4499SOL    HW124959   2.436   4.203  11.271  0.7067  0.3052  0.7125
 4499SOL    HW224960   2.373   4.222  11.399  1.7627 -0.1432  0.2681
 4500SOL     OW24961   0.401   4.654   3.280 -0.6454 -0.0827  0.6269
 4500SOL    HW124962   0.358   4.577   3.243 -0.1867  0.0430 -0.1594
 4500SOL    HW224963   0.487   4.641   3.240 -0.7046  0.6131  0.2777
 4501SOL     OW24964   3.969   0.971  16.537  0.1753  0.1019  0.2635
 4501SOL    HW124965   4.009   1.014  16.461 -0.7321 -0.5899 -0.6056
 4501SOL    HW224966   3.990   0.881  16.513 -0.8713  0.5105 -2.1542
 4502SOL     OW24967   0.327   4.137  12.114  0.1027 -0.0150  0.4425
 4502SOL    HW124968   0.413   4.175  12.095  0.3234 -1.1926 -0.8903
 4502SOL    HW224969   0.275   4.175  12.043  1.5586  0.4593 -0.3777
 4503SOL     OW24970   1.520   1.284   6.859  0.1945  0.6306  0.2134
 4503SOL    HW124971   1.513   1.195   6.826 -1.2494  0.8037  0.0691
 4503SOL    HW224972   1.506   1.333   6.778  0.4585 -0.9541 -0.7769
 4504SOL     OW24973   0.956   4.384  17.027  0.1960  0.2535  0.4328
 4504SOL    HW124974   0.932   4.299  17.062 -1.1527 -0.0459 -1.2169
 4504SOL    HW224975   0.896   4.394  16.953  0.4804 -1.5871 -0.0436
 4505SOL     OW24976   3.129   2.743   6.320 -0.0732 -0.2603  0.2937
 4505SOL    HW124977   3.036   2.718   6.317 -0.5982  1.8199 -0.5710
 4505SOL    HW224978   3.149   2.739   6.226  0.0875  0.8221  0.2814
 4506SOL     OW24979   4.577   1.491  13.246  0.1977 -0.5141  0.1033
 4506SOL    HW124980   4.508   1.510  13.310 -0.5120  1.7188 -1.3112
 4506SOL    HW224981   4.523   1.476  13.168  0.1007  1.2353 -0.1632
 4507SOL     OW24982   3.253   4.229   6.539 -0.2153 -0.3153 -0.3471
 4507SOL    HW124983   3.252   4.281   6.458 -1.1667 -3.7784 -2.5197
 4507SOL    HW224984   3.162   4.237   6.566 -0.3459  0.6309 -1.0373
 4508SOL     OW24985   2.773   2.757  12.865  0.2248  0.2377 -0.1675
 4508SOL    HW124986   2.685   2.719  12.856  0.1638  0.3579 -0.0823
 4508SOL    HW224987   2.796   2.727  12.953 -0.4676  3.6560  1.1813
 4509SOL     OW24988   1.968   1.653   6.969  0.0488  0.4529 -0.1112
 4509SOL    HW124989   1.924   1.608   7.042  0.1357  3.2450  1.6426
 4509SOL    HW224990   1.905   1.722   6.949  0.2718  0.7310  0.1450
 4510SOL     OW24991   4.231   3.817   2.841  0.2768 -0.2275 -0.5639
 4510SOL    HW124992   4.143   3.854   2.849  1.6470  2.5469  1.6697
 4510SOL    HW224993   4.280   3.875   2.783  0.7677  3.1454  3.2428
 4511SOL     OW24994   4.156   4.586   0.750 -0.9418  0.0269  0.1159
 4511SOL    HW124995   4.128   4.569   0.840  0.9481 -0.1076  0.6669
 4511SOL    HW224996   4.245   4.550   0.753 -1.0416 -0.4141 -2.1169
 4512SOL     OW24997   0.669   4.400   1.203  0.5538  0.0536  0.0889
 4512SOL    HW124998   0.759   4.380   1.227  1.2429  0.2728 -2.3477
 4512SOL    HW224999   0.673   4.378   1.110  1.4783 -0.3817  0.2282
 4513SOL     OW25000   3.308   4.240  14.931 -0.3697  0.0693  0.0025
 4513SOL    HW125001   3.279   4.301  14.863  1.0853 -0.5692 -1.1857
 4513SOL    HW225002   3.367   4.183  14.883 -3.2710 -2.5081 -0.4586
 4514SOL     OW25003   1.700   1.927  15.774 -0.4539 -0.0381 -0.4971
 4514SOL    HW125004   1.677   1.984  15.848 -1.3333  2.2532 -2.5513
 4514SOL    HW225005   1.660   1.969  15.698 -1.6720  0.6835  0.5371
 4515SOL     OW25006   2.102   0.367   7.064  0.1249 -0.3239 -0.0884
 4515SOL    HW125007   2.072   0.315   6.989 -0.1880  1.5178 -1.2577
 4515SOL    HW225008   2.021   0.407   7.096  0.7693  2.0360 -1.4543
 4516SOL     OW25009   0.964   0.240   8.306 -0.3690  0.2246  0.0086
 4516SOL    HW125010   0.886   0.276   8.348 -1.8003 -0.3734 -2.1665
 4516SOL    HW225011   0.932   0.251   8.217  0.9619  0.8714 -0.3847
 4517SOL     OW25012   3.762   0.502   2.098  0.5074 -0.7294 -0.5525
 4517SOL    HW125013   3.692   0.567   2.106  0.3488 -1.1545  1.5185
 4517SOL    HW225014   3.824   0.518   2.170 -0.3747  0.4160 -0.0547
 4518SOL     OW25015   3.330   0.027   1.339  0.1687 -0.0867  0.1283
 4518SOL    HW125016   3.378   0.053   1.261 -0.9991 -1.6225 -1.1195
 4518SOL    HW225017   3.361   4.660   1.348 -0.9025 -0.5502 -0.8400
 4519SOL     OW25018   4.343   3.525  14.421  0.1436  0.6910  0.1594
 4519SOL    HW125019   4.266   3.522  14.364  0.6868 -2.4281 -0.4357
 4519SOL    HW225020   4.362   3.433  14.439 -1.0839  0.1049 -1.5823
 4520SOL     OW25021   3.755   4.721   6.171  0.0312 -0.2632 -0.1496
 4520SOL    HW125022   3.845   0.010   6.203 -0.3232  1.3401  0.2782
 4520SOL    HW225023   3.768   4.635   6.133 -1.2407 -0.7727  0.5742
 4521SOL     OW25024   1.115   3.943   3.171 -0.3329 -0.4719  0.1231
 4521SOL    HW125025   1.037   3.923   3.119  0.8974 -2.9561 -0.7607
 4521SOL    HW225026   1.144   4.030   3.144  0.5406 -1.0416 -0.8157
 4522SOL     OW25027   0.473   1.304   8.206  0.4358 -0.4002  0.0458
 4522SOL    HW125028   0.409   1.373   8.186  0.4358 -0.2172  0.6926
 4522SOL    HW225029   0.553   1.356   8.207  0.5143 -0.5217  0.1037
 4523SOL     OW25030   3.347   0.821   5.482 -0.0802 -0.0934 -0.3226
 4523SOL    HW125031   3.402   0.812   5.404 -0.0464  1.0695 -0.4334
 4523SOL    HW225032   3.265   0.793   5.442  1.3556 -1.2331 -2.4828
 4524SOL     OW25033   4.456   4.514   3.974  0.5781  0.4422 -0.0740
 4524SOL    HW125034   4.419   4.428   3.992 -0.8492  1.3737  1.4180
 4524SOL    HW225035   4.388   4.573   3.941  1.0246  0.1468 -1.5211
 4525SOL     OW25036   3.694   3.107   4.458 -0.1312 -0.3102 -0.3571
 4525SOL    HW125037   3.763   3.105   4.524 -1.4522 -1.3898  1.0130
 4525SOL    HW225038   3.625   3.145   4.513  0.0118  1.7546 -1.6044
 4526SOL     OW25039   0.680   1.840   5.112 -0.2085 -0.5085 -0.5746
 4526SOL    HW125040   0.736   1.869   5.184 -3.2731  0.5858  1.3405
 4526SOL    HW225041   0.736   1.866   5.039 -1.1728 -0.3239 -1.2398
 4527SOL     OW25042   1.608   3.183   5.506  0.0627  0.5679 -0.7251
 4527SOL    HW125043   1.691   3.140   5.484  0.7843  0.8568  1.4698
 4527SOL    HW225044   1.576   3.204   5.418 -0.8977 -0.9487 -0.7531
 4528SOL     OW25045   2.723   4.699   9.077 -0.1640 -0.5238 -0.0835
 4528SOL    HW125046   2.720   0.049   9.015  1.0153 -1.2491 -0.9894
 4528SOL    HW225047   2.763   0.025   9.149 -1.1644 -2.7000  1.9342
 4529SOL     OW25048   3.517   1.530   8.215  0.1036  0.4660  0.1108
 4529SOL    HW125049   3.526   1.444   8.256 -0.7100  0.3467  0.0274
 4529SOL    HW225050   3.509   1.595   8.285  0.3593 -0.6532  1.1724
 4530SOL     OW25051   2.455   0.207   9.733 -0.3135 -0.0390  0.5266
 4530SOL    HW125052   2.536   0.256   9.750 -1.1916  1.0703  1.5225
 4530SOL    HW225053   2.392   0.275   9.711 -1.2067 -1.5332 -1.5535
 4531SOL     OW25054   0.861   1.057   6.720 -0.3199  0.3502 -0.4715
 4531SOL    HW125055   0.877   0.980   6.666  0.5458 -0.4844  1.0078
 4531SOL    HW225056   0.765   1.065   6.714 -0.4160  0.9276  2.0341
 4532SOL     OW25057   2.083   0.406   8.734  0.2117  0.2109  0.3732
 4532SOL    HW125058   2.037   0.473   8.684  3.0792  1.1771 -1.0094
 4532SOL    HW225059   2.020   0.337   8.713 -0.3653  0.8134  0.1565
 4533SOL     OW25060   3.282   0.725   3.677  0.2410 -0.0850  0.3463
 4533SOL    HW125061   3.341   0.658   3.710  0.6495 -0.7170 -1.6418
 4533SOL    HW225062   3.336   0.763   3.607  1.3683 -2.7892 -0.2217
 4534SOL     OW25063   2.848   4.234   3.061  0.3129  0.1263 -0.2900
 4534SOL    HW125064   2.776   4.180   3.031  1.0252 -1.3492  0.6617
 4534SOL    HW225065   2.918   4.211   3.000  1.1428 -1.4951  1.2894
 4535SOL     OW25066   2.651   3.249   3.118  0.7550 -0.0712  0.3720
 4535SOL    HW125067   2.574   3.213   3.075  0.4081  1.4838 -0.2774
 4535SOL    HW225068   2.613   3.279   3.200 -1.5169 -1.6688 -0.1066
 4536SOL     OW25069   3.831   2.690   3.310  0.4284  0.0341  0.6237
 4536SOL    HW125070   3.741   2.692   3.280  1.4203 -2.0586 -2.4883
 4536SOL    HW225071   3.867   2.634   3.241 -1.2428  0.9020 -0.9374
 4537SOL     OW25072   0.066   0.211   8.713  0.3902  0.0745 -0.2095
 4537SOL    HW125073   4.714   0.193   8.769  0.4994  0.0609 -0.0664
 4537SOL    HW225074   0.042   0.294   8.671 -2.5001 -1.6185 -1.8166
 4538SOL     OW25075   3.699   3.047   7.556 -0.1930  0.0577 -0.7400
 4538SOL    HW125076   3.785   3.015   7.528  0.2390  0.3497  0.2557
 4538SOL    HW225077   3.642   2.992   7.502 -0.3633 -0.0958 -0.4088
 4539SOL     OW25078   1.073   0.379   4.892 -0.2118 -0.5962  0.0123
 4539SOL    HW125079   1.037   0.376   4.803  0.9083  0.6991 -0.4969
 4539SOL    HW225080   1.103   0.470   4.901 -0.9781 -0.4277  0.9087
 4540SOL     OW25081   1.373   2.798   4.738  0.3050 -0.4861 -0.4327
 4540SOL    HW125082   1.402   2.889   4.730 -0.1348 -0.1590  1.9030
 4540SOL    HW225083   1.440   2.750   4.688  1.5467  0.0716  0.6877
 4541SOL     OW25084   0.373   3.093   5.633 -0.5691  0.2689  0.5566
 4541SOL    HW125085   0.383   3.000   5.650 -1.2032 -0.0951 -1.0434
 4541SOL    HW225086   0.342   3.083   5.543  1.0006  2.4062 -0.2291
 4542SOL     OW25087   0.129   1.187   8.911 -0.5980 -0.7237 -0.1257
 4542SOL    HW125088   0.115   1.116   8.847 -0.0225  0.5438 -1.6700
 4542SOL    HW225089   0.187   1.141   8.971  1.4226  0.1220 -1.4211
 4543SOL     OW25090   2.942   2.261   0.860 -0.4158  0.1202  0.0814
 4543SOL    HW125091   2.969   2.170   0.871 -0.8635 -0.2831 -2.2199
 4543SOL    HW225092   2.922   2.270   0.767  1.3902 -0.6547 -0.3906
 4544SOL     OW25093   1.980   1.022  17.162  0.3715  0.7107  0.2525
 4544SOL    HW125094   2.057   0.974  17.130 -1.6592 -1.5158 -1.2619
 4544SOL    HW225095   1.988   1.008  17.257  2.2443 -1.7684 -0.2368
 4545SOL     OW25096   3.052   0.571   5.008 -0.4455  0.4765  0.3439
 4545SOL    HW125097   3.101   0.613   5.079  0.6210  1.1282 -0.7873
 4545SOL    HW225098   3.092   0.620   4.936  1.2835 -1.3793  0.0687
 4546SOL     OW25099   0.666   1.592  16.202  0.6696  0.3183 -0.4184
 4546SOL    HW125100   0.757   1.621  16.214  1.7927 -3.9532  1.2139
 4546SOL    HW225101   0.646   1.554  16.288  2.9291  2.2568  0.9619
 4547SOL     OW25102   0.196   2.597   5.051  0.6040 -0.1203 -0.1007
 4547SOL    HW125103   0.202   2.636   4.964 -2.2225 -0.8661 -0.6262
 4547SOL    HW225104   0.266   2.532   5.042  0.7492 -0.5533  3.8914
 4548SOL     OW25105   0.819   1.641  15.136  0.0177 -0.1152 -0.0670
 4548SOL    HW125106   0.864   1.709  15.086 -0.6860  0.5244  0.1606
 4548SOL    HW225107   0.884   1.617  15.202  0.2131  1.0852  0.1793
 4549SOL     OW25108   1.752   3.682   7.062  0.2739 -0.2980 -0.3129
 4549SOL    HW125109   1.685   3.618   7.041  0.4331 -0.5081 -0.1755
 4549SOL    HW225110   1.827   3.648   7.013  1.1568  1.1865 -0.0116
 4550SOL     OW25111   3.210   1.846   5.763  0.6371  0.7088 -0.3321
 4550SOL    HW125112   3.288   1.901   5.752  0.0884  1.1900 -1.9617
 4550SOL    HW225113   3.203   1.835   5.857 -0.1067  0.0997 -0.4570
 4551SOL     OW25114   2.534   0.866   9.043  0.5322  0.0046  0.0857
 4551SOL    HW125115   2.470   0.836   9.107  0.0074  2.3068  0.6688
 4551SOL    HW225116   2.476   0.894   8.971  0.6971 -1.1755 -0.5084
 4552SOL     OW25117   0.782   3.700   5.082 -0.6480 -0.6057  0.2415
 4552SOL    HW125118   0.826   3.635   5.026  0.6886  0.9799 -0.5376
 4552SOL    HW225119   0.782   3.647   5.162  1.0520 -0.4562  0.3323
 4553SOL     OW25120   0.118   0.815  17.366  0.3749 -0.6834  0.4179
 4553SOL    HW125121   0.102   0.791  17.274  1.3154 -2.4193  0.7082
 4553SOL    HW225122   0.165   0.738  17.397  1.3078  0.3778  1.6295
 4554SOL     OW25123   3.780   1.189  16.714  0.0640 -0.4622 -0.1173
 4554SOL    HW125124   3.764   1.212  16.805  1.3161 -1.7930  0.4416
 4554SOL    HW225125   3.695   1.215  16.679  0.1121 -0.0008  0.1018
 4555SOL     OW25126   0.126   2.407   3.283  0.2926 -0.2911 -0.1062
 4555SOL    HW125127   0.172   2.334   3.242 -1.4185 -0.5431 -1.5886
 4555SOL    HW225128   0.151   2.475   3.220 -1.1855 -0.0676 -0.4624
 4556SOL     OW25129   2.239   3.802   4.368  0.7007  0.3842 -0.1294
 4556SOL    HW125130   2.238   3.808   4.464 -1.8761  1.7641 -0.2501
 4556SOL    HW225131   2.144   3.801   4.362  0.5400  0.2324  2.1200
 4557SOL     OW25132   2.041   3.800   7.303  0.3590 -0.2956 -0.9995
 4557SOL    HW125133   2.127   3.817   7.341  0.1357 -1.6003  0.0702
 4557SOL    HW225134   1.990   3.830   7.378 -0.5041  0.7969 -2.0150
 4558SOL     OW25135   0.512   0.805  10.942 -0.5015  0.1809  0.0401
 4558SOL    HW125136   0.525   0.777  10.851  0.2032  3.3948 -0.8413
 4558SOL    HW225137   0.528   0.724  10.991 -0.2376  1.1873  1.5860
 4559SOL     OW25138   2.776   4.210   7.982  0.3640  0.4696 -0.4084
 4559SOL    HW125139   2.740   4.124   8.007 -1.4423  1.5947  0.8928
 4559SOL    HW225140   2.738   4.219   7.895  0.1076  2.0249 -0.1371
 4560SOL     OW25141   3.440   2.516  16.351  0.2981  0.3295  0.2582
 4560SOL    HW125142   3.433   2.462  16.429 -1.6674 -0.0018 -0.1667
 4560SOL    HW225143   3.515   2.477  16.306 -0.0307 -0.7128  0.6291
 4561SOL     OW25144   4.239   0.285   9.016 -0.1776  0.0086  0.5061
 4561SOL    HW125145   4.223   0.369   8.973 -0.1991 -0.0323  0.4353
 4561SOL    HW225146   4.153   0.247   8.998  0.7024 -1.7723  0.1107
 4562SOL     OW25147   1.126   0.675   1.264  0.0592  0.6592 -0.1518
 4562SOL    HW125148   1.087   0.670   1.177 -1.3939 -1.5898  0.6244
 4562SOL    HW225149   1.190   0.742   1.241  2.5295 -1.3492  0.9070
 4563SOL     OW25150   1.909   4.440   5.051  0.4200  0.2302  0.1889
 4563SOL    HW125151   1.896   4.508   4.985  1.8083  0.0582 -0.2758
 4563SOL    HW225152   1.824   4.433   5.094  0.0764 -2.0549 -0.8307
 4564SOL     OW25153   1.566   3.521   0.212 -0.2280  0.1715 -0.1093
 4564SOL    HW125154   1.511   3.559   0.143  0.6360 -0.7803 -1.3458
 4564SOL    HW225155   1.607   3.457   0.153  0.4696 -0.7968  1.4186
 4565SOL     OW25156   2.502   0.569   1.469 -0.4865  0.1844 -0.2966
 4565SOL    HW125157   2.576   0.563   1.409 -2.1632  0.7071 -2.4194
 4565SOL    HW225158   2.455   0.486   1.454  0.9181 -0.8709  1.1040
 4566SOL     OW25159   1.809   0.198   5.229  0.0685  0.2727  0.3638
 4566SOL    HW125160   1.736   0.235   5.181  0.1442 -0.5257 -0.3582
 4566SOL    HW225161   1.810   0.263   5.299 -0.7930  0.8884 -0.2023
 4567SOL     OW25162   3.554   2.377   9.726  0.2696  0.2942  0.2456
 4567SOL    HW125163   3.515   2.306   9.778 -2.0511  0.9188 -0.6616
 4567SOL    HW225164   3.477   2.409   9.681  0.2548 -2.2264 -1.5453
 4568SOL     OW25165   2.663   0.028  16.678  0.8475  0.0031 -0.6100
 4568SOL    HW125166   2.612   0.079  16.741 -1.0767 -1.5672 -0.8890
 4568SOL    HW225167   2.659   0.081  16.598  0.1685 -0.0168 -0.5911
 4569SOL     OW25168   4.158   4.440   4.798 -0.3449  0.1864 -0.0976
 4569SOL    HW125169   4.070   4.412   4.770 -1.5422  0.7181  3.2011
 4569SOL    HW225170   4.167   4.531   4.771  1.3743 -0.2589 -1.0451
 4570SOL     OW25171   3.800   3.988   1.912 -0.4944  0.0193 -0.0615
 4570SOL    HW125172   3.893   3.992   1.888 -0.6062  0.9085 -0.3357
 4570SOL    HW225173   3.779   4.081   1.925 -1.8223 -0.0378 -1.8243
 4571SOL     OW25174   3.827   0.126   9.049  0.2066  0.2797  0.8668
 4571SOL    HW125175   3.889   0.095   9.115 -1.5767 -2.2002  1.3922
 4571SOL    HW225176   3.804   0.213   9.080  0.5228  0.6153  0.1569
 4572SOL     OW25177   2.998   3.621  14.768  0.4976  0.2284  0.2829
 4572SOL    HW125178   3.074   3.621  14.709  0.7800  3.3640  0.6676
 4572SOL    HW225179   3.018   3.705  14.808  1.0192  0.1935  0.0999
 4573SOL     OW25180   1.994   3.362   2.396 -0.0075  0.1577  0.1642
 4573SOL    HW125181   2.029   3.329   2.479  1.9997  1.1607 -0.2806
 4573SOL    HW225182   2.073   3.353   2.344 -0.9096  0.7385 -1.2864
 4574SOL     OW25183   0.881   2.624   7.903  0.1343 -0.3753  0.6865
 4574SOL    HW125184   0.930   2.557   7.951  0.1191  1.1748  2.8732
 4574SOL    HW225185   0.821   2.566   7.856  1.2037 -0.2938 -0.7772
 4575SOL     OW25186   2.430   1.861  14.319 -0.6336 -1.0890  0.2426
 4575SOL    HW125187   2.443   1.776  14.361  2.1808 -0.5130  0.5340
 4575SOL    HW225188   2.367   1.902  14.378  1.0221 -0.1212  1.3455
 4576SOL     OW25189   1.432   1.063   1.463  0.3231 -0.5146 -0.2343
 4576SOL    HW125190   1.444   0.987   1.404 -0.0288  0.4553 -1.5591
 4576SOL    HW225191   1.492   1.124   1.420 -0.5995 -0.4618 -1.4408
 4577SOL     OW25192   3.685   2.027   5.832 -0.1822  0.1024  0.7352
 4577SOL    HW125193   3.738   2.082   5.890  1.3040  0.0309 -0.5477
 4577SOL    HW225194   3.710   2.068   5.749 -0.0399 -0.9987  0.2371
 4578SOL     OW25195   4.044   0.130   0.230  0.7133 -0.1178 -0.2913
 4578SOL    HW125196   3.977   0.132   0.162  0.0379 -0.1851  0.3644
 4578SOL    HW225197   4.044   0.037   0.253  0.0854 -0.6355 -2.3970
 4579SOL     OW25198   3.310   4.302   9.325 -0.0595 -0.3491  0.1961
 4579SOL    HW125199   3.221   4.299   9.361 -1.1060  1.4078 -2.2652
 4579SOL    HW225200   3.348   4.381   9.363 -2.3512  0.5452  0.6145
 4580SOL     OW25201   2.007   4.364   8.176 -0.7473  0.4727 -0.1644
 4580SOL    HW125202   1.933   4.409   8.217  0.4226  1.9048  0.3804
 4580SOL    HW225203   1.963   4.302   8.117  0.5323  1.6816 -2.3699
 4581SOL     OW25204   3.333   1.082   4.874 -0.4018  0.5543 -0.1841
 4581SOL    HW125205   3.360   0.992   4.856  1.4374  1.0130  0.2437
 4581SOL    HW225206   3.254   1.079   4.820  0.2893 -0.9527 -1.1048
 4582SOL     OW25207   1.961   3.856   4.333  0.2107 -0.1503  0.6202
 4582SOL    HW125208   1.898   3.810   4.277  0.5795 -0.9532  0.8694
 4582SOL    HW225209   1.997   3.930   4.284 -1.0552 -1.2520 -1.9546
 4583SOL     OW25210   1.893   1.251   4.565  0.1902  0.2612 -0.5794
 4583SOL    HW125211   1.814   1.199   4.582  0.9727 -0.5078  0.6683
 4583SOL    HW225212   1.879   1.298   4.483 -0.2576  0.3572 -0.4522
 4584SOL     OW25213   3.020   0.278   7.590  0.0480 -0.0631 -0.1902
 4584SOL    HW125214   2.939   0.287   7.641  0.8888  0.9246  0.9758
 4584SOL    HW225215   3.022   0.362   7.544 -1.2600  0.3921  0.5729
 4585SOL     OW25216   2.574   4.459   3.333  0.0509 -0.3212  0.1530
 4585SOL    HW125217   2.576   4.549   3.366 -1.8893 -0.1097 -0.2650
 4585SOL    HW225218   2.625   4.468   3.253 -0.4160 -1.0731 -0.2290
 4586SOL     OW25219   0.781   0.181   8.081 -0.3941  0.6372  0.2173
 4586SOL    HW125220   0.749   0.136   8.003 -1.6507  1.0176  0.5176
 4586SOL    HW225221   0.752   0.124   8.152  1.2844 -1.5209 -0.8310
 4587SOL     OW25222   4.472   0.025   2.119  0.4499  0.5900 -0.6042
 4587SOL    HW125223   4.501   0.070   2.040  1.0626  0.4276 -0.4744
 4587SOL    HW225224   4.472   4.657   2.087 -0.9796  0.2225  0.4127
 4588SOL     OW25225   1.571   0.686   1.164  0.4322 -0.9294 -0.1505
 4588SOL    HW125226   1.628   0.682   1.086  0.7435 -1.0146  0.0823
 4588SOL    HW225227   1.552   0.599   1.199 -0.5488 -1.2912 -1.5657
 4589SOL     OW25228   2.661   0.520   6.207 -0.0556  0.0421  0.0902
 4589SOL    HW125229   2.688   0.606   6.174  0.3103 -1.0036 -2.3871
 4589SOL    HW225230   2.715   0.461   6.154  0.9674  1.8428 -0.8712
 4590SOL     OW25231   1.626   2.650   5.473 -0.2256 -0.3033 -0.1632
 4590SOL    HW125232   1.598   2.572   5.425  0.1965 -0.5845  0.0435
 4590SOL    HW225233   1.719   2.656   5.450 -0.0794 -2.9514 -0.2965
 4591SOL     OW25234   2.693   4.401  14.515  0.1259  0.4792  1.1337
 4591SOL    HW125235   2.647   4.413  14.599 -1.0394 -1.2456  0.7290
 4591SOL    HW225236   2.686   4.490  14.480 -2.2273 -0.3707 -0.5146
 4592SOL     OW25237   0.520   3.420   1.481 -0.2704 -0.1743 -0.1448
 4592SOL    HW125238   0.566   3.349   1.435  0.2104  0.4647 -0.6410
 4592SOL    HW225239   0.433   3.416   1.442  0.0504 -2.7861 -0.6240
 4593SOL     OW25240   1.947   3.367   1.417 -0.5352 -0.0016 -0.2546
 4593SOL    HW125241   2.005   3.386   1.490 -1.9716  0.0736  0.8704
 4593SOL    HW225242   1.999   3.310   1.360 -0.6037 -0.3026 -0.0173
 4594SOL     OW25243   0.912   1.120   8.623 -0.0386  0.5916  0.0864
 4594SOL    HW125244   0.826   1.078   8.611 -0.1252  0.3724  1.4997
 4594SOL    HW225245   0.966   1.042   8.639  0.3977  1.0563  0.8222
 4595SOL     OW25246   3.325   0.258  11.228 -0.3394 -0.3287  0.6478
 4595SOL    HW125247   3.275   0.181  11.202 -1.5553 -0.2896  2.9454
 4595SOL    HW225248   3.385   0.222  11.293  0.3271  2.8930  1.8014
 4596SOL     OW25249   4.058   4.367   6.379 -0.1434 -0.3707  0.2748
 4596SOL    HW125250   3.980   4.422   6.384  0.0936 -0.1381  1.4327
 4596SOL    HW225251   4.045   4.319   6.461  1.8411  1.3909  1.6027
 4597SOL     OW25252   4.113   1.641  17.534 -0.3853  0.6582  0.3031
 4597SOL    HW125253   4.192   1.642  17.587 -0.0982  1.9824 -0.1391
 4597SOL    HW225254   4.135   1.716  17.478 -1.2074  0.4011 -0.3562
 4598SOL     OW25255   1.318   1.104  16.055  0.1596 -0.0828  0.0192
 4598SOL    HW125256   1.334   1.198  16.051 -1.4183  0.1763 -0.2067
 4598SOL    HW225257   1.352   1.090  15.967  0.7289  2.4074 -0.1452
 4599SOL     OW25258   1.178   1.959  10.334  0.0285  0.0653  0.4064
 4599SOL    HW125259   1.199   2.015  10.408  1.2239 -0.5574  0.5407
 4599SOL    HW225260   1.103   2.008  10.301 -0.4470 -1.2140 -0.4492
 4600SOL     OW25261   0.572   3.922  12.998 -0.4063  0.2388 -0.0781
 4600SOL    HW125262   0.595   3.966  13.080 -0.0833  1.2412 -0.7085
 4600SOL    HW225263   0.643   3.960  12.946 -0.3565 -0.7845 -0.7700
 4601SOL     OW25264   2.558   2.987  15.860 -0.3620 -0.5917  0.4588
 4601SOL    HW125265   2.621   2.922  15.828  1.7231  0.2687  2.8910
 4601SOL    HW225266   2.505   2.928  15.914  0.0778 -0.8775  0.5756
 4602SOL     OW25267   3.161   2.350   7.960 -0.3430  0.4751  0.5988
 4602SOL    HW125268   3.153   2.341   8.055  0.0419 -0.2467  0.5625
 4602SOL    HW225269   3.221   2.278   7.939 -3.0099 -0.7907 -2.6566
 4603SOL     OW25270   1.916   0.214  17.677 -0.0033  0.3693 -0.2090
 4603SOL    HW125271   1.828   0.242  17.653  0.1078  1.2694  0.3999
 4603SOL    HW225272   1.980   0.277  17.643 -0.7990  1.4451  0.2768
 4604SOL     OW25273   0.733   2.124   5.578 -0.0282 -0.5767  0.2840
 4604SOL    HW125274   0.712   2.114   5.671  0.8042 -0.2374  0.5012
 4604SOL    HW225275   0.740   2.036   5.541  0.7655 -0.0203 -0.9196
 4605SOL     OW25276   1.102   1.685   4.023  0.0431 -0.0473  0.2853
 4605SOL    HW125277   1.124   1.596   3.996 -0.4904 -0.3557  0.8757
 4605SOL    HW225278   1.179   1.737   4.046  0.3331  0.9498 -2.8870
 4606SOL     OW25279   3.010   2.073   6.327 -0.2782 -0.8233  0.4914
 4606SOL    HW125280   3.043   2.162   6.314 -0.6331 -0.7313  0.2433
 4606SOL    HW225281   3.072   2.037   6.391  0.9252 -0.2700 -0.3664
 4607SOL     OW25282   1.218   4.526  10.310 -0.1239 -0.0777 -0.6208
 4607SOL    HW125283   1.243   4.569  10.229  2.1144 -0.8161 -0.3546
 4607SOL    HW225284   1.162   4.593  10.348  0.6840 -0.4403  1.2424
 4608SOL     OW25285   2.815   2.986   0.319  0.3822  0.7005 -0.4395
 4608SOL    HW125286   2.855   3.067   0.351  0.3496  1.8472 -3.2817
 4608SOL    HW225287   2.724   3.015   0.322 -0.3338 -1.6537  0.2109
 4609SOL     OW25288   2.811   4.174   4.191  1.0600  0.6225 -0.4656
 4609SOL    HW125289   2.878   4.147   4.128  1.0206  1.5193 -0.9021
 4609SOL    HW225290   2.872   4.199   4.260 -1.3222  0.6680  1.6126
 4610SOL     OW25291   3.759   4.319   0.547 -0.1566  0.2905 -0.1603
 4610SOL    HW125292   3.793   4.408   0.537  0.0754  0.2584  0.3360
 4610SOL    HW225293   3.747   4.315   0.642 -0.7763  0.6869 -0.2186
 4611SOL     OW25294   0.215   3.109   1.368  0.5094 -0.0484 -0.2059
 4611SOL    HW125295   0.192   3.029   1.415  1.4682 -0.3698 -0.2867
 4611SOL    HW225296   0.196   3.080   1.278  0.7946  2.1612 -0.9664
 4612SOL     OW25297   2.450   1.198  17.020 -0.1180  0.4800  0.1715
 4612SOL    HW125298   2.355   1.193  17.014 -0.2110 -0.1804  1.9670
 4612SOL    HW225299   2.464   1.289  16.993 -1.2969 -0.4195 -3.4328
 4613SOL     OW25300   3.491   1.252   9.321 -0.4392  0.3582  0.1706
 4613SOL    HW125301   3.432   1.197   9.373  1.0671 -0.8006  0.6693
 4613SOL    HW225302   3.464   1.343   9.320 -1.2119  0.1077 -1.4260
 4614SOL     OW25303   2.344   0.392   7.429  0.2043 -0.0035 -0.1975
 4614SOL    HW125304   2.277   0.332   7.462  0.1248 -0.1612 -0.6494
 4614SOL    HW225305   2.300   0.476   7.440 -1.7072 -0.7305 -2.4274
 4615SOL     OW25306   3.966   0.800   0.290 -0.1709 -0.1112  0.7078
 4615SOL    HW125307   3.995   0.743   0.361 -1.4547 -1.7216 -0.0705
 4615SOL    HW225308   4.039   0.861   0.282 -0.9572  1.0340  2.1924
 4616SOL     OW25309   3.357   0.240   8.715 -0.1124 -0.1011  0.2657
 4616SOL    HW125310   3.360   0.247   8.810 -0.8150  0.1576  0.2725
 4616SOL    HW225311   3.284   0.181   8.698  1.9045 -2.6675  0.6259
 4617SOL     OW25312   1.314   2.622   8.000 -0.0892  0.4774 -0.1651
 4617SOL    HW125313   1.321   2.698   8.057 -0.5015 -1.0014  1.8882
 4617SOL    HW225314   1.242   2.571   8.037 -1.3714  1.1378 -1.7815
 4618SOL     OW25315   4.707   1.806   1.649 -0.1457 -0.6434 -0.2163
 4618SOL    HW125316   0.050   1.747   1.686  2.6831  1.4294 -1.9534
 4618SOL    HW225317   4.629   1.763   1.684 -0.1635 -1.3738 -1.1549
 4619SOL     OW25318   4.246   4.387  17.310  0.1899 -0.5004  0.0663
 4619SOL    HW125319   4.287   4.368  17.226 -0.2725  1.5919 -0.6497
 4619SOL    HW225320   4.321   4.386  17.369  0.6070  2.1378 -0.4234
 4620SOL     OW25321   2.031   1.033   0.420 -0.4714  0.1219 -0.3405
 4620SOL    HW125322   1.943   1.054   0.389 -0.8740  2.5581  2.4023
 4620SOL    HW225323   2.047   1.108   0.477 -2.5905  1.4753 -1.5396
 4621SOL     OW25324   3.391   2.013   9.886  0.9754  0.6936 -0.4213
 4621SOL    HW125325   3.440   1.969   9.955  0.2772  2.1179  0.9844
 4621SOL    HW225326   3.414   2.101   9.917  1.2721 -0.5351  2.8214
 4622SOL     OW25327   0.469   0.915  10.162  0.6033  0.3132  0.0752
 4622SOL    HW125328   0.554   0.951  10.135  0.0180  1.1837 -0.5768
 4622SOL    HW225329   0.417   0.994  10.148 -0.0760 -0.0500  0.6096
 4623SOL     OW25330   1.455   4.694   0.380  0.1098 -1.0999  0.0046
 4623SOL    HW125331   1.379   0.030   0.374  1.5316  0.7836  0.4241
 4623SOL    HW225332   1.436   4.644   0.459 -1.3670 -1.2399 -0.4396
 4624SOL     OW25333   0.643   0.748   2.085  0.3171  0.6322  0.0400
 4624SOL    HW125334   0.579   0.811   2.118 -0.0598 -0.2048  0.8932
 4624SOL    HW225335   0.592   0.727   2.007  0.1157 -0.1991  0.4023
 4625SOL     OW25336   2.719   2.307  13.193  0.6247  0.2191  0.1476
 4625SOL    HW125337   2.668   2.334  13.269  0.8097  1.3389 -0.1163
 4625SOL    HW225338   2.801   2.289  13.240  0.3387 -3.0603 -0.6533
 4626SOL     OW25339   1.547   3.656   4.086 -0.4493 -0.5996  0.4653
 4626SOL    HW125340   1.507   3.652   4.173 -2.5057  0.0508 -0.4756
 4626SOL    HW225341   1.466   3.655   4.036  0.9010  1.8207 -1.7382
 4627SOL     OW25342   4.499   4.558  17.381  0.0597 -0.3435  0.2834
 4627SOL    HW125343   4.465   4.604  17.305 -3.8930 -2.4137  0.7827
 4627SOL    HW225344   4.522   4.636  17.431  0.8282 -0.3559 -0.0368
 4628SOL     OW25345   0.642   2.571   3.189  0.3309  0.2311 -0.0166
 4628SOL    HW125346   0.708   2.639   3.201 -0.7560  1.7336 -2.5103
 4628SOL    HW225347   0.649   2.537   3.279 -1.3201 -1.3914 -0.4858
 4629SOL     OW25348   1.797   3.990   6.302 -0.0279  0.3929  0.1558
 4629SOL    HW125349   1.772   4.051   6.232 -1.2747  0.0720  0.3158
 4629SOL    HW225350   1.820   4.048   6.374 -1.5198 -0.3769  1.2644
 4630SOL     OW25351   3.181   3.356   7.854 -0.1062  0.6973 -0.0220
 4630SOL    HW125352   3.145   3.352   7.942  2.3171 -2.1861  0.8327
 4630SOL    HW225353   3.243   3.285   7.868 -0.8187 -0.4873 -2.9775
 4631SOL     OW25354   1.276   4.434  13.960 -1.0663 -0.1897  0.0383
 4631SOL    HW125355   1.315   4.388  14.034  1.0895  1.7351  0.0769
 4631SOL    HW225356   1.213   4.487  14.010 -0.1455  1.2731 -0.3609
 4632SOL     OW25357   0.599   4.117   2.437  0.2411  0.1544  0.6892
 4632SOL    HW125358   0.548   4.037   2.426 -1.8551  1.3483  1.6168
 4632SOL    HW225359   0.603   4.117   2.533  1.0193  0.7639  0.6571
 4633SOL     OW25360   3.149   0.637   4.053  0.2483  0.1601  0.0242
 4633SOL    HW125361   3.120   0.662   3.965  0.5060 -0.1610 -0.1506
 4633SOL    HW225362   3.060   0.627   4.085 -0.8187  0.9642 -2.6620
 4634SOL     OW25363   1.721   3.800  16.187 -0.1168 -0.2916  0.0709
 4634SOL    HW125364   1.684   3.718  16.156 -2.7033  0.8636  0.0786
 4634SOL    HW225365   1.661   3.829  16.256 -0.1472 -0.7498  0.2337
 4635SOL     OW25366   4.226   1.522  14.063  0.2491 -0.7450 -0.0477
 4635SOL    HW125367   4.293   1.581  14.098 -0.0486  0.6709 -1.7900
 4635SOL    HW225368   4.255   1.446  14.112  2.6146  1.2187  1.5747
 4636SOL     OW25369   1.617   3.670  16.914 -0.3668 -0.5529  0.0392
 4636SOL    HW125370   1.547   3.723  16.952 -1.6461 -0.1398 -2.9362
 4636SOL    HW225371   1.573   3.621  16.845 -0.8002 -0.0123 -0.0629
 4637SOL     OW25372   4.121   4.370   2.023  0.1142  0.3401  0.1095
 4637SOL    HW125373   4.183   4.322   1.968 -2.8438 -0.0839 -2.8422
 4637SOL    HW225374   4.050   4.371   1.959 -1.4850 -0.0540  1.8912
 4638SOL     OW25375   3.600   1.398   1.932 -0.0813 -0.0760 -0.4411
 4638SOL    HW125376   3.677   1.419   1.879 -0.7547  0.9978 -0.9927
 4638SOL    HW225377   3.531   1.445   1.886  0.4338 -1.3844 -2.5452
 4639SOL     OW25378   4.496   3.379   0.745 -0.5543  0.2022 -0.2586
 4639SOL    HW125379   4.521   3.463   0.706 -2.5390  0.7517 -0.3467
 4639SOL    HW225380   4.541   3.310   0.696 -0.6631 -0.3201  0.3907
 4640SOL     OW25381   2.544   0.325  11.706  0.3029 -0.0972 -0.1466
 4640SOL    HW125382   2.533   0.232  11.723  0.2915 -0.3341 -1.4615
 4640SOL    HW225383   2.633   0.313  11.671  0.2336  0.0042 -0.3536
 4641SOL     OW25384   0.740   2.518   5.463  0.1966  0.3454 -0.4097
 4641SOL    HW125385   0.787   2.450   5.511 -1.0757 -0.6475 -0.5796
 4641SOL    HW225386   0.728   2.584   5.531 -0.4293 -2.4965  2.2352
 4642SOL     OW25387   2.575   3.877   6.533  0.2443  0.0924  0.6501
 4642SOL    HW125388   2.536   3.960   6.561 -2.0185 -0.2357 -1.5350
 4642SOL    HW225389   2.512   3.834   6.475 -0.0395 -0.2546  1.2234
 4643SOL     OW25390   1.080   1.400   7.672  0.1797 -0.3412 -0.2298
 4643SOL    HW125391   1.035   1.430   7.751  1.0979 -1.7667  0.8152
 4643SOL    HW225392   1.050   1.310   7.664 -0.4923  0.0780 -2.4360
 4644SOL     OW25393   0.511   0.443   1.316 -0.5194 -0.1250 -0.0261
 4644SOL    HW125394   0.573   0.516   1.324 -1.3994  0.3980  2.0087
 4644SOL    HW225395   0.459   0.467   1.240 -1.2302  0.6680  0.7026
 4645SOL     OW25396   4.352   3.713  14.613 -0.0757 -0.1651 -0.1960
 4645SOL    HW125397   4.258   3.714  14.632 -0.1219 -1.3247 -0.3463
 4645SOL    HW225398   4.358   3.671  14.527  2.6227 -1.9520  0.8365
 4646SOL     OW25399   0.269   0.096   8.555 -0.3252  0.3629 -0.2454
 4646SOL    HW125400   0.196   0.116   8.613  0.3050 -0.0104  0.6773
 4646SOL    HW225401   0.294   0.176   8.508  1.5148 -0.2636 -0.3141
 4647SOL     OW25402   1.870   4.129   3.080  0.4403 -0.1373  0.6287
 4647SOL    HW125403   1.855   4.047   3.033  0.4039  0.5502 -0.5623
 4647SOL    HW225404   1.794   4.133   3.139 -0.7238  0.1423 -0.8957
 4648SOL     OW25405   3.446   2.608   0.432  0.0574 -0.0800 -0.1127
 4648SOL    HW125406   3.478   2.519   0.442 -0.3958 -0.0929  1.2357
 4648SOL    HW225407   3.531   2.648   0.412  0.4518 -0.2255  1.2655
 4649SOL     OW25408   2.235   0.304  10.062 -0.3080 -0.3467  0.5383
 4649SOL    HW125409   2.183   0.242  10.010  0.5427  0.4808 -1.2953
 4649SOL    HW225410   2.186   0.378  10.026  2.8305  1.1203 -0.7147
 4650SOL     OW25411   1.626   3.304   7.536  0.2663  0.1779  0.1183
 4650SOL    HW125412   1.555   3.247   7.566 -1.1150  0.6132 -2.3946
 4650SOL    HW225413   1.699   3.244   7.554 -0.8762 -0.7255  1.7640
 4651SOL     OW25414   0.361   1.395   6.530  0.6834 -0.1638  0.0460
 4651SOL    HW125415   0.317   1.350   6.602 -0.2168  2.1630  0.9762
 4651SOL    HW225416   0.289   1.454   6.504  1.2447  0.4838 -0.0338
 4652SOL     OW25417   2.776   0.363   0.582 -0.2223 -0.1247 -0.4981
 4652SOL    HW125418   2.829   0.286   0.602  0.4640  0.3249 -0.5979
 4652SOL    HW225419   2.704   0.324   0.532 -1.7131  1.2190  0.5806
 4653SOL     OW25420   1.209   4.243  13.301  0.1654  0.2680  0.0285
 4653SOL    HW125421   1.163   4.326  13.288 -0.4102  0.0386  0.6053
 4653SOL    HW225422   1.294   4.283  13.320  1.0566 -0.5247 -2.2630
 4654SOL     OW25423   4.679   2.804   7.477 -0.5150 -0.6740 -0.5122
 4654SOL    HW125424   4.708   2.843   7.560  1.8086 -0.4184 -1.4540
 4654SOL    HW225425   4.646   2.878   7.426 -0.5022  1.3529  2.4529
 4655SOL     OW25426   4.224   3.835   8.116  0.7897 -0.7144  0.3188
 4655SOL    HW125427   4.246   3.830   8.209 -0.7691 -5.5135  0.4661
 4655SOL    HW225428   4.256   3.747   8.093 -1.1598 -2.1928  3.2074
 4656SOL     OW25429   2.971   3.252   7.685  0.1085 -0.1475 -0.4532
 4656SOL    HW125430   3.004   3.177   7.734 -0.8383 -1.1305 -1.3244
 4656SOL    HW225431   3.024   3.322   7.722 -2.4324  0.2237  2.5320
 4657SOL     OW25432   3.457   2.299   8.564 -0.3141 -0.2314 -0.2720
 4657SOL    HW125433   3.409   2.226   8.602  2.2251 -1.1895  1.1450
 4657SOL    HW225434   3.425   2.382   8.599 -0.5908 -0.8216  0.8428
 4658SOL     OW25435   0.192   0.045   5.064  0.0024 -0.3642 -0.4098
 4658SOL    HW125436   0.103   0.073   5.086 -0.3033  0.9913 -3.2964
 4658SOL    HW225437   0.230   0.037   5.151 -0.6388  0.8573 -0.0199
 4659SOL     OW25438   1.139   0.365   0.921 -0.6113  0.1835  0.0434
 4659SOL    HW125439   1.140   0.461   0.929  1.0645  0.1712  0.0809
 4659SOL    HW225440   1.045   0.349   0.928 -0.4486 -1.3812 -1.3642
 4660SOL     OW25441   3.218   1.206   1.672 -0.4188  0.2019  0.5520
 4660SOL    HW125442   3.197   1.181   1.582 -0.3180 -0.8261  0.8170
 4660SOL    HW225443   3.306   1.243   1.671 -0.2500 -0.2090 -0.1873
 4661SOL     OW25444   4.013   4.253   4.255 -0.1504 -0.0953  0.6686
 4661SOL    HW125445   4.105   4.248   4.281 -0.3412 -0.5782  1.2554
 4661SOL    HW225446   4.021   4.273   4.162  0.1196 -3.4464 -0.0298
 4662SOL     OW25447   3.366   4.006   8.541 -0.5485  0.1910  0.1597
 4662SOL    HW125448   3.381   3.978   8.632  0.2650 -1.6332 -0.5508
 4662SOL    HW225449   3.422   4.084   8.544  1.6460 -1.3556 -0.5748
 4663SOL     OW25450   3.729   3.799   6.586  0.2101  0.4293  0.2763
 4663SOL    HW125451   3.723   3.716   6.539 -0.2149  0.9431 -0.5845
 4663SOL    HW225452   3.648   3.833   6.550  0.0141 -0.1018  0.2169
 4664SOL     OW25453   2.104   1.133   8.509  0.0118 -0.2272  0.2513
 4664SOL    HW125454   2.115   1.206   8.570 -1.3571  0.3129 -0.1415
 4664SOL    HW225455   2.195   1.109   8.494 -0.3766 -1.4768 -0.1640
 4665SOL     OW25456   3.940   0.326   6.039  0.8022  0.1322 -0.2753
 4665SOL    HW125457   3.975   0.240   6.061 -0.7340 -0.2783  0.5648
 4665SOL    HW225458   3.979   0.335   5.952  1.9968  1.5045  0.3984
 4666SOL     OW25459   3.470   3.765   0.559 -0.2897  0.3345 -0.4143
 4666SOL    HW125460   3.465   3.768   0.464  0.8632 -2.2192 -0.5633
 4666SOL    HW225461   3.564   3.768   0.575 -0.6837 -1.6549  2.4508
 4667SOL     OW25462   2.485   2.298   7.738  0.4374 -0.0461  0.2848
 4667SOL    HW125463   2.431   2.376   7.726  0.8859  0.3944  1.1283
 4667SOL    HW225464   2.525   2.326   7.820 -4.2569 -0.6271  2.7105
 4668SOL     OW25465   3.678   3.930   2.369 -0.1015 -0.3938  0.1542
 4668SOL    HW125466   3.645   3.954   2.455  1.7022 -0.2713  0.8104
 4668SOL    HW225467   3.614   3.867   2.335  1.7692 -1.7677 -0.8285
 4669SOL     OW25468   2.127   3.700   7.959  0.4432  0.1800 -0.3259
 4669SOL    HW125469   2.062   3.668   7.896 -1.8866  1.3017  1.4967
 4669SOL    HW225470   2.093   3.667   8.042 -0.6003  0.8146 -0.5074
 4670SOL     OW25471   2.885   2.286   9.469  0.8914 -0.0933 -0.2772
 4670SOL    HW125472   2.838   2.229   9.409 -2.5272  2.3737  0.0714
 4670SOL    HW225473   2.815   2.351   9.479  1.2887  0.3951 -0.6495
 4671SOL     OW25474   2.704   0.667   5.584  0.1051  0.0490  0.8310
 4671SOL    HW125475   2.630   0.631   5.535  0.3463 -3.4630  3.0504
 4671SOL    HW225476   2.657   0.744   5.617  2.1949  1.8725 -0.4279
 4672SOL     OW25477   2.400   3.867  17.537 -0.0126  1.1138 -0.3112
 4672SOL    HW125478   2.483   3.820  17.546  0.2211  1.3951 -1.0450
 4672SOL    HW225479   2.358   3.806  17.598  0.7839  0.5636 -0.3152
 4673SOL     OW25480   3.154   0.574  11.877 -0.0880  0.3566 -0.3378
 4673SOL    HW125481   3.172   0.494  11.829 -0.3337  1.4610 -2.2585
 4673SOL    HW225482   3.124   0.537  11.960  1.0016  0.0992 -0.0605
 4674SOL     OW25483   1.159   0.374   3.173 -0.0439 -1.1044  0.1486
 4674SOL    HW125484   1.087   0.436   3.173  1.1975  0.3357  0.6282
 4674SOL    HW225485   1.148   0.315   3.098  1.5595 -0.4006 -0.6316
 4675SOL     OW25486   3.591   4.213   1.952 -0.3363 -0.0349 -0.7396
 4675SOL    HW125487   3.591   4.308   1.967  1.3837 -0.3690  1.3113
 4675SOL    HW225488   3.564   4.183   2.038  1.1715 -2.1065 -0.9977
 4676SOL     OW25489   1.818   0.957   6.774 -0.0652 -0.2794 -0.5134
 4676SOL    HW125490   1.859   0.984   6.691  2.1002 -0.3728  0.5520
 4676SOL    HW225491   1.725   0.977   6.759  0.1328  0.3350 -0.9404
 4677SOL     OW25492   0.774   2.292   6.442  0.0316 -0.1194  0.1609
 4677SOL    HW125493   0.715   2.303   6.517 -1.3348  0.1594 -0.9455
 4677SOL    HW225494   0.842   2.243   6.488 -0.2628 -1.4327 -0.7951
 4678SOL     OW25495   0.432   0.815   8.527  0.0366  0.3639  0.3826
 4678SOL    HW125496   0.487   0.867   8.586 -1.0272  0.4283  1.3053
 4678SOL    HW225497   0.344   0.842   8.553 -0.8968  0.2185 -2.5886
 4679SOL     OW25498   4.625   2.924   2.181 -0.6658  0.0259  0.0440
 4679SOL    HW125499   4.679   2.939   2.103 -0.5375 -0.5737  0.0186
 4679SOL    HW225500   4.664   2.839   2.202  0.2764  0.4005 -0.1793
 4680SOL     OW25501   0.185   2.085   8.047 -0.6234 -0.3224  0.1908
 4680SOL    HW125502   0.226   2.008   8.086 -1.5959 -2.0793 -2.2857
 4680SOL    HW225503   0.194   2.151   8.116 -0.1621 -1.1007  0.8795
 4681SOL     OW25504   0.632   0.091   8.732  0.4880  0.3015  0.8226
 4681SOL    HW125505   0.620   0.143   8.653 -1.5322  2.2768  2.4309
 4681SOL    HW225506   0.711   0.039   8.719  0.3459  0.5921 -1.1967
 4682SOL     OW25507   0.780   1.173   4.047  0.7893 -0.2872  0.3839
 4682SOL    HW125508   0.714   1.113   4.014 -0.6862  3.0254 -2.6661
 4682SOL    HW225509   0.830   1.121   4.110 -0.7392 -0.3636  1.5384
 4683SOL     OW25510   1.765   2.185  14.026  0.1628  0.1522  0.1473
 4683SOL    HW125511   1.758   2.212  14.117 -2.9201  0.2866 -0.1390
 4683SOL    HW225512   1.792   2.093  14.031  1.9355  0.8260  2.8784
 4684SOL     OW25513   0.645   3.566  13.984  0.3959 -0.2738  0.0081
 4684SOL    HW125514   0.625   3.503  13.915  0.6427  0.2992 -0.5861
 4684SOL    HW225515   0.603   3.645  13.949 -0.0665 -0.2887  0.5366
 4685SOL     OW25516   0.927   4.465  16.311 -0.6376  0.3867  0.0167
 4685SOL    HW125517   0.986   4.436  16.381  0.8672 -0.5329 -1.6512
 4685SOL    HW225518   0.972   4.429  16.235  0.2174 -2.3272  1.8155
 4686SOL     OW25519   2.091   1.476   4.427  0.1845 -0.4680  0.0534
 4686SOL    HW125520   2.015   1.529   4.451 -0.9850 -3.1651  2.2547
 4686SOL    HW225521   2.079   1.390   4.466  1.1581 -1.8390 -2.6174
 4687SOL     OW25522   4.559   4.166  13.785 -0.3401 -0.4638 -0.4414
 4687SOL    HW125523   4.576   4.250  13.744 -0.5981 -0.1206  0.1598
 4687SOL    HW225524   4.470   4.145  13.755 -0.4847  1.3249 -1.2669
 4688SOL     OW25525   1.122   2.867   2.219  0.4215 -0.0920 -0.1559
 4688SOL    HW125526   1.107   2.791   2.276 -1.3797  1.2816  1.1998
 4688SOL    HW225527   1.048   2.868   2.158  1.0730  1.5927 -0.9127
 4689SOL     OW25528   2.228   2.512   6.753  0.6101  0.0874 -0.0525
 4689SOL    HW125529   2.321   2.526   6.767  0.6775 -0.7307  0.3333
 4689SOL    HW225530   2.199   2.603   6.765  1.5359  0.4474 -0.5528
 4690SOL     OW25531   2.909   2.308  17.555 -0.3299 -0.6589 -0.8750
 4690SOL    HW125532   2.885   2.231  17.502 -1.1710  0.1133 -1.6248
 4690SOL    HW225533   2.948   2.362  17.486  1.8015 -0.1671  0.7349
 4691SOL     OW25534   2.170   3.278   5.035  0.0319 -0.1467 -0.1037
 4691SOL    HW125535   2.166   3.239   4.948  1.2424 -1.6013  0.5060
 4691SOL    HW225536   2.232   3.351   5.032 -1.7466  1.3933 -0.0359
 4692SOL     OW25537   0.494   1.030  14.252  0.4108  0.4451 -0.0187
 4692SOL    HW125538   0.570   0.980  14.222  0.8518  1.9371 -1.3907
 4692SOL    HW225539   0.540   1.074  14.324  0.0175 -0.8250  1.0018
 4693SOL     OW25540   0.942   4.133  16.916  0.4814  0.2320  0.2186
 4693SOL    HW125541   0.929   4.173  16.829 -0.4190 -2.4099 -0.8604
 4693SOL    HW225542   0.942   4.041  16.890 -1.6264  0.8064 -1.8299
 4694SOL     OW25543   2.805   3.006   4.364 -0.0302 -0.6770  0.1284
 4694SOL    HW125544   2.874   3.065   4.333 -1.6066  1.3008  0.3971
 4694SOL    HW225545   2.834   2.923   4.325 -0.5978 -1.1817  0.7875
 4695SOL     OW25546   1.529   0.310   0.929 -0.2248  0.1039  0.3671
 4695SOL    HW125547   1.459   0.343   0.985 -0.0705 -0.0568  0.6573
 4695SOL    HW225548   1.562   0.239   0.985  0.6245 -0.2216 -0.5469
 4696SOL     OW25549   2.644   1.466  12.156 -0.1657  0.1538  0.1569
 4696SOL    HW125550   2.640   1.456  12.251  0.3633 -1.1827  0.0390
 4696SOL    HW225551   2.552   1.459  12.132 -0.7400 -2.0135  3.0060
 4697SOL     OW25552   3.586   0.651   6.951  0.1426 -0.0692 -0.4528
 4697SOL    HW125553   3.641   0.585   6.992 -0.9724 -1.6702 -1.5321
 4697SOL    HW225554   3.598   0.625   6.860 -3.0962  0.1530 -0.9337
 4698SOL     OW25555   1.188   2.656   8.592  0.4076  0.0228 -1.1459
 4698SOL    HW125556   1.188   2.563   8.571  1.1432 -0.6226  1.7887
 4698SOL    HW225557   1.254   2.644   8.660  0.3860 -0.3270 -1.1861
 4699SOL     OW25558   0.036   3.947   6.747 -0.3479  0.0547 -1.2547
 4699SOL    HW125559   4.672   3.968   6.783  0.9189  1.8492  0.8195
 4699SOL    HW225560   0.023   3.939   6.653  0.6934  0.9345 -1.4721
 4700SOL     OW25561   3.563   2.700   9.593 -0.2837 -0.0715 -0.5542
 4700SOL    HW125562   3.505   2.743   9.655  0.0830  1.9364 -1.6096
 4700SOL    HW225563   3.511   2.626   9.559  1.3097 -1.2213 -0.4898
 4701SOL     OW25564   3.367   3.834   2.468 -0.0688 -0.4724 -0.4628
 4701SOL    HW125565   3.398   3.839   2.377  0.6600  0.9974 -0.1302
 4701SOL    HW225566   3.405   3.753   2.501 -0.9540  0.2627  2.3751
 4702SOL     OW25567   4.247   2.365   5.531  0.4258  0.2993 -0.2396
 4702SOL    HW125568   4.181   2.307   5.569  0.9581  0.8142  1.4313
 4702SOL    HW225569   4.256   2.336   5.440  1.2530 -0.2424  0.0164
 4703SOL     OW25570   3.564   0.064  15.233 -0.1872 -0.2543  0.3085
 4703SOL    HW125571   3.624   0.136  15.255  1.0090 -1.0176 -0.4805
 4703SOL    HW225572   3.565   0.009  15.312 -0.3719 -1.6907 -0.7078
 4704SOL     OW25573   0.452   0.183   5.401  0.5029  0.0085 -0.5885
 4704SOL    HW125574   0.420   0.095   5.423 -2.1373  1.2961  0.7061
 4704SOL    HW225575   0.509   0.164   5.327  0.5567 -2.2400  0.0084
 4705SOL     OW25576   3.533   1.525   1.682 -0.5605  0.0154 -0.1894
 4705SOL    HW125577   3.546   1.578   1.603 -0.2565 -0.3637 -0.3917
 4705SOL    HW225578   3.616   1.550   1.722 -1.7779 -0.0446  2.3274
 4706SOL     OW25579   4.067   4.230  15.480  0.4917  0.4913 -0.0283
 4706SOL    HW125580   4.150   4.208  15.523  0.1074 -0.1837  0.3741
 4706SOL    HW225581   4.089   4.219  15.387 -2.0598  1.9041 -0.7983
 4707SOL     OW25582   1.489   0.365  14.285  0.8386 -0.4125 -0.2063
 4707SOL    HW125583   1.472   0.273  14.303 -0.6980 -0.3793 -1.5163
 4707SOL    HW225584   1.557   0.380  14.351 -0.5668  2.3041  0.6255
 4708SOL     OW25585   0.964   4.715   0.251  0.8137 -0.7278 -0.4870
 4708SOL    HW125586   0.979   4.632   0.207 -0.2328 -1.1731 -0.0045
 4708SOL    HW225587   0.891   4.684   0.305  1.7336  1.4645  2.0327
 4709SOL     OW25588   2.198   0.344  10.687 -0.3340  0.4325 -0.3637
 4709SOL    HW125589   2.252   0.343  10.608 -0.1307 -1.2837 -0.1960
 4709SOL    HW225590   2.196   0.438  10.706  0.1977  0.3065  0.2865
 4710SOL     OW25591   1.431   0.811  13.568  0.4651 -0.1680 -0.5419
 4710SOL    HW125592   1.391   0.865  13.499 -0.1863  0.5599  0.4009
 4710SOL    HW225593   1.525   0.830  13.567  0.6905 -1.2026  1.6683
 4711SOL     OW25594   2.528   0.304   0.510  0.2754 -0.3183 -0.1879
 4711SOL    HW125595   2.451   0.360   0.518 -0.5095 -0.9974 -3.0491
 4711SOL    HW225596   2.492   0.223   0.548  1.4389 -0.3460  0.8680
 4712SOL     OW25597   1.813   4.682   5.364 -0.3991 -0.1043  0.9134
 4712SOL    HW125598   1.896   4.650   5.397 -0.9619 -0.4723  1.9832
 4712SOL    HW225599   1.835   0.038   5.315 -0.6236 -2.2910 -2.7221
 4713SOL     OW25600   3.873   1.699  12.291  0.0418  0.7653  0.3531
 4713SOL    HW125601   3.829   1.778  12.322  1.1583  1.4551  0.2015
 4713SOL    HW225602   3.932   1.734  12.225 -0.7200 -0.7063 -1.1182
 4714SOL     OW25603   4.104   3.474   8.208 -0.4914 -0.0067 -0.2873
 4714SOL    HW125604   4.060   3.396   8.175  1.6519 -0.9885 -0.8478
 4714SOL    HW225605   4.167   3.488   8.137 -0.6034  2.4442  0.0884
 4715SOL     OW25606   4.431   3.009   0.788 -0.3692 -0.2292  0.2896
 4715SOL    HW125607   4.466   3.063   0.717 -0.8735 -0.5087 -0.1833
 4715SOL    HW225608   4.375   3.075   0.830 -1.0433  0.1795 -1.2117
 4716SOL     OW25609   2.806   4.280   7.216  0.0510 -0.1485  0.3544
 4716SOL    HW125610   2.899   4.288   7.198  0.2458 -0.8427  1.0733
 4716SOL    HW225611   2.769   4.368   7.227 -0.6306 -0.6871  2.4204
 4717SOL     OW25612   4.133   0.231   1.471  0.0410  0.4510  0.1089
 4717SOL    HW125613   4.148   0.146   1.512  1.4247  2.3691  3.5734
 4717SOL    HW225614   4.046   0.252   1.505 -0.3810  0.2473 -0.8222
 4718SOL     OW25615   0.534   4.201   2.087 -0.2518  0.2712 -0.0496
 4718SOL    HW125616   0.571   4.288   2.069 -1.3003  0.5688 -0.7589
 4718SOL    HW225617   0.600   4.172   2.150 -2.2406 -1.9627  0.9854
 4719SOL     OW25618   3.572   3.345   4.825 -0.0621  0.3811 -0.4049
 4719SOL    HW125619   3.579   3.304   4.912  2.5556 -0.0011 -0.7799
 4719SOL    HW225620   3.641   3.411   4.814  1.4333 -0.6890  2.3764
 4720SOL     OW25621   3.720   1.728   4.185 -0.0117  0.3642  0.3227
 4720SOL    HW125622   3.693   1.710   4.095  2.3417 -3.1184  0.2962
 4720SOL    HW225623   3.717   1.823   4.178  0.4059  0.1026 -3.1334
 4721SOL     OW25624   4.291   4.602  12.322  0.2172  0.2963  0.5020
 4721SOL    HW125625   4.249   4.518  12.305  0.9425  0.1223 -0.3924
 4721SOL    HW225626   4.273   4.618  12.415  1.9087 -0.3054  0.9399
 4722SOL     OW25627   0.075   4.680   7.697  0.4474 -0.5414  0.4436
 4722SOL    HW125628   0.109   0.027   7.642 -0.1471  1.8962  3.1944
 4722SOL    HW225629   4.719   4.720   7.734  0.5284  0.5061 -0.5364
 4723SOL     OW25630   2.625   2.935   6.255 -0.4287  0.1180  0.1834
 4723SOL    HW125631   2.642   3.012   6.308 -1.2978  0.3334  0.1524
 4723SOL    HW225632   2.712   2.907   6.226 -0.4183 -0.7533  1.0452
 4724SOL     OW25633   1.106   1.966   2.473 -0.2753  0.3353 -0.5756
 4724SOL    HW125634   1.192   1.948   2.433  0.5966 -1.1652  1.9474
 4724SOL    HW225635   1.071   2.030   2.412 -2.1866 -0.1068  0.0660
 4725SOL     OW25636   4.633   0.240   2.988 -0.3970  0.5161 -0.2280
 4725SOL    HW125637   4.667   0.294   3.059  0.1602 -1.5930  1.1197
 4725SOL    HW225638   4.625   0.297   2.912  0.6813  0.8501 -0.0793
 4726SOL     OW25639   2.757   4.713  12.337  0.0573 -0.3436 -0.3438
 4726SOL    HW125640   2.787   0.032  12.257  0.7952  2.6029  1.4571
 4726SOL    HW225641   2.839   0.002  12.386 -0.1742 -1.0052  0.2087
 4727SOL     OW25642   0.966   4.625  12.016  0.3385 -0.2072  0.1452
 4727SOL    HW125643   1.003   4.541  12.040 -1.4154 -1.1642 -0.4722
 4727SOL    HW225644   0.894   4.608  11.954 -1.2748  1.4095  1.5575
 4728SOL     OW25645   0.934   0.090   0.002 -0.2020 -0.1860 -0.3051
 4728SOL    HW125646   0.961   0.054   0.086 -0.7116  0.7706  0.2786
 4728SOL    HW225647   0.927   0.183   0.024  1.9643  0.3339 -1.8525
 4729SOL     OW25648   4.381   2.728   7.416 -0.5046  0.2497 -0.1492
 4729SOL    HW125649   4.405   2.747   7.507 -0.1563  0.8771 -0.3749
 4729SOL    HW225650   4.414   2.638   7.408 -1.2493 -0.1842  1.7103
 4730SOL     OW25651   4.475   0.504   6.273  0.0093 -0.1706  0.4355
 4730SOL    HW125652   4.557   0.456   6.260  0.5144  0.3187  1.7962
 4730SOL    HW225653   4.410   0.491   6.204 -3.0269  1.1902  3.0346
 4731SOL     OW25654   0.178   0.659   5.509  0.3151 -0.3246 -0.2295
 4731SOL    HW125655   0.167   0.695   5.597 -2.3164  1.3274 -1.2332
 4731SOL    HW225656   0.262   0.614   5.502 -0.5036 -2.2940  2.8648
 4732SOL     OW25657   4.164   2.217   6.080 -0.4942 -0.1168  0.3254
 4732SOL    HW125658   4.256   2.188   6.086 -0.4250 -0.0361 -0.4011
 4732SOL    HW225659   4.124   2.169   6.152 -0.7284  1.3155  1.1628
 4733SOL     OW25660   3.897   2.595  13.516  0.5868  0.0908 -0.1780
 4733SOL    HW125661   3.948   2.562  13.590 -2.1870 -0.4693  1.5101
 4733SOL    HW225662   3.882   2.523  13.455 -0.5374  0.4257 -0.2970
 4734SOL     OW25663   0.923   4.080   4.559 -0.7830  0.5847 -0.3890
 4734SOL    HW125664   0.942   4.041   4.644 -1.1498 -0.3111 -0.7124
 4734SOL    HW225665   0.830   4.101   4.572 -0.5979  1.3425 -0.3260
 4735SOL     OW25666   4.642   3.399   5.264  0.5967 -0.0440  0.1901
 4735SOL    HW125667   0.014   3.388   5.252  0.8437  1.8967  0.2467
 4735SOL    HW225668   4.616   3.326   5.320  2.0174 -1.0155 -0.3967
 4736SOL     OW25669   4.556   3.594   0.597  0.4015  0.5511  0.2906
 4736SOL    HW125670   4.629   3.589   0.535 -0.8580  2.6293 -1.3878
 4736SOL    HW225671   4.511   3.676   0.577 -0.2836  0.2293  0.5329
 4737SOL     OW25672   4.657   1.968   5.107  0.1622  0.0454 -0.5113
 4737SOL    HW125673   4.676   2.023   5.182  0.3729 -0.6539 -0.0525
 4737SOL    HW225674   4.597   1.908   5.152  0.3623  0.9491  0.9562
 4738SOL     OW25675   0.974   2.145   6.587  0.7813  0.1424 -0.2846
 4738SOL    HW125676   0.974   2.215   6.652 -1.0785  0.8989 -1.0855
 4738SOL    HW225677   0.964   2.061   6.633  0.9496  2.0364  3.1305
 4739SOL     OW25678   2.858   2.182   6.705 -0.1533 -0.7567 -0.1811
 4739SOL    HW125679   2.915   2.108   6.686 -0.1572 -0.9599  0.6030
 4739SOL    HW225680   2.852   2.172   6.799  2.4684 -1.2048 -0.0585
 4740SOL     OW25681   3.484   1.232   1.650 -0.4748 -0.0382  0.2747
 4740SOL    HW125682   3.541   1.216   1.575  0.1914  1.4648  0.4501
 4740SOL    HW225683   3.500   1.326   1.656 -1.4224  0.1643 -0.2967
 4741SOL     OW25684   1.017   4.326   4.255 -0.2848 -0.2213  0.0750
 4741SOL    HW125685   1.028   4.328   4.350 -0.7851  0.9748  0.1031
 4741SOL    HW225686   1.041   4.234   4.243  0.7402  0.1325 -0.5679
 4742SOL     OW25687   4.252   3.918   6.881 -0.4920  0.2613  0.1108
 4742SOL    HW125688   4.223   3.835   6.918 -1.6947  0.8747  0.5492
 4742SOL    HW225689   4.185   3.982   6.905  0.3159  1.5067 -0.9470
 4743SOL     OW25690   2.742   2.935   1.044  0.2990  0.4594 -0.5450
 4743SOL    HW125691   2.674   3.002   1.048 -0.0478 -0.1432  3.0458
 4743SOL    HW225692   2.830   2.973   1.054  1.2077 -1.3244 -1.7503
 4744SOL     OW25693   0.854   3.594   1.368  0.5970 -0.1743 -0.0401
 4744SOL    HW125694   0.827   3.573   1.279 -0.0919 -1.9312  0.5817
 4744SOL    HW225695   0.769   3.617   1.406  0.6665  1.4353 -0.8738
 4745SOL     OW25696   2.229   4.538   8.203  0.0090 -0.5169  0.1206
 4745SOL    HW125697   2.158   4.502   8.150 -1.0859  3.0721 -0.8891
 4745SOL    HW225698   2.188   4.624   8.211 -1.7293 -1.4698  1.4155
 4746SOL     OW25699   2.735   1.063   1.199  0.2626 -0.4047  0.4263
 4746SOL    HW125700   2.783   1.084   1.119  2.8031  1.0432  2.3488
 4746SOL    HW225701   2.767   1.134   1.255 -1.3753  1.5292 -1.0588
 4747SOL     OW25702   2.474   3.039   2.007  0.7069 -0.0066 -0.2095
 4747SOL    HW125703   2.454   3.100   1.936 -1.0923  1.9609  2.0201
 4747SOL    HW225704   2.386   3.008   2.028  1.0362 -0.2019  0.8894
 4748SOL     OW25705   4.035   3.144   6.794 -0.2697  0.0002  0.3592
 4748SOL    HW125706   4.046   3.126   6.700 -0.9917 -0.4224  0.3580
 4748SOL    HW225707   3.944   3.173   6.793  0.2925  1.7648  0.4569
 4749SOL     OW25708   0.579   1.645   6.929  0.2637  0.0903  0.2529
 4749SOL    HW125709   0.622   1.611   7.008 -0.3729 -0.6977  0.2675
 4749SOL    HW225710   0.573   1.576   6.862  0.9777  0.8732 -0.6109
 4750SOL     OW25711   2.356   3.497   5.054 -0.2814 -0.3868 -0.3107
 4750SOL    HW125712   2.437   3.457   5.085 -1.5823 -2.8739 -0.1205
 4750SOL    HW225713   2.382   3.589   5.049 -0.8880 -0.2725 -1.2509
 4751SOL     OW25714   4.469   2.723  16.645 -0.1511 -0.5043 -0.2471
 4751SOL    HW125715   4.498   2.724  16.737 -2.5150 -1.3811  0.5122
 4751SOL    HW225716   4.531   2.664  16.602  0.0416  0.6527 -1.5613
 4752SOL     OW25717   2.514   4.238   1.453  0.1686 -0.2657  0.1478
 4752SOL    HW125718   2.569   4.161   1.462  1.3661  0.8115  1.8141
 4752SOL    HW225719   2.495   4.223   1.360 -1.6915 -0.8060  0.6188
 4753SOL     OW25720   4.369   1.411   7.206  0.0690  0.4158  0.3221
 4753SOL    HW125721   4.312   1.488   7.202 -0.4098  0.0728  0.6053
 4753SOL    HW225722   4.325   1.355   7.269 -3.4186  2.0355 -0.6714
 4754SOL     OW25723   0.245   3.917  13.831 -0.2080 -0.2273  0.0929
 4754SOL    HW125724   0.196   3.866  13.896 -1.6334  0.0700 -0.7301
 4754SOL    HW225725   0.315   3.963  13.876 -1.4164  1.2927  0.4332
 4755SOL     OW25726   1.320   3.059   3.072  0.0942  0.4151  0.1992
 4755SOL    HW125727   1.230   3.052   3.103  0.3304  2.7104  1.3471
 4755SOL    HW225728   1.306   3.053   2.977 -3.8122 -1.5632  0.9417
 4756SOL     OW25729   4.328   1.792   3.733 -0.2008  0.2151 -0.4944
 4756SOL    HW125730   4.276   1.730   3.680  0.4899  0.4116 -1.4076
 4756SOL    HW225731   4.404   1.742   3.761 -0.6513  1.1743  2.3680
 4757SOL     OW25732   4.343   1.212   2.950 -0.3482  0.3312 -0.3001
 4757SOL    HW125733   4.256   1.172   2.949 -0.7039  1.1161 -0.8617
 4757SOL    HW225734   4.400   1.144   2.986  0.8885  0.9866 -1.0168
 4758SOL     OW25735   1.079   2.237   3.040 -0.3603  0.3699  0.9654
 4758SOL    HW125736   1.018   2.273   3.105  1.2186  3.0763  0.9398
 4758SOL    HW225737   1.087   2.306   2.974 -0.3139 -1.6510 -1.1184
 4759SOL     OW25738   0.927   0.994   0.403 -0.3083  0.1063  0.4007
 4759SOL    HW125739   0.995   1.006   0.469  3.2067 -1.3870 -2.9687
 4759SOL    HW225740   0.913   0.900   0.413 -0.6874  0.0899 -0.3014
 4760SOL     OW25741   2.601   4.295   1.733 -0.9241 -0.8595  0.7117
 4760SOL    HW125742   2.657   4.266   1.661 -0.7759  1.4964 -0.1205
 4760SOL    HW225743   2.517   4.301   1.688 -0.4985 -0.9718 -0.0971
 4761SOL     OW25744   1.363   2.932  15.833 -0.4505  0.1621  0.3972
 4761SOL    HW125745   1.400   2.932  15.921 -0.3456 -0.5116  0.3524
 4761SOL    HW225746   1.309   2.853  15.831  1.2858 -0.9968 -0.4998
 4762SOL     OW25747   4.447   2.516   5.346 -0.1971 -0.6515  0.0067
 4762SOL    HW125748   4.442   2.608   5.369  1.1149 -0.2655 -1.2812
 4762SOL    HW225749   4.419   2.477   5.429  1.2648 -0.5418  0.5432
 4763SOL     OW25750   0.967   1.640   1.317 -0.1163 -0.1075 -0.2288
 4763SOL    HW125751   0.914   1.630   1.238  2.3924 -1.0333 -1.8116
 4763SOL    HW225752   1.044   1.587   1.296 -1.2062 -0.8833 -2.3095
 4764SOL     OW25753   2.420   3.727  16.402  0.4023 -0.1148 -0.3740
 4764SOL    HW125754   2.468   3.677  16.336  0.9274  1.6012 -1.3079
 4764SOL    HW225755   2.351   3.767  16.349  0.1400  2.6759  2.0963
 4765SOL     OW25756   0.379   4.391   4.366 -0.7010  0.5192 -0.6850
 4765SOL    HW125757   0.320   4.330   4.323  0.5752  0.5133 -2.4440
 4765SOL    HW225758   0.398   4.463   4.305  1.7113 -1.2312 -2.0166
 4766SOL     OW25759   1.957   2.565  11.272  0.7108 -0.0612 -0.1276
 4766SOL    HW125760   1.927   2.508  11.202 -1.0732 -0.1492  0.7112
 4766SOL    HW225761   2.046   2.531  11.287  0.2812 -1.4493 -0.7625
 4767SOL     OW25762   3.960   2.944  11.856  0.3648  0.0498  0.3939
 4767SOL    HW125763   4.011   2.947  11.775 -0.3857  0.9278 -0.0519
 4767SOL    HW225764   3.886   2.988  11.813  0.5369 -0.6683 -0.6444
 4768SOL     OW25765   4.520   2.450   2.258  0.2476  0.4351 -0.2153
 4768SOL    HW125766   4.428   2.476   2.256 -0.0608 -0.6705 -0.2358
 4768SOL    HW225767   4.496   2.361   2.233 -2.0023 -0.0127  3.4553
 4769SOL     OW25768   3.688   4.220   5.099  0.0436 -0.2945  0.3608
 4769SOL    HW125769   3.708   4.187   5.186  2.5922  2.9655  1.0012
 4769SOL    HW225770   3.691   4.132   5.061  1.0914 -0.9325  1.9191
 4770SOL     OW25771   1.037   0.328   4.334 -0.5724  0.2077 -0.6518
 4770SOL    HW125772   1.107   0.388   4.361 -1.4376  0.9099  0.0314
 4770SOL    HW225773   1.091   0.265   4.287  0.4981 -0.0771  0.9506
 4771SOL     OW25774   1.224   3.960  11.077 -0.1165  0.7362 -0.3858
 4771SOL    HW125775   1.189   4.039  11.118 -3.6207 -1.9369  1.7989
 4771SOL    HW225776   1.221   3.982  10.984  1.2676 -2.1220 -1.1209
 4772SOL     OW25777   3.767   1.852   7.765 -0.2335  0.2112  0.5150
 4772SOL    HW125778   3.782   1.939   7.803  3.2629 -1.6022  3.1593
 4772SOL    HW225779   3.700   1.881   7.702  1.9349  1.0281 -1.4049
 4773SOL     OW25780   0.743   0.960  14.111  0.6985  0.3923  0.3614
 4773SOL    HW125781   0.786   0.944  14.195 -1.6583  1.1771  1.7325
 4773SOL    HW225782   0.764   0.882  14.060 -0.4613 -0.3167  0.9525
 4774SOL     OW25783   1.856   4.670   0.075 -0.3386  0.1569 -0.6930
 4774SOL    HW125784   1.770   4.694   0.109  0.1736  0.1595  0.5797
 4774SOL    HW225785   1.892   0.027   0.036 -0.6972 -0.1658 -1.7007
 4775SOL     OW25786   3.135   2.540   6.073 -0.5418  0.2526  0.8379
 4775SOL    HW125787   3.226   2.532   6.044 -0.8942  0.6403 -0.3939
 4775SOL    HW225788   3.110   2.631   6.054  0.4323 -0.1216 -2.3376
 4776SOL     OW25789   1.876   4.238   0.130  0.2739 -0.3830  0.3258
 4776SOL    HW125790   1.952   4.202   0.175 -0.6809  0.2328  2.4484
 4776SOL    HW225791   1.903   4.330   0.127  2.4078 -0.9365  3.0568
 4777SOL     OW25792   3.042   1.016   9.125  0.2529 -0.3715  0.3582
 4777SOL    HW125793   2.957   1.024   9.168  0.6659  1.9903  0.7329
 4777SOL    HW225794   3.055   1.110   9.116  1.9443 -0.7566 -1.2254
 4778SOL     OW25795   2.945   2.748   1.756  0.4102 -0.1313 -0.4885
 4778SOL    HW125796   3.029   2.795   1.756  0.0960  0.4293 -0.2120
 4778SOL    HW225797   2.966   2.661   1.790 -2.5790 -0.7082 -0.1897
 4779SOL     OW25798   2.152   2.411   3.078 -0.4284 -0.1225 -0.5719
 4779SOL    HW125799   2.080   2.362   3.117 -1.0210 -1.5370 -3.4696
 4779SOL    HW225800   2.206   2.403   3.157 -1.2508  1.2731  0.1230
 4780SOL     OW25801   0.003   2.151   5.283 -0.0134  0.2579 -0.4042
 4780SOL    HW125802   0.071   2.197   5.235 -2.4429  2.1585 -2.0484
 4780SOL    HW225803   0.033   2.167   5.373 -2.3007  0.7236  0.3031
 4781SOL     OW25804   1.043   2.216   5.731 -0.2716 -0.2847  0.0997
 4781SOL    HW125805   0.997   2.133   5.720 -0.0115 -0.2400 -1.3452
 4781SOL    HW225806   1.059   2.206   5.825 -0.5103 -1.0873  0.0523
 4782SOL     OW25807   2.643   1.278   8.650 -0.3597 -0.5628  0.1786
 4782SOL    HW125808   2.727   1.248   8.686 -0.0739  0.7589  0.6199
 4782SOL    HW225809   2.647   1.269   8.555  0.8527 -1.8628  0.3432
 4783SOL     OW25810   3.536   3.658   3.099 -0.1649  0.1817  0.4430
 4783SOL    HW125811   3.599   3.607   3.150  0.6866 -0.5519 -1.3332
 4783SOL    HW225812   3.450   3.619   3.108  0.9522 -1.9518  1.8697
 4784SOL     OW25813   3.911   0.049   7.522 -0.1422  0.0839  0.5685
 4784SOL    HW125814   3.905   0.068   7.429  1.3809 -0.2149  0.4170
 4784SOL    HW225815   3.938   4.680   7.518  1.2357  0.4368  1.9178
 4785SOL     OW25816   0.485   0.032   3.497 -0.1653  0.0444 -0.4433
 4785SOL    HW125817   0.419   0.102   3.497 -0.7071 -0.4887 -1.6904
 4785SOL    HW225818   0.466   4.716   3.413  0.4678  3.8929 -2.3774
 4786SOL     OW25819   2.372   2.525   2.704 -0.4704  0.1868 -0.7193
 4786SOL    HW125820   2.332   2.546   2.789  2.1924  1.3550  0.2690
 4786SOL    HW225821   2.439   2.462   2.730 -1.6726 -0.5462  0.6068
 4787SOL     OW25822   4.275   2.170  13.156 -0.3186 -0.2466  0.9924
 4787SOL    HW125823   4.256   2.126  13.239  0.1638  0.2042  1.3467
 4787SOL    HW225824   4.294   2.105  13.089  0.2802  0.8557  0.0800
 4788SOL     OW25825   1.815   2.133   3.422  0.0029 -0.0191  0.2165
 4788SOL    HW125826   1.803   2.103   3.331  3.0425 -0.6640  0.0404
 4788SOL    HW225827   1.726   2.166   3.435  0.5262  1.5647 -0.2873
 4789SOL     OW25828   0.668   0.569  12.276  0.6326  0.0039 -0.3468
 4789SOL    HW125829   0.650   0.627  12.350  2.2225 -1.2697  1.0650
 4789SOL    HW225830   0.581   0.540  12.250 -0.2827  0.5884  2.0053
 4790SOL     OW25831   3.809   4.683   3.064  0.3792  0.4284  0.3654
 4790SOL    HW125832   3.839   4.706   3.152 -0.4758  2.1021  0.2194
 4790SOL    HW225833   3.732   0.014   3.047 -0.1462 -1.1509 -2.2287
 4791SOL     OW25834   4.011   3.168   6.500 -0.2617 -0.2039  0.3013
 4791SOL    HW125835   4.005   3.086   6.452 -0.7715 -0.1704  0.3076
 4791SOL    HW225836   4.010   3.223   6.422 -1.7924 -1.0544 -0.2717
 4792SOL     OW25837   3.105   4.103   0.565  0.0622  0.1459  0.3084
 4792SOL    HW125838   3.157   4.032   0.603  0.0741  0.0686  0.1482
 4792SOL    HW225839   3.019   4.086   0.604  0.1338  2.4477  1.4515
 4793SOL     OW25840   2.362   1.506   9.026  0.5897 -0.0333  0.4112
 4793SOL    HW125841   2.275   1.543   9.017 -0.3691 -2.3490  0.2658
 4793SOL    HW225842   2.410   1.533   8.947 -1.0414  1.9671  0.1058
 4794SOL     OW25843   1.873   0.261  14.571 -0.1383  0.1195 -0.2726
 4794SOL    HW125844   1.948   0.319  14.555  0.3842 -0.2520  0.7858
 4794SOL    HW225845   1.798   0.319  14.557 -0.7072 -0.5861 -0.1163
 4795SOL     OW25846   2.338   0.428  12.786  0.0927 -0.0681  0.1263
 4795SOL    HW125847   2.409   0.396  12.730 -1.5905 -2.6399 -0.5085
 4795SOL    HW225848   2.323   0.516  12.751  1.0110  0.3244  0.7143
 4796SOL     OW25849   1.522   2.968   7.885  0.2415 -0.0704 -0.1301
 4796SOL    HW125850   1.512   2.952   7.979 -2.9805  1.2761 -0.2423
 4796SOL    HW225851   1.615   2.949   7.872 -0.2818 -1.5438 -1.7501
 4797SOL     OW25852   1.227   3.400   8.095  0.2029  0.2298  0.4018
 4797SOL    HW125853   1.138   3.382   8.065  0.2157 -1.2128  1.2270
 4797SOL    HW225854   1.216   3.493   8.114  2.4710  0.7556 -0.8386
 4798SOL     OW25855   1.060   3.142   9.438  0.3295  0.1959 -0.2325
 4798SOL    HW125856   1.008   3.184   9.369 -1.6620 -0.7607  0.6692
 4798SOL    HW225857   1.144   3.184   9.419 -0.7729  2.2150 -0.6458
 4799SOL     OW25858   1.608   2.766   4.572 -0.5531  0.2331  0.1334
 4799SOL    HW125859   1.659   2.825   4.516  1.1128  1.7453  3.2759
 4799SOL    HW225860   1.548   2.731   4.506  0.5574 -1.8957  0.2509
 4800SOL     OW25861   3.989   0.400   0.962  0.1480 -0.0448 -0.0381
 4800SOL    HW125862   4.034   0.410   1.045  0.4862  0.7421 -0.3115
 4800SOL    HW225863   3.917   0.458   0.987 -1.0538 -0.8084 -1.7325
 4801SOL     OW25864   3.072   0.621   9.901  0.8232 -0.1919 -0.0390
 4801SOL    HW125865   3.166   0.627   9.886  0.7971  2.0036  0.6804
 4801SOL    HW225866   3.043   0.569   9.826 -0.7427  2.0533 -0.9748
 4802SOL     OW25867   0.653   1.417   6.764 -0.2403 -0.3407 -0.1095
 4802SOL    HW125868   0.639   1.324   6.745 -0.2602 -0.4588  0.4883
 4802SOL    HW225869   0.594   1.437   6.692 -0.4412 -0.2281  0.0888
 4803SOL     OW25870   1.928   2.090   7.418 -0.0424 -0.1813 -0.2626
 4803SOL    HW125871   1.986   2.091   7.494 -1.1750 -2.7841  0.6423
 4803SOL    HW225872   1.842   2.093   7.459  0.7112  2.1520  1.1623
 4804SOL     OW25873   0.400   4.619   5.490 -0.6455 -0.4681 -0.1803
 4804SOL    HW125874   0.319   4.621   5.439  0.7825 -0.9159 -2.4111
 4804SOL    HW225875   0.396   4.537   5.539  1.6315 -0.6533 -0.2856
 4805SOL     OW25876   3.743   1.172   9.264  0.5341  0.1764  0.1983
 4805SOL    HW125877   3.673   1.187   9.327  1.4250 -1.2799  1.5532
 4805SOL    HW225878   3.739   1.077   9.264 -0.3738  0.2183 -0.5862
 4806SOL     OW25879   3.657   0.425  14.254 -0.4574 -0.2482  0.0907
 4806SOL    HW125880   3.701   0.391  14.176 -1.0184  1.3179 -0.9193
 4806SOL    HW225881   3.588   0.358  14.253 -0.1814 -0.5954  4.4495
 4807SOL     OW25882   2.235   4.649   5.205 -0.3659  0.2637  0.0507
 4807SOL    HW125883   2.317   4.693   5.229 -1.6148  0.7388  3.5581
 4807SOL    HW225884   2.186   0.006   5.187  1.8769  2.0025  1.4787
 4808SOL     OW25885   2.723   3.033   7.135  0.6595 -0.7494 -0.0834
 4808SOL    HW125886   2.651   3.094   7.121  1.1548 -0.7521 -2.5740
 4808SOL    HW225887   2.739   3.063   7.225  0.7389  0.6024 -0.5540
 4809SOL     OW25888   4.121   2.338   8.395 -0.1158 -0.1395  0.1113
 4809SOL    HW125889   4.048   2.323   8.455 -0.2428 -3.1477 -0.7789
 4809SOL    HW225890   4.194   2.334   8.457  0.0568  0.3444 -0.0653
 4810SOL     OW25891   2.735   4.178   9.016 -0.0943 -0.2452  0.1340
 4810SOL    HW125892   2.738   4.119   9.092 -0.0492 -0.0954  0.2491
 4810SOL    HW225893   2.749   4.262   9.060  1.2506 -1.1863  1.5071
 4811SOL     OW25894   0.965   2.619   0.314 -0.4635  0.2657 -0.0515
 4811SOL    HW125895   0.938   2.627   0.405  2.5068  0.0006  0.8222
 4811SOL    HW225896   0.888   2.640   0.261  0.0906  0.7906 -0.6493
 4812SOL     OW25897   2.397   0.837   6.364  0.1834  0.5316  0.1463
 4812SOL    HW125898   2.489   0.853   6.344  0.6397  0.3915  2.0797
 4812SOL    HW225899   2.363   0.919   6.329  0.7950 -0.8958 -3.8027
 4813SOL     OW25900   3.694   0.311   8.804 -0.0859  0.1649  0.3864
 4813SOL    HW125901   3.676   0.245   8.736  1.6360  0.7972 -0.6875
 4813SOL    HW225902   3.638   0.278   8.874  0.7165 -0.7158  0.6189
 4814SOL     OW25903   2.069   4.583   7.374  0.5104  0.1799 -0.4739
 4814SOL    HW125904   2.093   4.610   7.285  0.6460  1.4659 -0.0595
 4814SOL    HW225905   2.086   4.491   7.359  0.4068  0.1575 -0.4572
 4815SOL     OW25906   4.444   4.330   3.171 -0.0597 -0.4874  0.3195
 4815SOL    HW125907   4.354   4.329   3.138  0.5075  1.6215 -1.3002
 4815SOL    HW225908   4.471   4.247   3.131  1.3153 -0.3431  0.9591
 4816SOL     OW25909   0.795   3.610  17.677  0.1227 -0.4028 -0.1936
 4816SOL    HW125910   0.703   3.602   0.007  0.4348 -2.5782  0.2678
 4816SOL    HW225911   0.829   3.651   0.063  0.2455 -0.0646 -0.4148
 4817SOL     OW25912   0.673   3.756  12.749 -0.0238 -0.3136 -0.1915
 4817SOL    HW125913   0.682   3.809  12.829 -0.6874  0.6747 -0.7615
 4817SOL    HW225914   0.620   3.808  12.688  0.2980 -2.1740 -2.0375
 4818SOL     OW25915   3.417   4.230   0.985  0.3443 -0.1763 -0.7127
 4818SOL    HW125916   3.416   4.196   1.074 -1.6295 -0.6393 -0.9121
 4818SOL    HW225917   3.484   4.169   0.953  1.5654 -0.3640  2.2517
 4819SOL     OW25918   3.701   0.956   4.885  0.5796  0.2423 -0.8248
 4819SOL    HW125919   3.770   0.892   4.872  0.6233  0.3311 -1.0274
 4819SOL    HW225920   3.742   1.030   4.841  2.7926  0.0391  0.9152
 4820SOL     OW25921   3.144   2.252   9.643 -0.2015 -0.0311  0.3808
 4820SOL    HW125922   3.183   2.321   9.589  0.4407 -0.8831 -0.2342
 4820SOL    HW225923   3.154   2.280   9.734 -0.8584 -1.1828  0.8019
 4821SOL     OW25924   1.348   4.321   6.350 -0.2352  0.4955 -0.4497
 4821SOL    HW125925   1.339   4.245   6.407  0.8587  0.6992 -0.0053
 4821SOL    HW225926   1.304   4.386   6.404  1.9623  0.6843  1.1057
 4822SOL     OW25927   0.879   3.251  15.232 -0.2163 -0.0435  0.1087
 4822SOL    HW125928   0.864   3.344  15.250  0.6108  0.1223 -0.0679
 4822SOL    HW225929   0.799   3.217  15.272 -2.0988  3.0515 -1.0184
 4823SOL     OW25930   2.892   1.181  11.901 -0.0658  0.0545 -0.4871
 4823SOL    HW125931   2.950   1.171  11.826 -0.0888 -0.2600 -0.4628
 4823SOL    HW225932   2.954   1.183  11.974 -0.7281  0.6376  0.0605
 4824SOL     OW25933   3.378   0.124   0.573  0.0851 -0.7275  0.1807
 4824SOL    HW125934   3.315   0.123   0.500 -0.5303 -0.8581  0.7085
 4824SOL    HW225935   3.452   0.070   0.546 -0.6004 -0.9450 -1.2697
 4825SOL     OW25936   0.945   0.988   4.175 -0.0798  0.1868  0.3683
 4825SOL    HW125937   1.007   0.916   4.187 -2.5696 -2.1873 -0.9825
 4825SOL    HW225938   1.011   1.052   4.150  0.8347 -1.0457 -0.3811
 4826SOL     OW25939   0.010   1.708   5.265 -0.0144  0.0377 -0.8095
 4826SOL    HW125940   0.045   1.795   5.284  0.1844 -0.1613 -0.2694
 4826SOL    HW225941   0.002   1.660   5.347  2.1304 -0.7465 -1.0823
 4827SOL     OW25942   0.632   1.791  10.669 -0.2916  0.3722  0.3746
 4827SOL    HW125943   0.542   1.764  10.686 -0.0181  0.4772  1.9652
 4827SOL    HW225944   0.676   1.777  10.753 -0.4423 -0.9431  0.2301
 4828SOL     OW25945   0.580   4.497   1.612 -0.0772  0.3807 -0.4308
 4828SOL    HW125946   0.541   4.446   1.683  0.6709  0.7171  0.2188
 4828SOL    HW225947   0.577   4.431   1.543  2.6703 -2.0383  1.7047
 4829SOL     OW25948   1.187   0.150   2.667 -0.2438  0.3942 -0.2093
 4829SOL    HW125949   1.128   0.091   2.621  0.1298 -1.0079  1.1044
 4829SOL    HW225950   1.271   0.110   2.645  1.3459  3.2770  0.5266
 4830SOL     OW25951   2.059   1.385   3.211  0.1030  0.3061 -0.3086
 4830SOL    HW125952   1.995   1.421   3.150  0.3032  0.2694 -0.5414
 4830SOL    HW225953   2.125   1.360   3.146  1.2407  0.7659  0.6627
 4831SOL     OW25954   0.173   3.777   7.353 -0.6188  0.0445  0.4935
 4831SOL    HW125955   0.124   3.797   7.433 -0.9793 -3.3248  1.1320
 4831SOL    HW225956   0.249   3.735   7.393 -2.8088 -1.6513  2.8817
 4832SOL     OW25957   1.458   4.707  11.236  0.2524  0.0874  0.5933
 4832SOL    HW125958   1.454   4.621  11.279  0.6978 -0.2855 -0.1091
 4832SOL    HW225959   1.365   4.722  11.221  0.8532  1.1910 -1.9716
 4833SOL     OW25960   1.005   0.413   7.865  0.6281  0.4114  0.0019
 4833SOL    HW125961   0.937   0.393   7.929  1.4448 -2.2950  0.0209
 4833SOL    HW225962   1.085   0.403   7.918 -0.2585 -1.8557  0.8902
 4834SOL     OW25963   2.557   0.018   2.203 -0.0994 -0.5313 -0.0204
 4834SOL    HW125964   2.590   4.652   2.190  2.2811  0.4032 -0.4236
 4834SOL    HW225965   2.558   0.034   2.297 -1.6335  1.2736 -0.3146
 4835SOL     OW25966   3.252   0.136   4.603 -0.4201  0.1109  0.8071
 4835SOL    HW125967   3.273   0.229   4.605  0.3369 -0.0188 -1.0417
 4835SOL    HW225968   3.170   0.136   4.652 -0.7340  0.8873  0.2836
 4836SOL     OW25969   1.377   0.359  15.337 -0.2598  0.4421  0.1042
 4836SOL    HW125970   1.332   0.444  15.343  0.6446  1.0392 -1.6573
 4836SOL    HW225971   1.337   0.322  15.258  1.5575  1.3584 -1.2402
 4837SOL     OW25972   0.148   0.094  12.311 -0.1414  0.2603 -0.4808
 4837SOL    HW125973   0.140   0.092  12.216  0.5254 -2.0513 -0.5004
 4837SOL    HW225974   0.185   0.008  12.332 -1.4799 -0.2160 -0.0236
 4838SOL     OW25975   1.350   3.867   8.528  0.3019 -0.5587  0.0919
 4838SOL    HW125976   1.291   3.892   8.457  1.0660 -1.0989 -0.7281
 4838SOL    HW225977   1.435   3.908   8.512 -0.8683  1.0752 -2.0029
 4839SOL     OW25978   4.172   4.644   0.443 -0.3958 -0.2667  0.0432
 4839SOL    HW125979   4.124   4.627   0.524  2.2097  0.8938  1.8191
 4839SOL    HW225980   4.137   4.584   0.377  0.4703  1.3161 -1.8841
 4840SOL     OW25981   3.033   0.890   8.474  0.3028  0.0473 -0.4676
 4840SOL    HW125982   3.065   0.820   8.417 -1.8140 -0.9185 -0.4837
 4840SOL    HW225983   2.992   0.832   8.538  0.2451 -0.5874 -1.0769
 4841SOL     OW25984   2.610   2.395   5.199  0.4263  0.6188  0.2574
 4841SOL    HW125985   2.552   2.401   5.275  1.1257 -0.2164  0.8608
 4841SOL    HW225986   2.547   2.395   5.127 -0.9036  0.1649  1.4192
 4842SOL     OW25987   1.054   2.767   8.369  0.1742 -0.2839  0.2102
 4842SOL    HW125988   1.126   2.706   8.351  0.2512  0.3852 -1.6840
 4842SOL    HW225989   1.055   2.770   8.465 -2.4882 -0.3858  0.2559
 4843SOL     OW25990   4.470   2.318   4.249 -0.0259 -0.0547  0.0650
 4843SOL    HW125991   4.537   2.273   4.302 -0.0623  0.2107  0.3370
 4843SOL    HW225992   4.419   2.249   4.206 -0.3404 -0.2446  0.7399
 4844SOL     OW25993   0.683   3.141   4.855 -0.1572 -0.2685 -0.3313
 4844SOL    HW125994   0.651   3.186   4.777 -0.2226  1.6221  0.7825
 4844SOL    HW225995   0.633   3.187   4.923  1.8726 -0.6744  1.4422
 4845SOL     OW25996   3.202   3.453   9.748 -0.1745  0.2548 -0.5385
 4845SOL    HW125997   3.159   3.497   9.675 -1.0341  0.7831  0.2801
 4845SOL    HW225998   3.295   3.470   9.734 -0.1001  0.3732  0.0862
 4846SOL     OW25999   2.983   3.466   8.928  0.8155 -0.7368  0.2172
 4846SOL    HW126000   2.915   3.427   8.874  0.2189 -0.3813  0.7080
 4846SOL    HW226001   3.033   3.514   8.862  0.7782  1.1750  1.5823
 4847SOL     OW26002   3.318   1.374   8.586  0.6421 -0.5590  0.6422
 4847SOL    HW126003   3.274   1.298   8.624  0.7708 -0.7687  0.3700
 4847SOL    HW226004   3.371   1.413   8.655 -0.0201  0.8414  0.3768
 4848SOL     OW26005   2.574   4.251   7.646  0.1116 -0.5752 -0.3597
 4848SOL    HW126006   2.604   4.210   7.564  0.1148 -1.8073  0.2566
 4848SOL    HW226007   2.504   4.189   7.669  1.2532 -1.3981  0.8816
 4849SOL     OW26008   2.577   1.138   7.446  0.6301  0.1339  0.0277
 4849SOL    HW126009   2.603   1.217   7.398 -0.4937 -0.4898 -1.6259
 4849SOL    HW226010   2.559   1.172   7.534  0.5558  0.1400  0.0100
 4850SOL     OW26011   1.256   3.269   4.752  0.2131  0.1171  0.6366
 4850SOL    HW126012   1.170   3.277   4.710 -0.0804 -0.0130  1.2241
 4850SOL    HW226013   1.274   3.363   4.754 -2.7403  0.6963  0.0084
 4851SOL     OW26014   1.931   3.820  16.024 -0.3714 -0.0131 -0.4416
 4851SOL    HW126015   1.869   3.817  16.096 -1.4027  2.9733 -1.2074
 4851SOL    HW226016   2.003   3.852  16.078 -2.3071  1.5276  1.1781
 4852SOL     OW26017   0.103   3.840  14.453 -0.3787  0.5565  0.3252
 4852SOL    HW126018   0.161   3.833  14.378  0.2830  1.6918  0.7213
 4852SOL    HW226019   0.021   3.852  14.405 -0.6365  0.0878  0.6468
 4853SOL     OW26020   0.205   3.513   3.342 -0.1037  0.1380 -0.1157
 4853SOL    HW126021   0.179   3.582   3.282 -0.6232 -0.6413 -0.7906
 4853SOL    HW226022   0.176   3.551   3.425 -1.2942 -1.7529  0.3327
 4854SOL     OW26023   2.999   4.075   4.602  0.2702  0.1167  0.0145
 4854SOL    HW126024   2.994   3.987   4.639 -1.2090  1.0496  2.0181
 4854SOL    HW226025   3.085   4.097   4.638  0.5584  0.1148 -0.6672
 4855SOL     OW26026   0.162   3.102   2.038 -0.3062  0.9339 -0.1258
 4855SOL    HW126027   0.158   3.021   1.988 -0.3996  0.8407  0.0320
 4855SOL    HW226028   0.232   3.148   1.990  0.4115  2.5016  2.3984
 4856SOL     OW26029   2.014   2.150   1.931 -0.8318  0.1121 -0.0501
 4856SOL    HW126030   2.059   2.160   1.847  0.2747  1.4846  0.7123
 4856SOL    HW226031   1.925   2.164   1.899 -0.8562  3.7900  1.5316
 4857SOL     OW26032   0.200   3.368   7.926 -0.3508 -0.3169  0.6533
 4857SOL    HW126033   0.107   3.392   7.923 -0.8190 -2.4171 -1.0546
 4857SOL    HW226034   0.206   3.315   8.006  1.8080  0.2521  0.8530
 4858SOL     OW26035   1.798   3.431   4.059  0.1613 -0.8759 -0.2829
 4858SOL    HW126036   1.716   3.397   4.024 -0.1600 -0.1277 -0.2545
 4858SOL    HW226037   1.763   3.443   4.147  1.6663 -1.2354  0.3741
 4859SOL     OW26038   3.869   0.143   5.231 -0.1891  0.0789 -0.0256
 4859SOL    HW126039   3.953   0.186   5.249 -0.1058  1.3735 -3.5247
 4859SOL    HW226040   3.881   0.115   5.140 -0.3885  0.3809 -0.1444
 4860SOL     OW26041   0.136   1.363  15.934 -0.0380  0.4531 -0.9254
 4860SOL    HW126042   0.094   1.415  15.866 -1.7661 -1.9598 -1.7143
 4860SOL    HW226043   0.079   1.384  16.009  0.2315  0.8072 -0.8235
 4861SOL     OW26044   1.064   1.262   6.765  0.2904  0.1087  0.4355
 4861SOL    HW126045   0.986   1.208   6.750  1.8426 -1.4670 -2.0931
 4861SOL    HW226046   1.120   1.185   6.778  0.5201  0.2965  0.5436
 4862SOL     OW26047   4.100   3.168   5.185 -0.2523 -0.2472 -0.1186
 4862SOL    HW126048   4.126   3.109   5.256  0.6853  1.9284  1.3743
 4862SOL    HW226049   4.175   3.228   5.190 -0.5199 -0.0099  1.1608
 4863SOL     OW26050   1.347   3.315   1.878 -0.2119 -0.0445  0.7355
 4863SOL    HW126051   1.351   3.224   1.908 -0.1434  0.2291  1.5713
 4863SOL    HW226052   1.413   3.307   1.809  0.0720  1.0063  0.8746
 4864SOL     OW26053   0.289   1.330  13.976 -0.1794 -0.7391 -0.0178
 4864SOL    HW126054   0.272   1.237  13.989  1.1663 -1.1893 -1.6065
 4864SOL    HW226055   0.353   1.316  13.907  1.0298 -3.1273  1.5984
 4865SOL     OW26056   0.541   0.895  15.667  0.2402 -0.6031  0.1904
 4865SOL    HW126057   0.570   0.895  15.576  0.4216 -1.0682  0.2445
 4865SOL    HW226058   0.498   0.809  15.671  1.8275 -1.3841  0.7168
 4866SOL     OW26059   1.275   2.107   5.901 -0.4856 -0.2524 -0.0645
 4866SOL    HW126060   1.261   2.037   5.837  0.0626  1.4251 -1.9896
 4866SOL    HW226061   1.238   2.075   5.984  0.6903  0.7653  0.8530
 4867SOL     OW26062   3.367   3.812   6.484 -0.6698  0.0052 -0.3959
 4867SOL    HW126063   3.317   3.841   6.561 -0.5659 -1.8564  0.3959
 4867SOL    HW226064   3.394   3.723   6.509 -1.7903  0.1167  1.2414
 4868SOL     OW26065   4.630   1.898   5.638  0.2645 -0.3879 -0.0479
 4868SOL    HW126066   4.577   1.934   5.567 -0.5616 -1.4793  0.0135
 4868SOL    HW226067   4.623   1.969   5.701 -2.1468 -0.0630 -0.6965
 4869SOL     OW26068   2.666   0.734   7.587 -0.1516 -0.1781  0.3607
 4869SOL    HW126069   2.582   0.778   7.600  0.7053  1.3295  0.7469
 4869SOL    HW226070   2.635   0.648   7.559  1.3072 -0.3950 -0.6243
 4870SOL     OW26071   3.398   2.366   3.611  0.2024 -0.8632 -0.5398
 4870SOL    HW126072   3.422   2.410   3.693  0.8544 -0.2667 -1.0458
 4870SOL    HW226073   3.454   2.288   3.610  0.3938 -0.7299 -0.1896
 4871SOL     OW26074   1.245   0.880   7.919  0.0630 -0.5059 -0.5273
 4871SOL    HW126075   1.286   0.858   8.003  2.1061 -0.9997 -1.6586
 4871SOL    HW226076   1.324   0.908   7.872 -0.0340  1.9204  0.7405
 4872SOL     OW26077   0.067   0.488   6.537  0.7497 -0.1078  0.2204
 4872SOL    HW126078   0.041   0.549   6.606  0.6178 -0.3769  0.4072
 4872SOL    HW226079   0.160   0.504   6.523  0.4236  2.4235  0.9506
 4873SOL     OW26080   3.596   2.762   7.088  0.2168 -0.0547 -0.7976
 4873SOL    HW126081   3.531   2.811   7.038  1.3820  2.2622 -0.0279
 4873SOL    HW226082   3.620   2.812   7.166  1.0258 -0.1196 -1.0072
 4874SOL     OW26083   0.417   1.188  10.812  0.2217 -0.4295  0.1368
 4874SOL    HW126084   0.343   1.181  10.751 -0.9819  0.8983  1.4554
 4874SOL    HW226085   0.364   1.192  10.892  1.2388  1.4916  0.7090
 4875SOL     OW26086   3.460   0.407   5.469 -0.3760  0.0905  0.2692
 4875SOL    HW126087   3.537   0.354   5.450 -1.8011 -0.7955 -2.9924
 4875SOL    HW226088   3.417   0.382   5.388 -3.7334  0.5448  1.9064
 4876SOL     OW26089   1.943   1.278   0.563 -0.5118  0.4779 -0.2279
 4876SOL    HW126090   1.850   1.277   0.589 -0.4315 -1.0711  0.0008
 4876SOL    HW226091   1.989   1.218   0.622 -2.7708 -0.2250  0.8159
 4877SOL     OW26092   4.576   4.129   5.838  0.3975  0.0407  0.1266
 4877SOL    HW126093   4.552   4.072   5.765 -3.0094 -0.4422  1.6326
 4877SOL    HW226094   4.663   4.093   5.855 -0.4776 -1.1524  2.1309
 4878SOL     OW26095   3.456   0.588   4.905 -0.7785 -0.0475  0.2582
 4878SOL    HW126096   3.526   0.574   4.969 -0.5789  3.7087  0.8392
 4878SOL    HW226097   3.479   0.679   4.885  2.5913 -0.8840  0.3568
 4879SOL     OW26098   3.699   2.758   4.354 -0.2639  0.0161 -0.3696
 4879SOL    HW126099   3.610   2.792   4.341 -0.0297  0.9245  0.3546
 4879SOL    HW226100   3.705   2.694   4.284  1.1093  0.8006 -0.9578
 4880SOL     OW26101   4.015   1.281   7.107 -0.3789  0.2533 -0.0333
 4880SOL    HW126102   4.078   1.346   7.077  0.6884 -0.3086  0.9702
 4880SOL    HW226103   4.069   1.203   7.094  2.0174  1.6124  1.5227
 4881SOL     OW26104   2.395   0.666  13.215 -0.1953 -0.1681 -0.1492
 4881SOL    HW126105   2.444   0.610  13.276  1.8548  2.1623  0.3595
 4881SOL    HW226106   2.422   0.628  13.132 -0.7491  1.2083 -0.9482
 4882SOL     OW26107   0.837   3.507   8.162  0.0501  0.0956 -0.6673
 4882SOL    HW126108   0.816   3.526   8.254 -2.0573  1.7334 -1.4806
 4882SOL    HW226109   0.900   3.436   8.172 -0.0072 -0.2713 -2.8058
 4883SOL     OW26110   4.392   2.062   6.906  0.2394 -0.3492 -0.1276
 4883SOL    HW126111   4.399   2.155   6.887  0.5038 -0.3436 -0.0089
 4883SOL    HW226112   4.476   2.047   6.949  1.0109  1.6989 -0.9341
 4884SOL     OW26113   3.843   4.411   3.429  0.7211 -0.0691  0.2045
 4884SOL    HW126114   3.887   4.381   3.350  0.3302 -2.8064  1.0265
 4884SOL    HW226115   3.815   4.498   3.401  1.0602 -0.4275 -1.2429
 4885SOL     OW26116   3.031   2.684  15.432 -0.2853 -0.0837  0.3579
 4885SOL    HW126117   3.002   2.714  15.347  3.3021  2.5583  0.0562
 4885SOL    HW226118   2.958   2.701  15.492 -0.3617  0.3306  0.1443
 4886SOL     OW26119   1.373   2.389   4.979  0.3006  0.0178  0.1836
 4886SOL    HW126120   1.402   2.382   4.888 -1.1385  2.3982 -0.4407
 4886SOL    HW226121   1.414   2.475   4.990  0.9589  0.2060 -3.5351
 4887SOL     OW26122   2.934   0.942   7.216 -0.2581 -0.5238  0.3188
 4887SOL    HW126123   2.905   0.924   7.306 -2.5554  0.3636 -0.2574
 4887SOL    HW226124   2.849   0.947   7.173  0.1861 -1.1359 -0.6069
 4888SOL     OW26125   0.695   0.873  13.632 -0.5880 -0.0095 -0.4214
 4888SOL    HW126126   0.617   0.858  13.579  0.9207 -3.3797 -1.7035
 4888SOL    HW226127   0.645   0.875  13.714 -0.1851 -0.7157 -0.1580
 4889SOL     OW26128   1.139   4.208   3.116  0.1470  0.6389  0.2973
 4889SOL    HW126129   1.095   4.258   3.184 -0.3729 -0.0434  0.4668
 4889SOL    HW226130   1.084   4.227   3.040 -0.3110 -2.6345 -0.1849
 4890SOL     OW26131   1.650   1.020  13.440 -0.0318  0.6916  0.6099
 4890SOL    HW126132   1.665   0.926  13.451 -1.8631  0.1286 -1.6292
 4890SOL    HW226133   1.630   1.033  13.347 -0.1219  1.7407  0.7816
 4891SOL     OW26134   0.124   2.957   3.106  0.1046  0.2554 -0.8379
 4891SOL    HW126135   0.180   2.967   3.183  1.1348 -0.4172 -1.5026
 4891SOL    HW226136   0.115   3.052   3.099 -0.2231  0.1967 -1.2125
 4892SOL     OW26137   0.222   0.223  12.959 -0.0452  0.6172  0.1502
 4892SOL    HW126138   0.251   0.271  12.881 -3.0044  0.3858 -1.0971
 4892SOL    HW226139   0.300   0.174  12.987 -0.3171  1.7905  3.0025
 4893SOL     OW26140   4.090   2.167   6.481 -0.2048  0.1931  0.0099
 4893SOL    HW126141   4.163   2.225   6.458 -0.7555  1.1273  0.6147
 4893SOL    HW226142   4.077   2.196   6.571 -0.2483  1.6268 -0.4561
 4894SOL     OW26143   0.478   4.695  14.064 -0.1300 -0.6863 -0.5600
 4894SOL    HW126144   0.471   0.067  14.068 -0.2795 -0.5911 -2.8724
 4894SOL    HW226145   0.429   4.668  14.142  2.5929  2.2502  2.1521
 4895SOL     OW26146   4.095   3.035   6.076 -0.5675 -0.6322 -0.2297
 4895SOL    HW126147   4.027   3.014   6.011  0.9858  1.1311 -2.4473
 4895SOL    HW226148   4.107   2.946   6.109 -1.4977  0.3609  2.7685
 4896SOL     OW26149   3.328   4.251   3.642 -0.4964  0.0857  0.5236
 4896SOL    HW126150   3.367   4.166   3.622  0.0227  0.7091 -1.0947
 4896SOL    HW226151   3.324   4.246   3.738 -0.3981 -2.5414  0.3893
 4897SOL     OW26152   1.753   3.173   1.837  0.4423  0.4745 -0.0926
 4897SOL    HW126153   1.674   3.196   1.788 -0.9025  0.2169  1.9507
 4897SOL    HW226154   1.710   3.113   1.898 -0.1032  1.1478  0.1784
 4898SOL     OW26155   4.311   3.865   1.334 -0.0822 -0.1316  0.4095
 4898SOL    HW126156   4.233   3.810   1.337  0.6840 -1.3444 -1.4739
 4898SOL    HW226157   4.339   3.842   1.245  1.4421  3.0652  0.0704
 4899SOL     OW26158   4.586   2.648   5.612  0.1284  0.3139  0.5872
 4899SOL    HW126159   4.491   2.660   5.617 -0.0662 -0.4001 -1.3039
 4899SOL    HW226160   4.608   2.701   5.689  0.7858  0.3818  0.3552
 4900SOL     OW26161   0.411   0.712   2.672 -0.3056  0.1628 -0.2346
 4900SOL    HW126162   0.410   0.688   2.765 -1.8907 -0.1708 -0.3424
 4900SOL    HW226163   0.436   0.803   2.688 -0.2111 -0.0350  0.7769
 4901SOL     OW26164   0.019   3.919   9.882 -0.5430  0.2686 -0.2047
 4901SOL    HW126165   0.016   3.830   9.919 -3.9516  0.0054 -1.1230
 4901SOL    HW226166   0.067   3.903   9.801 -1.6553  2.4220 -1.2544
 4902SOL     OW26167   2.725   1.675   7.127 -0.0380 -0.9439  0.2277
 4902SOL    HW126168   2.739   1.668   7.221 -1.7695 -1.1812  0.4629
 4902SOL    HW226169   2.666   1.750   7.123  1.5456  0.2076 -1.7997
 4903SOL     OW26170   3.268   0.488   7.129 -0.1062 -0.2036  0.4134
 4903SOL    HW126171   3.313   0.505   7.212  0.3319 -3.5764  0.8644
 4903SOL    HW226172   3.226   0.572   7.111 -1.9746 -0.9590  1.2705
 4904SOL     OW26173   3.253   0.568   8.023  0.6421 -0.3446 -0.4995
 4904SOL    HW126174   3.302   0.609   8.093  0.9046  1.4555 -1.7251
 4904SOL    HW226175   3.222   0.653   7.990 -1.1142 -0.6117  0.4312
 4905SOL     OW26176   1.539   0.697   2.554 -0.3170  0.7514  0.1581
 4905SOL    HW126177   1.469   0.646   2.594 -1.3065  1.2763 -0.9112
 4905SOL    HW226178   1.526   0.778   2.604 -2.3732  0.9067 -0.6500
 4906SOL     OW26179   3.541   4.066   2.860  0.6920  0.5035 -0.7451
 4906SOL    HW126180   3.578   3.983   2.829  0.4289  0.3324 -0.6040
 4906SOL    HW226181   3.613   4.127   2.849  1.2192 -0.4189 -2.4937
 4907SOL     OW26182   2.533   3.408   3.747 -0.3121 -1.0763  0.6373
 4907SOL    HW126183   2.476   3.405   3.824  0.0834 -1.4552  0.9204
 4907SOL    HW226184   2.605   3.466   3.774 -1.0527  0.3862 -0.5615
 4908SOL     OW26185   3.624   3.631   6.083 -0.2768 -0.4241  0.3945
 4908SOL    HW126186   3.592   3.712   6.043 -1.3262  0.4590  2.9606
 4908SOL    HW226187   3.719   3.637   6.079 -0.3318  0.1440 -0.0083
 4909SOL     OW26188   4.097   1.380   8.843 -0.0568  0.6371  0.0433
 4909SOL    HW126189   4.081   1.414   8.931 -0.0883 -0.3992  0.4449
 4909SOL    HW226190   4.181   1.421   8.826 -0.1364  0.3673 -0.9899
 4910SOL     OW26191   3.255   2.400   3.375  0.4842  0.5798  0.0453
 4910SOL    HW126192   3.318   2.376   3.443  0.6163 -0.0923 -0.3139
 4910SOL    HW226193   3.314   2.420   3.302 -1.2480 -0.6205 -1.6754
 4911SOL     OW26194   0.596   2.774   7.470  0.2002  0.3458  0.2297
 4911SOL    HW126195   0.616   2.716   7.397 -1.2470  0.7735 -0.5000
 4911SOL    HW226196   0.559   2.850   7.425 -1.3171  0.9430  2.4437
 4912SOL     OW26197   2.507   0.482   5.507  0.1209 -0.2295  0.2017
 4912SOL    HW126198   2.512   0.408   5.567  0.5474  0.4880  1.0680
 4912SOL    HW226199   2.516   0.427   5.430  1.3107 -0.3096  0.3915
 4913SOL     OW26200   0.685   3.608   2.728  0.0304  0.7478  0.2301
 4913SOL    HW126201   0.597   3.570   2.726 -0.1554  1.0954  1.8377
 4913SOL    HW226202   0.673   3.689   2.679  1.3837 -0.2931 -1.7969
 4914SOL     OW26203   3.170   3.698   1.819  0.0694  0.2391 -0.2137
 4914SOL    HW126204   3.153   3.638   1.746 -2.5340 -0.6617  1.1519
 4914SOL    HW226205   3.132   3.777   1.781 -1.9903 -0.8670 -0.4172
 4915SOL     OW26206   0.850   3.167   5.705  0.0538 -0.8949 -0.3640
 4915SOL    HW126207   0.800   3.128   5.634 -0.7688  0.0707 -0.3126
 4915SOL    HW226208   0.797   3.234   5.748  0.5172 -0.3333 -0.6771
 4916SOL     OW26209   1.954   0.377   3.264  0.1826 -0.6320  0.0586
 4916SOL    HW126210   1.873   0.356   3.309  0.0567  1.4629  0.7957
 4916SOL    HW226211   1.999   0.445   3.314 -2.5212  1.1544  0.0516
 4917SOL     OW26212   4.635   3.146   2.379  0.4393 -0.1406  0.2384
 4917SOL    HW126213   4.648   3.053   2.397  1.2836 -0.2519 -0.9875
 4917SOL    HW226214   4.604   3.140   2.289  0.3382 -1.0495  0.3411
 4918SOL     OW26215   4.611   1.197  10.897 -0.2479 -0.5642 -0.3058
 4918SOL    HW126216   4.521   1.176  10.873 -0.7509  1.8033 -0.4400
 4918SOL    HW226217   4.624   1.126  10.960 -0.4174 -0.3499 -0.0295
 4919SOL     OW26218   1.385   2.947   8.699 -0.3498 -0.1303 -0.3915
 4919SOL    HW126219   1.473   2.969   8.729 -0.8958  0.1193  1.0561
 4919SOL    HW226220   1.368   2.856   8.724 -0.9160 -0.4238 -1.8532
 4920SOL     OW26221   0.893   3.660   2.877 -0.8739  0.0915 -0.2242
 4920SOL    HW126222   0.935   3.627   2.798 -0.7266 -1.9709  0.7171
 4920SOL    HW226223   0.805   3.649   2.842 -1.1469  0.7702  0.2452
 4921SOL     OW26224   3.721   1.864   2.393  0.2338 -0.5281 -0.1933
 4921SOL    HW126225   3.638   1.838   2.354 -0.8198  0.7644  1.1984
 4921SOL    HW226226   3.708   1.891   2.484 -0.1759  0.8768 -0.6751
 4922SOL     OW26227   1.627   2.058   2.552 -0.4137  0.0201  0.0326
 4922SOL    HW126228   1.568   2.114   2.602  1.3016  0.3952  1.6238
 4922SOL    HW226229   1.681   2.118   2.500 -0.0754 -0.1153  0.2313
 4923SOL     OW26230   0.973   2.587   4.908  0.5622  0.5998 -0.4047
 4923SOL    HW126231   1.033   2.654   4.878 -0.4696  0.9689 -1.6376
 4923SOL    HW226232   1.030   2.536   4.966  1.1393  0.4603 -1.1026
 4924SOL     OW26233   2.811   1.261   7.876  0.2648  0.2572  0.5324
 4924SOL    HW126234   2.897   1.258   7.834  0.4148 -2.2195  1.0332
 4924SOL    HW226235   2.800   1.350   7.910  0.4849 -0.1912  1.7901
 4925SOL     OW26236   3.817   1.392  16.530  0.4750 -0.2768  0.0188
 4925SOL    HW126237   3.795   1.343  16.609 -1.0494 -0.8164 -0.7395
 4925SOL    HW226238   3.905   1.359  16.513  0.4393 -0.4227  0.1145
 4926SOL     OW26239   2.425   2.481   5.411  0.3316 -0.2177  0.6774
 4926SOL    HW126240   2.335   2.457   5.433  0.9978 -0.7504  2.8446
 4926SOL    HW226241   2.406   2.569   5.380  0.1766 -0.0089  1.3735
 4927SOL     OW26242   1.292   0.915   5.410  0.4772 -0.1829 -0.0190
 4927SOL    HW126243   1.313   0.973   5.483 -0.6973  0.6095 -0.3139
 4927SOL    HW226244   1.238   0.847   5.451  1.4847 -1.5228 -0.9016
 4928SOL     OW26245   0.893   1.461   5.555 -0.2219  0.2225  0.1183
 4928SOL    HW126246   0.977   1.424   5.581  0.4883  2.1146  0.5541
 4928SOL    HW226247   0.921   1.513   5.480 -0.1418  1.2300  0.8292
 4929SOL     OW26248   3.076   2.631   5.615  0.6776  0.0284  0.2362
 4929SOL    HW126249   2.983   2.612   5.605 -0.1658  3.1687  2.0998
 4929SOL    HW226250   3.075   2.723   5.640 -1.1431  0.5630 -1.8333
 4930SOL     OW26251   1.152   1.666   2.822 -0.5049  0.5401 -0.3677
 4930SOL    HW126252   1.092   1.714   2.879  0.5334  0.6936  0.5895
 4930SOL    HW226253   1.108   1.673   2.737  0.9475 -2.7060 -1.3856
 4931SOL     OW26254   4.675   0.304   3.525 -0.1033  0.6172 -0.0480
 4931SOL    HW126255   4.700   0.353   3.447 -1.6454  2.3441  0.5363
 4931SOL    HW226256   0.016   0.328   3.593  0.8150  0.3842 -0.8337
 4932SOL     OW26257   0.797   1.408   3.612  0.1868 -0.7338 -0.0942
 4932SOL    HW126258   0.773   1.315   3.605  1.2208 -0.8165 -2.6294
 4932SOL    HW226259   0.883   1.405   3.570 -0.3716 -0.4090 -1.2621
 4933SOL     OW26260   0.861   3.104   9.651  0.9866  0.2018 -0.3667
 4933SOL    HW126261   0.802   3.071   9.583  1.6005 -0.5874 -0.5195
 4933SOL    HW226262   0.933   3.144   9.602  0.9406 -0.7794 -1.2392
 4934SOL     OW26263   4.046   2.451  13.704 -0.5323  0.4239 -0.0292
 4934SOL    HW126264   4.084   2.467  13.790 -2.2773  3.0384  0.2549
 4934SOL    HW226265   3.958   2.424  13.730 -0.7970 -1.3139 -2.7297
 4935SOL     OW26266   0.652   0.191   5.217  0.3034 -0.0376 -0.0011
 4935SOL    HW126267   0.668   0.277   5.179 -0.5762  0.5541  0.9715
 4935SOL    HW226268   0.642   0.123   5.150  1.4182  0.1047 -0.3116
 4936SOL     OW26269   2.527   0.370  16.633  0.1471 -0.2757 -0.3045
 4936SOL    HW126270   2.580   0.401  16.560 -2.3325  0.9361 -1.5960
 4936SOL    HW226271   2.485   0.451  16.662  1.0428  0.5764 -1.3952
 4937SOL     OW26272   3.251   2.074   9.396  0.6220  0.2782  0.2585
 4937SOL    HW126273   3.199   2.039   9.468 -0.5839  0.3043 -0.5844
 4937SOL    HW226274   3.319   2.098   9.459  2.8590 -3.0934 -0.8888
 4938SOL     OW26275   3.339   4.403   6.763 -0.0344 -0.1162 -0.3715
 4938SOL    HW126276   3.324   4.349   6.686 -0.6073 -0.7833  0.2051
 4938SOL    HW226277   3.276   4.469   6.734 -1.7001 -0.3394  2.7002
 4939SOL     OW26278   1.987   2.803   9.898 -0.1248 -0.4763  0.3620
 4939SOL    HW126279   2.057   2.743   9.925 -0.7571 -0.7662  1.3315
 4939SOL    HW226280   1.911   2.759   9.936 -0.3208  0.5524  1.1385
 4940SOL     OW26281   0.614   4.595   3.993  0.4558 -0.1193  0.0106
 4940SOL    HW126282   0.582   4.617   3.906 -2.5962  1.4982  1.5602
 4940SOL    HW226283   0.634   4.502   3.987  0.9242 -0.0076 -0.1419
 4941SOL     OW26284   0.175   0.421   1.827  0.6929 -0.1347  0.1192
 4941SOL    HW126285   0.229   0.403   1.904  1.2649  2.2915  0.2695
 4941SOL    HW226286   0.219   0.356   1.771  0.5892  0.0097 -0.1302
 4942SOL     OW26287   2.231   0.279   4.379 -0.8329 -0.8894 -0.4460
 4942SOL    HW126288   2.326   0.265   4.373 -1.0993 -2.3482 -1.0984
 4942SOL    HW226289   2.234   0.373   4.400 -0.3727 -1.1051  0.4510
 4943SOL     OW26290   2.886   1.604   5.526 -0.4560  0.6291 -0.3768
 4943SOL    HW126291   2.887   1.691   5.567 -1.1570  1.2217 -1.6339
 4943SOL    HW226292   2.817   1.562   5.578  0.4886  2.9520  2.8077
 4944SOL     OW26293   1.038   3.062  15.698  0.5468  0.0288  0.0910
 4944SOL    HW126294   0.991   2.980  15.709  1.3741 -0.3420  0.8384
 4944SOL    HW226295   0.977   3.120  15.742  0.4167  0.7475 -1.0289
 4945SOL     OW26296   4.334   1.357   5.728 -0.2121  0.1520 -0.4776
 4945SOL    HW126297   4.400   1.402   5.676  0.8351 -0.1037  0.6043
 4945SOL    HW226298   4.313   1.424   5.793 -1.7387  0.1172 -0.9483
 4946SOL     OW26299   1.201   4.283   0.728 -0.0834  0.5473  1.0768
 4946SOL    HW126300   1.117   4.274   0.772 -1.3683  0.4202 -1.3983
 4946SOL    HW226301   1.256   4.271   0.805  0.3033  0.8601  0.8557
 4947SOL     OW26302   2.983   0.780   3.855 -0.3458  0.4582  0.2527
 4947SOL    HW126303   3.065   0.829   3.846  0.7592 -1.6253 -0.9430
 4947SOL    HW226304   2.932   0.818   3.783 -1.6692 -0.0357  0.9403
 4948SOL     OW26305   2.480   3.804   2.613  0.1717 -0.1281 -0.3766
 4948SOL    HW126306   2.458   3.714   2.588 -1.3791  0.3505 -0.6719
 4948SOL    HW226307   2.478   3.854   2.532 -0.9008  1.4440  0.6192
 4949SOL     OW26308   2.462   1.925   6.153  0.0369 -0.2485  0.0371
 4949SOL    HW126309   2.518   1.903   6.228  0.0329 -3.3545 -0.8825
 4949SOL    HW226310   2.443   2.016   6.176  1.0659 -0.1150  0.3710
 4950SOL     OW26311   1.860   1.573   4.803 -0.3422 -0.3053 -0.3522
 4950SOL    HW126312   1.787   1.518   4.832 -0.8473  1.0042  0.8166
 4950SOL    HW226313   1.824   1.653   4.841 -1.2553 -1.2701  0.8292
 4951SOL     OW26314   0.722   1.939  13.007  0.3631  0.4143  0.0903
 4951SOL    HW126315   0.694   1.939  12.916 -2.1669  1.9880  0.8755
 4951SOL    HW226316   0.701   2.031  13.021 -1.7402 -0.0660  0.1146
 4952SOL     OW26317   4.567   2.393   0.205 -0.3188  0.5141  0.3834
 4952SOL    HW126318   4.592   2.389   0.113 -2.4886 -0.7638 -0.1646
 4952SOL    HW226319   4.638   2.446   0.241 -0.0834  0.4589 -0.0089
 4953SOL     OW26320   2.671   0.843   6.329 -0.5143 -0.5875  0.2925
 4953SOL    HW126321   2.680   0.793   6.248 -0.7961 -0.1382 -0.0164
 4953SOL    HW226322   2.753   0.892   6.336 -0.2482 -0.9752 -0.0966
 4954SOL     OW26323   0.797   3.035   7.052  0.1398 -0.1322 -0.0595
 4954SOL    HW126324   0.742   2.958   7.063 -0.2905  0.1206 -0.4675
 4954SOL    HW226325   0.815   3.067   7.140  1.0871  1.2276 -0.7409
 4955SOL     OW26326   4.020   1.306  16.873  0.6093 -0.0244  0.4033
 4955SOL    HW126327   4.085   1.336  16.936 -0.9982  0.9895  1.5463
 4955SOL    HW226328   3.953   1.374  16.879 -0.5784 -1.2318  0.7310
 4956SOL     OW26329   2.069   1.041  10.491 -0.7497  0.9270 -0.8292
 4956SOL    HW126330   2.084   0.985  10.568 -0.8057  1.7299 -0.2371
 4956SOL    HW226331   2.160   1.039  10.464 -0.5518 -0.3607 -0.0854
 4957SOL     OW26332   4.020   2.032   3.439 -0.0461 -0.0548 -0.0035
 4957SOL    HW126333   4.097   2.081   3.467  0.5979 -2.3185  2.2811
 4957SOL    HW226334   4.056   1.945   3.421  0.1233 -0.2324  1.1783
 4958SOL     OW26335   2.849   2.972   0.032 -0.0729 -0.0824 -0.2287
 4958SOL    HW126336   2.794   2.898   0.008 -0.7446 -0.3982  2.3155
 4958SOL    HW226337   2.881   2.944   0.118  1.3775 -0.9828 -1.0641
 4959SOL     OW26338   1.397   4.155   6.938  0.0979  0.8002  0.1834
 4959SOL    HW126339   1.456   4.201   6.998  1.6544 -3.8706  2.2274
 4959SOL    HW226340   1.439   4.172   6.854  0.7715  2.7657  0.9025
 4960SOL     OW26341   0.076   4.064   7.734  0.1252 -0.2713 -0.5662
 4960SOL    HW126342   0.030   4.146   7.718 -0.5140 -0.7631 -1.3246
 4960SOL    HW226343   0.099   4.070   7.826 -0.7440 -0.8684 -0.3002
 4961SOL     OW26344   3.500   3.788   9.485 -0.3190 -0.1994  0.3423
 4961SOL    HW126345   3.460   3.875   9.494  0.4411  0.2136 -0.2414
 4961SOL    HW226346   3.433   3.728   9.516 -1.1624 -0.8793 -2.8502
 4962SOL     OW26347   3.609   0.976   4.081  0.4038  0.1741  0.1223
 4962SOL    HW126348   3.552   0.899   4.089 -1.8137  1.8088 -0.1567
 4962SOL    HW226349   3.577   1.040   4.144  0.6631  0.1168  0.3101
 4963SOL     OW26350   2.381   4.381   7.971 -0.1275  0.1825  0.6669
 4963SOL    HW126351   2.337   4.366   7.888 -0.3066  0.2421  0.7508
 4963SOL    HW226352   2.368   4.475   7.984  0.3720  0.4954 -1.0807
 4964SOL     OW26353   2.758   3.548   9.052 -0.0952  0.6325  0.1113
 4964SOL    HW126354   2.752   3.609   8.979  0.5757 -0.0753 -0.5442
 4964SOL    HW226355   2.846   3.517   9.032 -0.4159 -1.0002  1.2299
 4965SOL     OW26356   0.956   3.265   8.266  0.1023 -0.1906  0.1787
 4965SOL    HW126357   0.999   3.191   8.224 -0.5807  0.2469 -1.2973
 4965SOL    HW226358   0.908   3.224   8.338 -0.7793  1.9013  0.7780
 4966SOL     OW26359   1.460   2.439  11.723 -0.2667 -0.7689  0.6367
 4966SOL    HW126360   1.520   2.512  11.705 -0.2223 -0.8891  0.3049
 4966SOL    HW226361   1.391   2.451  11.658  1.0013  1.6454 -0.2654
 4967SOL     OW26362   4.415   0.721  17.412 -0.3363  0.4777  0.1410
 4967SOL    HW126363   4.457   0.755  17.333  1.8694  1.5385  1.7832
 4967SOL    HW226364   4.466   0.759  17.483 -1.2022  3.3384 -0.7928
 4968SOL     OW26365   2.824   0.536   8.232 -0.5177 -0.0874  0.0244
 4968SOL    HW126366   2.878   0.515   8.156  0.7105 -0.7230  1.0793
 4968SOL    HW226367   2.882   0.493   8.295  0.8733  0.2580 -1.0409
 4969SOL     OW26368   0.743   1.029  10.030 -0.6997  0.1975 -0.1258
 4969SOL    HW126369   0.745   1.097  10.097 -0.7600 -2.2113  2.3450
 4969SOL    HW226370   0.779   1.074   9.955  1.0945 -0.2178  0.4883
 4970SOL     OW26371   4.359   3.015   3.345  0.2677  0.0436  0.2873
 4970SOL    HW126372   4.321   3.094   3.383  3.2801  1.8037 -0.3896
 4970SOL    HW226373   4.292   2.948   3.358 -1.0813  1.3023 -0.2220
 4971SOL     OW26374   1.312   0.452   9.546  0.2280 -0.0750  0.3210
 4971SOL    HW126375   1.342   0.363   9.528 -0.5313 -0.2083 -0.2831
 4971SOL    HW226376   1.386   0.482   9.598  1.7215  2.4457 -3.2795
 4972SOL     OW26377   2.039   1.882   4.903  0.5189 -0.7043  0.2649
 4972SOL    HW126378   2.035   1.834   4.820  0.5556 -1.6766  0.8293
 4972SOL    HW226379   2.127   1.858   4.931  1.2176  2.2013  0.5780
 4973SOL     OW26380   4.113   2.399   7.758  0.0370 -0.3598 -0.0649
 4973SOL    HW126381   4.117   2.305   7.740  0.5423 -0.3486 -0.0350
 4973SOL    HW226382   4.200   2.427   7.789 -0.7279 -0.4180  2.1043
 4974SOL     OW26383   4.381   0.496   5.206  0.4633  0.3538 -0.0607
 4974SOL    HW126384   4.338   0.486   5.121 -1.6056  1.5815  0.8288
 4974SOL    HW226385   4.438   0.570   5.188  0.7538  0.0152 -0.5471
 4975SOL     OW26386   0.812   3.348   9.721  0.1893  0.2705  0.5850
 4975SOL    HW126387   0.854   3.331   9.805  1.2775  0.8360  0.1553
 4975SOL    HW226388   0.812   3.259   9.688  3.1970  0.7185 -0.5933
 4976SOL     OW26389   0.852   0.543   8.083 -0.0494 -0.1650 -0.0552
 4976SOL    HW126390   0.916   0.597   8.130 -1.0206 -2.5331  3.9857
 4976SOL    HW226391   0.787   0.515   8.147 -0.4606  0.2831 -0.2712
 4977SOL     OW26392   0.595   1.082  10.636  0.2430 -0.3267 -0.5384
 4977SOL    HW126393   0.653   1.152  10.606  1.1180 -1.6158 -1.8486
 4977SOL    HW226394   0.572   1.116  10.722  1.4864 -1.7148  0.3394
 4978SOL     OW26395   2.369   1.504   2.012 -0.0681 -0.0193  0.2214
 4978SOL    HW126396   2.352   1.598   2.008 -3.7960 -0.7782 -1.7762
 4978SOL    HW226397   2.378   1.486   1.918  1.9193 -0.6724  0.5458
 4979SOL     OW26398   0.495   0.182   1.429  0.6027  0.2213  0.1066
 4979SOL    HW126399   0.582   0.145   1.414  0.7461  0.4760  0.3096
 4979SOL    HW226400   0.499   0.265   1.383  0.2361  0.4041  0.3967
 4980SOL     OW26401   4.148   4.089   2.136 -0.0046 -0.0720  0.0718
 4980SOL    HW126402   4.090   4.122   2.067 -2.8122 -2.3419  1.3602
 4980SOL    HW226403   4.195   4.169   2.160  0.8719 -0.2725 -0.9617
 4981SOL     OW26404   0.044   1.147   3.747  0.3829 -0.2019 -0.4420
 4981SOL    HW126405   4.707   1.165   3.674  0.9402 -0.4966 -0.9696
 4981SOL    HW226406   4.705   1.151   3.820  2.5827 -2.0496  1.5189
 4982SOL     OW26407   2.380   2.763  12.969  0.0126 -0.1091  0.4028
 4982SOL    HW126408   2.390   2.683  12.916  1.0373  1.6483 -2.0500
 4982SOL    HW226409   2.414   2.835  12.916 -0.7118 -0.0835 -0.0369
 4983SOL     OW26410   2.762   1.358   1.209 -0.3382  0.2657  0.8441
 4983SOL    HW126411   2.759   1.440   1.257 -3.9985  0.6388 -0.0336
 4983SOL    HW226412   2.682   1.375   1.159  0.2846  3.7774  1.0697
 4984SOL     OW26413   3.119   3.335   4.927 -0.0334 -0.0854  0.2710
 4984SOL    HW126414   3.183   3.372   4.865  0.3688 -1.8551 -0.3843
 4984SOL    HW226415   3.184   3.309   4.992 -0.4617 -0.2938  0.6128
 4985SOL     OW26416   1.994   4.503   0.849 -0.0159  0.4773 -0.2987
 4985SOL    HW126417   1.912   4.542   0.818 -0.5570 -0.7393 -0.4122
 4985SOL    HW226418   2.032   4.485   0.763  0.0157  1.3191 -0.4631
 4986SOL     OW26419   4.281   0.443   4.946  0.2086 -0.1903  0.1411
 4986SOL    HW126420   4.355   0.472   4.892 -0.6639  0.8884 -0.4594
 4986SOL    HW226421   4.223   0.417   4.875 -1.6167  1.9920  0.8640
 4987SOL     OW26422   3.857   3.787   0.098  0.0698 -0.2981 -0.0532
 4987SOL    HW126423   3.922   3.817   0.034  1.3518 -1.1163  0.8732
 4987SOL    HW226424   3.833   3.869   0.141 -1.3267 -0.7598  0.0443
 4988SOL     OW26425   4.553   3.078   3.812 -0.0090 -0.0442 -0.5045
 4988SOL    HW126426   4.627   3.061   3.754  0.3536  0.9234 -0.3242
 4988SOL    HW226427   4.504   2.995   3.806  0.4912 -0.3569 -0.1770
 4989SOL     OW26428   2.639   2.908   8.980 -0.1523 -1.3936  0.0038
 4989SOL    HW126429   2.600   2.994   8.964  1.7904 -0.5299 -0.0921
 4989SOL    HW226430   2.719   2.907   8.929 -0.6550  1.4902 -0.8380
 4990SOL     OW26431   0.766   2.054  12.661  0.1267  0.4327 -0.4568
 4990SOL    HW126432   0.717   1.984  12.618 -0.7073  1.0032 -0.4396
 4990SOL    HW226433   0.854   2.030  12.633 -0.1791  0.5756 -1.5463
 4991SOL     OW26434   2.925   1.128   7.559  0.0935 -0.6857 -0.0977
 4991SOL    HW126435   2.989   1.057   7.554  2.3968  1.4351 -0.4741
 4991SOL    HW226436   2.982   1.205   7.563 -0.2865 -0.4528  0.9577
 4992SOL     OW26437   1.196   0.319   3.624 -0.0868 -0.2530  0.1554
 4992SOL    HW126438   1.151   0.361   3.551 -0.3056  0.2219  0.5688
 4992SOL    HW226439   1.120   0.279   3.666 -0.4149  0.0860 -0.1199
 4993SOL     OW26440   1.054   4.678   8.534 -0.2555  0.0660 -0.1088
 4993SOL    HW126441   0.980   0.003   8.496  0.0712  2.3527  2.1667
 4993SOL    HW226442   1.038   4.672   8.628 -0.4318 -2.5199 -0.2995
 4994SOL     OW26443   2.305   1.034   3.664  0.4389  0.0961 -0.3062
 4994SOL    HW126444   2.312   0.939   3.659 -1.1151 -0.0650  0.5118
 4994SOL    HW226445   2.311   1.062   3.573 -0.6735 -0.3475 -0.5145
 4995SOL     OW26446   4.501   2.170   2.944  0.1416 -0.2202 -0.6110
 4995SOL    HW126447   4.525   2.245   2.999 -1.9518 -0.0339  0.0398
 4995SOL    HW226448   4.576   2.113   2.961  0.3143 -0.2651 -1.5261
 4996SOL     OW26449   2.965   2.317   3.513  0.0206 -0.0085  0.4838
 4996SOL    HW126450   2.877   2.285   3.529 -0.3336 -0.6938 -2.8187
 4996SOL    HW226451   2.953   2.379   3.441 -1.5312 -0.8331  0.0343
 4997SOL     OW26452   4.022   1.909   5.625  0.1827  0.2948 -0.2251
 4997SOL    HW126453   4.011   1.872   5.712  0.2458 -2.1804 -1.2575
 4997SOL    HW226454   3.958   1.865   5.568 -1.1078  2.1895 -0.2249
 4998SOL     OW26455   3.277   0.216  15.450 -0.1938  0.2772 -0.1236
 4998SOL    HW126456   3.315   0.294  15.408  0.0237 -0.5277 -1.4131
 4998SOL    HW226457   3.351   0.196  15.508 -1.9635 -1.6932  1.4342
 4999SOL     OW26458   3.569   2.379   1.160 -0.5461  0.8121 -0.1856
 4999SOL    HW126459   3.588   2.436   1.086 -0.5616  1.0917  0.0267
 4999SOL    HW226460   3.511   2.425   1.221 -0.1423  1.0837 -0.0100
 5000SOL     OW26461   0.682   0.386   9.272 -0.3200  0.5381 -0.4379
 5000SOL    HW126462   0.591   0.358   9.263 -0.4419  0.8664 -0.2147
 5000SOL    HW226463   0.729   0.307   9.245  2.3064  2.5612 -1.7733
 5001SOL     OW26464   1.277   3.219  10.821 -0.0820  0.5034  0.2166
 5001SOL    HW126465   1.225   3.148  10.784  0.4766  0.9905 -1.5103
 5001SOL    HW226466   1.308   3.167  10.896  0.0119  1.7860  1.0574
 5002SOL     OW26467   1.784   4.355   9.304 -0.4582  0.5422 -0.3229
 5002SOL    HW126468   1.778   4.364   9.399  3.4038  2.0813 -0.2180
 5002SOL    HW226469   1.769   4.261   9.290 -1.3385  0.9206 -1.7793
 5003SOL     OW26470   2.289   0.620   8.072 -0.5413  0.4322 -0.2067
 5003SOL    HW126471   2.361   0.617   8.134 -0.5669 -1.1028 -0.2496
 5003SOL    HW226472   2.219   0.625   8.137 -0.5578 -0.7238 -0.1321
 5004SOL     OW26473   1.611   3.510   8.092 -0.0806 -0.0140  0.2821
 5004SOL    HW126474   1.616   3.434   8.034  0.9081  0.1552  0.1496
 5004SOL    HW226475   1.581   3.484   8.179 -1.0120 -1.7620 -0.5564
 5005SOL     OW26476   3.734   3.342   7.384  0.3116 -0.4305  0.3628
 5005SOL    HW126477   3.821   3.325   7.420  0.1799  0.5237  1.1153
 5005SOL    HW226478   3.713   3.277   7.316 -1.1511  1.1555 -0.6855
 5006SOL     OW26479   1.202   0.224   8.432  0.0841  0.4335 -0.8765
 5006SOL    HW126480   1.130   0.229   8.369  0.6270 -0.3127 -1.5562
 5006SOL    HW226481   1.160   0.176   8.504  0.7277  1.5270  0.2226
 5007SOL     OW26482   3.689   0.758   7.215  0.2904  0.0155 -0.2060
 5007SOL    HW126483   3.622   0.823   7.236  0.6808  0.6060 -0.7850
 5007SOL    HW226484   3.688   0.776   7.121 -3.4095 -1.3028 -0.4286
 5008SOL     OW26485   0.945   4.554   3.803 -0.1214  0.0614 -0.0764
 5008SOL    HW126486   0.944   4.565   3.898 -1.2767 -0.8914  0.0127
 5008SOL    HW226487   1.031   4.596   3.794 -1.1258  2.0066 -0.5323
 5009SOL     OW26488   2.195   3.245   5.547 -0.0971  0.1257 -0.5996
 5009SOL    HW126489   2.192   3.300   5.468 -0.2023 -0.8352 -1.2598
 5009SOL    HW226490   2.256   3.176   5.520 -0.6196  0.0053 -1.4861
 5010SOL     OW26491   3.200   0.260   9.510 -0.1570  0.5947  0.5138
 5010SOL    HW126492   3.190   0.202   9.435 -0.9743  1.0668  0.2497
 5010SOL    HW226493   3.286   0.237   9.544 -0.3359 -1.6496 -0.6038
 5011SOL     OW26494   0.954   4.051   1.384 -0.0546 -0.7377  0.6810
 5011SOL    HW126495   0.980   3.970   1.341  1.5351 -0.3805  0.9668
 5011SOL    HW226496   0.882   4.022   1.439  1.2238 -3.3226  0.9581
 5012SOL     OW26497   0.912   3.133   7.756 -0.5074  0.1903  0.0854
 5012SOL    HW126498   0.887   3.059   7.812 -1.6941  0.3365 -0.2504
 5012SOL    HW226499   0.990   3.095   7.716 -0.8330  0.1766 -0.5333
 5013SOL     OW26500   1.483   4.551   8.785  0.3120 -0.4613  0.1505
 5013SOL    HW126501   1.443   4.468   8.809  1.9200 -1.8061 -1.7354
 5013SOL    HW226502   1.573   4.543   8.819  0.5138  0.8376 -0.0785
 5014SOL     OW26503   1.700   1.145   5.931  0.5208 -0.5519 -0.0311
 5014SOL    HW126504   1.749   1.064   5.915  1.3764 -0.0482  0.0596
 5014SOL    HW226505   1.726   1.210   5.866  1.0294 -1.9627 -1.2472
 5015SOL     OW26506   2.732   1.652   7.416 -0.1344 -0.3312  0.1927
 5015SOL    HW126507   2.643   1.674   7.440 -0.5236 -1.5452 -0.1233
 5015SOL    HW226508   2.762   1.631   7.504  0.3653  0.5015  0.2208
 5016SOL     OW26509   4.420   4.618   6.587 -0.2659 -0.2683 -0.3982
 5016SOL    HW126510   4.513   4.639   6.582 -0.7460  2.1989  1.4860
 5016SOL    HW226511   4.386   4.689   6.641  0.2451 -1.5217  1.5388
 5017SOL     OW26512   3.206   1.812   0.321 -0.1679 -0.2527 -0.1849
 5017SOL    HW126513   3.202   1.745   0.252  1.1465 -1.7056  1.1461
 5017SOL    HW226514   3.119   1.819   0.360 -0.0170 -0.1162  0.1302
 5018SOL     OW26515   2.168   3.646   3.233 -0.4404  0.3559 -0.3309
 5018SOL    HW126516   2.212   3.620   3.152  0.5217 -0.5902  0.4939
 5018SOL    HW226517   2.174   3.741   3.221 -1.0226  0.2756 -1.2530
 5019SOL     OW26518   4.230   4.204   0.175 -0.2881  0.1878 -0.4757
 5019SOL    HW126519   4.266   4.161   0.252  1.8184  1.8406 -0.5203
 5019SOL    HW226520   4.292   4.276   0.164 -0.2607  0.1736 -0.4141
 5020SOL     OW26521   0.895   1.250  14.850 -0.5352  0.8722  0.1148
 5020SOL    HW126522   0.874   1.327  14.901  1.6712  1.2730  0.4084
 5020SOL    HW226523   0.821   1.195  14.877 -0.4908 -0.8015 -3.1467
 5021SOL     OW26524   3.072   1.167   5.730  0.7476  0.1781 -0.1277
 5021SOL    HW126525   3.110   1.079   5.735 -2.1073 -0.9278  2.6069
 5021SOL    HW226526   3.087   1.208   5.815  1.5453 -1.5619  0.5752
 5022SOL     OW26527   3.379   1.860   6.776 -0.4384  0.3258  0.1681
 5022SOL    HW126528   3.423   1.920   6.836 -0.8038  0.0686  0.6941
 5022SOL    HW226529   3.345   1.803   6.845 -1.0044 -2.0573 -2.1017
 5023SOL     OW26530   3.336   2.903  16.341  0.3341  0.0088  0.1278
 5023SOL    HW126531   3.345   2.978  16.400 -0.2965  0.9452 -0.9610
 5023SOL    HW226532   3.305   2.958  16.269  0.6071  0.9875  0.7416
 5024SOL     OW26533   0.290   0.308   3.987 -0.1783  0.2169  0.7203
 5024SOL    HW126534   0.296   0.371   4.059  0.1339  0.1063  0.7900
 5024SOL    HW226535   0.377   0.300   3.949 -0.6172  1.6235 -0.6038
 5025SOL     OW26536   4.405   3.594   4.256 -0.4968 -0.0694  0.4024
 5025SOL    HW126537   4.486   3.544   4.269 -0.0512  0.1098 -1.5821
 5025SOL    HW226538   4.362   3.545   4.185 -2.3518  1.9883  0.1330
 5026SOL     OW26539   0.111   4.294  13.369  0.2609  0.1924  0.3222
 5026SOL    HW126540   0.185   4.354  13.360 -0.3295  1.1828  2.0527
 5026SOL    HW226541   0.138   4.215  13.322  0.6597  0.1174  0.6839
 5027SOL     OW26542   1.323   2.752   5.911  0.2998 -0.8897 -0.0708
 5027SOL    HW126543   1.416   2.774   5.919  0.1977 -0.6657  0.4997
 5027SOL    HW226544   1.275   2.834   5.920 -0.4714 -1.6991  3.3694
 5028SOL     OW26545   4.260   1.581   0.907 -0.2996  0.2634  0.5360
 5028SOL    HW126546   4.201   1.507   0.899  0.3650 -0.3419  1.1696
 5028SOL    HW226547   4.280   1.591   0.814 -1.1197 -1.6903  0.1590
 5029SOL     OW26548   3.872   0.535   4.521  0.1793  0.1848  0.1137
 5029SOL    HW126549   3.813   0.460   4.521 -2.2335  2.0690 -0.7148
 5029SOL    HW226550   3.835   0.587   4.449  1.4936 -1.6603 -1.8905
 5030SOL     OW26551   0.296   2.481   4.235 -0.4481 -0.4107 -0.3627
 5030SOL    HW126552   0.312   2.394   4.272 -0.9308 -0.1497  0.4434
 5030SOL    HW226553   0.363   2.528   4.286 -1.1616 -0.0655  0.2578
 5031SOL     OW26554   2.686   3.685   4.571  0.9830 -0.2766  0.3746
 5031SOL    HW126555   2.645   3.705   4.487 -0.8003 -1.2096  1.0312
 5031SOL    HW226556   2.698   3.777   4.595 -0.2930 -0.6634  2.5670
 5032SOL     OW26557   4.155   3.353   6.967 -0.6197  0.3706  0.2151
 5032SOL    HW126558   4.190   3.368   6.879 -1.0615  0.2689  0.0208
 5032SOL    HW226559   4.113   3.272   6.938  1.0790 -0.6061  0.5114
 5033SOL     OW26560   3.902   1.172   7.670  0.1166 -0.0681  0.3344
 5033SOL    HW126561   3.982   1.215   7.698  1.5587 -2.9711  0.7183
 5033SOL    HW226562   3.898   1.128   7.755  0.4816 -2.0522 -0.6723
 5034SOL     OW26563   1.237   1.888   5.263  0.6794  0.1887  0.2955
 5034SOL    HW126564   1.163   1.930   5.218 -0.0449 -2.2908 -0.8067
 5034SOL    HW226565   1.264   1.827   5.195 -1.8820  0.2417 -0.7694
 5035SOL     OW26566   4.689   2.429   4.745  0.1889 -0.1867 -0.2551
 5035SOL    HW126567   4.683   2.510   4.797 -0.4818  0.7570 -1.8110
 5035SOL    HW226568   4.595   2.417   4.735  0.3433 -0.3887 -1.4313
 5036SOL     OW26569   3.417   2.121  11.981  0.4549 -0.1649  0.5217
 5036SOL    HW126570   3.500   2.094  11.941 -0.8875 -2.3032 -0.7523
 5036SOL    HW226571   3.440   2.152  12.069  2.5016 -1.0255  0.2872
 5037SOL     OW26572   3.916   3.621   6.086 -0.1133  0.0674  0.0964
 5037SOL    HW126573   3.937   3.671   6.165 -0.4365 -0.9538  0.8226
 5037SOL    HW226574   3.958   3.537   6.102  2.7397  1.4536 -0.1216
 5038SOL     OW26575   4.410   3.704  13.811  0.0954 -0.5746  0.4734
 5038SOL    HW126576   4.423   3.614  13.841 -0.8149 -1.1251 -0.7825
 5038SOL    HW226577   4.488   3.723  13.759 -0.3314  0.1795  0.1040
 5039SOL     OW26578   1.469   0.892   4.257 -0.6597  0.3806  0.5099
 5039SOL    HW126579   1.506   0.877   4.343  0.4087 -2.6579 -0.4726
 5039SOL    HW226580   1.510   0.820   4.208 -3.0580 -0.8479  0.2946
 5040SOL     OW26581   2.577   2.808   6.758  0.3885 -0.2472  0.1847
 5040SOL    HW126582   2.545   2.822   6.847 -1.9023  0.3588 -0.7353
 5040SOL    HW226583   2.567   2.896   6.722 -0.3765 -1.8404 -3.4300
 5041SOL     OW26584   0.668   2.085  16.954  0.1076 -0.1908 -0.5644
 5041SOL    HW126585   0.573   2.084  16.938  0.1122 -1.8293 -0.5740
 5041SOL    HW226586   0.700   2.097  16.864 -1.3438 -0.7767 -1.1753
 5042SOL     OW26587   4.659   4.230   7.287 -0.1041 -0.3523 -0.3193
 5042SOL    HW126588   4.639   4.311   7.239  1.5528  0.9328  1.1486
 5042SOL    HW226589   4.650   4.269   7.374 -0.5940 -0.7884 -0.1734
 5043SOL     OW26590   3.289   2.608   1.212  0.2998 -0.0588 -0.0139
 5043SOL    HW126591   3.305   2.541   1.278 -2.1382 -1.1986 -0.5660
 5043SOL    HW226592   3.219   2.657   1.256 -0.1781 -2.2545  1.6814
 5044SOL     OW26593   2.464   2.702   8.756  0.3425 -0.3332  0.6588
 5044SOL    HW126594   2.447   2.742   8.842 -0.0339  1.1747 -0.1216
 5044SOL    HW226595   2.510   2.621   8.778 -1.2735 -1.1662  0.9828
 5045SOL     OW26596   0.446   3.473   7.265 -0.8160 -0.0597  0.2677
 5045SOL    HW126597   0.488   3.387   7.266  0.1644  0.4208  0.5995
 5045SOL    HW226598   0.360   3.452   7.301 -0.7256 -1.0836 -0.1214
 5046SOL     OW26599   4.340   2.478   3.913  0.7911 -0.5206 -0.2597
 5046SOL    HW126600   4.280   2.527   3.969  1.6068 -1.0039  1.0248
 5046SOL    HW226601   4.290   2.494   3.833  1.4241 -2.0369 -0.9519
 5047SOL     OW26602   4.330   2.711  16.179 -0.5433 -0.1635  0.0528
 5047SOL    HW126603   4.302   2.786  16.126  1.2481  0.9723  0.6844
 5047SOL    HW226604   4.422   2.730  16.198 -0.2929 -1.3221 -0.0080
 5048SOL     OW26605   0.757   2.731   8.209 -0.3392 -0.0531  0.2442
 5048SOL    HW126606   0.851   2.725   8.223 -0.5584 -1.3620  1.1339
 5048SOL    HW226607   0.727   2.640   8.206 -0.4385 -0.1507  5.0728
 5049SOL     OW26608   2.003   3.752   7.723 -0.5387  0.1690 -0.0059
 5049SOL    HW126609   1.961   3.695   7.660 -0.8500  0.5238 -0.1193
 5049SOL    HW226610   2.097   3.744   7.704 -0.9241 -1.9431 -0.9401
 5050SOL     OW26611   2.192   3.975   3.637 -0.1318 -0.2782  0.2096
 5050SOL    HW126612   2.141   3.985   3.557  0.6988 -1.7751 -0.4956
 5050SOL    HW226613   2.276   3.969   3.592 -0.2966  0.9902 -0.2656
 5051SOL     OW26614   1.085   2.669   0.076  0.0264  0.1629 -0.4802
 5051SOL    HW126615   1.016   2.622   0.029 -1.3267  0.4051  1.2945
 5051SOL    HW226616   1.064   2.650   0.167 -1.5318 -0.4562 -0.9700
 5052SOL     OW26617   1.152   0.203   2.007  0.2201  0.2797  0.7179
 5052SOL    HW126618   1.086   0.181   1.941 -0.0126  1.6947  0.4807
 5052SOL    HW226619   1.112   0.277   2.052  0.9714 -0.4535  2.5741
 5053SOL     OW26620   1.998   0.738  14.250 -0.1828 -0.2608 -0.3518
 5053SOL    HW126621   1.940   0.735  14.174 -1.4879  1.2229  0.5989
 5053SOL    HW226622   2.080   0.741  14.202 -0.0931 -1.7396 -0.3068
 5054SOL     OW26623   1.728   2.635   8.177  0.0714  0.2678  0.5392
 5054SOL    HW126624   1.718   2.724   8.144  0.8288 -0.2319 -1.0565
 5054SOL    HW226625   1.689   2.659   8.261 -1.2893 -0.1876  0.0431
 5055SOL     OW26626   2.563   1.107   4.053 -0.2332  0.1007  0.2573
 5055SOL    HW126627   2.478   1.096   4.095 -0.3604 -0.6965 -0.1983
 5055SOL    HW226628   2.538   1.163   3.980  1.8378  0.5429 -0.1292
 5056SOL     OW26629   1.632   0.934   2.295 -0.5322  0.1441 -0.8472
 5056SOL    HW126630   1.539   0.948   2.316 -0.0290  0.0079  1.5411
 5056SOL    HW226631   1.663   1.022   2.271 -1.0565  0.5333 -0.1034
 5057SOL     OW26632   3.964   2.284   1.695 -0.1997  0.3058 -0.3406
 5057SOL    HW126633   3.904   2.355   1.674 -0.1595  0.3333 -0.3638
 5057SOL    HW226634   4.021   2.325   1.761  1.6556 -0.4565 -1.4532
 5058SOL     OW26635   2.160   0.947   6.092 -0.5971  0.0456  0.2204
 5058SOL    HW126636   2.106   0.879   6.132  0.7674 -1.2702 -0.2065
 5058SOL    HW226637   2.222   0.901   6.037  1.4349  0.5509  2.0698
 5059SOL     OW26638   3.848   2.499   5.722 -0.1258 -0.0424 -0.2259
 5059SOL    HW126639   3.865   2.442   5.797 -1.8487  0.1486  0.3151
 5059SOL    HW226640   3.794   2.440   5.670  0.3072 -1.6107  1.0968
 5060SOL     OW26641   4.145   1.356   2.612 -0.2844  0.1966  0.2275
 5060SOL    HW126642   4.193   1.277   2.587 -1.4928 -0.7409  0.8564
 5060SOL    HW226643   4.071   1.311   2.652  0.7112  0.2549  2.1442
 5061SOL     OW26644   4.639   3.237   7.737  0.5230  0.6835  0.1169
 5061SOL    HW126645   4.548   3.246   7.710  0.1216  0.1971  1.3530
 5061SOL    HW226646   4.661   3.323   7.773 -4.2559  2.2648 -0.7937
 5062SOL     OW26647   2.834   4.112   2.451  0.2261  0.2894 -0.2320
 5062SOL    HW126648   2.739   4.115   2.434  0.2361  0.4456 -0.2588
 5062SOL    HW226649   2.841   4.187   2.509 -0.5189  0.9492 -0.9862
 5063SOL     OW26650   2.092   1.212   2.686 -0.8100  0.0355  0.3481
 5063SOL    HW126651   2.119   1.197   2.595  1.1767  0.9497  0.7776
 5063SOL    HW226652   2.133   1.140   2.734 -1.1695  0.2984  1.0384
 5064SOL     OW26653   3.213   0.798  10.394 -0.6200 -0.6964  0.1842
 5064SOL    HW126654   3.305   0.796  10.421  0.1918  0.4733 -2.5867
 5064SOL    HW226655   3.190   0.858  10.465 -0.6754 -0.7831  0.2397
 5065SOL     OW26656   2.847   4.074   7.650  0.4341 -0.0862 -0.0290
 5065SOL    HW126657   2.784   4.095   7.581 -1.2240 -1.1885  1.1627
 5065SOL    HW226658   2.925   4.115   7.613 -1.1388  0.6993 -2.5193
 5066SOL     OW26659   1.367   3.813   2.420 -0.0576  0.3702 -0.3427
 5066SOL    HW126660   1.383   3.846   2.508  1.4516 -1.4469  0.0519
 5066SOL    HW226661   1.281   3.851   2.404 -0.2129  0.0917 -0.1774
 5067SOL     OW26662   0.569   2.806   5.484 -0.0089  0.4991 -0.2221
 5067SOL    HW126663   0.495   2.751   5.458  0.1381  0.5291 -0.6912
 5067SOL    HW226664   0.560   2.802   5.580  1.5228  0.3620 -0.0800
 5068SOL     OW26665   4.524   1.344   6.670 -0.3781 -0.1612 -0.6212
 5068SOL    HW126666   4.455   1.303   6.722  1.2297 -0.5492  1.2056
 5068SOL    HW226667   4.479   1.417   6.628 -0.7447  0.1199  0.2456
 5069SOL     OW26668   4.359   3.231  12.927  0.1705  0.1857 -0.9439
 5069SOL    HW126669   4.324   3.227  12.838  0.0292  0.8497 -0.9198
 5069SOL    HW226670   4.358   3.325  12.944 -0.2807 -0.1111  0.6403
 5070SOL     OW26671   2.407   2.341   3.702  0.2157  0.5241 -1.1489
 5070SOL    HW126672   2.311   2.333   3.702  0.2277  0.3944 -1.2014
 5070SOL    HW226673   2.427   2.254   3.669  1.1036  0.5845 -0.7542
 5071SOL     OW26674   2.460   2.499  13.164  0.5621 -0.1165 -0.2554
 5071SOL    HW126675   2.425   2.410  13.165  0.6092 -0.1426 -0.6271
 5071SOL    HW226676   2.499   2.504  13.076  0.8848 -2.2138 -0.2311
 5072SOL     OW26677   4.272   3.551   1.587  0.2544 -0.1302  0.2188
 5072SOL    HW126678   4.366   3.568   1.595  0.2853 -1.0587  1.7764
 5072SOL    HW226679   4.260   3.457   1.598 -0.7549 -0.4453 -3.3877
 5073SOL     OW26680   2.897   1.543  12.127 -0.4482 -0.8493  0.0020
 5073SOL    HW126681   2.931   1.461  12.163  1.9816 -1.3526 -3.4133
 5073SOL    HW226682   2.802   1.529  12.131 -0.4620 -0.9620 -0.7790
 5074SOL     OW26683   3.160   2.333  12.113  0.0455 -0.6035  0.3494
 5074SOL    HW126684   3.123   2.316  12.200 -1.3657  1.1580  0.0943
 5074SOL    HW226685   3.124   2.255  12.069 -1.2315  0.3071 -0.2454
 5075SOL     OW26686   1.758   2.350  13.765  0.0642 -0.5842 -0.4254
 5075SOL    HW126687   1.772   2.337  13.859 -2.2960  2.6262  0.3530
 5075SOL    HW226688   1.844   2.376  13.732 -0.4293  0.1917 -1.0956
 5076SOL     OW26689   4.045   1.766   3.323 -0.0062 -0.0093  0.4677
 5076SOL    HW126690   4.034   1.718   3.241 -0.0849 -0.9152  0.9975
 5076SOL    HW226691   3.967   1.744   3.374 -1.3691 -0.1036 -1.7050
 5077SOL     OW26692   0.246   4.234  17.411 -0.0594  0.3256 -0.2931
 5077SOL    HW126693   0.288   4.285  17.479 -1.6652  0.4932  0.5656
 5077SOL    HW226694   0.201   4.305  17.365 -0.6857  1.1784  1.6811
 5078SOL     OW26695   2.193   2.985   4.579  0.3422  0.3130 -0.3409
 5078SOL    HW126696   2.183   3.008   4.486 -0.4960  1.1228 -0.0450
 5078SOL    HW226697   2.271   2.930   4.573 -0.6554 -1.1669  0.2107
 5079SOL     OW26698   2.184   3.643  16.790 -0.1279 -0.6799  0.5222
 5079SOL    HW126699   2.268   3.682  16.768 -0.4618 -0.0628  0.3290
 5079SOL    HW226700   2.176   3.669  16.881  1.5124 -0.1531  0.5021
 5080SOL     OW26701   2.137   4.460   8.576 -0.0796  0.6446 -0.0629
 5080SOL    HW126702   2.189   4.381   8.583  1.3807  1.6423  0.4223
 5080SOL    HW226703   2.167   4.515   8.649 -1.4305  0.1625  0.8493
 5081SOL     OW26704   2.443   3.746  11.533  0.0827  0.0665  0.0698
 5081SOL    HW126705   2.399   3.739  11.617  1.3526  0.4227  0.7712
 5081SOL    HW226706   2.473   3.837  11.533 -0.9777  0.3994  1.2527
 5082SOL     OW26707   2.313   4.440   5.040 -0.9235 -0.1570 -0.1522
 5082SOL    HW126708   2.393   4.488   5.061 -1.2054  0.7145 -1.1027
 5082SOL    HW226709   2.261   4.510   5.080  0.5466  0.4986  0.6343
 5083SOL     OW26710   0.556   1.281  12.394  0.2737  0.0199  0.2926
 5083SOL    HW126711   0.474   1.295  12.442 -0.0699 -2.3927  0.3868
 5083SOL    HW226712   0.555   1.346  12.323 -2.1405  0.4922  0.7654
 5084SOL     OW26713   0.045   0.425   5.026  0.5714  0.2151 -0.0874
 5084SOL    HW126714   4.699   0.412   5.091 -0.6474  2.0216 -1.0214
 5084SOL    HW226715   4.705   0.431   4.954  0.5005  1.7863  0.0986
 5085SOL     OW26716   2.926   3.626   8.533  0.3745 -0.0076 -0.1570
 5085SOL    HW126717   2.855   3.610   8.470  0.7046  2.1977 -1.1122
 5085SOL    HW226718   2.891   3.702   8.580  2.7150  0.8338  0.2352
 5086SOL     OW26719   3.407   4.051   4.891 -0.3561  0.2830 -0.1491
 5086SOL    HW126720   3.437   4.127   4.841 -0.2802  0.1324 -0.3357
 5086SOL    HW226721   3.313   4.061   4.875 -0.9475 -1.0299  2.5397
 5087SOL     OW26722   0.782   0.566   2.950  0.1159 -0.2540 -0.1186
 5087SOL    HW126723   0.752   0.508   2.880 -1.1102 -0.7344  0.7999
 5087SOL    HW226724   0.726   0.639   2.924  1.2485  1.0073  0.9780
 5088SOL     OW26725   3.209   0.627   2.357  0.0631 -0.4084  0.2455
 5088SOL    HW126726   3.127   0.671   2.381  2.1381  0.3678  5.9807
 5088SOL    HW226727   3.235   0.662   2.272  2.0993  0.0633  1.0712
 5089SOL     OW26728   2.638   0.302   4.713 -0.5715 -0.1801  0.0229
 5089SOL    HW126729   2.579   0.284   4.786  1.1544  0.9231  1.6775
 5089SOL    HW226730   2.568   0.338   4.659 -1.5067 -0.4125  1.0786
 5090SOL     OW26731   4.546   0.814  17.178 -0.0397 -0.0221 -0.1382
 5090SOL    HW126732   4.641   0.823  17.166 -0.1363 -0.0491 -0.9212
 5090SOL    HW226733   4.524   0.757  17.105 -2.6572  1.0870 -0.2146
 5091SOL     OW26734   0.203   1.376   5.922 -0.7476 -0.9022 -0.0294
 5091SOL    HW126735   0.244   1.431   5.855  1.0812 -2.8960 -0.5591
 5091SOL    HW226736   0.126   1.348   5.874 -0.2363  0.8541 -1.8686
 5092SOL     OW26737   2.043   2.236  16.551 -0.6755 -0.7051 -0.6253
 5092SOL    HW126738   1.958   2.219  16.510 -0.8815  0.3375 -0.6285
 5092SOL    HW226739   2.015   2.235  16.643 -2.3163  3.1918 -1.0855
 5093SOL     OW26740   4.004   1.676   5.303 -0.5627 -0.2556  0.5167
 5093SOL    HW126741   3.935   1.739   5.327 -1.7950 -0.6853 -1.8579
 5093SOL    HW226742   4.031   1.635   5.385 -2.9097  1.1751  2.0070
 5094SOL     OW26743   3.395   0.570   7.786  0.3676 -0.0832  0.6698
 5094SOL    HW126744   3.328   0.523   7.836  0.7852  0.1958  1.4934
 5094SOL    HW226745   3.434   0.634   7.846 -2.7242  1.2235  1.2832
 5095SOL     OW26746   1.309   1.969   2.297 -0.1697  0.0337 -0.2235
 5095SOL    HW126747   1.284   1.997   2.209  1.7236  0.4290 -0.6358
 5095SOL    HW226748   1.404   1.975   2.295 -0.2879  1.3396 -1.7559
 5096SOL     OW26749   0.289   4.687   1.809 -0.1308 -0.4732  0.1261
 5096SOL    HW126750   0.238   4.613   1.776 -1.1182 -0.9848  2.7850
 5096SOL    HW226751   0.375   4.677   1.768  0.5764  1.3665  1.1944
 5097SOL     OW26752   2.669   4.089   5.253  0.7229 -0.2470  0.1206
 5097SOL    HW126753   2.751   4.108   5.298  1.0159  0.2454 -0.6177
 5097SOL    HW226754   2.653   4.165   5.196 -1.4298 -1.0885 -0.4036
 5098SOL     OW26755   2.252   1.325   0.650  0.0793 -0.3653 -1.0498
 5098SOL    HW126756   2.182   1.379   0.613 -0.5356 -0.8151 -0.5520
 5098SOL    HW226757   2.198   1.259   0.693  0.6415  0.7549  1.3847
 5099SOL     OW26758   2.996   4.432  10.525  0.5245 -0.3753  0.2381
 5099SOL    HW126759   2.942   4.368  10.571 -0.9777  0.3286 -0.5487
 5099SOL    HW226760   3.083   4.390  10.526  1.5828  1.8129 -0.3698
 5100SOL     OW26761   1.825   1.119   3.760 -0.0660  0.1230  0.2630
 5100SOL    HW126762   1.895   1.179   3.785  0.1851  0.6131 -1.6305
 5100SOL    HW226763   1.802   1.160   3.677 -0.0009  2.5595  1.4449
 5101SOL     OW26764   3.055   0.380   5.433  0.2755 -0.0189  0.0609
 5101SOL    HW126765   3.059   0.475   5.442 -0.5389 -0.0800  0.9918
 5101SOL    HW226766   3.100   0.365   5.517 -0.8801 -0.1686  0.6460
 5102SOL     OW26767   1.237   2.787  12.485  0.0225 -0.2441 -0.3819
 5102SOL    HW126768   1.201   2.825  12.566 -0.7476 -0.6108 -0.5474
 5102SOL    HW226769   1.204   2.697  12.490 -0.1260 -0.1685  0.0010
 5103SOL     OW26770   3.476   3.603  14.190  0.3637  0.5565  0.1222
 5103SOL    HW126771   3.464   3.521  14.142 -0.4120  1.1085 -0.6302
 5103SOL    HW226772   3.418   3.664  14.144 -1.2233 -1.5218 -0.6423
 5104SOL     OW26773   0.026   1.939   2.223 -0.6104  0.2407 -0.0492
 5104SOL    HW126774   4.654   1.939   2.210 -0.2150 -2.9416 -3.1505
 5104SOL    HW226775   0.057   1.863   2.173 -3.5479 -1.6172  0.9954
 5105SOL     OW26776   1.692   2.247   3.846 -0.0630  0.1807  0.1483
 5105SOL    HW126777   1.708   2.265   3.939  2.5476  0.9591 -0.4425
 5105SOL    HW226778   1.764   2.294   3.802 -0.7280 -1.9115 -3.1592
 5106SOL     OW26779   2.412   4.623   5.952  0.4888 -0.4187 -0.4041
 5106SOL    HW126780   2.324   4.616   5.916  0.2850  0.5725 -0.1061
 5106SOL    HW226781   2.394   4.578   6.034 -1.4835  2.4924  0.7361
 5107SOL     OW26782   3.827   4.508   6.462 -0.6262 -0.0875 -0.1769
 5107SOL    HW126783   3.847   4.533   6.552 -1.4917  0.8878 -0.2503
 5107SOL    HW226784   3.772   4.431   6.473  1.1157 -1.0474  1.9112
 5108SOL     OW26785   2.048   1.434  15.564 -1.0327  0.2937 -0.5043
 5108SOL    HW126786   1.953   1.444  15.572 -1.2498 -1.0906 -1.4568
 5108SOL    HW226787   2.062   1.448  15.471 -2.1537  0.3530 -0.6575
 5109SOL     OW26788   4.095   2.605   5.289 -0.1484 -0.2660 -0.2044
 5109SOL    HW126789   4.118   2.513   5.283  2.0267  0.1026  2.2023
 5109SOL    HW226790   4.030   2.602   5.219 -1.0747  0.1114  0.6265
 5110SOL     OW26791   3.902   2.788   4.737 -0.4876  0.2683  0.4008
 5110SOL    HW126792   3.980   2.738   4.761  0.4420  1.3407 -0.3741
 5110SOL    HW226793   3.870   2.817   4.823  0.6722 -2.3936  1.7293
 5111SOL     OW26794   0.870   0.105   5.367 -0.1092 -0.2736  0.0829
 5111SOL    HW126795   0.776   0.096   5.350 -0.4855  0.6074  1.6449
 5111SOL    HW226796   0.893   0.175   5.307 -1.8746  2.8138  2.9921
 5112SOL     OW26797   4.676   3.633  15.610  0.6603 -0.1377  0.2539
 5112SOL    HW126798   0.019   3.606  15.673  1.4974  1.1970 -0.0523
 5112SOL    HW226799   4.621   3.688  15.665 -1.9799 -1.8382 -0.6723
 5113SOL     OW26800   2.726   3.325   7.607  0.0992 -0.1936 -0.8421
 5113SOL    HW126801   2.653   3.289   7.657 -0.0657 -1.0754 -1.7154
 5113SOL    HW226802   2.797   3.270   7.639  0.2648  0.7904  0.5100
 5114SOL     OW26803   3.924   0.157   3.881 -0.3149  0.0508  0.0763
 5114SOL    HW126804   3.962   0.224   3.824 -1.3709 -0.1365 -0.8642
 5114SOL    HW226805   4.002   0.106   3.903 -0.8413  0.8070  3.6399
 5115SOL     OW26806   0.583   0.266   9.004  0.1953 -0.4753 -0.3928
 5115SOL    HW126807   0.523   0.292   9.073  0.7694  0.1238 -0.1141
 5115SOL    HW226808   0.565   0.340   8.946 -0.2868  1.0178  1.6441
 5116SOL     OW26809   0.481   2.938   6.482  0.4679  0.5823 -0.0494
 5116SOL    HW126810   0.541   2.939   6.557 -0.9725 -1.2946  1.1446
 5116SOL    HW226811   0.525   2.873   6.427  1.7273  1.4518 -0.0830
 5117SOL     OW26812   0.713   3.091   6.356 -0.0036  0.2118 -0.2743
 5117SOL    HW126813   0.808   3.080   6.353  0.1094  1.2223 -0.1588
 5117SOL    HW226814   0.686   3.008   6.396 -1.0170  0.4859 -0.3731
 5118SOL     OW26815   4.113   3.494   8.745 -0.0982  0.5284  0.6272
 5118SOL    HW126816   4.201   3.489   8.782  0.5055 -0.4884 -0.9493
 5118SOL    HW226817   4.137   3.537   8.664  0.6763  0.3464  0.7618
 5119SOL     OW26818   3.002   4.007   5.187 -0.1903  0.6874  0.7055
 5119SOL    HW126819   3.005   3.949   5.263 -1.6279 -0.5442 -0.1684
 5119SOL    HW226820   3.089   4.047   5.194 -0.0382  0.3774  0.5923
 5120SOL     OW26821   3.751   2.476   3.861  0.1477  0.3401  0.1902
 5120SOL    HW126822   3.767   2.501   3.770  1.0397  0.9749  0.5321
 5120SOL    HW226823   3.656   2.471   3.850  0.1928  1.8049 -0.8146
 5121SOL     OW26824   0.740   1.872   2.578  0.0924 -0.2171 -0.5096
 5121SOL    HW126825   0.728   1.777   2.583 -0.4068 -0.0515  1.3528
 5121SOL    HW226826   0.685   1.902   2.506  2.3935  3.3057 -0.8135
 5122SOL     OW26827   1.415   3.732  11.380  0.1274 -0.0558  0.1153
 5122SOL    HW126828   1.471   3.680  11.323 -0.1755  1.2795 -1.4098
 5122SOL    HW226829   1.459   3.719  11.464 -0.3440 -1.6383  0.1047
 5123SOL     OW26830   1.452   4.048  13.544 -0.4048  0.0173  0.5654
 5123SOL    HW126831   1.523   3.991  13.515  1.4282  1.8917  1.3736
 5123SOL    HW226832   1.370   4.014  13.508  0.4067 -0.6948 -0.5983
 5124SOL     OW26833   0.267   4.056   7.385 -0.2423  0.1628 -0.7266
 5124SOL    HW126834   0.241   3.966   7.365  0.3368 -0.3638  0.9048
 5124SOL    HW226835   0.212   4.111   7.330 -2.5860  0.3887  1.8513
 5125SOL     OW26836   4.292   3.343   1.950  0.2061 -0.2486 -0.3396
 5125SOL    HW126837   4.334   3.288   1.885  0.8269 -0.7591  0.4922
 5125SOL    HW226838   4.336   3.427   1.940  1.1197 -0.8215 -1.0453
 5126SOL     OW26839   4.246   3.985  11.742 -0.0526  0.1477 -0.4637
 5126SOL    HW126840   4.165   4.036  11.733  1.2456  2.0567 -1.2842
 5126SOL    HW226841   4.299   4.053  11.785  0.9898 -1.1770  0.3528
 5127SOL     OW26842   4.261   4.196   1.864 -0.4709  0.4644 -0.0924
 5127SOL    HW126843   4.204   4.124   1.836 -0.1663 -0.2577  1.1331
 5127SOL    HW226844   4.339   4.186   1.810  0.1477 -0.7731  1.0221
 5128SOL     OW26845   2.604   0.934   6.606  0.0066  0.0781 -0.3348
 5128SOL    HW126846   2.597   0.849   6.650 -0.4742 -0.8968 -2.3137
 5128SOL    HW226847   2.644   0.908   6.523 -0.7191 -1.2779 -0.2651
 5129SOL     OW26848   4.106   3.264   1.077 -0.0017  0.0875 -0.8800
 5129SOL    HW126849   4.064   3.193   1.126  0.0771 -0.8070 -2.1091
 5129SOL    HW226850   4.150   3.218   1.005  1.3956  0.0297  0.0127
 5130SOL     OW26851   1.101   1.636   1.005  0.8191 -0.5101 -0.0096
 5130SOL    HW126852   1.156   1.680   1.070  0.2501 -1.0916  0.8815
 5130SOL    HW226853   1.123   1.676   0.921  1.7224 -0.7321  0.1278
 5131SOL     OW26854   1.032   3.849   0.905 -0.0864 -0.1453 -0.1136
 5131SOL    HW126855   1.051   3.787   0.835  0.4621  0.2267 -0.2888
 5131SOL    HW226856   1.087   3.810   0.972  2.6337  0.7654 -1.8076
 5132SOL     OW26857   4.498   4.094   4.316  0.0415 -0.5798 -0.4154
 5132SOL    HW126858   4.490   4.002   4.291 -0.1321 -0.8843  0.7696
 5132SOL    HW226859   4.562   4.129   4.255 -1.5357  0.4439 -1.4906
 5133SOL     OW26860   0.929   2.957   6.230 -0.1115 -0.3033 -0.4687
 5133SOL    HW126861   0.882   2.880   6.199 -0.5717  0.3414 -1.3688
 5133SOL    HW226862   0.904   3.021   6.163 -0.9441 -1.3975 -1.2040
 5134SOL     OW26863   2.489   3.739   3.451  0.0955  0.5299  0.1114
 5134SOL    HW126864   2.427   3.703   3.515  0.6040  1.0127  0.8762
 5134SOL    HW226865   2.474   3.833   3.463  0.5313  0.6343 -0.1666
 5135SOL     OW26866   2.939   1.226  15.078  0.0321 -0.0352 -0.5215
 5135SOL    HW126867   3.023   1.242  15.036 -0.6913  0.6025 -1.7382
 5135SOL    HW226868   2.950   1.169  15.154  0.6559  1.8019  0.7403
 5136SOL     OW26869   2.728   0.019   6.491  0.0693  0.2317 -0.3758
 5136SOL    HW126870   2.685   4.663   6.527  1.2556 -1.3304 -2.4430
 5136SOL    HW226871   2.780   4.711   6.418 -0.5865  0.9902 -1.1559
 5137SOL     OW26872   2.212   2.212   5.220 -0.1499 -0.0057  0.2377
 5137SOL    HW126873   2.267   2.280   5.183 -0.4917  0.1278 -0.0256
 5137SOL    HW226874   2.164   2.197   5.138  0.7630  0.1528 -0.3257
 5138SOL     OW26875   2.539   1.324  16.606 -0.2891 -0.3201 -0.3232
 5138SOL    HW126876   2.528   1.272  16.527  0.0808 -2.1501  0.8341
 5138SOL    HW226877   2.554   1.411  16.570 -3.9077  1.7485  3.1833
 5139SOL     OW26878   1.883   0.690   1.401 -0.5933  0.2549  0.0101
 5139SOL    HW126879   1.948   0.635   1.443  0.4390  0.9384 -0.7102
 5139SOL    HW226880   1.889   0.657   1.311 -0.8956  1.4148 -0.4366
 5140SOL     OW26881   2.638   3.287   0.600 -0.3796 -0.0063  0.0295
 5140SOL    HW126882   2.558   3.236   0.609  1.2051 -2.2740  1.1979
 5140SOL    HW226883   2.697   3.225   0.642 -0.9717  0.7740  2.0211
 5141SOL     OW26884   0.472   2.707   8.431  0.0244  0.1766  0.0972
 5141SOL    HW126885   0.537   2.647   8.467 -0.1655 -1.1914 -1.8425
 5141SOL    HW226886   0.485   2.782   8.490  3.4632 -1.3452  1.2527
 5142SOL     OW26887   3.973   4.164   7.548 -0.1189 -0.1068 -0.1222
 5142SOL    HW126888   3.903   4.142   7.611  0.2895 -0.7997  0.0869
 5142SOL    HW226889   4.048   4.193   7.600  0.1117 -3.5676  1.5098
 5143SOL     OW26890   2.497   3.635  10.380 -0.1198 -0.5974 -0.1835
 5143SOL    HW126891   2.560   3.690  10.426  0.3479 -1.0850 -0.2406
 5143SOL    HW226892   2.419   3.664  10.427  0.5821  0.3892  0.3644
 5144SOL     OW26893   0.014   1.548   6.197  0.0749  0.1792 -0.0237
 5144SOL    HW126894   4.698   1.484   6.138 -0.6639 -1.0601  1.7942
 5144SOL    HW226895   4.696   1.634   6.186 -0.1358 -0.1837 -1.9803
 5145SOL     OW26896   3.278   0.775  17.065 -0.1228  0.1239 -0.2444
 5145SOL    HW126897   3.290   0.726  16.984  1.7547  2.2583 -1.2436
 5145SOL    HW226898   3.342   0.735  17.123 -2.1198 -1.0183  1.1951
 5146SOL     OW26899   1.920   2.720  16.214 -0.0804  0.0182  0.4562
 5146SOL    HW126900   1.904   2.627  16.227 -0.2216 -0.2877 -1.8705
 5146SOL    HW226901   1.839   2.745  16.170  1.4198  1.5668 -1.4248
 5147SOL     OW26902   3.538   1.591   3.114 -0.1511 -0.3041 -0.3634
 5147SOL    HW126903   3.446   1.587   3.087 -1.0175 -0.8695  2.7481
 5147SOL    HW226904   3.521   1.599   3.208 -4.1278  0.5368 -1.1531
 5148SOL     OW26905   3.438   4.212   5.685 -0.1057 -0.3240 -0.2426
 5148SOL    HW126906   3.448   4.297   5.728 -3.2604 -0.4732  0.8011
 5148SOL    HW226907   3.392   4.239   5.605 -0.2764  0.6447  0.1818
 5149SOL     OW26908   3.281   3.278   2.966 -0.8495  0.2656 -0.2846
 5149SOL    HW126909   3.320   3.197   2.935 -0.5438  0.0865  0.5895
 5149SOL    HW226910   3.212   3.257   3.029 -1.6393 -0.6152 -1.4347
 5150SOL     OW26911   3.839   4.615  16.541  0.0850  0.0914 -0.2258
 5150SOL    HW126912   3.829   4.634  16.448 -0.9723 -1.7095 -0.4754
 5150SOL    HW226913   3.858   4.521  16.541  1.3293  0.3458 -0.0768
 5151SOL     OW26914   3.206   3.335   4.127 -0.3810 -0.0309  0.3097
 5151SOL    HW126915   3.213   3.363   4.036  2.7920 -0.1668  0.4843
 5151SOL    HW226916   3.256   3.253   4.130  1.5277  1.1271  0.0966
 5152SOL     OW26917   3.254   1.516  12.259 -0.9174 -0.1788  0.1487
 5152SOL    HW126918   3.215   1.600  12.233  0.5972  0.6479  0.6072
 5152SOL    HW226919   3.284   1.494  12.171 -1.6627  2.3518 -0.7416
 5153SOL     OW26920   2.617   3.764  10.602  0.1351 -0.0014 -0.1039
 5153SOL    HW126921   2.628   3.734  10.692 -2.0834 -0.4234  0.0192
 5153SOL    HW226922   2.682   3.834  10.595 -0.2990  0.6168  2.4231
 5154SOL     OW26923   0.936   1.356   5.167  0.1568 -0.2407 -0.0385
 5154SOL    HW126924   0.962   1.340   5.076  0.1268 -0.8170  0.0528
 5154SOL    HW226925   0.856   1.303   5.169 -0.9104  1.3881  0.4021
 5155SOL     OW26926   1.709   1.009   9.017 -0.6503  0.4067  0.0509
 5155SOL    HW126927   1.653   1.071   9.064 -0.5892 -0.6596  1.5556
 5155SOL    HW226928   1.660   0.930   9.039  0.2990 -0.0443  0.5533
 5156SOL     OW26929   1.398   3.827  11.890  0.5848 -1.1213  0.1975
 5156SOL    HW126930   1.311   3.851  11.921  1.6021  2.3320  0.4205
 5156SOL    HW226931   1.376   3.830  11.797  0.6798 -2.1259  0.1437
 5157SOL     OW26932   3.049   0.088   6.487 -0.8062  0.0078  0.2225
 5157SOL    HW126933   3.083   0.054   6.404 -0.4524 -1.5706  1.0177
 5157SOL    HW226934   3.025   0.176   6.459 -0.0293 -0.2204 -1.1583
 5158SOL     OW26935   3.293   1.014   7.854  0.0293 -0.2714  0.1555
 5158SOL    HW126936   3.340   0.991   7.935  0.9912 -0.0426 -0.3435
 5158SOL    HW226937   3.233   1.085   7.877 -1.1660 -1.3742  0.4950
 5159SOL     OW26938   1.974   4.230   2.833  0.4877 -0.3605  0.9228
 5159SOL    HW126939   1.929   4.234   2.917  0.6469 -1.8241  1.0765
 5159SOL    HW226940   2.063   4.210   2.861  0.7152  0.4047  0.7408
 5160SOL     OW26941   4.590   4.635   2.393 -0.1310  0.1703 -0.5148
 5160SOL    HW126942   4.654   4.633   2.322  0.7246  1.9210  0.1957
 5160SOL    HW226943   4.510   4.599   2.357  0.0076  0.0711 -0.7217
 5161SOL     OW26944   3.984   1.566   8.069 -0.0955 -0.0910  0.3519
 5161SOL    HW126945   3.933   1.577   7.989 -1.9153 -3.1468  1.0993
 5161SOL    HW226946   4.002   1.660   8.066 -0.6582 -0.0972 -2.8779
 5162SOL     OW26947   1.955   2.864   6.519 -0.5891 -0.3956 -0.3574
 5162SOL    HW126948   2.022   2.891   6.457  0.9462  0.6740  1.7412
 5162SOL    HW226949   1.909   2.947   6.535  0.5184  0.3771 -1.2598
 5163SOL     OW26950   1.912   4.697   6.255  0.1757  0.2111 -0.5635
 5163SOL    HW126951   1.982   4.686   6.320 -0.2782 -0.8662 -0.2537
 5163SOL    HW226952   1.915   4.611   6.212  1.6176 -1.1045  2.2010
 5164SOL     OW26953   3.233   1.942  13.589  0.0645 -0.1550 -0.0407
 5164SOL    HW126954   3.169   1.891  13.639 -0.6293 -0.4574 -1.2502
 5164SOL    HW226955   3.243   1.872  13.524  0.7116  1.4242 -1.6424
 5165SOL     OW26956   3.893   1.761  15.292 -0.1430 -0.1816 -0.1633
 5165SOL    HW126957   3.812   1.733  15.336 -0.9313 -0.0688 -1.5473
 5165SOL    HW226958   3.951   1.687  15.310  0.8830  0.8082  0.6027
 5166SOL     OW26959   2.638   0.785   8.808  0.0197 -0.1978 -0.4082
 5166SOL    HW126960   2.583   0.817   8.880  1.2390  0.9700  0.0104
 5166SOL    HW226961   2.702   0.736   8.859 -0.4118 -0.9127 -0.5555
 5167SOL     OW26962   2.413   2.635   7.884  0.2495 -0.3526 -0.0563
 5167SOL    HW126963   2.374   2.592   7.808  0.6263  0.1352 -0.5236
 5167SOL    HW226964   2.469   2.562   7.910 -0.6639 -1.1316 -0.2625
 5168SOL     OW26965   1.323   3.066   6.147  0.1575  0.4190  0.5169
 5168SOL    HW126966   1.247   3.035   6.099  0.6840  2.5821 -1.6988
 5168SOL    HW226967   1.345   3.140   6.090  0.4378  2.4186  3.1811
 5169SOL     OW26968   2.835   2.527  15.737 -0.4993 -0.0064  0.1055
 5169SOL    HW126969   2.931   2.529  15.730 -0.3860  1.8213  2.3306
 5169SOL    HW226970   2.818   2.464  15.807 -0.9793 -0.5722 -0.5254
 5170SOL     OW26971   0.877   3.747   7.800 -0.2442  0.0659  0.5993
 5170SOL    HW126972   0.952   3.774   7.747 -0.2539  0.0673  0.5863
 5170SOL    HW226973   0.808   3.728   7.737  0.2154  0.0986  0.0817
 5171SOL     OW26974   2.320   4.555  12.203  0.7931  0.1658 -0.1311
 5171SOL    HW126975   2.378   4.631  12.194  1.2548 -0.4418 -2.3029
 5171SOL    HW226976   2.239   4.599  12.174  0.5310  0.0209  0.3813
 5172SOL     OW26977   1.538   4.672  12.259 -0.2926 -0.8251  0.2375
 5172SOL    HW126978   1.568   4.599  12.205  0.6708 -0.6029  0.4814
 5172SOL    HW226979   1.622   4.709  12.284 -0.2697  1.5357 -3.2832
 5173SOL     OW26980   1.476   0.053  14.041  0.0295 -0.0802  0.3097
 5173SOL    HW126981   1.571   0.069  14.043 -0.1828  1.1581 -0.0167
 5173SOL    HW226982   1.460   0.055  14.136  0.0618 -1.0481  0.3331
 5174SOL     OW26983   4.593   3.065  13.831 -0.2264  0.2678  0.1426
 5174SOL    HW126984   4.522   3.110  13.877 -0.0220 -0.5267  1.2497
 5174SOL    HW226985   4.673   3.096  13.874  0.0930  1.3123 -1.2044
 5175SOL     OW26986   2.792   2.151   7.716 -0.0667  0.3182 -0.5374
 5175SOL    HW126987   2.776   2.218   7.782 -3.4178  0.0930 -1.1347
 5175SOL    HW226988   2.790   2.073   7.772  1.9475  0.4359 -0.3117
 5176SOL     OW26989   4.406   4.016   6.396 -0.4312  0.4160  0.7641
 5176SOL    HW126990   4.421   4.110   6.398  1.0576  0.1987 -0.0817
 5176SOL    HW226991   4.348   3.999   6.470 -0.7013 -1.0517  0.2214
 5177SOL     OW26992   1.268   0.288   7.831 -0.3918  0.2157 -0.2526
 5177SOL    HW126993   1.198   0.298   7.767 -0.5282 -1.4628 -0.3577
 5177SOL    HW226994   1.284   0.193   7.830  0.3048  0.3201  1.2397
 5178SOL     OW26995   0.972   4.381   3.269  0.1798 -0.0483  0.4041
 5178SOL    HW126996   0.915   4.310   3.296  1.2801 -1.9250 -2.2483
 5178SOL    HW226997   0.908   4.444   3.236  1.3977  1.1347  0.2679
 5179SOL     OW26998   0.591   0.698   7.850 -0.2951  0.1952  0.2742
 5179SOL    HW126999   0.687   0.697   7.842 -0.2760  0.9851  0.4341
 5179SOL    HW227000   0.575   0.718   7.758 -1.7893 -0.6456  0.3446
 5180SOL     OW27001   3.574   4.691   6.943  0.0481 -0.1905 -0.2689
 5180SOL    HW127002   3.542   0.013   7.022  1.2236  1.2088 -0.5937
 5180SOL    HW227003   3.548   0.040   6.884  0.2613 -0.0800 -0.2265
 5181SOL     OW27004   0.215   3.556   5.471 -0.0960  0.2680  0.1273
 5181SOL    HW127005   0.159   3.528   5.543 -0.6959 -1.2013 -0.9044
 5181SOL    HW227006   0.278   3.609   5.519  0.5536 -0.2027 -0.2022
 5182SOL     OW27007   3.919   3.849   9.125 -0.0793  0.0731  0.3667
 5182SOL    HW127008   3.877   3.839   9.210 -3.3957 -0.8148 -1.3529
 5182SOL    HW227009   4.001   3.801   9.131  0.4119  0.6506 -1.8434
 5183SOL     OW27010   0.722   2.567   6.745  0.5919  0.3685 -0.4730
 5183SOL    HW127011   0.781   2.602   6.678  0.5460  2.6145  0.6343
 5183SOL    HW227012   0.662   2.521   6.687 -1.7275  0.3709  1.8993
 5184SOL     OW27013   4.334   3.650   3.817 -0.3036  0.2209 -0.5176
 5184SOL    HW127014   4.316   3.642   3.723  2.6967 -0.3124 -1.0345
 5184SOL    HW227015   4.415   3.700   3.810  0.8828 -2.0071 -2.4370
 5185SOL     OW27016   4.414   2.263   3.313 -0.0324  0.2485 -0.1855
 5185SOL    HW127017   4.450   2.311   3.238  1.1786 -0.0037  0.2347
 5185SOL    HW227018   4.434   2.171   3.295 -1.5743  0.1216 -1.2378
 5186SOL     OW27019   2.281   3.398   2.016  0.4076 -0.6050  0.2211
 5186SOL    HW127020   2.256   3.486   1.988 -0.5976 -1.1328 -0.5355
 5186SOL    HW227021   2.295   3.344   1.939  2.3361  0.4904 -0.2069
 5187SOL     OW27022   2.119   1.164   9.631  0.6559 -0.3299 -0.0944
 5187SOL    HW127023   2.080   1.250   9.614  0.3047 -0.4954 -0.1282
 5187SOL    HW227024   2.163   1.157   9.546 -1.2716  0.1349 -1.1430
 5188SOL     OW27025   1.618   0.368  16.113 -0.0998 -0.4934 -0.3998
 5188SOL    HW127026   1.603   0.302  16.180  2.2755 -1.7400 -1.1076
 5188SOL    HW227027   1.634   0.435  16.179 -0.9799  1.6202 -2.3140
 5189SOL     OW27028   0.595   2.009   2.932  0.3474 -0.1544 -0.1662
 5189SOL    HW127029   0.612   1.919   2.959 -0.6051 -1.0741 -2.6696
 5189SOL    HW227030   0.637   2.021   2.847  0.4246 -0.6274 -0.1944
 5190SOL     OW27031   1.475   1.065   6.112  0.0879 -0.3051 -0.5465
 5190SOL    HW127032   1.416   1.050   6.038 -4.3467  1.9356  2.5337
 5190SOL    HW227033   1.541   1.114   6.063  2.1693 -2.4392  0.1089
 5191SOL     OW27034   3.709   1.132   7.303 -0.1322 -0.0111 -0.0162
 5191SOL    HW127035   3.704   1.160   7.211  1.4271  1.3370  0.3001
 5191SOL    HW227036   3.620   1.152   7.332  0.6088 -0.2472  2.4143
 5192SOL     OW27037   0.617   1.541   5.631 -0.1981 -0.7475  0.2166
 5192SOL    HW127038   0.708   1.512   5.634 -0.1840 -0.8840 -1.5901
 5192SOL    HW227039   0.591   1.452   5.607 -0.5371 -1.0252  1.5891
 5193SOL     OW27040   4.180   4.617   3.150  0.1917 -0.5557 -0.0764
 5193SOL    HW127041   4.226   4.577   3.077 -0.8494 -1.9154  0.0192
 5193SOL    HW227042   4.122   4.544   3.173 -0.3548  0.0308  0.4127
 5194SOL     OW27043   0.024   4.693   3.542  0.3498 -0.4055  0.0394
 5194SOL    HW127044   0.082   0.035   3.582 -2.0704  1.2486  0.8938
 5194SOL    HW227045   4.669   4.699   3.598  0.8545  1.8789  0.4918
 5195SOL     OW27046   0.573   1.993   4.267 -0.4482 -0.4088 -0.3926
 5195SOL    HW127047   0.608   2.018   4.182  3.4008 -1.7194  0.7661
 5195SOL    HW227048   0.652   1.951   4.302  0.1405  0.0781 -1.1477
 5196SOL     OW27049   3.353   2.945   2.911  0.0480 -0.5489  0.3808
 5196SOL    HW127050   3.429   2.994   2.942 -0.1892 -0.3105  0.5889
 5196SOL    HW227051   3.382   2.855   2.924 -2.1396 -1.5998 -2.1559
 5197SOL     OW27052   4.453   4.292   8.747 -0.3836  0.3965  0.0728
 5197SOL    HW127053   4.407   4.308   8.665  0.3690 -1.0416 -0.6253
 5197SOL    HW227054   4.541   4.323   8.725 -0.8790  1.5456 -0.3088
 5198SOL     OW27055   2.946   3.597   5.895 -0.3855 -0.3005 -0.1876
 5198SOL    HW127056   2.967   3.545   5.972 -0.2963 -0.6926 -0.4793
 5198SOL    HW227057   3.017   3.570   5.836 -0.7596 -1.4343 -0.1209
 5199SOL     OW27058   0.602   3.383   6.087 -0.4527 -0.1170 -0.2308
 5199SOL    HW127059   0.696   3.389   6.103 -0.3718 -1.4164 -0.2184
 5199SOL    HW227060   0.556   3.382   6.171 -1.7521 -2.0824 -0.9566
 5200SOL     OW27061   0.894   3.497   4.879  0.1503  0.4351  0.3160
 5200SOL    HW127062   0.800   3.511   4.870  0.2900  0.3270 -1.2823
 5200SOL    HW227063   0.894   3.402   4.863  2.2387  0.6174 -0.7897
 5201SOL     OW27064   3.899   2.543   7.033 -0.7665  0.2596 -0.0759
 5201SOL    HW127065   3.815   2.499   7.041 -0.3474 -0.4075  0.6208
 5201SOL    HW227066   3.869   2.625   6.995  1.2845  1.1510  0.2036
 5202SOL     OW27067   1.248   3.653  11.048  0.2930 -0.1852 -0.6648
 5202SOL    HW127068   1.213   3.734  11.012 -0.2994 -1.2694 -2.5449
 5202SOL    HW227069   1.341   3.675  11.041  0.5594 -1.3061 -0.7882
 5203SOL     OW27070   0.176   4.304  11.828  0.9181  0.2741 -0.0909
 5203SOL    HW127071   0.217   4.242  11.768 -0.6694  1.7968 -2.7899
 5203SOL    HW227072   0.229   4.381  11.807  1.3379  0.3628  1.3159
 5204SOL     OW27073   2.498   2.690   4.549  0.2853 -0.2103  0.2201
 5204SOL    HW127074   2.475   2.637   4.626 -0.0040  0.3972  0.5542
 5204SOL    HW227075   2.506   2.772   4.598  1.8565  0.6958 -1.5627
 5205SOL     OW27076   3.468   0.884   0.507  0.2105 -0.1280  0.5141
 5205SOL    HW127077   3.540   0.841   0.460  0.6737  1.1977  0.0139
 5205SOL    HW227078   3.415   0.816   0.548  0.2456 -0.4864 -0.0364
 5206SOL     OW27079   3.441   1.000   5.686 -0.4161  0.2319 -0.0929
 5206SOL    HW127080   3.518   1.045   5.651 -1.4692  0.4090 -2.1550
 5206SOL    HW227081   3.416   0.936   5.620 -0.4540 -1.2563  1.3492
 5207SOL     OW27082   2.749   0.170  14.748 -0.1501 -0.4393  0.1670
 5207SOL    HW127083   2.777   0.257  14.774  0.8732 -0.1612 -1.8861
 5207SOL    HW227084   2.713   0.183  14.661  1.3740 -0.1890 -0.4084
 5208SOL     OW27085   1.883   0.371  11.006 -0.2044  0.5934  0.4383
 5208SOL    HW127086   1.896   0.411  10.920 -2.2260  1.8064  0.6733
 5208SOL    HW227087   1.973   0.369  11.038 -0.1128 -0.9436  0.0569
 5209SOL     OW27088   2.682   3.706   7.025 -0.0382 -0.0664  0.3276
 5209SOL    HW127089   2.732   3.743   6.951 -2.1613  0.5069 -0.8257
 5209SOL    HW227090   2.599   3.694   6.980  1.3667  0.1722 -2.3600
 5210SOL     OW27091   0.707   3.547   1.880  0.2971 -0.0582 -0.3063
 5210SOL    HW127092   0.640   3.517   1.819  1.0474 -2.2342 -0.0913
 5210SOL    HW227093   0.673   3.631   1.910 -0.6421 -0.6493  0.2772
 5211SOL     OW27094   2.296   4.199   5.212 -0.2367 -0.0541 -0.1641
 5211SOL    HW127095   2.319   4.253   5.137 -0.6893  2.2238  1.3458
 5211SOL    HW227096   2.216   4.249   5.228 -1.7259 -1.8843 -1.9017
 5212SOL     OW27097   0.619   3.181   9.047  0.0479 -0.1943 -0.0137
 5212SOL    HW127098   0.572   3.099   9.060  0.0507 -0.4373 -1.5406
 5212SOL    HW227099   0.696   3.168   9.103 -1.1712 -0.5138  1.5918
 5213SOL     OW27100   1.933   2.541   1.735  0.7095 -0.4893  0.5022
 5213SOL    HW127101   1.963   2.630   1.753 -4.4193  1.3149  0.0687
 5213SOL    HW227102   1.839   2.548   1.718  0.9971  2.0746 -0.0250
 5214SOL     OW27103   0.601   0.940  11.318  1.0927  0.3432  0.4016
 5214SOL    HW127104   0.610   0.851  11.285  0.6098  0.2608  0.4922
 5214SOL    HW227105   0.547   0.980  11.250  1.0362  1.1589  0.9285
 5215SOL     OW27106   0.148   0.820   3.523 -0.4121  0.9341  0.4475
 5215SOL    HW127107   0.211   0.881   3.563  1.0508 -1.2439  1.4966
 5215SOL    HW227108   0.097   0.790   3.599 -0.0597  1.3114  0.8351
 5216SOL     OW27109   0.873   2.826   3.611 -0.2038 -0.4105  0.4194
 5216SOL    HW127110   0.843   2.736   3.629  0.0837 -0.5818  0.0437
 5216SOL    HW227111   0.906   2.848   3.698  1.9622 -3.2748  0.3108
 5217SOL     OW27112   0.973   2.113  10.222 -0.1685 -0.1428 -0.0560
 5217SOL    HW127113   0.969   2.208  10.218 -0.0625 -0.1027  0.6508
 5217SOL    HW227114   0.934   2.090  10.138 -0.4543 -0.5058  0.1740
 5218SOL     OW27115   1.603   4.346   8.507  0.1365 -0.8842  0.0674
 5218SOL    HW127116   1.699   4.343   8.508  0.1176 -1.3877 -0.0290
 5218SOL    HW227117   1.595   4.420   8.446  3.7966  0.2815  0.9814
 5219SOL     OW27118   0.445   2.620   5.729 -0.1739  0.4098 -0.1142
 5219SOL    HW127119   0.435   2.526   5.747 -0.0771 -0.1296 -2.9546
 5219SOL    HW227120   0.539   2.630   5.745 -0.1684  1.1825 -0.6312
 5220SOL     OW27121   4.599   2.506   8.064 -0.0833 -0.5831  0.1846
 5220SOL    HW127122   4.626   2.529   8.153 -0.9453 -0.7607  0.4910
 5220SOL    HW227123   4.626   2.415   8.053 -1.2005 -0.7445 -1.1463
 5221SOL     OW27124   1.593   4.400  10.117  0.0230 -0.0649  0.0874
 5221SOL    HW127125   1.652   4.468  10.149 -0.3406  1.0725 -1.6584
 5221SOL    HW227126   1.510   4.436  10.148  0.7889  2.8299 -1.2858
 5222SOL     OW27127   0.639   3.361   4.630 -0.4770  0.9281  0.6982
 5222SOL    HW127128   0.551   3.347   4.595  1.5371 -0.0288 -3.9207
 5222SOL    HW227129   0.618   3.426   4.697 -0.9019  0.9589  0.5345
 5223SOL     OW27130   1.034   3.088  15.405 -0.0859  0.2863  0.1785
 5223SOL    HW127131   0.990   3.135  15.334  0.7455  0.5279 -0.1776
 5223SOL    HW227132   0.977   3.112  15.478 -1.8203 -2.0142 -0.4107
 5224SOL     OW27133   4.049   4.154   0.824 -0.0714  0.1041  0.2558
 5224SOL    HW127134   4.078   4.073   0.865  0.7427 -0.0315 -0.5982
 5224SOL    HW227135   4.132   4.165   0.777  0.4393  0.6941  1.2986
 5225SOL     OW27136   1.400   0.689   5.662  0.0353 -0.4308 -0.2666
 5225SOL    HW127137   1.460   0.729   5.725 -0.7651 -2.3162  1.6367
 5225SOL    HW227138   1.313   0.708   5.697 -0.0627  0.4355 -0.9611
 5226SOL     OW27139   1.948   2.007  15.077 -0.1045 -0.3262 -0.3731
 5226SOL    HW127140   1.929   1.946  15.005  3.0791  0.9081 -2.2371
 5226SOL    HW227141   1.885   2.078  15.069 -1.4550 -1.4325  0.5596
 5227SOL     OW27142   1.133   0.933  10.321 -0.2235  0.2531 -0.4505
 5227SOL    HW127143   1.149   0.839  10.308 -2.1917 -0.2724  0.8006
 5227SOL    HW227144   1.049   0.930  10.276  0.9215 -0.8373 -2.4894
 5228SOL     OW27145   1.928   3.123   6.588 -0.6356 -0.6875 -0.3119
 5228SOL    HW127146   2.024   3.123   6.597 -0.6955  0.5962  0.4039
 5228SOL    HW227147   1.918   3.210   6.548  1.1947 -0.0972  0.4941
 5229SOL     OW27148   3.805   1.125   7.003 -0.4567 -0.3340  0.0403
 5229SOL    HW127149   3.889   1.149   7.042  1.1503 -2.1536 -2.3356
 5229SOL    HW227150   3.826   1.087   6.918  1.7151  1.3969 -0.1777
 5230SOL     OW27151   3.313   3.414   4.743  0.3581  0.3570  0.8774
 5230SOL    HW127152   3.307   3.410   4.648  0.6924 -1.4923  0.9320
 5230SOL    HW227153   3.401   3.385   4.766  0.4905 -0.7997 -1.1003
 5231SOL     OW27154   2.582   4.593   1.503  0.1653  0.3562  0.1902
 5231SOL    HW127155   2.507   4.538   1.482  1.4193 -1.8800  1.5394
 5231SOL    HW227156   2.655   4.539   1.533  1.2332  1.4203 -0.4802
 5232SOL     OW27157   3.629   1.622   6.571 -0.0398  0.2174 -0.4850
 5232SOL    HW127158   3.618   1.698   6.515  2.5374  0.5112 -0.5958
 5232SOL    HW227159   3.547   1.609   6.619  0.6022  0.7433  0.7820
 5233SOL     OW27160   3.955   2.534   9.324  0.9556 -0.2049 -0.8050
 5233SOL    HW127161   3.993   2.478   9.392  0.0256 -0.3532 -0.4134
 5233SOL    HW227162   3.871   2.565   9.355  1.1627 -1.0916  0.6360
 5234SOL     OW27163   3.024   1.793  13.746  0.6624  0.2027  0.0377
 5234SOL    HW127164   3.033   1.794  13.841  0.5486 -0.3905  0.0512
 5234SOL    HW227165   3.054   1.706  13.722  1.5593  0.7388 -0.8071
 5235SOL     OW27166   2.364   2.204   3.243 -0.0513 -0.1877  0.1306
 5235SOL    HW127167   2.277   2.163   3.245  1.1081 -2.4925  2.7980
 5235SOL    HW227168   2.339   2.292   3.271  2.0478  0.4967 -0.1803
 5236SOL     OW27169   0.553   3.239   8.543  0.3767  0.0164  0.1378
 5236SOL    HW127170   0.538   3.333   8.544 -0.2228 -0.0875  0.7824
 5236SOL    HW227171   0.592   3.222   8.457  1.8612  0.5376  0.6962
 5237SOL     OW27172   1.063   2.730  10.624  0.5236  0.0004  0.1428
 5237SOL    HW127173   1.091   2.773  10.544 -2.3666  0.0019 -0.8750
 5237SOL    HW227174   1.137   2.671  10.638  2.6041  2.7723  0.8116
 5238SOL     OW27175   3.762   0.809   8.817 -0.4564 -0.4481  0.2694
 5238SOL    HW127176   3.827   0.880   8.814  0.6506 -1.4369  0.8750
 5238SOL    HW227177   3.735   0.820   8.726 -0.3186 -0.6183  0.2078
 5239SOL     OW27178   1.339   4.009   4.868 -0.1319 -0.5338 -0.0591
 5239SOL    HW127179   1.428   4.023   4.899 -0.6703 -1.5442  1.8964
 5239SOL    HW227180   1.288   4.083   4.900 -0.7193 -0.0156 -2.1865
 5240SOL     OW27181   2.906   3.037   2.520  0.2380 -0.6101 -0.3522
 5240SOL    HW127182   2.861   3.027   2.436 -2.2102  1.5157  0.7307
 5240SOL    HW227183   2.831   3.025   2.579  0.2753 -1.6783 -0.5122
 5241SOL     OW27184   3.050   0.452   7.379  0.3327  0.2305  0.0666
 5241SOL    HW127185   3.078   0.437   7.289  0.3149 -2.0075  0.4320
 5241SOL    HW227186   2.967   0.497   7.364  0.7908  1.4920  1.4043
 5242SOL     OW27187   0.407   2.953   6.775 -0.0900 -0.0221 -0.0259
 5242SOL    HW127188   0.440   2.872   6.814 -1.0609  1.2086  3.3298
 5242SOL    HW227189   0.491   2.983   6.740  0.5825 -1.0401  0.7129
 5243SOL     OW27190   0.725   2.599   5.024 -0.0423  0.2343  0.1490
 5243SOL    HW127191   0.694   2.508   5.025  0.3271  0.0922 -0.8321
 5243SOL    HW227192   0.816   2.582   4.997  0.0476 -1.1205  1.2668
 5244SOL     OW27193   1.066   3.003   8.192  0.0312  0.3265 -0.0435
 5244SOL    HW127194   1.145   2.957   8.162 -0.9500 -0.2248 -1.8001
 5244SOL    HW227195   1.032   2.929   8.243 -0.4697  1.1552  0.8127
 5245SOL     OW27196   0.921   0.569  16.581  0.3139  0.1847  0.0431
 5245SOL    HW127197   0.936   0.547  16.489  4.0622  0.6143  0.5562
 5245SOL    HW227198   0.956   0.491  16.624  2.6478  0.6345 -1.1013
 5246SOL     OW27199   2.519   3.835   0.738  0.0398 -0.0290 -0.2592
 5246SOL    HW127200   2.564   3.755   0.710 -1.0937 -0.6568 -0.3072
 5246SOL    HW227201   2.445   3.792   0.780  0.2201 -0.7669 -0.7016
 5247SOL     OW27202   1.405   3.554   5.881 -0.1155  0.3957 -0.0621
 5247SOL    HW127203   1.321   3.535   5.838  1.6104 -3.3576 -1.7721
 5247SOL    HW227204   1.380   3.539   5.972  0.4274  3.0872  0.5400
 5248SOL     OW27205   3.367   2.579   1.851  0.2121  0.0649  0.0739
 5248SOL    HW127206   3.294   2.632   1.885  1.1384  1.8979 -0.8335
 5248SOL    HW227207   3.434   2.621   1.905  0.2962 -0.6008  0.4896
 5249SOL     OW27208   0.867   1.553  13.668 -0.4729 -0.1741  0.0574
 5249SOL    HW127209   0.923   1.553  13.746 -1.6512  2.5786  0.8975
 5249SOL    HW227210   0.796   1.613  13.692 -0.1718 -0.0588  0.6772
 5250SOL     OW27211   0.946   1.452   8.212 -0.2920  0.2481 -0.5683
 5250SOL    HW127212   0.986   1.434   8.127  1.6334  3.1122 -0.2663
 5250SOL    HW227213   0.957   1.546   8.226 -1.2057  0.4045 -0.9378
 5251SOL     OW27214   1.881   1.626   4.548  0.5524 -0.1555  0.0469
 5251SOL    HW127215   1.891   1.604   4.641 -0.7707 -0.1834  0.1761
 5251SOL    HW227216   1.789   1.601   4.539  0.9569 -1.7590  0.4452
 5252SOL     OW27217   0.532   3.694   9.704  0.0590 -0.1550  0.0827
 5252SOL    HW127218   0.535   3.778   9.750 -1.0481  0.2507 -0.5755
 5252SOL    HW227219   0.437   3.687   9.695 -0.0882 -0.6447  2.0978
 5253SOL     OW27220   1.161   0.033   3.259  0.1666  0.3063  0.2730
 5253SOL    HW127221   1.102   0.064   3.190  0.6847  0.8989  0.1046
 5253SOL    HW227222   1.235   0.006   3.205  1.2134  1.0887  1.3287
 5254SOL     OW27223   0.960   0.591   9.243  0.1675 -0.5765  0.1812
 5254SOL    HW127224   0.973   0.586   9.337  2.4931 -1.9642 -0.2184
 5254SOL    HW227225   0.882   0.647   9.238  2.1370  1.9836 -2.6074
 5255SOL     OW27226   2.049   0.732   7.789 -0.7259 -0.6216 -0.3682
 5255SOL    HW127227   2.049   0.797   7.719 -0.2960 -0.3677 -0.1346
 5255SOL    HW227228   1.995   0.667   7.744  0.2465  0.0897 -2.6075
 5256SOL     OW27229   0.772   0.330   6.152  0.4038  0.2174 -0.0215
 5256SOL    HW127230   0.845   0.344   6.092 -1.1111 -0.1125 -1.9482
 5256SOL    HW227231   0.799   0.242   6.181 -2.5302 -0.9091 -0.6908
 5257SOL     OW27232   4.563   0.773  12.971  0.0628  0.3843  0.2631
 5257SOL    HW127233   4.504   0.724  13.028  0.6443 -2.5132 -1.6155
 5257SOL    HW227234   4.587   0.708  12.905 -1.2363 -1.7258  1.8686
 5258SOL     OW27235   1.320   1.472   7.717 -0.1073  0.0036  0.6190
 5258SOL    HW127236   1.311   1.557   7.761  0.1653 -0.5845  1.8064
 5258SOL    HW227237   1.229   1.451   7.695 -0.3604 -1.2694  2.9523
 5259SOL     OW27238   3.325   0.032   7.561  0.2448 -0.1583 -0.1511
 5259SOL    HW127239   3.382   4.678   7.549 -0.6116 -0.7977 -0.0816
 5259SOL    HW227240   3.364   0.072   7.639  2.4301 -0.7839 -0.9105
 5260SOL     OW27241   4.481   2.021   3.240  0.3750  0.0516 -0.7512
 5260SOL    HW127242   4.439   2.010   3.154 -0.0537  0.6652 -0.6174
 5260SOL    HW227243   4.572   2.003   3.219  0.5801  1.5808 -1.1580
 5261SOL     OW27244   4.297   3.110   2.858 -0.4482  0.2494  0.6943
 5261SOL    HW127245   4.346   3.061   2.924  3.5765 -0.1877 -2.6158
 5261SOL    HW227246   4.228   3.047   2.839  0.0160 -0.2570  0.6829
 5262SOL     OW27247   1.862   3.163  15.897 -0.1497 -0.9465 -0.3750
 5262SOL    HW127248   1.906   3.173  15.813 -0.6578 -2.2488 -0.7938
 5262SOL    HW227249   1.798   3.093  15.882  0.2986 -1.1915 -1.1056
 5263SOL     OW27250   1.191   4.407   8.103 -0.0554  0.3341  0.5656
 5263SOL    HW127251   1.152   4.486   8.141 -0.5459  0.1584  0.4193
 5263SOL    HW227252   1.204   4.433   8.011 -2.0282  0.3885  0.3050
 5264SOL     OW27253   2.049   1.571   6.275 -0.3619 -0.1615 -0.2451
 5264SOL    HW127254   2.087   1.483   6.274  2.2125  0.9569 -0.0510
 5264SOL    HW227255   2.088   1.620   6.203 -0.1008 -0.5199 -0.3474
 5265SOL     OW27256   0.321   1.182  16.489  0.1276  0.0042  0.1448
 5265SOL    HW127257   0.322   1.095  16.531  0.5504  0.6799  1.5520
 5265SOL    HW227258   0.333   1.167  16.395  2.1692 -0.1474  0.4182
 5266SOL     OW27259   3.903   3.456  14.471 -0.3968 -0.3889 -0.3023
 5266SOL    HW127260   3.877   3.428  14.559  1.5718 -1.7281 -0.1499
 5266SOL    HW227261   3.837   3.524  14.458 -0.2294 -0.1829 -0.0474
 5267SOL     OW27262   1.626   3.119  14.966  0.5069 -0.0431  0.3156
 5267SOL    HW127263   1.681   3.086  15.037  0.2499 -1.5148 -0.1714
 5267SOL    HW227264   1.538   3.085  14.982 -0.9226  3.0051 -0.9533
 5268SOL     OW27265   2.093   1.450   2.179  0.2254 -0.5751 -0.2405
 5268SOL    HW127266   2.171   1.436   2.124  1.1627 -0.0890  0.9718
 5268SOL    HW227267   2.135   1.433   2.263 -1.2901  0.2282  0.6682
 5269SOL     OW27268   3.605   3.546   5.087  0.1531  0.0939 -0.1727
 5269SOL    HW127269   3.533   3.597   5.050 -0.1808  0.6744  1.2872
 5269SOL    HW227270   3.672   3.578   5.027  0.0645 -0.0789 -0.3629
 5270SOL     OW27271   2.062   0.444   5.276  0.2838  0.4474  0.2057
 5270SOL    HW127272   2.104   0.394   5.346 -1.6283 -0.2240  0.8739
 5270SOL    HW227273   1.968   0.428   5.282  0.0140  2.0981  0.3275
 5271SOL     OW27274   1.698   1.243   7.338  0.3316  0.1311  0.1059
 5271SOL    HW127275   1.624   1.247   7.398  1.0668  0.8344  0.9777
 5271SOL    HW227276   1.648   1.235   7.257  0.6811 -0.2491 -0.0728
 5272SOL     OW27277   0.339   4.429   3.128  0.1402 -0.1480  0.3345
 5272SOL    HW127278   0.384   4.355   3.169  1.5497 -0.6651 -2.1988
 5272SOL    HW227279   0.270   4.384   3.080  0.7626  0.9366 -1.5718
 5273SOL     OW27280   4.294   1.907  15.168 -0.3725  0.0235 -0.8339
 5273SOL    HW127281   4.374   1.952  15.194 -1.4166  0.0447  2.4546
 5273SOL    HW227282   4.224   1.932  15.228  1.5592 -0.8093  1.7767
 5274SOL     OW27283   0.082   4.043   3.187  0.2884  0.1273  0.5378
 5274SOL    HW127284   0.084   4.130   3.149 -0.4608  0.3815  1.0843
 5274SOL    HW227285   0.047   4.052   3.276  0.0502 -0.6366  0.5263
 5275SOL     OW27286   4.710   2.365   4.421  0.3546  0.2816 -0.1842
 5275SOL    HW127287   4.710   2.270   4.409  0.0051  0.2309  0.2015
 5275SOL    HW227288   0.074   2.378   4.459 -0.8887  0.3512  2.6463
 5276SOL     OW27289   4.184   2.776   6.001 -0.2554  0.5319 -0.6655
 5276SOL    HW127290   4.116   2.751   5.938 -1.6449  1.8961  0.2659
 5276SOL    HW227291   4.235   2.825   5.937  3.4220 -2.2073  0.2228
 5277SOL     OW27292   0.607   2.545  15.189  0.0587  0.1351  0.1296
 5277SOL    HW127293   0.641   2.503  15.109  2.1968 -0.2251  1.2271
 5277SOL    HW227294   0.671   2.615  15.199  0.2316  0.2351 -1.6891
 5278SOL     OW27295   2.154   0.567   7.536 -0.1531 -0.3543 -0.2005
 5278SOL    HW127296   2.059   0.563   7.531 -0.1905 -0.1878  0.4201
 5278SOL    HW227297   2.178   0.509   7.609 -2.7515  1.3869  2.0119
 5279SOL     OW27298   1.716   4.508  14.574 -0.3246  0.3709  0.0970
 5279SOL    HW127299   1.628   4.472  14.563  0.4438 -0.8242 -2.0491
 5279SOL    HW227300   1.777   4.461  14.517 -1.0540  1.3096 -1.4360
 5280SOL     OW27301   1.283   0.519   1.744  0.0736 -0.1622 -0.4592
 5280SOL    HW127302   1.266   0.573   1.667  0.6679  0.9889  0.2089
 5280SOL    HW227303   1.225   0.443   1.743  0.0519 -0.1420 -0.6571
 5281SOL     OW27304   4.001   0.635   8.586 -0.3943  0.0035  0.1513
 5281SOL    HW127305   3.937   0.567   8.605  0.3102 -0.9036 -0.7374
 5281SOL    HW227306   4.081   0.587   8.566 -0.5121 -0.2674  0.3396
 5282SOL     OW27307   0.755   0.559   6.336 -0.3272  0.0245  0.4575
 5282SOL    HW127308   0.755   0.486   6.274  2.4323  2.2054 -2.1139
 5282SOL    HW227309   0.849   0.562   6.353 -0.4607  0.2599  1.1454
 5283SOL     OW27310   0.644   1.389  13.284 -0.1312  0.3509  0.1036
 5283SOL    HW127311   0.562   1.417  13.243 -0.0906  0.2139 -0.0675
 5283SOL    HW227312   0.632   1.297  13.262  0.1542  0.2741  0.2631
 5284SOL     OW27313   1.281   1.107  17.648 -0.4476  0.9913  0.1845
 5284SOL    HW127314   1.217   1.036  17.647  0.4293  0.2037  0.1675
 5284SOL    HW227315   1.292   1.119   0.049 -1.2410  0.9878  0.2768
 5285SOL     OW27316   0.904   0.342   1.607  0.0176  0.9077 -0.2654
 5285SOL    HW127317   0.908   0.430   1.643 -1.4198  1.1106 -0.6115
 5285SOL    HW227318   0.904   0.371   1.515  0.2805 -0.0326 -0.5671
 5286SOL     OW27319   4.079   4.310  14.444  0.2709  0.0260 -0.1191
 5286SOL    HW127320   4.070   4.223  14.405 -2.8444 -0.3202  1.3704
 5286SOL    HW227321   4.175   4.312  14.452  0.3336  0.4221 -0.8981
 5287SOL     OW27322   3.276   1.308  11.358 -0.0748 -0.4720 -0.3441
 5287SOL    HW127323   3.351   1.291  11.414 -0.0988  0.2292 -0.1013
 5287SOL    HW227324   3.226   1.233  11.391  0.3182 -0.7654 -0.4251
 5288SOL     OW27325   1.335   0.765   0.579 -0.2295  0.0520  0.9336
 5288SOL    HW127326   1.297   0.810   0.654  0.9054  2.1554  0.2351
 5288SOL    HW227327   1.426   0.795   0.589 -0.1880  0.3125 -0.1244
 5289SOL     OW27328   2.337   1.678   3.351 -0.6627  0.2050 -0.5979
 5289SOL    HW127329   2.292   1.600   3.384 -1.3518  1.1394  0.6419
 5289SOL    HW227330   2.384   1.647   3.274 -2.1211  0.4949 -1.5896
 5290SOL     OW27331   0.822   0.528  14.190 -0.1081 -0.1685 -0.2529
 5290SOL    HW127332   0.783   0.461  14.245 -1.5357 -0.0301 -1.0879
 5290SOL    HW227333   0.865   0.474  14.123 -1.3858 -0.5474 -0.7546
 5291SOL     OW27334   3.613   1.643   1.440  0.7998 -0.3597 -0.1625
 5291SOL    HW127335   3.606   1.711   1.372  2.1079  0.5412  0.5844
 5291SOL    HW227336   3.697   1.665   1.480  1.5488 -1.9453 -0.8725
 5292SOL     OW27337   0.601   3.306  16.830  0.2777  0.7146  0.0762
 5292SOL    HW127338   0.686   3.262  16.830 -0.7782 -1.3370 -0.1263
 5292SOL    HW227339   0.616   3.372  16.762  1.8800 -0.7202 -0.9597
 5293SOL     OW27340   2.218   1.345   6.966  0.0878  0.4414 -0.1873
 5293SOL    HW127341   2.188   1.366   7.054  0.7658  0.6198 -0.0014
 5293SOL    HW227342   2.156   1.272   6.960 -0.6332  1.0869 -0.5528
 5294SOL     OW27343   1.303   2.322   6.370 -0.3129  0.1715 -0.3128
 5294SOL    HW127344   1.293   2.252   6.435  0.4546  1.1485  0.8707
 5294SOL    HW227345   1.397   2.340   6.368 -0.2767  0.2603  1.5984
 5295SOL     OW27346   1.721   4.722   7.433  0.1857 -0.4839 -0.4730
 5295SOL    HW127347   1.768   4.714   7.350  0.8611 -1.5608  0.0053
 5295SOL    HW227348   1.789   0.008   7.500 -1.3605 -1.7169  1.2679
 5296SOL     OW27349   1.231   1.062   6.829  0.5505  0.0337 -0.5446
 5296SOL    HW127350   1.200   0.991   6.773 -1.5273 -0.6711  1.5050
 5296SOL    HW227351   1.178   1.044   6.907  1.9405  0.8867  0.5825
 5297SOL     OW27352   1.348   3.345   7.269 -0.2563  0.6930 -0.2432
 5297SOL    HW127353   1.270   3.332   7.215 -0.4825  2.7814 -0.4423
 5297SOL    HW227354   1.296   3.351   7.348  1.9166 -2.4508  1.3944
 5298SOL     OW27355   2.238   1.957   9.161 -0.3917 -0.4785 -0.5969
 5298SOL    HW127356   2.285   1.991   9.237  1.9259  3.3628 -3.7403
 5298SOL    HW227357   2.190   1.886   9.203 -1.8119  1.3320  0.8582
 5299SOL     OW27358   2.701   0.435   6.970 -0.1145 -0.1357 -0.1353
 5299SOL    HW127359   2.643   0.437   6.894  0.0392 -1.4124 -0.2791
 5299SOL    HW227360   2.772   0.378   6.941 -0.2346 -0.4667  0.2139
 5300SOL     OW27361   0.256   0.942   7.464 -0.4107  0.4957  0.2087
 5300SOL    HW127362   0.228   1.009   7.527  2.9275 -0.2732  2.5141
 5300SOL    HW227363   0.333   0.973   7.416 -0.4830 -0.7906 -0.7398
 5301SOL     OW27364   1.024   0.758  12.734 -0.4760 -0.2186 -0.2411
 5301SOL    HW127365   0.946   0.766  12.678 -0.9544 -1.5221  0.2416
 5301SOL    HW227366   0.977   0.752  12.817  2.5951 -1.6311  1.4344
 5302SOL     OW27367   3.971   2.160   3.058 -0.7095 -0.4605  0.0412
 5302SOL    HW127368   3.916   2.083   3.073 -3.1899  0.8120 -2.7696
 5302SOL    HW227369   4.037   2.162   3.128 -1.6063 -0.8747  0.9113
 5303SOL     OW27370   0.296   2.435  15.049 -0.3058  0.3396  0.0252
 5303SOL    HW127371   0.265   2.350  15.017 -2.0389  1.4056 -1.2044
 5303SOL    HW227372   0.391   2.424  15.046 -0.2135  1.7943 -3.2629
 5304SOL     OW27373   3.798   3.436   4.347  1.2856  0.0414 -0.2447
 5304SOL    HW127374   3.754   3.368   4.295 -0.5413  0.4142  0.8025
 5304SOL    HW227375   3.885   3.406   4.371  0.5841 -1.9773 -0.1567
 5305SOL     OW27376   1.634   3.010   4.298 -0.5863  0.0132  0.2453
 5305SOL    HW127377   1.689   3.043   4.227  0.1190  0.2919  0.9175
 5305SOL    HW227378   1.543   3.033   4.280 -0.6536 -0.6617 -0.2689
 5306SOL     OW27379   4.131   2.480  17.057  0.6444  0.4785  0.3156
 5306SOL    HW127380   4.140   2.501  16.964  0.2299  0.5542  0.2915
 5306SOL    HW227381   4.082   2.397  17.058 -2.8249  2.5245  0.2813
 5307SOL     OW27382   4.092   2.441   8.746  0.6371 -0.3181 -0.2981
 5307SOL    HW127383   4.147   2.365   8.729  1.6564  0.3148  0.1497
 5307SOL    HW227384   4.159   2.509   8.757 -0.2990  0.0610  2.8535
 5308SOL     OW27385   3.007   2.079   8.157 -0.7264  0.0109 -0.5998
 5308SOL    HW127386   3.050   2.164   8.165 -2.5416  0.8294  0.4517
 5308SOL    HW227387   2.919   2.099   8.190 -0.5959  0.5741 -0.5909
 5309SOL     OW27388   1.162   2.428   0.292 -0.0291 -0.1941 -0.0210
 5309SOL    HW127389   1.230   2.488   0.323 -0.6986  0.9046 -0.6996
 5309SOL    HW227390   1.088   2.488   0.298 -0.2510 -0.6104  1.5763
 5310SOL     OW27391   1.152   1.361   8.020  0.1654 -0.6270 -0.0409
 5310SOL    HW127392   1.204   1.339   8.097 -0.2349  0.3061  0.4814
 5310SOL    HW227393   1.211   1.373   7.945  0.4337  0.3955  0.3469
 5311SOL     OW27394   1.878   1.871   5.282  0.3923  0.2473  0.1992
 5311SOL    HW127395   1.785   1.861   5.303 -0.0096  2.1667 -0.6549
 5311SOL    HW227396   1.919   1.836   5.361  3.3229  1.5100 -0.7556
 5312SOL     OW27397   3.319   1.817  12.867  0.0156  0.7409 -0.3697
 5312SOL    HW127398   3.404   1.847  12.835  0.9605 -1.4991 -0.0067
 5312SOL    HW227399   3.300   1.888  12.928  0.3084  0.8935 -0.4548
 5313SOL     OW27400   4.404   3.580   1.881  0.1170 -0.2933  0.0120
 5313SOL    HW127401   4.370   3.670   1.881 -0.3031 -0.4496 -0.5564
 5313SOL    HW227402   4.487   3.593   1.835  0.7728 -1.3784  0.8865
 5314SOL     OW27403   1.753   3.071   7.643 -0.5576  0.3524 -0.5132
 5314SOL    HW127404   1.768   2.996   7.700 -2.0641  1.4160  1.3127
 5314SOL    HW227405   1.819   3.059   7.575 -1.5848  1.3983 -1.7091
 5315SOL     OW27406   1.679   1.541   8.552 -0.2692  0.3670 -0.3403
 5315SOL    HW127407   1.705   1.622   8.597 -2.2519  0.6267  0.3466
 5315SOL    HW227408   1.675   1.479   8.625 -0.6635 -0.2845 -0.9161
 5316SOL     OW27409   3.599   0.451   4.195 -0.0177 -0.1971 -0.0738
 5316SOL    HW127410   3.636   0.386   4.136  0.5580 -0.5544  0.6858
 5316SOL    HW227411   3.506   0.461   4.174 -0.8577 -3.1942  2.2922
 5317SOL     OW27412   1.467   2.689   2.260  0.0059 -0.1418 -0.4244
 5317SOL    HW127413   1.428   2.667   2.345  2.0646  0.1848  0.5974
 5317SOL    HW227414   1.445   2.782   2.251  1.0809  0.2116  0.5870
 5318SOL     OW27415   4.541   3.975  15.193 -0.2844  0.1661  0.1413
 5318SOL    HW127416   4.613   4.038  15.203  0.4776 -0.7315  0.2492
 5318SOL    HW227417   4.557   3.917  15.268  0.3087  0.1375 -0.0099
 5319SOL     OW27418   3.802   3.175   8.225 -0.0206 -0.2675  0.2047
 5319SOL    HW127419   3.718   3.192   8.182 -0.3027 -0.0635  0.8327
 5319SOL    HW227420   3.864   3.197   8.155  1.2466 -0.3190  1.3136
 5320SOL     OW27421   4.311   0.030   5.771 -0.7036  0.0677 -0.8839
 5320SOL    HW127422   4.317   4.659   5.784  1.0303  0.2464 -0.4254
 5320SOL    HW227423   4.236   0.055   5.825  0.1825  0.2649  0.2716
 5321SOL     OW27424   3.459   1.010   1.823  0.6527 -0.4246  0.0057
 5321SOL    HW127425   3.378   0.974   1.787  0.9913 -0.6013 -0.5671
 5321SOL    HW227426   3.485   1.088   1.773 -0.9917  2.8592  4.2008
 5322SOL     OW27427   2.173   3.768   5.539  0.2662  0.1370  0.3554
 5322SOL    HW127428   2.260   3.776   5.501  0.3342 -0.3689  0.3977
 5322SOL    HW227429   2.135   3.706   5.478  0.8956  0.5924 -0.4911
 5323SOL     OW27430   0.431   1.094  15.862 -0.6857 -0.3469  0.0118
 5323SOL    HW127431   0.438   1.034  15.937  1.1022  1.1738  1.0751
 5323SOL    HW227432   0.484   1.054  15.794 -3.8062 -1.7100 -1.6162
 5324SOL     OW27433   4.431   1.973   7.739 -0.8332 -0.2924 -0.1244
 5324SOL    HW127434   4.445   2.062   7.707  2.3103 -0.2667  1.2806
 5324SOL    HW227435   4.506   1.966   7.798 -0.8041 -0.4233 -0.1756
 5325SOL     OW27436   4.016   2.162   1.426 -0.2664 -0.6827  0.0511
 5325SOL    HW127437   4.092   2.220   1.418 -1.6675  0.9366 -1.6085
 5325SOL    HW227438   3.992   2.184   1.516 -2.4692  0.3491 -0.7892
 5326SOL     OW27439   2.958   2.034   9.598 -0.1082  0.0307 -0.7819
 5326SOL    HW127440   3.012   2.113   9.592 -0.2034  0.1387 -0.1361
 5326SOL    HW227441   2.891   2.052   9.532  2.1850 -0.5709 -3.3121
 5327SOL     OW27442   4.283   0.237   0.716  0.3750 -0.2721  0.1958
 5327SOL    HW127443   4.257   0.204   0.802 -0.8702 -0.2853 -0.1941
 5327SOL    HW227444   4.195   0.239   0.679 -0.1395  0.4835  1.4379
 5328SOL     OW27445   3.954   2.115   7.497  0.0316 -0.0349 -0.2976
 5328SOL    HW127446   3.920   2.146   7.581 -0.5801  1.1812 -0.9932
 5328SOL    HW227447   4.046   2.116   7.524  0.0707 -0.5965 -0.4004
 5329SOL     OW27448   3.094   3.253  12.665 -0.1335 -0.0095  0.4933
 5329SOL    HW127449   3.100   3.160  12.688 -2.5777 -0.1375  0.6023
 5329SOL    HW227450   3.181   3.277  12.634 -1.2772 -0.7242 -3.2015
 5330SOL     OW27451   1.835   3.990   8.675  0.3024 -0.4894  0.3915
 5330SOL    HW127452   1.792   4.009   8.592  2.3371  2.6419  0.0631
 5330SOL    HW227453   1.830   4.071   8.727 -0.1382  0.3058 -0.8942
 5331SOL     OW27454   3.554   1.174   5.403 -0.3779 -0.6341 -0.0477
 5331SOL    HW127455   3.545   1.261   5.366  0.0694  0.1219  1.6004
 5331SOL    HW227456   3.530   1.118   5.329 -0.9276 -0.3734 -0.0638
 5332SOL     OW27457   1.385   4.422   3.329 -0.0185  0.0984  0.1130
 5332SOL    HW127458   1.420   4.483   3.395 -2.4629  0.4094  1.1304
 5332SOL    HW227459   1.317   4.375   3.377 -0.3889  3.0809  2.5508
 5333SOL     OW27460   1.639   1.795   7.187 -0.2649  0.3917 -0.0353
 5333SOL    HW127461   1.721   1.805   7.235 -0.5329 -0.3492  0.5674
 5333SOL    HW227462   1.662   1.821   7.097 -1.5804 -0.7824 -0.7102
 5334SOL     OW27463   4.650   1.569   7.413  0.1968  0.2804  0.4004
 5334SOL    HW127464   4.698   1.630   7.469  1.4777 -0.3212 -0.0479
 5334SOL    HW227465   4.593   1.617   7.354  1.1284  0.6371 -0.2015
 5335SOL     OW27466   0.195   2.028   7.803 -0.7275  0.6293 -0.1466
 5335SOL    HW127467   0.203   2.065   7.890 -0.4331 -2.6674  1.2368
 5335SOL    HW227468   0.181   2.103   7.745  0.8593 -0.6117 -2.1502
 5336SOL     OW27469   2.140   0.892   2.569  0.0950 -0.0868 -0.2887
 5336SOL    HW127470   2.159   0.979   2.534 -1.6292  0.8533  1.0977
 5336SOL    HW227471   2.121   0.853   2.484 -0.1076 -0.3228 -0.1348
 5337SOL     OW27472   1.547   1.291  12.378 -0.1562 -0.0256  0.5759
 5337SOL    HW127473   1.569   1.258  12.291 -0.6849 -2.2616  1.2902
 5337SOL    HW227474   1.606   1.243  12.436  1.5349  0.3234 -0.8414
 5338SOL     OW27475   3.084   3.238   9.212  0.1460  0.3474  0.4628
 5338SOL    HW127476   2.996   3.219   9.242 -0.1158 -0.7267 -0.9678
 5338SOL    HW227477   3.058   3.254   9.121 -0.1359  1.9664  0.8255
 5339SOL     OW27478   2.302   2.426  12.865  0.3225 -0.1370  0.0699
 5339SOL    HW127479   2.351   2.345  12.875 -0.5990 -0.5259  1.4349
 5339SOL    HW227480   2.369   2.489  12.839 -1.8333  2.5271  0.9561
 5340SOL     OW27481   3.405   0.820   8.946 -0.6153 -0.1085 -0.3480
 5340SOL    HW127482   3.354   0.888   8.901 -1.4556 -0.2374  0.4172
 5340SOL    HW227483   3.473   0.803   8.881  1.4552  0.7887  1.5688
 5341SOL     OW27484   4.648   0.450   2.473 -0.4531  0.6914  0.7638
 5341SOL    HW127485   0.018   0.465   2.452 -0.0935 -2.6254 -0.0321
 5341SOL    HW227486   4.638   0.374   2.416 -1.9084  1.0593  0.5342
 5342SOL     OW27487   3.049   1.958  11.195 -0.1884 -0.1250 -0.1519
 5342SOL    HW127488   2.960   1.923  11.201  0.2710 -1.5219 -1.4204
 5342SOL    HW227489   3.073   1.986  11.284 -0.3988 -0.4481  0.0056
 5343SOL     OW27490   1.258   1.377   5.185  0.0167  0.0501  0.3834
 5343SOL    HW127491   1.296   1.464   5.183  1.6171 -0.6216  1.6132
 5343SOL    HW227492   1.178   1.381   5.132  0.1157 -0.5347  0.1825
 5344SOL     OW27493   0.227   2.682   0.152 -0.2597  0.1457  0.6253
 5344SOL    HW127494   0.158   2.636   0.103  0.5554 -0.8529  0.4122
 5344SOL    HW227495   0.215   2.647   0.240 -3.0972  2.1939  1.0601
 5345SOL     OW27496   0.059   4.031   3.503  0.4893 -0.3006  0.3761
 5345SOL    HW127497   0.122   4.095   3.468  1.9196 -1.5080  0.7313
 5345SOL    HW227498   0.115   3.971   3.553  1.5339  0.8294  0.5571
 5346SOL     OW27499   2.226   2.513   4.094  0.0422  0.1648  0.2215
 5346SOL    HW127500   2.246   2.515   4.188 -2.2247  4.4337  0.6381
 5346SOL    HW227501   2.245   2.606   4.082  0.9882 -0.2753 -1.6089
 5347SOL     OW27502   4.164   2.438  12.731 -0.1743 -0.1377 -0.1151
 5347SOL    HW127503   4.144   2.403  12.644 -1.4786  0.7101 -0.1634
 5347SOL    HW227504   4.254   2.463  12.709  0.8158 -1.7794  2.0487
 5348SOL     OW27505   0.018   1.833   6.327  0.4534  0.2981  0.0457
 5348SOL    HW127506   4.667   1.786   6.366  0.8673  0.5720  1.1594
 5348SOL    HW227507   0.093   1.778   6.345  1.0047  0.9225 -0.3544
 5349SOL     OW27508   3.698   2.697   1.771  0.3931  0.1144 -0.3558
 5349SOL    HW127509   3.665   2.786   1.784 -2.0097 -0.9726  0.8673
 5349SOL    HW227510   3.626   2.644   1.804 -0.6225  1.0210 -1.1277
 5350SOL     OW27511   0.119   4.460   3.374 -0.0773  0.3168 -0.5977
 5350SOL    HW127512   0.042   4.480   3.321 -0.1258  1.4031 -0.1114
 5350SOL    HW227513   0.145   4.540   3.420 -4.1056  0.7608  0.8863
 5351SOL     OW27514   1.013   2.490   4.118 -0.0359 -0.0087  0.1866
 5351SOL    HW127515   0.927   2.493   4.076  1.2429  2.9269 -2.2066
 5351SOL    HW227516   1.061   2.437   4.055 -0.4047  1.1985 -1.1092
 5352SOL     OW27517   4.591   1.230   8.999 -0.0037 -0.0293 -0.4278
 5352SOL    HW127518   4.686   1.227   8.990 -0.0159 -0.2381 -0.5040
 5352SOL    HW227519   4.565   1.142   8.972  0.0775  0.0158 -0.6543
 5353SOL     OW27520   0.755   1.387   4.518 -0.0532 -0.0385  0.5652
 5353SOL    HW127521   0.677   1.404   4.571 -0.1230 -0.0543  0.4683
 5353SOL    HW227522   0.822   1.398   4.585  0.1457 -0.2195  0.3917
 5354SOL     OW27523   3.703   2.242   3.280 -0.1383  0.7622 -0.2310
 5354SOL    HW127524   3.735   2.291   3.356 -1.0928  0.1801  0.5513
 5354SOL    HW227525   3.721   2.153   3.309 -0.2766  0.5912 -0.6688
 5355SOL     OW27526   3.030   3.552   9.461  0.7590  0.7007  0.3658
 5355SOL    HW127527   3.111   3.546   9.410  0.1142 -1.2159 -0.4586
 5355SOL    HW227528   3.016   3.644   9.485 -0.7877  0.7481 -0.6657
 5356SOL     OW27529   3.717   1.054   2.558 -0.4037 -0.0715  0.0749
 5356SOL    HW127530   3.642   1.014   2.514 -0.4172  1.6715 -1.4811
 5356SOL    HW227531   3.770   0.978   2.577 -2.4515 -0.6478  3.4888
 5357SOL     OW27532   2.158   1.165  13.760  0.1486 -0.1240  0.2430
 5357SOL    HW127533   2.159   1.126  13.848  0.3546 -0.4600  0.0896
 5357SOL    HW227534   2.079   1.219  13.767 -0.3564 -0.8419  0.1049
 5358SOL     OW27535   1.110   3.895   6.045 -0.6179 -0.5669  0.4827
 5358SOL    HW127536   1.196   3.901   6.087 -0.2511 -0.4595 -0.2892
 5358SOL    HW227537   1.134   3.927   5.958 -1.3150 -1.8208 -0.1574
 5359SOL     OW27538   2.425   4.612   3.006  0.3157 -0.2724 -0.6911
 5359SOL    HW127539   2.501   4.595   3.062  1.2846  1.4146 -1.5079
 5359SOL    HW227540   2.392   4.695   3.040  2.3276  0.4478 -0.4806
 5360SOL     OW27541   2.218   3.403   5.325  0.5108  0.6563 -0.1913
 5360SOL    HW127542   2.246   3.370   5.240 -2.0627 -0.7843 -0.4781
 5360SOL    HW227543   2.133   3.437   5.296 -0.7795 -3.0945 -0.7755
 5361SOL     OW27544   1.158   4.364   2.804  0.4864  0.1101  0.2099
 5361SOL    HW127545   1.104   4.380   2.726 -1.6289  0.8771  1.8172
 5361SOL    HW227546   1.082   4.341   2.857  0.8458 -0.4414  0.4825
 5362SOL     OW27547   4.062   3.176   7.501  0.4651  0.5891  0.3228
 5362SOL    HW127548   4.010   3.146   7.427  0.4216  2.2761 -0.3344
 5362SOL    HW227549   4.079   3.097   7.552 -0.4624 -0.8986 -1.6625
 5363SOL     OW27550   2.748   3.299   2.510  1.0600  0.5279  0.2200
 5363SOL    HW127551   2.835   3.300   2.469  0.2777 -0.1217 -1.4420
 5363SOL    HW227552   2.759   3.281   2.603  0.3942  1.0664  0.4052
 5364SOL     OW27553   0.780   4.690   9.748  0.5701  0.2661  0.4935
 5364SOL    HW127554   0.819   4.713   9.832  1.9896 -0.7057  0.0934
 5364SOL    HW227555   0.808   4.600   9.732  0.2937  0.2637  0.0177
 5365SOL     OW27556   0.064   2.577   4.230  0.3382  0.0936  0.5783
 5365SOL    HW127557   0.028   2.513   4.291 -0.9409 -0.3254 -0.6164
 5365SOL    HW227558   0.153   2.543   4.228  0.1450 -0.4044  0.4060
 5366SOL     OW27559   1.441   4.301   2.765  0.1949  0.5567 -0.1224
 5366SOL    HW127560   1.354   4.339   2.763  0.3739  0.7846 -3.2183
 5366SOL    HW227561   1.431   4.247   2.686  0.6354  0.4025 -0.0780
 5367SOL     OW27562   4.117   3.838   5.928  0.5764 -0.3468 -0.2365
 5367SOL    HW127563   4.188   3.805   5.983  1.9992 -0.3697 -2.0788
 5367SOL    HW227564   4.169   3.898   5.874 -2.0568  0.4073 -1.9547
 5368SOL     OW27565   1.089   2.777   4.733  0.5238 -0.2407 -0.1270
 5368SOL    HW127566   1.184   2.786   4.743  0.4111 -0.8962  1.6169
 5368SOL    HW227567   1.074   2.862   4.692  2.0543  0.7620  1.3342
 5369SOL     OW27568   2.842   3.277   0.396 -0.5469  0.2583  0.6847
 5369SOL    HW127569   2.889   3.349   0.437  1.8440  0.4015 -2.3279
 5369SOL    HW227570   2.758   3.286   0.441  0.5276  1.4697  2.4584
 5370SOL     OW27571   3.803   1.539   7.847  0.5609  0.2521 -0.0721
 5370SOL    HW127572   3.827   1.629   7.824  1.2423  0.5172  1.7159
 5370SOL    HW227573   3.864   1.500   7.785  1.2635  0.7289  0.3137
 5371SOL     OW27574   0.982   2.255  16.585 -0.0984 -0.1806 -0.2107
 5371SOL    HW127575   1.032   2.212  16.515 -2.3594  0.4612 -2.2271
 5371SOL    HW227576   1.047   2.320  16.612  3.0714 -2.8508 -1.3445
 5372SOL     OW27577   4.412   2.211   2.215 -0.6621 -0.0770  0.0236
 5372SOL    HW127578   4.437   2.118   2.214 -1.5315 -0.2953 -1.4752
 5372SOL    HW227579   4.349   2.206   2.287 -2.5250  1.4532 -1.5181
 5373SOL     OW27580   3.088   1.926   7.941  0.1350 -0.1089 -0.7568
 5373SOL    HW127581   3.061   1.977   8.017 -0.5759 -2.0601  0.3135
 5373SOL    HW227582   3.008   1.908   7.891 -1.1215  1.8856  0.5543
 5374SOL     OW27583   3.908   0.009   7.214  0.2969  0.4134 -0.3120
 5374SOL    HW127584   3.866   4.647   7.201 -0.1763  0.4661  0.8769
 5374SOL    HW227585   3.998   0.001   7.180  0.8985  3.7923  0.5369
 5375SOL     OW27586   0.100   2.941   8.169 -0.2912  0.2326  0.0504
 5375SOL    HW127587   0.192   2.933   8.143 -1.1698 -4.8637 -1.6193
 5375SOL    HW227588   0.058   2.876   8.112  2.6293 -1.3011 -0.3631
 5376SOL     OW27589   4.589   0.019  10.997  0.0771  0.4516 -0.5888
 5376SOL    HW127590   4.668   0.055  11.038 -0.4734  0.7029  0.2475
 5376SOL    HW227591   4.589   4.653  11.031 -1.0092  0.6942  0.0562
 5377SOL     OW27592   3.813   2.572   8.012 -0.4305 -0.2124  0.3901
 5377SOL    HW127593   3.897   2.535   8.040 -0.2373  0.9884  1.3741
 5377SOL    HW227594   3.846   2.584   7.923  0.3146  0.4339  0.7520
 5378SOL     OW27595   2.152   2.864  12.171  0.5905 -0.4964 -0.0625
 5378SOL    HW127596   2.216   2.795  12.187  1.1046 -0.2412 -1.0753
 5378SOL    HW227597   2.208   2.937  12.144 -0.1048  0.3039  0.6384
 5379SOL     OW27598   0.006   4.021   3.838  0.2111  0.1030 -0.4701
 5379SOL    HW127599   0.065   3.973   3.780  1.5648  0.0409  0.9738
 5379SOL    HW227600   4.659   3.959   3.859  0.6625 -0.5629 -0.9445
 5380SOL     OW27601   2.965   0.629   4.443  0.5739  0.4500  0.2395
 5380SOL    HW127602   2.895   0.693   4.430 -0.0592  0.0360  1.6063
 5380SOL    HW227603   2.997   0.664   4.526  0.2940  0.0826  0.5033
 5381SOL     OW27604   0.748   4.260   4.242 -0.1565 -0.2794  0.5360
 5381SOL    HW127605   0.738   4.309   4.161 -1.1740  0.3586  1.0498
 5381SOL    HW227606   0.844   4.259   4.237 -0.2267 -0.0210 -0.7234
 5382SOL     OW27607   1.363   2.376   5.852 -0.1053 -0.0452  0.1089
 5382SOL    HW127608   1.343   2.286   5.873  0.8061 -0.6068 -1.3741
 5382SOL    HW227609   1.327   2.412   5.933 -1.2167  0.7027 -0.7166
 5383SOL     OW27610   0.844   0.725  13.989 -0.0079  0.1417 -0.6125
 5383SOL    HW127611   0.916   0.775  14.028  0.1856 -2.2160  2.0233
 5383SOL    HW227612   0.820   0.668  14.061  0.8731 -2.1352 -2.1055
 5384SOL     OW27613   3.623   1.966   3.998 -0.2160 -0.1208  0.2019
 5384SOL    HW127614   3.586   2.024   3.932 -1.3976 -2.0338 -0.8075
 5384SOL    HW227615   3.587   1.880   3.974 -1.8835  0.7267 -0.2942
 5385SOL     OW27616   3.729   4.128   3.866  0.0908  0.0705 -0.2614
 5385SOL    HW127617   3.663   4.113   3.934 -0.3821 -3.4072 -1.5092
 5385SOL    HW227618   3.675   4.103   3.791 -0.8641 -0.0460  0.4696
 5386SOL     OW27619   0.705   4.262  15.011 -0.0679  0.5494 -0.3560
 5386SOL    HW127620   0.730   4.171  14.999  3.8028  1.7076 -0.9977
 5386SOL    HW227621   0.615   4.248  15.043  0.2644 -1.7951 -0.4842
 5387SOL     OW27622   2.597   2.765   3.011 -0.2452 -0.0735 -0.7556
 5387SOL    HW127623   2.634   2.783   2.924  0.4313 -0.5680 -0.5722
 5387SOL    HW227624   2.674   2.772   3.066  0.4593 -1.1862 -1.5855
 5388SOL     OW27625   1.039   3.093   2.016  0.2483 -0.0481  0.0283
 5388SOL    HW127626   1.026   2.998   2.013 -0.0965 -0.0175  0.4832
 5388SOL    HW227627   0.948   3.122   2.022  0.2770 -0.1347  0.9744
 5389SOL     OW27628   0.150   2.679   1.065  0.1419 -0.4683 -0.0566
 5389SOL    HW127629   0.199   2.606   1.027  0.3908 -0.1813 -0.2874
 5389SOL    HW227630   0.087   2.627   1.115  2.4231 -1.9462  1.2722
 5390SOL     OW27631   3.763   3.340   1.671  0.1866 -0.3717 -0.0662
 5390SOL    HW127632   3.820   3.265   1.688 -1.6813 -1.4985  1.2603
 5390SOL    HW227633   3.700   3.332   1.743  1.5206  0.8377  1.2281
 5391SOL     OW27634   0.184   0.654   2.524  0.0206 -0.1552 -0.3947
 5391SOL    HW127635   0.183   0.562   2.495  1.9232 -0.3075  0.0316
 5391SOL    HW227636   0.271   0.668   2.562 -0.2597 -0.1698  0.2458
 5392SOL     OW27637   2.190   0.885  17.039 -0.1000 -0.1109 -0.4962
 5392SOL    HW127638   2.247   0.892  17.115 -0.0314 -0.6185 -0.5033
 5392SOL    HW227639   2.250   0.903  16.967 -0.3925  1.5891 -0.3228
 5393SOL     OW27640   0.364   3.032  16.152 -0.5920 -0.5018 -0.1491
 5393SOL    HW127641   0.364   2.941  16.123  1.2454 -1.4982  2.9473
 5393SOL    HW227642   0.302   3.068  16.089  0.2361 -1.0810 -1.3009
 5394SOL     OW27643   2.187   0.871  13.332  0.7180 -0.2005  0.6673
 5394SOL    HW127644   2.246   0.803  13.297  0.7808  1.0755 -1.7282
 5394SOL    HW227645   2.114   0.816  13.360  0.4923 -0.6249 -0.7418
 5395SOL     OW27646   0.001   1.792   0.609 -0.1603  0.0060  0.4535
 5395SOL    HW127647   0.017   1.703   0.578 -2.7822 -0.2416 -0.1666
 5395SOL    HW227648   4.691   1.826   0.526 -0.0735 -0.6579  0.1504
 5396SOL     OW27649   4.455   3.014  16.639  0.0311 -0.1496  0.6704
 5396SOL    HW127650   4.442   2.920  16.648 -0.9963 -0.2182 -1.4997
 5396SOL    HW227651   4.495   3.023  16.552  1.8741 -1.2528  1.3939
 5397SOL     OW27652   0.303   1.365   2.955 -0.1959  0.5022  0.1821
 5397SOL    HW127653   0.218   1.394   2.922 -1.1037 -1.9541  0.3753
 5397SOL    HW227654   0.327   1.448   2.995 -0.1188  0.3461  0.4563
 5398SOL     OW27655   4.499   4.113  16.823 -0.1042 -0.1659  0.0204
 5398SOL    HW127656   4.551   4.112  16.902  0.9011  2.6790 -0.6259
 5398SOL    HW227657   4.543   4.047  16.770  2.2293  0.0433  1.7170
 5399SOL     OW27658   2.268   1.339  16.489 -0.2654 -0.0598 -0.9704
 5399SOL    HW127659   2.292   1.282  16.562 -3.8209  0.4195  0.5291
 5399SOL    HW227660   2.218   1.400  16.543 -0.3378 -0.9037 -0.0890
 5400SOL     OW27661   0.577   3.491   0.361 -0.5575  0.2505  0.5887
 5400SOL    HW127662   0.621   3.571   0.391  0.4320  0.6208 -1.8120
 5400SOL    HW227663   0.499   3.532   0.321  0.4527 -0.2016 -1.8777
 5401SOL     OW27664   2.841   2.248   8.328 -0.2527 -0.0533  0.2432
 5401SOL    HW127665   2.829   2.301   8.249 -2.1878 -0.5524  0.1971
 5401SOL    HW227666   2.783   2.294   8.388  0.8065 -1.6039  2.4607
 5402SOL     OW27667   4.664   0.486  13.139  0.2742  0.5123 -0.0524
 5402SOL    HW127668   4.710   0.417  13.186  1.1306  2.2331  1.6164
 5402SOL    HW227669   4.586   0.491  13.195 -0.1526  1.1415 -0.6976
 5403SOL     OW27670   2.208   2.627   2.894 -0.2319 -0.0107 -0.1963
 5403SOL    HW127671   2.248   2.696   2.946  1.0945 -0.6934 -0.3177
 5403SOL    HW227672   2.188   2.555   2.953 -0.2294  0.1276 -0.0289
 5404SOL     OW27673   3.648   0.043  16.655 -0.8705  0.2998 -0.2410
 5404SOL    HW127674   3.604   0.051  16.570 -2.4531 -2.8050  0.2567
 5404SOL    HW227675   3.721   4.706  16.640 -1.4064 -0.1328 -1.1313
 5405SOL     OW27676   2.718   2.451   6.366 -0.4880 -0.2356 -0.0854
 5405SOL    HW127677   2.764   2.367   6.371  0.3361  0.1651 -0.8038
 5405SOL    HW227678   2.656   2.440   6.438 -0.0746 -2.0410 -0.0133
 5406SOL     OW27679   2.252   3.909   7.409 -0.6140  0.1019  0.1532
 5406SOL    HW127680   2.330   3.855   7.424 -0.9566  0.0350  1.6587
 5406SOL    HW227681   2.274   3.976   7.344 -0.2705  0.8872  1.0704
 5407SOL     OW27682   2.380   3.458   4.692  0.1537  0.5872  0.1585
 5407SOL    HW127683   2.462   3.409   4.692 -0.7543 -0.9148  0.7953
 5407SOL    HW227684   2.402   3.521   4.762 -1.1965 -0.8285  1.8410
 5408SOL     OW27685   3.083   3.004   3.814 -0.5808  0.2748 -0.0072
 5408SOL    HW127686   3.044   3.073   3.868 -1.9413  0.1918 -0.9030
 5408SOL    HW227687   3.176   3.029   3.804 -0.6385  0.5885  0.2134
 5409SOL     OW27688   2.896   3.679   7.267  0.5395 -0.1973 -0.4764
 5409SOL    HW127689   2.920   3.623   7.341 -0.8628  0.3791  0.4152
 5409SOL    HW227690   2.952   3.753   7.290  0.2956  0.0885 -0.8167
 5410SOL     OW27691   1.452   3.017   7.515 -0.2702  0.2429 -0.3489
 5410SOL    HW127692   1.457   2.945   7.578  0.1891  1.7457  1.3147
 5410SOL    HW227693   1.433   3.083   7.582 -1.2408 -2.0268  1.6018
 5411SOL     OW27694   3.609   3.106   2.652  0.4179 -0.0422 -0.5515
 5411SOL    HW127695   3.516   3.083   2.650  0.3713  0.2924 -1.7788
 5411SOL    HW227696   3.613   3.157   2.571 -1.5776  0.6050 -0.2469
 5412SOL     OW27697   0.241   1.802  17.485  0.1649 -0.2582  0.6876
 5412SOL    HW127698   0.246   1.837  17.396  2.1556 -0.8408  0.5637
 5412SOL    HW227699   0.278   1.714  17.481 -0.5282 -0.4960 -0.3770
 5413SOL     OW27700   0.665   3.872   7.922 -0.0406 -0.1242  0.7630
 5413SOL    HW127701   0.647   3.783   7.893  0.7123  0.1090 -0.4017
 5413SOL    HW227702   0.759   3.859   7.909 -0.3679 -1.8063  0.0148
 5414SOL     OW27703   1.162   2.398   2.848  0.0760 -0.3927  0.0847
 5414SOL    HW127704   1.114   2.403   2.765 -2.5360  0.3687  1.6373
 5414SOL    HW227705   1.202   2.485   2.849 -2.4034  0.7394 -0.4572
 5415SOL     OW27706   0.441   1.530   4.112  0.7641 -0.0479  0.0460
 5415SOL    HW127707   0.531   1.499   4.101  0.5641 -0.4680 -0.4244
 5415SOL    HW227708   0.417   1.498   4.198  0.0265 -0.5595 -0.3502
 5416SOL     OW27709   1.368   4.200  12.113  0.0811 -0.3000  0.3215
 5416SOL    HW127710   1.432   4.223  12.180  0.5339  0.3303 -0.3384
 5416SOL    HW227711   1.378   4.105  12.108 -2.8316 -0.6301  0.6486
 5417SOL     OW27712   1.817   3.839   7.916 -0.9341  0.1602  0.5047
 5417SOL    HW127713   1.894   3.836   7.859 -0.5351  1.1436  1.0044
 5417SOL    HW227714   1.802   3.744   7.921 -0.1403 -0.1850 -3.3107
 5418SOL     OW27715   0.176   1.285   0.320 -0.2022  0.0912  0.1497
 5418SOL    HW127716   0.145   1.208   0.273  1.1271 -0.7172  0.5703
 5418SOL    HW227717   0.271   1.273   0.316 -0.0772  1.1847 -0.2325
 5419SOL     OW27718   0.624   1.640   4.849 -0.1961  0.5191  0.2157
 5419SOL    HW127719   0.554   1.701   4.826 -2.2679 -2.3253 -0.9266
 5419SOL    HW227720   0.583   1.558   4.824 -0.3391  0.4502  0.6771
 5420SOL     OW27721   3.123   3.590   8.720 -0.5837 -0.1390 -0.2123
 5420SOL    HW127722   3.144   3.677   8.753 -0.7958  1.1425 -3.5481
 5420SOL    HW227723   3.057   3.606   8.653  1.3881  0.0157 -2.0927
 5421SOL     OW27724   3.874   0.111   6.629 -0.1566  0.2105 -0.1832
 5421SOL    HW127725   3.968   0.129   6.620 -0.1112  0.7988  1.3763
 5421SOL    HW227726   3.893   0.040   6.690  0.5797  1.6002  1.2090
 5422SOL     OW27727   3.496   3.539  10.757  0.1865 -0.1607  0.0986
 5422SOL    HW127728   3.537   3.617  10.795 -1.8025  0.7235  0.4079
 5422SOL    HW227729   3.493   3.570  10.667  0.3252 -0.8853 -0.1522
 5423SOL     OW27730   1.710   0.786   8.781 -0.3910  0.2394  0.2614
 5423SOL    HW127731   1.775   0.818   8.843 -0.5575 -0.1942  0.6629
 5423SOL    HW227732   1.755   0.712   8.741  0.3314 -0.1610  1.7973
 5424SOL     OW27733   4.686   1.918   7.892  0.6318  0.4759  0.0179
 5424SOL    HW127734   0.045   1.933   7.844  1.3869 -2.1864  0.4970
 5424SOL    HW227735   4.706   1.956   7.977  1.3666 -1.7927  0.8468
 5425SOL     OW27736   0.705   1.332  14.636 -0.4508  0.5152 -0.0367
 5425SOL    HW127737   0.771   1.390  14.673  0.4270 -0.6253  0.1522
 5425SOL    HW227738   0.656   1.319  14.717 -3.8712  1.5747 -1.8867
 5426SOL     OW27739   1.610   2.459   1.137  0.2105  0.2197 -0.8810
 5426SOL    HW127740   1.518   2.433   1.136  0.6124 -1.2053 -1.6225
 5426SOL    HW227741   1.590   2.552   1.126 -1.6049 -0.2882 -1.8212
 5427SOL     OW27742   2.907   2.702   8.820  0.0287  0.0163  0.2579
 5427SOL    HW127743   2.975   2.734   8.880  0.9224 -1.5336  0.0746
 5427SOL    HW227744   2.897   2.782   8.768  0.3254  0.7957  1.4084
 5428SOL     OW27745   1.284   1.040   8.599 -0.0562 -0.5901 -0.4515
 5428SOL    HW127746   1.282   1.104   8.670  0.5159 -0.3194 -0.6784
 5428SOL    HW227747   1.379   1.030   8.594 -0.0547 -0.9635  0.3446
 5429SOL     OW27748   3.319   3.675   3.543  0.1956 -0.3807  0.3788
 5429SOL    HW127749   3.408   3.647   3.522  0.1088  0.2306 -0.7817
 5429SOL    HW227750   3.282   3.682   3.455 -1.8787  2.8682  1.4994
 5430SOL     OW27751   0.414   0.445   7.746  0.0358  0.3535  0.1089
 5430SOL    HW127752   0.376   0.525   7.709 -0.2567 -0.2430 -0.8943
 5430SOL    HW227753   0.500   0.444   7.705  0.3206  0.4148  0.7139
 5431SOL     OW27754   0.140   4.278   2.988  0.0369 -0.0100  0.0083
 5431SOL    HW127755   0.101   4.362   2.964  3.3433  1.1871 -1.1617
 5431SOL    HW227756   0.175   4.245   2.905 -0.4721  0.0133 -0.2164
 5432SOL     OW27757   2.502   1.482   3.679  0.1302  0.3601  0.5254
 5432SOL    HW127758   2.519   1.577   3.684  1.8778  0.1061 -0.3492
 5432SOL    HW227759   2.524   1.460   3.588  0.1473  2.0814  0.1083
 5433SOL     OW27760   3.920   3.753   2.674  0.0973 -0.2754  0.0256
 5433SOL    HW127761   3.954   3.665   2.655 -1.2781 -1.2722  2.2234
 5433SOL    HW227762   3.976   3.807   2.619 -1.0995  2.6444  1.6978
 5434SOL     OW27763   4.263   2.639   5.634  0.6175 -0.2138 -0.3712
 5434SOL    HW127764   4.217   2.556   5.619 -1.8928  1.1646 -0.3086
 5434SOL    HW227765   4.212   2.704   5.585  0.2998  0.5790  1.0212
 5435SOL     OW27766   1.764   3.394   2.756  0.7840 -0.5066  0.1471
 5435SOL    HW127767   1.836   3.390   2.819  0.1724 -1.0227  0.8176
 5435SOL    HW227768   1.811   3.429   2.681 -1.4609  0.1711 -0.9584
 5436SOL     OW27769   0.458   4.200   7.197 -0.2513 -0.0081 -0.1883
 5436SOL    HW127770   0.407   4.146   7.258 -0.9038  1.4038  0.5010
 5436SOL    HW227771   0.414   4.190   7.112  0.2416 -3.5268 -0.0235
 5437SOL     OW27772   3.533   0.669   2.658  0.5176  0.3752  0.1768
 5437SOL    HW127773   3.605   0.727   2.632  0.1487  1.2242  1.0550
 5437SOL    HW227774   3.510   0.618   2.580 -0.7718  0.4115  0.5380
 5438SOL     OW27775   2.602   1.111   2.719 -0.5424 -0.4242 -0.2662
 5438SOL    HW127776   2.695   1.092   2.728 -0.0640  1.2115 -1.6549
 5438SOL    HW227777   2.588   1.204   2.703 -1.5773 -0.3895  0.8178
 5439SOL     OW27778   2.545   1.864   9.269 -0.1811 -0.2042 -0.3356
 5439SOL    HW127779   2.590   1.791   9.312  0.8993  0.6647  0.0043
 5439SOL    HW227780   2.459   1.822   9.266 -0.0883 -0.4307  0.1243
 5440SOL     OW27781   1.884   2.205   4.084 -0.4419 -0.9542 -0.1789
 5440SOL    HW127782   1.969   2.170   4.055 -0.1249 -0.0561 -0.3357
 5440SOL    HW227783   1.894   2.298   4.063 -1.6169 -0.7996 -0.0570
 5441SOL     OW27784   4.316   1.406   9.218  0.1100  0.5790 -0.0452
 5441SOL    HW127785   4.291   1.324   9.261  1.3942 -0.1224 -0.6520
 5441SOL    HW227786   4.235   1.437   9.176  0.2092  1.5721  0.4943
 5442SOL     OW27787   2.044   2.859   7.413  0.2001  0.3464  0.1330
 5442SOL    HW127788   2.126   2.863   7.462 -1.0976 -1.6057  2.4231
 5442SOL    HW227789   2.073   2.813   7.334  0.9728  0.3939  0.3892
 5443SOL     OW27790   0.158   1.227   6.174  0.3171 -0.5979  0.5892
 5443SOL    HW127791   0.077   1.177   6.183  0.0817 -0.3276 -0.0007
 5443SOL    HW227792   0.145   1.300   6.112  1.1436 -1.4348 -0.5750
 5444SOL     OW27793   1.393   1.780   7.586 -0.0773  0.3927 -0.4167
 5444SOL    HW127794   1.478   1.736   7.588 -0.9219 -1.2791 -0.6537
 5444SOL    HW227795   1.367   1.770   7.678  0.5528 -0.8964 -0.3722
 5445SOL     OW27796   1.826   2.866   2.097 -0.4817  0.2661  0.2858
 5445SOL    HW127797   1.853   2.807   2.168 -2.2393  0.1689  0.8645
 5445SOL    HW227798   1.823   2.948   2.145  0.7138  1.5485 -1.8289
 5446SOL     OW27799   2.804   2.988   8.346 -0.0576  0.1658  0.1434
 5446SOL    HW127800   2.872   2.929   8.378 -0.6055  1.2945  3.3627
 5446SOL    HW227801   2.843   3.074   8.328  0.7236  0.0903  1.4306
 5447SOL     OW27802   1.486   3.735   7.434  0.0343 -0.7951 -0.0776
 5447SOL    HW127803   1.547   3.775   7.496 -1.2889  2.5688 -0.9506
 5447SOL    HW227804   1.499   3.642   7.452  0.2694 -0.8705 -0.6254
 5448SOL     OW27805   0.548   1.047   8.681 -0.0847 -0.0150 -0.4949
 5448SOL    HW127806   0.534   1.125   8.734 -3.6970 -1.2057  0.2612
 5448SOL    HW227807   0.516   1.074   8.596 -3.6203 -2.1159  0.1814
 5449SOL     OW27808   0.127   3.361   4.568  0.4019 -0.2007  0.2016
 5449SOL    HW127809   0.081   3.288   4.527 -1.7526  2.3711 -1.9639
 5449SOL    HW227810   0.050   3.412   4.594  0.0099 -0.9566  0.5087
 5450SOL     OW27811   0.049   0.156   8.360  0.4337 -0.1163 -0.2000
 5450SOL    HW127812   0.045   0.247   8.388 -0.1622 -0.9256  2.3656
 5450SOL    HW227813   0.132   0.118   8.391  1.1024 -0.0564 -1.8998
 5451SOL     OW27814   2.661   1.919   6.545  0.5509  0.1077 -0.3094
 5451SOL    HW127815   2.687   1.861   6.617 -1.5501 -0.1225  0.2907
 5451SOL    HW227816   2.606   1.986   6.587  0.8593  1.0583 -1.4451
 5452SOL     OW27817   1.195   3.789   5.444 -0.1103  0.4189 -0.4776
 5452SOL    HW127818   1.235   3.779   5.530  2.3958 -0.1861 -1.7379
 5452SOL    HW227819   1.134   3.715   5.453  0.6094  0.1143  1.7788
 5453SOL     OW27820   4.256   1.529   7.595  0.0468  0.0362  0.5734
 5453SOL    HW127821   4.351   1.535   7.586  0.2554 -1.4347  1.7021
 5453SOL    HW227822   4.260   1.504   7.687 -3.7357  0.5319  0.8848
 5454SOL     OW27823   2.950   4.346  12.687 -0.3539 -0.7166  0.2369
 5454SOL    HW127824   3.034   4.390  12.701 -0.1733 -1.1351  0.4688
 5454SOL    HW227825   2.962   4.261  12.729 -1.0980 -0.8060  0.2624
 5455SOL     OW27826   2.297   0.721   5.065 -0.2009  0.0070 -0.2281
 5455SOL    HW127827   2.280   0.711   5.159 -2.1352  0.3588 -0.5502
 5455SOL    HW227828   2.279   0.638   5.022 -2.6395  0.1116  0.6224
 5456SOL     OW27829   4.585   0.131   7.656 -0.0340 -0.3998  0.8835
 5456SOL    HW127830   4.588   0.184   7.735  0.6765  1.2493 -0.2518
 5456SOL    HW227831   4.590   0.199   7.589  0.9757 -0.4930  0.8678
 5457SOL     OW27832   0.789   1.465  10.679 -0.2417  0.4989 -0.0773
 5457SOL    HW127833   0.762   1.464  10.771 -1.9270 -1.0894 -0.5967
 5457SOL    HW227834   0.871   1.513  10.689 -0.2963  1.1386 -2.6098
 5458SOL     OW27835   2.879   4.571  13.697  0.4486  0.3683 -0.7006
 5458SOL    HW127836   2.859   4.610  13.612  0.7326 -1.9956 -1.8176
 5458SOL    HW227837   2.950   4.511  13.676  1.2170  1.7216 -1.9480
 5459SOL     OW27838   2.310   0.722   9.892  0.3614 -0.2673  0.5222
 5459SOL    HW127839   2.329   0.804   9.846  1.5122 -0.8395  0.0090
 5459SOL    HW227840   2.366   0.658   9.849  1.0444  0.6360  0.0764
 5460SOL     OW27841   0.048   1.750  12.470 -0.2088  0.0142  0.1767
 5460SOL    HW127842   0.018   1.825  12.521  1.1204  1.8234 -1.6978
 5460SOL    HW227843   4.704   1.750  12.402 -0.0577 -0.4433  0.0323
 5461SOL     OW27844   4.690   1.113  14.065  0.3909 -0.5787  0.7050
 5461SOL    HW127845   0.013   1.059  14.000 -0.1439  2.1446 -1.9063
 5461SOL    HW227846   0.039   1.117  14.129  0.1138 -1.5038  1.0855
 5462SOL     OW27847   1.258   4.537   6.171  0.0992  0.5545 -0.5307
 5462SOL    HW127848   1.295   4.530   6.259 -1.7570 -0.2130  0.1860
 5462SOL    HW227849   1.333   4.537   6.112  2.6802  1.8009  2.7205
 5463SOL     OW27850   0.081   0.184   4.358 -0.4997 -0.3018 -0.3910
 5463SOL    HW127851   0.102   0.272   4.326  1.4385  0.3382  2.5979
 5463SOL    HW227852   0.083   0.186   4.454 -0.5746  0.1612 -0.3975
 5464SOL     OW27853   0.889   0.480   3.176  0.4086  0.0323  0.0292
 5464SOL    HW127854   0.859   0.562   3.216  2.4025  0.2359  1.0976
 5464SOL    HW227855   0.847   0.502   3.093  1.9417  0.1278 -0.7224
 5465SOL     OW27856   4.062   1.305   3.862 -0.2505 -0.0927  0.0402
 5465SOL    HW127857   4.130   1.372   3.855  0.2333 -0.7600 -1.5731
 5465SOL    HW227858   4.088   1.251   3.788 -1.1128  0.5456 -0.7295
 5466SOL     OW27859   4.227   0.597  12.282  0.0108 -0.4885 -0.1576
 5466SOL    HW127860   4.158   0.660  12.263  0.5362 -0.5656 -2.3771
 5466SOL    HW227861   4.214   0.591  12.376  0.3504 -1.2375 -0.1568
 5467SOL     OW27862   1.641   1.847   8.828 -0.2358  0.1366 -0.5598
 5467SOL    HW127863   1.687   1.775   8.784 -0.8328 -1.0086  0.7052
 5467SOL    HW227864   1.702   1.916   8.855 -0.3538  0.8217 -2.0370
 5468SOL     OW27865   2.891   3.656   6.648 -0.0490  0.2235  0.5233
 5468SOL    HW127866   2.947   3.584   6.677  0.4737  0.2967 -0.2756
 5468SOL    HW227867   2.944   3.701   6.581  0.3398  0.0612  0.7228
 5469SOL     OW27868   1.749   4.716   4.350  0.0860  0.2506 -0.2155
 5469SOL    HW127869   1.810   0.066   4.364  2.7958 -2.2997  1.4374
 5469SOL    HW227870   1.690   0.015   4.423  2.1439  2.0726  0.9173
 5470SOL     OW27871   2.954   3.944   2.020 -0.5658  0.0987  0.0984
 5470SOL    HW127872   2.917   3.999   2.089 -1.4717 -0.2642 -0.1050
 5470SOL    HW227873   2.968   3.862   2.067  1.6769  0.0576 -0.6439
 5471SOL     OW27874   3.932   2.097   6.266 -0.3742  0.1252 -0.1984
 5471SOL    HW127875   3.982   2.145   6.332  0.2313  0.6076 -1.0164
 5471SOL    HW227876   3.953   2.011   6.303 -1.7300  0.4718  1.4154
 5472SOL     OW27877   1.674   3.066   8.435  0.1982  0.3347 -0.1450
 5472SOL    HW127878   1.726   3.142   8.412 -3.2808  2.6942 -0.1095
 5472SOL    HW227879   1.669   3.084   8.529  4.0251 -0.1852  0.1624
 5473SOL     OW27880   4.665   2.090   6.240  1.1995 -0.2054  0.2981
 5473SOL    HW127881   0.029   2.127   6.253  1.0117  0.5733 -0.7143
 5473SOL    HW227882   4.686   2.005   6.280  0.4375 -0.5135  0.0455
 5474SOL     OW27883   3.042   2.933  17.540  0.1381  0.1937 -0.1801
 5474SOL    HW127884   2.984   2.949  17.615  2.8164 -1.6896  2.3259
 5474SOL    HW227885   2.980   2.939  17.468 -0.5164 -0.0565  0.3601
 5475SOL     OW27886   0.150   3.257   0.597  0.3476  0.1971 -0.3786
 5475SOL    HW127887   0.060   3.245   0.565 -0.4998  2.4734  1.2069
 5475SOL    HW227888   0.153   3.214   0.682  2.8319  1.7483  0.3070
 5476SOL     OW27889   3.602   0.753   6.227  0.0956 -0.2929  0.2124
 5476SOL    HW127890   3.655   0.820   6.185  0.3510 -1.1963 -0.8861
 5476SOL    HW227891   3.587   0.792   6.313 -1.2533 -1.0254  0.3154
 5477SOL     OW27892   4.435   2.003   3.555 -0.7620 -0.1160 -0.4293
 5477SOL    HW127893   4.390   1.956   3.625  0.6138 -0.1610  0.4107
 5477SOL    HW227894   4.406   1.950   3.481  0.0867 -1.4650  0.2149
 5478SOL     OW27895   3.838   4.427   1.153  0.0032 -0.9951  0.2542
 5478SOL    HW127896   3.781   4.364   1.109  0.5729  0.3780 -2.3916
 5478SOL    HW227897   3.784   4.505   1.142  0.9011 -0.1684  1.5954
 5479SOL     OW27898   3.116   2.641   9.573  0.0608 -0.3259 -0.2290
 5479SOL    HW127899   3.026   2.647   9.605  0.1866  0.8535 -0.1032
 5479SOL    HW227900   3.101   2.681   9.487  0.7025 -2.4671 -1.3361
 5480SOL     OW27901   3.589   1.950   8.664 -0.6334 -0.2685  0.0234
 5480SOL    HW127902   3.566   1.859   8.684 -0.7590  0.1264  1.6495
 5480SOL    HW227903   3.524   2.009   8.703 -0.1645 -0.4316  1.0304
 5481SOL     OW27904   2.490   3.619  16.104  0.0543 -0.2059 -0.2085
 5481SOL    HW127905   2.429   3.552  16.135  0.0794  0.3434  1.0386
 5481SOL    HW227906   2.432   3.654  16.037  2.5379 -0.3800 -2.4158
 5482SOL     OW27907   0.531   1.552  12.552 -0.1876  0.7524 -0.2030
 5482SOL    HW127908   0.484   1.492  12.494 -0.3773  0.3603  0.3573
 5482SOL    HW227909   0.559   1.613  12.485 -1.4976  1.3541 -0.1973
 5483SOL     OW27910   4.670   4.114  17.070  0.0013  0.4258  0.1373
 5483SOL    HW127911   0.025   4.150  17.026  0.0311 -0.5093 -0.5797
 5483SOL    HW227912   4.710   4.030  17.094  0.2591  1.1310  2.1953
 5484SOL     OW27913   2.744   0.358   7.213  0.1103 -0.2634 -0.1505
 5484SOL    HW127914   2.713   0.372   7.123  0.3791  0.5186 -0.1120
 5484SOL    HW227915   2.808   0.429   7.218 -0.7527  0.2042  3.5998
 5485SOL     OW27916   0.520   4.571   4.712 -0.0108 -0.4831  0.5246
 5485SOL    HW127917   0.525   4.600   4.621 -0.8139 -1.9320  0.0051
 5485SOL    HW227918   0.613   4.551   4.723  0.0898  1.1758  2.7045
 5486SOL     OW27919   0.932   2.469   5.688 -0.0146 -0.2553 -0.2383
 5486SOL    HW127920   0.978   2.386   5.698 -0.8581 -0.7912 -0.9131
 5486SOL    HW227921   1.007   2.518   5.654 -0.0713  0.4047  0.5681
 5487SOL     OW27922   2.879   3.298   7.319  0.2343  0.1544  0.1802
 5487SOL    HW127923   2.813   3.355   7.279 -1.1465 -1.4070  0.2197
 5487SOL    HW227924   2.825   3.225   7.350 -1.1730  1.1505  0.0645
 5488SOL     OW27925   3.336   0.604   0.067  0.1148 -0.6118 -0.1224
 5488SOL    HW127926   3.341   0.521   0.113 -0.5513 -1.8633 -2.3128
 5488SOL    HW227927   3.242   0.618   0.055  0.3343  0.7689 -0.2270
 5489SOL     OW27928   4.303   4.447   6.966  0.2813 -0.1385  0.0729
 5489SOL    HW127929   4.351   4.437   6.884 -1.4213  0.5343 -0.9978
 5489SOL    HW227930   4.371   4.440   7.033  0.1441  4.2949  0.6740
 5490SOL     OW27931   2.856   2.799   5.039 -0.0049  0.0503  0.4163
 5490SOL    HW127932   2.781   2.742   5.021  1.0721 -1.3526  0.3382
 5490SOL    HW227933   2.924   2.773   4.976  0.5475 -2.1570  1.8847
 5491SOL     OW27934   1.619   2.228  13.324 -0.3240 -0.3234  0.1147
 5491SOL    HW127935   1.652   2.260  13.408  0.6553  1.0785 -0.8073
 5491SOL    HW227936   1.535   2.186  13.344 -0.3339 -0.7736 -0.8848
 5492SOL     OW27937   2.914   3.162   5.015 -0.2499  0.4743  0.7157
 5492SOL    HW127938   2.997   3.200   4.988 -0.0631 -0.5071 -0.1144
 5492SOL    HW227939   2.852   3.178   4.943  1.7261  1.7699 -0.6844
 5493SOL     OW27940   0.115   4.158  13.908  0.2865 -0.3543  0.1367
 5493SOL    HW127941   0.087   4.074  13.874  0.0573 -0.0367 -0.4699
 5493SOL    HW227942   0.122   4.141  14.002  0.6291 -1.3910 -0.0781
 5494SOL     OW27943   3.484   2.684  11.528 -0.7396  0.6978  0.3108
 5494SOL    HW127944   3.544   2.618  11.495  0.2311  1.0781  1.3018
 5494SOL    HW227945   3.428   2.624  11.577 -1.6654  0.8793 -0.5098
 5495SOL     OW27946   1.421   4.613   7.028 -0.2424  0.4417 -0.0466
 5495SOL    HW127947   1.466   4.687   7.070 -1.7658  1.4204 -0.1585
 5495SOL    HW227948   1.495   4.552   7.023 -0.7210 -0.0932 -0.6366
 5496SOL     OW27949   2.500   2.554   6.794 -0.3268  0.2115  0.5847
 5496SOL    HW127950   2.533   2.644   6.792 -0.8249  0.3615 -1.5682
 5496SOL    HW227951   2.522   2.526   6.882 -0.1325 -1.2327  0.0671
 5497SOL     OW27952   0.359   1.407   4.353  0.1634  0.0083  0.3616
 5497SOL    HW127953   0.300   1.352   4.404 -1.1416 -0.3018 -1.4926
 5497SOL    HW227954   0.386   1.468   4.422 -0.2844  0.3047  0.2769
 5498SOL     OW27955   4.496   0.108   4.905 -1.1285  0.2777 -0.3176
 5498SOL    HW127956   4.450   0.038   4.951 -0.4927 -0.5297 -0.9295
 5498SOL    HW227957   4.547   0.151   4.974 -1.0233 -0.6281  0.1620
 5499SOL     OW27958   3.153   3.106   8.898  0.0511 -0.3094 -0.2370
 5499SOL    HW127959   3.187   3.194   8.915  1.7694 -0.9912 -0.1543
 5499SOL    HW227960   3.167   3.094   8.804  3.4052  0.7857  0.1132
 5500SOL     OW27961   2.212   3.788   4.622  0.1799  0.3407  0.4369
 5500SOL    HW127962   2.183   3.841   4.695 -1.2928 -1.0471  0.8503
 5500SOL    HW227963   2.281   3.731   4.657  1.6987  1.7691 -0.2312
 5501SOL     OW27964   4.552   3.931   5.377 -0.3072 -0.0582  0.4025
 5501SOL    HW127965   4.577   3.843   5.349 -0.6985 -0.0673  0.0882
 5501SOL    HW227966   4.539   3.908   5.470  0.4729 -1.3318  0.2073
 5502SOL     OW27967   3.117   4.593   6.949 -0.6330  0.0704  0.0357
 5502SOL    HW127968   3.141   4.662   6.888 -1.4568 -0.1185 -0.5082
 5502SOL    HW227969   3.098   4.515   6.895 -1.8742 -0.0660  0.6577
 5503SOL     OW27970   0.275   2.739   3.408  0.2568 -0.0390  0.5787
 5503SOL    HW127971   0.194   2.693   3.431  0.7818 -2.5039 -2.4844
 5503SOL    HW227972   0.291   2.708   3.319  1.9394 -0.2793  0.9604
 5504SOL     OW27973   2.943   3.967   6.829  0.1281 -0.2193  0.4334
 5504SOL    HW127974   2.995   3.968   6.909  1.2637  0.6384 -0.3076
 5504SOL    HW227975   2.871   3.908   6.849  0.1542  0.1915  1.7166
 5505SOL     OW27976   3.073   2.085   0.617  0.0341  0.0298 -0.0206
 5505SOL    HW127977   3.065   2.005   0.564  2.4963 -0.3456  0.1645
 5505SOL    HW227978   3.141   2.063   0.681  0.4369 -1.3352 -0.9081
 5506SOL     OW27979   4.444   2.410  12.653  0.2860 -0.5345 -0.3250
 5506SOL    HW127980   4.442   2.314  12.663  0.0562 -0.3679  1.1897
 5506SOL    HW227981   4.531   2.425  12.617  0.9410 -0.2805  1.3559
 5507SOL     OW27982   1.163   4.045   9.264  0.1589 -0.0281 -0.2596
 5507SOL    HW127983   1.213   4.081   9.337 -0.0713 -1.4985  0.6051
 5507SOL    HW227984   1.074   4.050   9.299 -0.1139 -2.1060 -0.6583
 5508SOL     OW27985   1.505   3.243   5.255  0.1303  0.1213 -0.1630
 5508SOL    HW127986   1.562   3.230   5.179  1.7516  0.8376  0.9542
 5508SOL    HW227987   1.431   3.287   5.213 -0.5515  0.5927  1.5354
 5509SOL     OW27988   2.015   1.721  12.126 -0.1282  0.2385  0.2449
 5509SOL    HW127989   1.961   1.642  12.133 -0.6691  0.4708 -1.3167
 5509SOL    HW227990   2.083   1.678  12.074  0.1422 -0.3692  1.1097
 5510SOL     OW27991   4.144   4.329  12.302  0.3950 -0.6236 -0.3356
 5510SOL    HW127992   4.065   4.343  12.250 -0.2224  0.0125  0.7795
 5510SOL    HW227993   4.120   4.253  12.355 -0.2537  0.1403  0.4502
 5511SOL     OW27994   0.181   3.386   7.402 -0.1420 -0.2213 -0.0045
 5511SOL    HW127995   0.165   3.294   7.382  2.0648 -0.2260 -1.7603
 5511SOL    HW227996   0.218   3.387   7.490  0.2457  1.5373 -0.1817
 5512SOL     OW27997   2.308   0.536   7.140  0.1629 -0.3183  0.1032
 5512SOL    HW127998   2.309   0.526   7.045  0.2153  1.0446 -0.0440
 5512SOL    HW227999   2.240   0.471   7.158  1.7689 -1.8269  0.6950
 5513SOL     OW28000   2.473   1.222   3.816 -0.1814 -0.8612  1.0923
 5513SOL    HW128001   2.422   1.286   3.767  2.7012 -0.5115 -1.4789
 5513SOL    HW228002   2.426   1.145   3.786 -1.4987 -0.7503  2.8678
 5514SOL     OW28003   1.542   1.957   5.799  0.6465 -0.5795 -0.2703
 5514SOL    HW128004   1.482   2.000   5.861  2.6661 -0.3046  1.5019
 5514SOL    HW228005   1.559   2.020   5.729  2.5380 -1.1292 -0.3016
 5515SOL     OW28006   2.822   0.307   7.913 -0.6927  0.0567 -0.4279
 5515SOL    HW128007   2.839   0.390   7.957  1.1316 -1.3049  1.4639
 5515SOL    HW228008   2.909   0.271   7.934 -0.1773  1.1505 -0.6910
 5516SOL     OW28009   3.451   0.455   6.539 -0.1394 -0.8290  0.4139
 5516SOL    HW128010   3.387   0.397   6.580 -0.5855 -0.8579 -0.3276
 5516SOL    HW228011   3.391   0.519   6.500  0.3266 -0.5470  0.1653
 5517SOL     OW28012   2.356   1.455   6.123 -0.0758  0.0747 -0.2448
 5517SOL    HW128013   2.297   1.390   6.161 -1.8382  0.7599 -1.8424
 5517SOL    HW228014   2.417   1.464   6.196 -1.5263 -0.2804  1.0011
 5518SOL     OW28015   2.245   2.867   7.603 -0.5377  0.5455 -0.1312
 5518SOL    HW128016   2.234   2.918   7.683 -0.0684 -1.5371  1.2626
 5518SOL    HW228017   2.336   2.839   7.612 -0.3392  1.7271  1.5971
 5519SOL     OW28018   3.413   2.179   4.837 -0.5084 -0.2169 -0.3093
 5519SOL    HW128019   3.469   2.248   4.874 -1.0996  0.4553 -0.6589
 5519SOL    HW228020   3.461   2.100   4.859 -1.0120 -0.1558  1.0021
 5520SOL     OW28021   0.141   3.564   6.687  0.0516  0.0013 -0.6576
 5520SOL    HW128022   0.206   3.563   6.757 -1.7955  1.3147  1.0418
 5520SOL    HW228023   0.158   3.480   6.643 -2.2454 -1.3884  1.1486
 5521SOL     OW28024   2.970   1.915   2.173  0.5623 -0.2917 -0.2953
 5521SOL    HW128025   2.995   2.002   2.140  0.3754  0.1954  0.8391
 5521SOL    HW228026   3.036   1.862   2.129 -1.5190 -3.3077  0.2350
 5522SOL     OW28027   1.877   0.356   9.841  0.2649 -0.0245 -0.3306
 5522SOL    HW128028   1.948   0.297   9.867  0.3120  1.3026  2.5028
 5522SOL    HW228029   1.913   0.428   9.892  0.9934 -1.6364  1.4183
 5523SOL     OW28030   2.539   2.772   7.627  0.4939  0.0190  0.3454
 5523SOL    HW128031   2.599   2.702   7.600 -0.8017 -1.2169  0.6173
 5523SOL    HW228032   2.554   2.744   7.717  0.4663  0.6456  0.5443
 5524SOL     OW28033   2.401   1.818  10.644  0.1470 -0.6455  0.2925
 5524SOL    HW128034   2.485   1.801  10.602 -0.8009 -1.4646 -1.2781
 5524SOL    HW228035   2.343   1.746  10.618 -0.8743 -0.0831  1.0116
 5525SOL     OW28036   2.992   4.631   7.724  0.0458  0.0486  0.0516
 5525SOL    HW128037   3.002   4.560   7.660 -0.7961  0.9216 -1.0608
 5525SOL    HW228038   2.980   4.577   7.802  1.9827 -1.5327 -0.7663
 5526SOL     OW28039   1.670   0.422   7.736  0.0222 -0.9823  0.1535
 5526SOL    HW128040   1.589   0.448   7.780  0.8208 -0.4383  1.2813
 5526SOL    HW228041   1.641   0.402   7.647 -1.1698  2.1320 -0.1500
 5527SOL     OW28042   3.150   0.628   2.666  0.6687  0.0505  0.3881
 5527SOL    HW128043   3.087   0.556   2.662  0.2972  0.3611  0.5228
 5527SOL    HW228044   3.179   0.629   2.575  0.0765  1.4689  0.2092
 5528SOL     OW28045   0.901   4.279   0.473 -0.3480  0.5477  0.1736
 5528SOL    HW128046   0.876   4.187   0.468 -1.1588  0.7374  0.6825
 5528SOL    HW228047   0.834   4.312   0.533 -0.9720 -0.7371  0.1738
 5529SOL     OW28048   4.101   1.795   6.856 -0.0268  0.6764 -0.5540
 5529SOL    HW128049   4.060   1.769   6.939  0.2458  1.0899 -0.2930
 5529SOL    HW228050   4.021   1.798   6.803  0.3709  0.6933 -1.1496
 5530SOL     OW28051   2.031   3.110  17.524 -0.2328  0.7707  0.2579
 5530SOL    HW128052   2.018   3.066  17.440  3.7266  0.2497 -0.0886
 5530SOL    HW228053   1.966   3.072  17.583  1.5674 -2.0853  0.3604
 5531SOL     OW28054   3.855   3.301   2.176 -0.0372  0.6176 -0.2858
 5531SOL    HW128055   3.852   3.384   2.128  0.3672  0.9558  0.2730
 5531SOL    HW228056   3.864   3.320   2.269 -0.2892  2.9573 -0.7415
 5532SOL     OW28057   2.211   1.982  12.476 -0.0355 -0.4318  0.2849
 5532SOL    HW128058   2.256   2.064  12.498 -1.5795  0.0143  1.7418
 5532SOL    HW228059   2.201   1.953  12.566 -0.0520  0.7783  0.6743
 5533SOL     OW28060   4.252   0.987   6.752 -0.5172 -0.0626  0.6537
 5533SOL    HW128061   4.213   0.900   6.743  1.9851 -0.5668 -4.8475
 5533SOL    HW228062   4.226   1.022   6.667  2.5125 -0.1635 -0.3262
 5534SOL     OW28063   1.781   0.764   5.196  0.4637  0.3510  0.3269
 5534SOL    HW128064   1.793   0.786   5.288  0.7202 -0.2760  0.4428
 5534SOL    HW228065   1.875   0.754   5.178  0.6729  1.7361  0.6662
 5535SOL     OW28066   3.274   4.123   4.152 -0.8825  0.3603  0.7746
 5535SOL    HW128067   3.368   4.132   4.139 -0.8574 -0.1932  0.5629
 5535SOL    HW228068   3.278   4.079   4.237 -2.4401 -0.2046  0.5651
 5536SOL     OW28069   3.981   3.393   0.601 -0.5226 -0.3950 -0.6857
 5536SOL    HW128070   4.003   3.300   0.596  0.8939 -0.0580 -0.7637
 5536SOL    HW228071   3.995   3.423   0.512 -1.4595 -1.2863 -1.1331
 5537SOL     OW28072   0.587   1.725   2.914  0.0276 -0.1827  0.3694
 5537SOL    HW128073   0.652   1.655   2.914 -0.2423 -0.4378 -0.3334
 5537SOL    HW228074   0.549   1.716   2.827  0.3935 -1.3273  0.3298
 5538SOL     OW28075   0.285   1.706   6.332  0.8884 -0.2072  0.5079
 5538SOL    HW128076   0.376   1.735   6.326  0.5008  1.3320  2.0027
 5538SOL    HW228077   0.293   1.630   6.275 -0.4885  1.8018 -2.3566
 5539SOL     OW28078   3.620   1.763   4.634 -0.2425 -0.2700 -0.7860
 5539SOL    HW128079   3.700   1.791   4.590  0.7550 -0.8300  0.6756
 5539SOL    HW228080   3.643   1.717   4.714  2.7851 -2.9994 -3.2076
 5540SOL     OW28081   0.393   1.970   0.622 -0.2088 -0.5584 -1.0744
 5540SOL    HW128082   0.440   1.994   0.542 -0.8978  3.1968 -0.3678
 5540SOL    HW228083   0.357   2.055   0.649 -2.9213 -2.2016  0.4716
 5541SOL     OW28084   1.380   3.033  15.043  0.6316 -0.3022  0.4225
 5541SOL    HW128085   1.349   3.053  15.131  0.9988 -1.4559  0.8104
 5541SOL    HW228086   1.301   2.987  15.016  0.5856  0.2538 -0.3936
 5542SOL     OW28087   1.516   1.018   6.790 -0.2267  0.4540  0.5186
 5542SOL    HW128088   1.420   1.016   6.794 -0.3339 -0.7750 -3.0113
 5542SOL    HW228089   1.534   0.995   6.881 -1.0061  0.0944  0.5781
 5543SOL     OW28090   2.973   3.049   6.027 -0.7895  0.1065  0.2617
 5543SOL    HW128091   2.935   3.131   5.995  2.5525  1.9577  0.9421
 5543SOL    HW228092   2.912   2.989   5.985  1.6945 -2.6763  0.6418
 5544SOL     OW28093   4.155   2.351   4.895 -0.3426  0.5601 -0.4487
 5544SOL    HW128094   4.166   2.258   4.873 -0.6119  0.7501 -1.3810
 5544SOL    HW228095   4.060   2.355   4.909 -0.0591  0.8375  1.3870
 5545SOL     OW28096   4.631   2.971   5.527 -0.0167  0.0762  0.7405
 5545SOL    HW128097   4.635   2.926   5.443  0.5709  0.3696  0.6129
 5545SOL    HW228098   4.700   3.036   5.517  0.4010 -0.7332 -1.4160
 5546SOL     OW28099   1.695   0.231   2.304 -0.1383  0.3816 -0.3386
 5546SOL    HW128100   1.612   0.263   2.268 -0.6375 -0.7243 -0.1876
 5546SOL    HW228101   1.658   0.178   2.375  2.1330  0.6200  1.0224
 5547SOL     OW28102   2.906   0.654  17.428 -0.1966 -0.2198 -0.2735
 5547SOL    HW128103   2.867   0.570  17.406  0.4664 -0.2417 -1.3767
 5547SOL    HW228104   2.862   0.715  17.369 -0.3047 -2.5765 -2.5834
 5548SOL     OW28105   0.107   1.087   8.414  1.0244  0.4552  0.2017
 5548SOL    HW128106   0.039   1.085   8.346  1.9219  0.9990 -0.7049
 5548SOL    HW228107   0.067   1.164   8.456 -0.7063 -0.3330 -0.0255
 5549SOL     OW28108   4.223   1.132   8.481  0.1552  0.7351  0.2712
 5549SOL    HW128109   4.241   1.152   8.572  0.1150 -1.2048  0.6988
 5549SOL    HW228110   4.204   1.040   8.494 -0.6053  0.8460 -0.0517
 5550SOL     OW28111   2.471   2.642   2.281 -0.6961 -0.0887  0.3051
 5550SOL    HW128112   2.400   2.675   2.336 -0.7103  1.6898 -0.7766
 5550SOL    HW228113   2.524   2.718   2.302  0.2152 -0.3126 -1.2214
 5551SOL     OW28114   0.379   1.477   5.025 -0.2809  0.4605  0.2531
 5551SOL    HW128115   0.332   1.558   5.045 -0.3077 -0.5818  4.2980
 5551SOL    HW228116   0.472   1.500   5.037 -0.0299 -0.5758  0.2764
 5552SOL     OW28117   1.435   2.465   7.270 -0.3347 -0.5810  0.1544
 5552SOL    HW128118   1.409   2.408   7.198  2.0214  0.0031 -1.1685
 5552SOL    HW228119   1.471   2.395   7.325 -0.4033 -1.9634 -1.5582
 5553SOL     OW28120   1.385   1.407  11.142  0.0955 -0.1480  0.5166
 5553SOL    HW128121   1.307   1.352  11.143  1.5476 -2.2168 -1.1424
 5553SOL    HW228122   1.372   1.431  11.234  1.8824  0.3098  0.6666
 5554SOL     OW28123   4.390   0.693   9.997 -0.0834 -0.2844 -0.0795
 5554SOL    HW128124   4.375   0.743  10.077 -4.0349 -1.0750 -0.3442
 5554SOL    HW228125   4.480   0.663  10.015 -1.1058 -2.6582  0.9882
 5555SOL     OW28126   1.000   4.706   2.587  0.0804 -0.3199 -0.4922
 5555SOL    HW128127   0.945   4.648   2.640  1.1000  0.0020  0.9158
 5555SOL    HW228128   1.000   4.672   2.498  1.1802  0.9139 -0.9616
 5556SOL     OW28129   0.653   2.338   7.164 -0.1982  0.1100 -0.1102
 5556SOL    HW128130   0.671   2.324   7.071 -0.1828 -0.6961  0.0140
 5556SOL    HW228131   0.627   2.250   7.189 -0.5383 -0.1423 -1.3462
 5557SOL     OW28132   1.061   4.023   3.448 -0.0820  0.0205  0.4541
 5557SOL    HW128133   1.117   3.963   3.399  1.9915  2.8219 -0.6340
 5557SOL    HW228134   1.130   4.084   3.473  0.6411  0.1241 -1.8024
 5558SOL     OW28135   2.591   2.034   4.534  0.6679 -0.8052  0.5545
 5558SOL    HW128136   2.531   2.008   4.604  0.1620  0.6996  0.6870
 5558SOL    HW228137   2.528   2.057   4.465  2.3253  1.4373 -0.2217
 5559SOL     OW28138   1.413   1.179   5.119 -0.6673 -0.2287 -0.5469
 5559SOL    HW128139   1.338   1.131   5.084  0.7308 -1.9547 -1.1361
 5559SOL    HW228140   1.361   1.258   5.136 -0.7964 -0.3950 -0.1489
 5560SOL     OW28141   2.691   0.267   7.616  0.1733  0.3269 -0.2364
 5560SOL    HW128142   2.676   0.178   7.647 -2.8475  1.5018  1.5820
 5560SOL    HW228143   2.628   0.319   7.665 -1.2934 -0.9239 -0.7989
 5561SOL     OW28144   0.830   3.480   4.469 -0.2718  0.0004 -0.0195
 5561SOL    HW128145   0.775   3.430   4.530  0.4706  2.7470  2.8906
 5561SOL    HW228146   0.786   3.562   4.448  0.9423  0.7168  0.1983
 5562SOL     OW28147   0.643   2.046   5.828 -0.5030 -0.8274  0.6560
 5562SOL    HW128148   0.549   2.039   5.815 -0.6716  0.2134  1.3349
 5562SOL    HW228149   0.654   2.018   5.919 -0.6426 -1.1753  0.5685
 5563SOL     OW28150   4.052   2.368   9.517  0.8034 -0.4107  0.5008
 5563SOL    HW128151   4.082   2.285   9.481  1.5748 -0.0337  0.2871
 5563SOL    HW228152   4.004   2.342   9.597 -0.4386  0.8545  0.1693
 5564SOL     OW28153   1.719   0.995   1.463  0.2020 -0.1578  0.6801
 5564SOL    HW128154   1.672   1.078   1.458 -1.0160 -1.0234 -2.2897
 5564SOL    HW228155   1.742   0.992   1.556  0.9458 -0.9261  0.4698
 5565SOL     OW28156   3.324   2.624  12.740 -0.2231  0.4031 -0.0568
 5565SOL    HW128157   3.277   2.541  12.731  1.5839 -0.6972  0.6452
 5565SOL    HW228158   3.293   2.661  12.657 -0.2024 -1.3102 -0.8271
 5566SOL     OW28159   1.330   3.536   2.019 -0.1692  0.0845  0.3464
 5566SOL    HW128160   1.404   3.596   2.021 -0.3403  0.3117 -0.0693
 5566SOL    HW228161   1.361   3.474   1.954 -3.4115 -0.5428 -0.6107
 5567SOL     OW28162   2.713   2.320   4.296 -0.2577 -0.4264 -0.2139
 5567SOL    HW128163   2.734   2.412   4.316 -0.5789 -0.8208  1.9032
 5567SOL    HW228164   2.622   2.342   4.276 -0.1360 -1.3427 -1.7197
 5568SOL     OW28165   0.070   0.612   7.506 -0.0373 -0.1109  0.2505
 5568SOL    HW128166   4.706   0.650   7.521 -0.8663 -1.2498 -1.7323
 5568SOL    HW228167   0.133   0.657   7.562  1.8661 -0.3040 -1.7524
 5569SOL     OW28168   4.136   2.157   8.850  0.0017  0.6508 -0.0146
 5569SOL    HW128169   4.130   2.065   8.876  2.0329  0.3862 -0.4444
 5569SOL    HW228170   4.050   2.168   8.811  0.3986  0.1756 -1.0352
 5570SOL     OW28171   4.658   3.213   0.071  0.4531 -0.4638  0.4365
 5570SOL    HW128172   4.572   3.204   0.029  1.6779 -1.4895 -1.8717
 5570SOL    HW228173   4.635   3.274   0.141 -0.8001  1.4307 -1.6248
 5571SOL     OW28174   2.095   2.079   1.641  0.3033 -0.3672  0.4843
 5571SOL    HW128175   2.013   2.029   1.641 -0.3601  0.7383 -2.2413
 5571SOL    HW228176   2.071   2.165   1.606 -0.5942 -0.7565  0.1427
 5572SOL     OW28177   2.901   0.759   6.643 -0.7011 -0.3661 -0.0225
 5572SOL    HW128178   2.916   0.853   6.645 -0.8807 -0.3463  0.3340
 5572SOL    HW228179   2.819   0.750   6.692 -1.1240 -0.7651 -0.7917
 5573SOL     OW28180   3.822   0.529  14.693 -0.2118  0.2632 -0.5632
 5573SOL    HW128181   3.847   0.504  14.604 -0.1551 -4.3213  0.7556
 5573SOL    HW228182   3.803   0.440  14.722  1.4239  0.3320  0.7437
 5574SOL     OW28183   0.654   0.044   2.058 -0.0934  0.3907 -0.3344
 5574SOL    HW128184   0.698   0.125   2.035 -0.1337  0.6843  0.6213
 5574SOL    HW228185   0.577   0.075   2.106 -1.7554 -1.2755 -1.8977
 5575SOL     OW28186   3.515   3.791  13.867  0.0307  0.1202  0.4104
 5575SOL    HW128187   3.522   3.715  13.808 -0.4547 -1.8752  2.9502
 5575SOL    HW228188   3.431   3.832  13.847 -0.9585 -1.2703  1.7216
 5576SOL     OW28189   3.355   3.643  14.434  0.2745 -0.0296  0.2188
 5576SOL    HW128190   3.279   3.689  14.399  1.2179 -0.2822 -2.1734
 5576SOL    HW228191   3.412   3.631  14.358 -1.4383 -3.1004 -0.5736
 5577SOL     OW28192   0.046   1.510   1.619  0.3340  0.6425 -0.1516
 5577SOL    HW128193   0.132   1.517   1.577 -1.3245  0.3700 -3.6336
 5577SOL    HW228194   0.071   1.473   1.704 -1.7682 -2.3559 -0.8294
 5578SOL     OW28195   3.505   1.237   7.437 -0.8617  0.3772 -0.2121
 5578SOL    HW128196   3.438   1.304   7.450  0.3981  1.5535  0.2165
 5578SOL    HW228197   3.574   1.280   7.488 -0.1043  2.0033 -2.6093
 5579SOL     OW28198   0.936   2.628  11.732 -0.0924  0.0086 -0.6004
 5579SOL    HW128199   0.923   2.699  11.669 -2.6920  0.0240 -0.0593
 5579SOL    HW228200   0.992   2.566  11.685  0.9780  0.6079 -0.0916
 5580SOL     OW28201   3.073   1.186   0.305 -0.2361 -0.3180 -0.2784
 5580SOL    HW128202   3.093   1.268   0.260  0.2888  0.4934  1.4550
 5580SOL    HW228203   3.155   1.166   0.349 -0.2397 -0.0468 -0.1549
 5581SOL     OW28204   2.618   1.916   5.022 -0.1259 -0.8075 -0.6428
 5581SOL    HW128205   2.603   1.827   4.990  0.0529 -0.9090 -0.4415
 5581SOL    HW228206   2.677   1.949   4.954  1.7046 -1.7061  0.5032
 5582SOL     OW28207   0.224   3.346   6.202  0.3011  0.8482  0.0922
 5582SOL    HW128208   0.277   3.426   6.199  1.6503 -0.0695 -1.0408
 5582SOL    HW228209   0.287   3.278   6.177 -2.8547 -1.9610 -0.2690
 5583SOL     OW28210   4.582   1.440   6.994  0.0841  0.4422 -0.0468
 5583SOL    HW128211   4.541   1.370   6.943 -2.4563  2.7980 -1.2450
 5583SOL    HW228212   4.533   1.431   7.076  0.7841  0.5297  0.3793
 5584SOL     OW28213   2.128   1.267   4.721  0.1992 -0.2546  0.3585
 5584SOL    HW128214   2.112   1.224   4.805  0.4216  2.4343  1.7880
 5584SOL    HW228215   2.048   1.245   4.674  0.0377 -0.3288  0.6642
 5585SOL     OW28216   1.827   0.206  12.981 -0.1524  0.3739 -0.2403
 5585SOL    HW128217   1.884   0.174  12.911  0.3310  1.3820 -0.3144
 5585SOL    HW228218   1.861   0.292  13.005 -0.1856  0.2101  0.3958
 5586SOL     OW28219   4.655   0.090  13.032 -0.0066 -0.2356 -0.3124
 5586SOL    HW128220   4.700   0.137  12.962  1.2655  0.3000  0.8460
 5586SOL    HW228221   4.684   0.143  13.107  1.5453  0.4153 -1.3675
 5587SOL     OW28222   3.041   1.544   3.604  0.2497 -0.1149 -0.2525
 5587SOL    HW128223   2.970   1.512   3.549 -0.1681  1.2885 -0.5432
 5587SOL    HW228224   3.073   1.468   3.652  2.2279 -0.8219 -2.7260
 5588SOL     OW28225   3.989   1.683  15.851 -0.4541  0.2071  0.6421
 5588SOL    HW128226   4.020   1.672  15.761 -3.2299 -0.5072 -0.2216
 5588SOL    HW228227   3.895   1.679  15.836 -0.4599 -0.0349  0.7340
 5589SOL     OW28228   0.555   0.428   3.577  0.0763 -0.0403 -0.2301
 5589SOL    HW128229   0.614   0.364   3.616  1.1638  0.8378 -0.4643
 5589SOL    HW228230   0.488   0.424   3.645 -0.0608  1.4707 -0.2710
 5590SOL     OW28231   3.407   1.202   6.174  0.1844  0.5991  0.4721
 5590SOL    HW128232   3.462   1.273   6.141 -0.9361  0.7505 -1.0705
 5590SOL    HW228233   3.370   1.178   6.090 -0.2316  0.8286  0.5913
 5591SOL     OW28234   1.053   0.971  15.947 -0.4031 -0.3555 -0.5761
 5591SOL    HW128235   1.003   1.031  15.891 -0.2997 -0.6019 -0.9302
 5591SOL    HW228236   1.124   1.033  15.963  0.4645 -1.3004 -0.7559
 5592SOL     OW28237   3.762   1.484   7.355  0.1327  0.3880  0.4650
 5592SOL    HW128238   3.763   1.436   7.437 -0.2738 -3.5713 -1.8578
 5592SOL    HW228239   3.691   1.548   7.363 -0.0384  0.5994 -2.5917
 5593SOL     OW28240   1.146   0.476   8.311 -0.2573  0.2434 -0.2455
 5593SOL    HW128241   1.117   0.386   8.326 -1.6946  0.8065  0.3227
 5593SOL    HW228242   1.202   0.491   8.386  1.7833 -1.7225 -1.3850
 5594SOL     OW28243   1.955   3.426   5.204 -0.6723 -0.1830  0.1767
 5594SOL    HW128244   1.961   3.355   5.139  0.8185  1.5573 -1.5720
 5594SOL    HW228245   1.914   3.487   5.143 -0.1606  2.4757  2.5260
 5595SOL     OW28246   4.283   1.926   7.163 -0.3741  0.5176 -0.3702
 5595SOL    HW128247   4.316   1.995   7.105 -0.4995  0.9478  0.0696
 5595SOL    HW228248   4.188   1.939   7.159 -0.1963  2.3450  1.1736
 5596SOL     OW28249   4.397   1.904   8.362 -0.4577 -0.8771  0.1930
 5596SOL    HW128250   4.471   1.890   8.422  1.4026 -1.8090 -2.3056
 5596SOL    HW228251   4.371   1.981   8.412  1.8767  0.1718 -0.2107
 5597SOL     OW28252   1.577   1.856  16.025  0.1728 -0.5945 -0.5236
 5597SOL    HW128253   1.586   1.802  15.946 -1.6506 -0.4097 -0.8631
 5597SOL    HW228254   1.591   1.788  16.091 -1.0720 -0.8023 -0.4598
 5598SOL     OW28255   1.572   1.235  17.575 -0.1992 -0.2455 -0.1072
 5598SOL    HW128256   1.554   1.148  17.609 -1.2375  1.0698  2.6805
 5598SOL    HW228257   1.488   1.265  17.540 -0.5066 -2.4967 -1.2634
 5599SOL     OW28258   2.025   0.252   1.641  0.0970  0.3230  0.0321
 5599SOL    HW128259   2.033   0.333   1.690  0.9620  0.8670 -0.9911
 5599SOL    HW228260   2.015   0.294   1.555  0.1725 -0.5598 -0.4134
 5600SOL     OW28261   2.720   2.232   3.498 -0.2136 -0.0795  0.5836
 5600SOL    HW128262   2.767   2.181   3.432 -3.0995 -1.0697 -0.7015
 5600SOL    HW228263   2.684   2.157   3.544 -1.7277  0.4514  0.2880
 5601SOL     OW28264   3.148   0.978   7.559  0.5580 -0.1157 -0.6405
 5601SOL    HW128265   3.153   0.933   7.475 -1.7728 -0.2782 -0.6919
 5601SOL    HW228266   3.240   0.990   7.584  0.6030 -1.6503 -0.0842
 5602SOL     OW28267   1.858   0.982   4.187 -0.2229  0.4773 -0.8440
 5602SOL    HW128268   1.802   0.919   4.142 -0.6223  0.2688 -0.0602
 5602SOL    HW228269   1.919   1.000   4.116  1.6935 -3.2067 -0.1297
 5603SOL     OW28270   0.500   2.936   8.636  0.0646  0.1730  0.3404
 5603SOL    HW128271   0.587   2.900   8.618  0.4360  0.8634  0.7307
 5603SOL    HW228272   0.492   2.898   8.723  3.0795 -1.0982  0.0547
 5604SOL     OW28273   4.130   3.819   5.308 -0.1789 -0.0139  0.3142
 5604SOL    HW128274   4.186   3.811   5.231  0.1409  1.0684  0.4282
 5604SOL    HW228275   4.043   3.825   5.269  0.1785 -1.0708 -0.6306
 5605SOL     OW28276   1.726   1.334  15.106 -0.6491  0.2037 -0.1523
 5605SOL    HW128277   1.767   1.408  15.150 -0.2624 -0.8709  1.3214
 5605SOL    HW228278   1.774   1.332  15.023  1.1836  0.5160  0.8978
 5606SOL     OW28279   3.858   1.907   7.343  0.1755 -0.0201  0.0914
 5606SOL    HW128280   3.828   1.838   7.403 -0.0371  1.4101  1.6143
 5606SOL    HW228281   3.888   1.975   7.403  0.8647 -0.5503  0.3492
 5607SOL     OW28282   0.385   1.760   3.219 -0.3014  0.2139  0.0956
 5607SOL    HW128283   0.349   1.710   3.145  0.4634 -2.8382  1.7700
 5607SOL    HW228284   0.475   1.782   3.193 -0.6242  0.0574 -1.1875
 5608SOL     OW28285   1.022   0.748   4.421  0.2961  0.2851  0.0882
 5608SOL    HW128286   1.078   0.816   4.383  1.9049 -0.9154  0.3154
 5608SOL    HW228287   1.089   0.680   4.413  1.4494  1.1496  2.4610
 5609SOL     OW28288   2.544   3.102   3.436  0.0028  0.3298  0.1083
 5609SOL    HW128289   2.527   3.188   3.398 -1.9417 -0.4473 -0.7856
 5609SOL    HW228290   2.562   3.124   3.527 -2.2440 -1.3888  0.9791
 5610SOL     OW28291   4.486   4.362   5.971  0.5594 -0.0782 -0.1110
 5610SOL    HW128292   4.473   4.277   5.928  3.5286 -0.0101 -1.1524
 5610SOL    HW228293   4.581   4.358   5.981  0.4993  1.6623  1.1151
 5611SOL     OW28294   0.391   0.811   1.063 -0.1410  0.4076 -0.1109
 5611SOL    HW128295   0.322   0.871   1.091 -1.2070 -1.3746  1.0794
 5611SOL    HW228296   0.362   0.723   1.087  2.6775  0.1654  2.3722
 5612SOL     OW28297   1.366   3.975   8.113 -0.9239 -0.1982  0.2355
 5612SOL    HW128298   1.353   4.041   8.046 -0.0897  0.2787  0.5533
 5612SOL    HW228299   1.321   3.903   8.069 -1.7748  0.4566  0.0290
 5613SOL     OW28300   1.570   0.461   8.596  0.4133  0.1391  0.3575
 5613SOL    HW128301   1.637   0.483   8.531 -0.4090 -0.7798 -0.7981
 5613SOL    HW228302   1.615   0.395   8.649 -1.2454  0.3896  2.0847
 5614SOL     OW28303   0.942   4.322   2.967  0.6752  0.4237 -0.5197
 5614SOL    HW128304   0.889   4.319   2.887  0.9475  1.9358 -0.7560
 5614SOL    HW228305   0.897   4.396   3.008 -1.5509 -0.7761 -0.7754
 5615SOL     OW28306   3.480   4.471   5.834  0.7471  0.2002 -0.6129
 5615SOL    HW128307   3.568   4.473   5.872  0.3865 -0.6248  0.2591
 5615SOL    HW228308   3.495   4.531   5.761  1.5142 -0.2586 -0.8329
 5616SOL     OW28309   4.634   3.344   7.181 -0.7124  0.2075  0.4002
 5616SOL    HW128310   4.690   3.285   7.230  0.7877  1.6572  0.4346
 5616SOL    HW228311   4.554   3.293   7.171  0.1602 -1.3232  1.2705
 5617SOL     OW28312   2.945   4.053  10.341  0.1152  0.0722 -0.1616
 5617SOL    HW128313   2.954   3.991  10.268 -0.4698 -0.4906  0.2492
 5617SOL    HW228314   3.000   3.999  10.397  0.7601  0.4729 -0.4108
 5618SOL     OW28315   2.233   3.485  16.096  0.3555  0.6592  0.4662
 5618SOL    HW128316   2.145   3.505  16.129 -0.0747 -1.2110  0.4726
 5618SOL    HW228317   2.224   3.390  16.090 -1.2935  0.7794  0.9531
 5619SOL     OW28318   4.255   1.259  17.002 -0.1203 -0.1178  0.3861
 5619SOL    HW128319   4.306   1.264  16.921  2.0661 -0.0360  1.7819
 5619SOL    HW228320   4.301   1.190  17.049  0.9990  1.8547  2.1661
 5620SOL     OW28321   1.579   0.618   5.114 -0.0657 -0.3142 -0.2141
 5620SOL    HW128322   1.653   0.667   5.149 -0.0696  0.0284 -0.6835
 5620SOL    HW228323   1.515   0.657   5.174 -2.9875 -1.8726 -2.3031
 5621SOL     OW28324   3.207   1.657   3.890 -0.1098 -0.3579  0.1992
 5621SOL    HW128325   3.248   1.673   3.975  1.1892 -1.1494 -0.2786
 5621SOL    HW228326   3.208   1.561   3.887 -0.9685 -0.3390 -0.6348
 5622SOL     OW28327   4.285   1.029   6.450 -0.6933  0.3046  0.3828
 5622SOL    HW128328   4.364   1.048   6.399 -0.5861 -1.5211 -0.1343
 5622SOL    HW228329   4.300   0.939   6.479  0.5563  1.1554  2.4293
 5623SOL     OW28330   3.583   4.542  13.727  0.2078 -0.0270  0.3215
 5623SOL    HW128331   3.598   4.507  13.815  1.4445 -0.0446  0.1037
 5623SOL    HW228332   3.577   4.635  13.750 -0.4205 -0.1004  0.4393
 5624SOL     OW28333   2.089   0.327   6.477 -0.1082  0.1891  1.0726
 5624SOL    HW128334   2.006   0.285   6.497 -0.8763  0.1433 -2.3334
 5624SOL    HW228335   2.150   0.279   6.534 -0.3285 -0.1020  1.0637
 5625SOL     OW28336   2.118   4.211   2.594  0.5333 -0.7937 -0.0021
 5625SOL    HW128337   2.199   4.263   2.599 -0.5858  0.9220  0.4573
 5625SOL    HW228338   2.069   4.255   2.664  0.2766  1.0876 -1.3516
 5626SOL     OW28339   2.709   1.966   6.283  0.2986 -0.1122  0.0499
 5626SOL    HW128340   2.677   1.954   6.372 -2.2121  1.0835 -0.7163
 5626SOL    HW228341   2.778   2.031   6.296 -1.7630  1.9875  0.2787
 5627SOL     OW28342   1.469   0.537  13.633  0.3675  0.2285  0.0728
 5627SOL    HW128343   1.472   0.628  13.605 -1.4698 -0.0864 -1.0862
 5627SOL    HW228344   1.438   0.495  13.553  1.1504  0.7624 -0.5098
 5628SOL     OW28345   2.822   1.763   2.884  0.1925  0.4568 -0.4004
 5628SOL    HW128346   2.800   1.778   2.792  2.5820  0.9801 -0.8669
 5628SOL    HW228347   2.741   1.793   2.926 -0.5101 -1.8931 -0.1155
 5629SOL     OW28348   0.569   4.349   3.605 -0.3738  0.0620  0.1160
 5629SOL    HW128349   0.573   4.276   3.543 -0.8317  1.6618 -1.7806
 5629SOL    HW228350   0.653   4.332   3.649 -0.8052 -2.1582  0.0694
 5630SOL     OW28351   1.454   4.425   8.225 -0.2104  0.4528 -0.0974
 5630SOL    HW128352   1.414   4.490   8.168 -1.3974  0.1100  0.3313
 5630SOL    HW228353   1.399   4.444   8.301 -0.6501  4.1000 -1.3420
 5631SOL     OW28354   2.410   4.196   7.158 -0.9415  0.2449 -0.2218
 5631SOL    HW128355   2.397   4.195   7.253 -1.4482 -2.1007 -0.3219
 5631SOL    HW228356   2.386   4.288   7.145 -2.7539 -0.0510  0.8984
 5632SOL     OW28357   3.898   1.418  15.122  0.4096  0.1806  0.1185
 5632SOL    HW128358   3.915   1.509  15.098  0.6760  0.2376  0.5155
 5632SOL    HW228359   3.922   1.366  15.046  4.4258  0.5708  1.1346
 5633SOL     OW28360   1.829   1.126  10.396 -0.6492 -0.2946  0.0322
 5633SOL    HW128361   1.799   1.144  10.485  1.4082 -3.1508  1.3164
 5633SOL    HW228362   1.920   1.114  10.423 -0.1436  1.3120 -0.8997
 5634SOL     OW28363   4.706   1.590   0.833  0.2092 -0.1053  0.3273
 5634SOL    HW128364   4.681   1.566   0.922  1.1292 -3.3770 -0.3089
 5634SOL    HW228365   4.687   1.512   0.782 -3.0609  0.6213  0.3833
 5635SOL     OW28366   0.228   4.113   4.274 -0.1767  0.9756  0.0161
 5635SOL    HW128367   0.160   4.130   4.339  0.9343  0.6057  1.2866
 5635SOL    HW228368   0.229   4.017   4.264 -2.0019  0.7151  2.2153
 5636SOL     OW28369   4.480   3.982   0.175 -0.3117 -0.0706 -0.0833
 5636SOL    HW128370   4.504   3.896   0.210  1.1824  0.4815  0.2876
 5636SOL    HW228371   4.430   3.959   0.097 -0.3357 -2.9055  0.7613
 5637SOL     OW28372   2.831   2.075   3.854  0.5711  0.2841 -0.0829
 5637SOL    HW128373   2.843   2.163   3.818  2.6056 -1.0286 -2.5952
 5637SOL    HW228374   2.797   2.103   3.939 -2.3262 -1.5429 -0.6549
 5638SOL     OW28375   1.966   3.606   8.178 -0.0302  0.1869 -0.4862
 5638SOL    HW128376   2.019   3.554   8.238 -1.0768  0.5075  0.7226
 5638SOL    HW228377   1.966   3.684   8.233  1.2089 -1.0516  1.2541
 5639SOL     OW28378   0.822   2.554   7.393 -0.1595 -0.0198 -0.3210
 5639SOL    HW128379   0.850   2.467   7.422  1.4149  0.3459 -0.7435
 5639SOL    HW228380   0.727   2.540   7.401 -0.4948  1.6115 -1.6844
 5640SOL     OW28381   3.494   1.432   5.338 -0.3733  0.1408 -0.6072
 5640SOL    HW128382   3.500   1.498   5.407  0.2494 -0.3914 -0.1545
 5640SOL    HW228383   3.521   1.482   5.261 -2.8004 -0.6712 -1.9999
 5641SOL     OW28384   3.734   3.633   8.329  0.7460  0.1190 -0.1992
 5641SOL    HW128385   3.811   3.689   8.323  0.0599  1.2820  1.8306
 5641SOL    HW228386   3.660   3.692   8.347 -0.5370 -0.8512 -2.2681
 5642SOL     OW28387   1.818   2.543   1.349  0.8464 -0.2657 -0.1245
 5642SOL    HW128388   1.797   2.599   1.274  4.6203 -0.7050 -1.4587
 5642SOL    HW228389   1.877   2.604   1.394 -1.5710  1.0587  1.2850
 5643SOL     OW28390   2.002   0.710  13.437 -0.3323 -0.3939  0.0411
 5643SOL    HW128391   1.926   0.661  13.406  0.5984 -1.7499 -0.1295
 5643SOL    HW228392   1.980   0.727  13.529  0.0418  0.1617  0.0264
 5644SOL     OW28393   2.865   4.533   6.246  0.3412  0.6456  0.4153
 5644SOL    HW128394   2.814   4.531   6.165  0.1308  0.7158  0.5439
 5644SOL    HW228395   2.854   4.444   6.281 -1.0072 -0.0635 -1.8261
 5645SOL     OW28396   4.406   2.163  12.732 -0.8053  0.0568  0.7348
 5645SOL    HW128397   4.426   2.076  12.766  0.1037 -0.2946 -0.6784
 5645SOL    HW228398   4.311   2.173  12.742 -0.8651  1.5355 -1.2911
 5646SOL     OW28399   1.753   3.892  10.751 -0.0009  0.0090  0.3996
 5646SOL    HW128400   1.726   3.949  10.823 -0.9879  0.1041 -0.0496
 5646SOL    HW228401   1.668   3.890  10.708  0.7164 -1.4924 -0.9586
 5647SOL     OW28402   2.677   1.088   7.185  0.2156  0.0906  0.3595
 5647SOL    HW128403   2.691   1.075   7.278  2.0096  1.9226  0.3586
 5647SOL    HW228404   2.605   1.150   7.198  1.2820  1.2431  0.8437
 5648SOL     OW28405   3.899   0.394   8.639 -0.0203 -0.1923  0.2687
 5648SOL    HW128406   3.837   0.363   8.706  2.7711 -1.1954  2.3932
 5648SOL    HW228407   3.928   0.309   8.607  1.3033  0.4724 -0.2755
 5649SOL     OW28408   0.623   2.490   2.552 -0.0337 -0.1931 -0.1352
 5649SOL    HW128409   0.559   2.509   2.484  0.8883  1.4184 -0.5469
 5649SOL    HW228410   0.702   2.512   2.502  0.1099 -0.5081 -0.0479
 5650SOL     OW28411   2.783   2.292  16.471  0.3319  0.1270  0.1282
 5650SOL    HW128412   2.779   2.248  16.555  0.8709  0.3184  0.2489
 5650SOL    HW228413   2.694   2.278  16.438 -0.7159  2.2630  1.9818
 5651SOL     OW28414   0.908   1.870   5.407  0.5779  0.0082  0.3272
 5651SOL    HW128415   0.937   1.785   5.372  2.1172  1.0362 -0.8682
 5651SOL    HW228416   0.975   1.926   5.369  0.3888 -0.1340 -0.2152
 5652SOL     OW28417   3.852   0.128   4.280 -0.6150 -0.3058 -0.2267
 5652SOL    HW128418   3.871   0.098   4.369 -2.3175 -2.7068 -0.6682
 5652SOL    HW228419   3.929   0.181   4.259 -0.5630 -0.8888 -1.5417
 5653SOL     OW28420   2.027   1.972   7.650 -0.5159 -0.4798 -0.1011
 5653SOL    HW128421   2.016   1.903   7.715  1.0544 -1.3549 -0.7478
 5653SOL    HW228422   2.064   2.047   7.697 -2.8126  1.1414 -0.8712
 5654SOL     OW28423   3.466   3.073   8.530 -0.0434 -0.2918  0.5748
 5654SOL    HW128424   3.541   3.033   8.573  2.8720  1.4019 -2.9384
 5654SOL    HW228425   3.504   3.155   8.498 -2.4345  1.6702  2.8116
 5655SOL     OW28426   4.155   3.821   8.753  0.8611  0.0668 -0.3278
 5655SOL    HW128427   4.207   3.741   8.746  1.1316  0.3329 -1.4269
 5655SOL    HW228428   4.161   3.836   8.847 -3.8339  1.2063 -0.2434
 5656SOL     OW28429   0.850   2.948  10.521 -0.0337  0.2329  0.0473
 5656SOL    HW128430   0.815   2.876  10.468  0.4271 -0.7812  1.1261
 5656SOL    HW228431   0.922   2.902  10.565 -0.8614 -2.9301 -1.8922
 5657SOL     OW28432   1.548   2.368  14.921 -0.2136 -0.2263 -0.6078
 5657SOL    HW128433   1.637   2.334  14.911  0.2688  1.0599 -0.5558
 5657SOL    HW228434   1.567   2.453  14.961 -1.5446  0.0518 -0.5737
 5658SOL     OW28435   4.547   3.489   5.001 -0.3947  0.3504 -0.1567
 5658SOL    HW128436   4.637   3.460   4.990  0.2846  2.2187  0.5532
 5658SOL    HW228437   4.523   3.436   5.077  1.2791 -1.1703 -0.6917
 5659SOL     OW28438   1.568   4.061  10.865 -0.2176 -0.0948 -0.1641
 5659SOL    HW128439   1.484   4.056  10.819 -1.8082  1.0483  2.6497
 5659SOL    HW228440   1.576   4.155  10.884  0.3750 -0.1372 -0.2060
 5660SOL     OW28441   1.486   1.774   4.313 -0.4655  0.2945 -0.0947
 5660SOL    HW128442   1.516   1.732   4.233  0.5575  1.7322 -0.4718
 5660SOL    HW228443   1.560   1.833   4.326  0.8094 -1.4940  0.6801
 5661SOL     OW28444   2.864   1.994   3.393 -0.5327  0.2355  0.4722
 5661SOL    HW128445   2.909   1.935   3.453 -0.1612 -1.3023 -1.3218
 5661SOL    HW228446   2.930   1.987   3.324 -0.2483  1.9081  0.5730
 5662SOL     OW28447   1.880   0.921  15.888  0.3708 -0.5049  0.4422
 5662SOL    HW128448   1.897   0.913  15.982  2.4277 -1.1585  0.0140
 5662SOL    HW228449   1.847   1.010  15.875  0.0505 -0.7147 -0.1718
 5663SOL     OW28450   1.551   4.138  12.868  0.0588 -0.3309 -0.5701
 5663SOL    HW128451   1.530   4.088  12.947  1.7972 -0.6393 -0.3093
 5663SOL    HW228452   1.645   4.124  12.882 -0.1931 -0.2206  1.1648
 5664SOL     OW28453   3.542   1.464   6.105 -0.6570 -0.2031 -0.0606
 5664SOL    HW128454   3.533   1.452   6.200  0.0538 -0.7368 -0.0611
 5664SOL    HW228455   3.463   1.516   6.091 -0.7568 -1.0548 -2.5874
 5665SOL     OW28456   2.675   2.628   6.055  0.0606  0.3135 -0.7651
 5665SOL    HW128457   2.732   2.647   5.981  1.5923 -1.2608 -0.0020
 5665SOL    HW228458   2.594   2.665   6.020 -0.7699 -0.3097  0.4891
 5666SOL     OW28459   0.007   4.522   4.966  0.3679  0.0329  0.2043
 5666SOL    HW128460   0.000   4.613   4.995 -2.8626  0.2407 -1.1512
 5666SOL    HW228461   0.102   4.516   4.956  0.2198  1.4938 -1.9281
 5667SOL     OW28462   0.736   2.690   5.737 -0.0792  0.0675 -0.0590
 5667SOL    HW128463   0.773   2.771   5.773 -2.3494 -0.2768  3.0481
 5667SOL    HW228464   0.817   2.639   5.730  0.9126  1.3746  1.8877
 5668SOL     OW28465   2.445   1.267  10.664  0.1968  0.2494 -0.0940
 5668SOL    HW128466   2.369   1.211  10.681  1.4867 -0.7387  2.4309
 5668SOL    HW228467   2.520   1.213  10.688  1.1131  1.4086 -0.3621
 5669SOL     OW28468   0.958   0.570  16.310  0.0475  0.3606  0.2402
 5669SOL    HW128469   0.916   0.549  16.226  0.1322  2.4424 -0.3165
 5669SOL    HW228470   0.992   0.656  16.287 -2.0345  0.4919 -2.3777
 5670SOL     OW28471   3.433   2.178   6.257  0.2130 -0.2053 -0.2611
 5670SOL    HW128472   3.529   2.176   6.256  0.1697  0.0219 -2.9325
 5670SOL    HW228473   3.414   2.097   6.209 -3.7955  0.7532 -0.2834
 5671SOL     OW28474   2.059   1.752  15.079 -0.5073  0.5316 -0.3384
 5671SOL    HW128475   1.996   1.777  15.013  0.7709 -1.0137 -2.1282
 5671SOL    HW228476   2.044   1.823  15.141  0.7020 -0.0311  0.6163
 5672SOL     OW28477   4.511   4.283  12.984 -0.5022  0.0753 -0.1725
 5672SOL    HW128478   4.524   4.377  12.971 -2.3963  0.4252  0.6100
 5672SOL    HW228479   4.511   4.250  12.894 -1.3519 -2.0999  0.6322
 5673SOL     OW28480   0.652   3.157   5.310  0.9196  0.5987 -0.7151
 5673SOL    HW128481   0.705   3.109   5.373  0.5604  0.9771 -0.1198
 5673SOL    HW228482   0.711   3.203   5.250  1.3824  2.2222  0.9599
 5674SOL     OW28483   2.986   3.620   7.008  0.3821  0.3241  0.2213
 5674SOL    HW128484   2.921   3.658   7.067 -1.6032 -0.0456 -1.7249
 5674SOL    HW228485   2.945   3.537   6.984  3.4688 -1.4524  1.1539
 5675SOL     OW28486   3.177   3.613   7.729  0.0745 -0.5218  0.0718
 5675SOL    HW128487   3.133   3.529   7.742 -1.8240  0.6606  1.2169
 5675SOL    HW228488   3.174   3.659   7.814  2.4078 -0.7772  0.2914
 5676SOL     OW28489   4.457   4.098   1.644  0.2018  0.4465 -0.2407
 5676SOL    HW128490   4.533   4.071   1.593  0.0671  1.6608 -1.0992
 5676SOL    HW228491   4.474   4.192   1.649 -1.1590  0.7290 -0.9786
 5677SOL     OW28492   4.649   0.069  15.754 -0.3302  0.1612 -0.3332
 5677SOL    HW128493   4.652   4.722  15.689 -1.5043 -0.4282  0.2497
 5677SOL    HW228494   4.673   0.147  15.704 -0.1513  0.9509  0.9646
 5678SOL     OW28495   1.267   3.888   1.406  0.3552 -0.8498  0.3212
 5678SOL    HW128496   1.312   3.806   1.429  0.1424 -1.2392 -0.6389
 5678SOL    HW228497   1.193   3.844   1.364  1.6576 -0.9452 -1.9014
 5679SOL     OW28498   4.486   3.749  15.414 -0.6080  0.1753 -0.2172
 5679SOL    HW128499   4.558   3.700  15.453 -0.7408 -0.3778 -0.6609
 5679SOL    HW228500   4.454   3.799  15.489  0.4956  1.7805 -0.8172
 5680SOL     OW28501   3.881   4.522  12.433  0.0297  0.2818  0.4470
 5680SOL    HW128502   3.857   4.610  12.404 -1.5581 -0.5382 -0.7293
 5680SOL    HW228503   3.940   4.535  12.508  0.8499  2.9759 -0.6723
 5681SOL     OW28504   2.532   3.383   3.338 -0.4836  0.3185  0.2515
 5681SOL    HW128505   2.556   3.443   3.266 -3.2266  0.8453 -0.2235
 5681SOL    HW228506   2.458   3.428   3.377 -0.5643 -0.6248  1.1693
 5682SOL     OW28507   4.122   1.165   3.633  0.3537 -0.3696  0.0225
 5682SOL    HW128508   4.057   1.141   3.567  0.6223  0.1172 -0.4081
 5682SOL    HW228509   4.205   1.176   3.587  0.1347 -1.1204 -0.5664
 5683SOL     OW28510   4.342   0.350   4.652  0.1644  0.2421 -0.0403
 5683SOL    HW128511   4.287   0.428   4.652 -0.7077 -0.3742  1.2073
 5683SOL    HW228512   4.283   0.280   4.623  1.2188 -0.1200 -1.3133
 5684SOL     OW28513   0.279   1.412  15.397 -0.2474 -0.0781  0.0660
 5684SOL    HW128514   0.275   1.367  15.482 -0.7474  1.2295  0.7236
 5684SOL    HW228515   0.298   1.502  15.422 -1.7036 -0.1642  1.5031
 5685SOL     OW28516   4.327   2.503  13.521  0.2815 -0.3787 -0.4895
 5685SOL    HW128517   4.342   2.466  13.608 -0.5524 -0.0520 -0.2078
 5685SOL    HW228518   4.250   2.559  13.535  0.5560 -0.2042  0.3230
 5686SOL     OW28519   0.335   2.007   4.404  0.0382  0.3206 -0.7328
 5686SOL    HW128520   0.348   2.065   4.479 -0.1689 -0.6542  0.0483
 5686SOL    HW228521   0.421   1.979   4.374  0.5886 -0.7937  1.9619
 5687SOL     OW28522   2.331   4.217   7.450  0.0591 -0.6450  0.4669
 5687SOL    HW128523   2.362   4.150   7.511  0.3164 -2.5298 -1.7172
 5687SOL    HW228524   2.340   4.299   7.499 -0.7084 -0.7146  0.7228
 5688SOL     OW28525   1.996   3.493  16.224 -0.1757 -0.6257  0.2033
 5688SOL    HW128526   1.945   3.414  16.206 -2.4699  1.0997 -0.7745
 5688SOL    HW228527   1.929   3.558  16.248 -0.2954 -0.2502 -1.1566
 5689SOL     OW28528   0.350   2.650   8.702  0.7049 -0.6259  0.2223
 5689SOL    HW128529   0.394   2.581   8.752 -1.1190 -1.1177  1.1378
 5689SOL    HW228530   0.311   2.599   8.631  0.1451  1.8276 -1.2301
 5690SOL     OW28531   2.965   2.870   0.599  0.1805 -0.9003  0.1215
 5690SOL    HW128532   2.942   2.782   0.626 -1.2651  0.5597  3.5834
 5690SOL    HW228533   2.990   2.909   0.682 -0.2811  1.2082 -0.7195
 5691SOL     OW28534   0.751   2.742  10.394 -0.4549  0.4763  1.0558
 5691SOL    HW128535   0.764   2.663  10.342 -1.5588  0.6971  0.4460
 5691SOL    HW228536   0.669   2.772  10.355 -0.3216 -1.9296 -1.0501
 5692SOL     OW28537   2.801   0.265   4.262  0.2224  0.3153 -0.2942
 5692SOL    HW128538   2.862   0.247   4.190  0.5429  1.0952 -0.2145
 5692SOL    HW228539   2.778   0.180   4.298  0.5384 -0.2201 -1.3687
 5693SOL     OW28540   0.709   4.694   3.275 -0.0001  0.3124  0.0458
 5693SOL    HW128541   0.745   4.721   3.360  0.8873  0.1420 -0.2750
 5693SOL    HW228542   0.703   0.056   3.231  0.5115 -0.4137 -1.4242
 5694SOL     OW28543   3.329   3.481  12.242  0.3600  0.3697 -0.0636
 5694SOL    HW128544   3.381   3.404  12.262 -1.1509 -0.2754  1.3828
 5694SOL    HW228545   3.277   3.448  12.168  0.2959 -0.5583  0.4005
 5695SOL     OW28546   1.227   3.467  16.606 -0.2436  0.3126 -0.2405
 5695SOL    HW128547   1.134   3.483  16.621 -0.0746  0.9842  0.0872
 5695SOL    HW228548   1.229   3.374  16.584 -2.1743  0.3275 -0.5157
 5696SOL     OW28549   0.528   3.062  14.843 -0.8664 -0.2745 -0.1179
 5696SOL    HW128550   0.582   3.036  14.768  0.6598 -1.2913  1.3315
 5696SOL    HW228551   0.444   3.049  14.801  0.1951 -1.3337 -1.9134
 5697SOL     OW28552   1.121   1.619   1.910  0.7116  0.2567  1.1139
 5697SOL    HW128553   1.181   1.615   1.985  1.7716 -0.9548  0.1982
 5697SOL    HW228554   1.147   1.539   1.863 -0.2859  1.2988 -1.2004
 5698SOL     OW28555   1.274   3.228  15.910  1.1535 -0.1662 -0.3099
 5698SOL    HW128556   1.187   3.265  15.925  1.1926 -0.4040  0.4827
 5698SOL    HW228557   1.254   3.147  15.863  0.3415  1.4439 -2.7706
 5699SOL     OW28558   3.921   3.017   8.932 -0.3872  0.0291 -0.1463
 5699SOL    HW128559   3.859   3.021   9.005 -0.7242  0.7348 -0.4672
 5699SOL    HW228560   3.867   3.015   8.852 -0.1691  2.8427 -0.3459
 5700SOL     OW28561   4.061   0.510   5.680  0.0848  0.8578 -0.0404
 5700SOL    HW128562   4.052   0.499   5.586  0.9052 -1.0808  0.1002
 5700SOL    HW228563   4.025   0.598   5.694  0.7151  0.9140  1.3007
 5701SOL     OW28564   0.816   3.155   3.645  0.7476  0.4113  0.3253
 5701SOL    HW128565   0.887   3.144   3.581  1.2731  0.2766  0.9377
 5701SOL    HW228566   0.854   3.175   3.730  0.2251 -3.9866  1.5614
 5702SOL     OW28567   2.699   0.116   5.003 -0.4399  0.2761 -0.6344
 5702SOL    HW128568   2.770   0.130   5.066  2.1766  0.5183 -3.6654
 5702SOL    HW228569   2.665   0.203   4.983 -3.1545 -0.6814 -0.1018
 5703SOL     OW28570   0.593   4.632   5.282  0.5962  0.0554  0.6081
 5703SOL    HW128571   0.666   4.575   5.306  1.7737  1.7224  1.0045
 5703SOL    HW228572   0.527   4.631   5.351  0.9730  2.0057  0.9884
 5704SOL     OW28573   0.942   4.304   7.388  0.1839  0.1988  0.2297
 5704SOL    HW128574   0.912   4.247   7.459  0.1365 -0.2569 -0.1619
 5704SOL    HW228575   0.856   4.331   7.353 -1.0420 -2.1682  1.4604
 5705SOL     OW28576   1.779   3.217  10.846  0.1442  0.2372 -0.0870
 5705SOL    HW128577   1.697   3.229  10.895 -0.1936  3.0315 -1.3557
 5705SOL    HW228578   1.850   3.247  10.902  0.2763 -3.2053  1.5997
 5706SOL     OW28579   4.354   1.678  11.830 -0.3661  0.0141 -0.7032
 5706SOL    HW128580   4.392   1.590  11.832 -0.8741 -0.2002 -0.4476
 5706SOL    HW228581   4.276   1.662  11.777 -0.8320 -1.3556  0.3771
 5707SOL     OW28582   3.522   0.520   0.382 -0.7657 -0.3980 -0.4793
 5707SOL    HW128583   3.593   0.543   0.442 -1.8655 -0.5839  0.9047
 5707SOL    HW228584   3.526   0.593   0.321 -1.2394 -0.3304 -0.4326
 5708SOL     OW28585   3.418   1.332  11.110  0.5168  0.2992  0.6578
 5708SOL    HW128586   3.392   1.404  11.053 -0.2624 -0.4784  0.0340
 5708SOL    HW228587   3.339   1.311  11.159  0.4606 -0.1802  0.3647
 5709SOL     OW28588   2.164   2.982   2.428 -0.1373  0.0781 -0.1913
 5709SOL    HW128589   2.144   3.075   2.438  1.0320  0.6224 -3.0469
 5709SOL    HW228590   2.084   2.939   2.460  2.1023 -2.1442  2.4753
 5710SOL     OW28591   1.730   0.651   6.912 -0.1581  0.3913 -0.8151
 5710SOL    HW128592   1.693   0.600   6.839 -2.7751  1.5734 -0.3266
 5710SOL    HW228593   1.820   0.670   6.885 -0.1027 -0.0875 -0.9765
 5711SOL     OW28594   1.693   0.104   0.495 -0.0694  0.1991  0.8362
 5711SOL    HW128595   1.631   0.163   0.538  0.5308 -0.5207  2.6926
 5711SOL    HW228596   1.631   0.041   0.457  0.7862  0.8148 -1.5594
 5712SOL     OW28597   4.030   0.404   3.799  0.2772 -0.2825 -0.0549
 5712SOL    HW128598   4.009   0.497   3.785 -0.6095 -0.4004  0.4962
 5712SOL    HW228599   4.064   0.420   3.887  1.2171  1.3802 -0.7121
 5713SOL     OW28600   1.340   3.178  12.366  0.1951  0.3959  0.2468
 5713SOL    HW128601   1.296   3.141  12.442 -0.3929 -0.1158 -0.3463
 5713SOL    HW228602   1.310   3.126  12.292  2.1235 -0.3960  0.0106
 5714SOL     OW28603   0.509   2.836   4.906  0.0142 -0.0534  0.4723
 5714SOL    HW128604   0.533   2.839   4.999  0.6162  1.4509  0.2626
 5714SOL    HW228605   0.470   2.749   4.910  0.1039  0.0035  2.7566
 5715SOL     OW28606   3.390   4.181   3.903 -0.9574  0.4830 -0.6886
 5715SOL    HW128607   3.442   4.128   3.963 -2.0862 -0.9170 -0.9393
 5715SOL    HW228608   3.304   4.165   3.943 -0.1347 -1.5408  0.2571
 5716SOL     OW28609   2.977   1.426   0.512  0.3492  0.4235 -0.6398
 5716SOL    HW128610   3.073   1.435   0.513  0.4314 -0.4670 -0.7155
 5716SOL    HW228611   2.971   1.389   0.423  0.6022  1.6157 -1.1576
 5717SOL     OW28612   2.047   0.253   7.517 -0.0895  0.1205 -0.0077
 5717SOL    HW128613   1.962   0.282   7.485 -0.4707  1.4794  2.3404
 5717SOL    HW228614   2.026   0.166   7.552 -2.4269 -0.1132 -1.9654
 5718SOL     OW28615   1.543   0.029   7.218  0.1832 -0.1014  0.6881
 5718SOL    HW128616   1.619   0.004   7.271 -0.1450 -0.9486  0.7562
 5718SOL    HW228617   1.470   4.720   7.272  0.2928  0.7406  1.3244
 5719SOL     OW28618   2.601   0.653   0.308 -0.1547  0.5741 -0.7463
 5719SOL    HW128619   2.518   0.635   0.352  0.0464  1.3998 -0.0212
 5719SOL    HW228620   2.650   0.706   0.371 -1.1208  0.3212  0.2321
 5720SOL     OW28621   1.450   2.853   2.798  0.2013 -0.0321  0.4538
 5720SOL    HW128622   1.474   2.946   2.805 -2.1249  0.6786 -0.9588
 5720SOL    HW228623   1.472   2.843   2.705  2.4669  1.2871  0.8503
 5721SOL     OW28624   0.010   2.642   2.106 -0.4934 -0.6831  1.5334
 5721SOL    HW128625   0.078   2.576   2.118  0.1641 -0.5984 -1.4805
 5721SOL    HW228626   4.666   2.577   2.128 -1.5299  0.0139  0.4137
 5722SOL     OW28627   2.832   1.273   3.174 -0.0274  0.3998  0.4924
 5722SOL    HW128628   2.905   1.246   3.119 -0.3799 -1.2352  0.8407
 5722SOL    HW228629   2.778   1.194   3.179  0.7103 -0.3033 -2.2479
 5723SOL     OW28630   0.725   0.657   3.549 -0.5746 -0.0274  0.8363
 5723SOL    HW128631   0.644   0.612   3.525 -0.5144  0.6904 -0.6686
 5723SOL    HW228632   0.755   0.610   3.627  1.5579  0.3535  0.2483
 5724SOL     OW28633   1.336   3.219  13.687  0.0937  0.6122  0.1851
 5724SOL    HW128634   1.290   3.265  13.617 -0.2222  0.4910  0.3149
 5724SOL    HW228635   1.265   3.162  13.714  0.6291 -0.9676 -1.7089
 5725SOL     OW28636   1.855   4.512   4.583  0.4467  0.3420 -0.0351
 5725SOL    HW128637   1.819   4.463   4.510 -0.8102  3.8916 -1.8017
 5725SOL    HW228638   1.898   4.582   4.533 -1.0532 -0.2685 -2.1554
 5726SOL     OW28639   2.323   3.215  14.105  0.1840  0.0169 -0.7494
 5726SOL    HW128640   2.302   3.267  14.182 -0.9284 -1.8529  0.2226
 5726SOL    HW228641   2.286   3.273  14.039 -0.3624  0.3405 -0.1585
 5727SOL     OW28642   2.075   3.820   0.015  0.3074  0.1031 -0.0654
 5727SOL    HW128643   2.118   3.737  17.687  0.6090  0.2044  0.1443
 5727SOL    HW228644   2.093   3.830   0.108 -0.6210  3.1778 -0.2316
 5728SOL     OW28645   1.407   0.183   5.719 -0.2587  0.3984 -0.5364
 5728SOL    HW128646   1.322   0.212   5.751 -0.8697 -2.1644  0.1683
 5728SOL    HW228647   1.440   0.262   5.676  1.6525  0.8591  1.7603
 5729SOL     OW28648   4.381   2.459   7.884 -0.1697  0.8415  0.3837
 5729SOL    HW128649   4.320   2.510   7.937  1.2803 -0.5859  3.4311
 5729SOL    HW228650   4.459   2.458   7.940 -1.3104 -0.8845  1.9893
 5730SOL     OW28651   0.150   3.779   2.856 -0.1481 -0.2768 -0.0945
 5730SOL    HW128652   0.221   3.715   2.851  0.3975  0.1901  1.6352
 5730SOL    HW228653   0.084   3.745   2.796 -0.7333  1.8596 -0.6552
 5731SOL     OW28654   0.323   3.940   3.439 -0.2006 -0.2925  0.0458
 5731SOL    HW128655   0.416   3.959   3.453 -0.0097  0.1594 -1.8061
 5731SOL    HW228656   0.306   4.007   3.373 -1.4320 -0.3269  0.3333
 5732SOL     OW28657   2.227   0.266   8.336  0.0528  0.2588 -0.1483
 5732SOL    HW128658   2.259   0.309   8.416  0.0243 -1.5236  0.8174
 5732SOL    HW228659   2.309   0.254   8.289 -1.0809  2.2212 -2.6397
 5733SOL     OW28660   2.564   3.817  11.183 -0.0875  0.0333 -0.7716
 5733SOL    HW128661   2.499   3.882  11.207  0.1565  0.0285 -0.1052
 5733SOL    HW228662   2.633   3.837  11.246 -1.3485 -0.2041  0.6876
 5734SOL     OW28663   2.912   4.438   2.331 -0.1464 -0.3634  0.0782
 5734SOL    HW128664   2.840   4.454   2.269 -0.2687 -0.1509  0.2749
 5734SOL    HW228665   2.869   4.440   2.417  0.1778 -0.3824  0.2415
 5735SOL     OW28666   3.094   4.365   8.820  0.1102  0.0681 -0.5028
 5735SOL    HW128667   3.107   4.351   8.726 -0.1685  2.4872 -0.9049
 5735SOL    HW228668   3.001   4.380   8.833  0.0158 -0.7271 -0.2987
 5736SOL     OW28669   0.139   3.286   4.274 -0.2885  0.1240  0.0690
 5736SOL    HW128670   0.043   3.290   4.271 -0.3320 -1.4897 -0.6973
 5736SOL    HW228671   0.148   3.194   4.247 -0.4491 -0.8140  3.2601
 5737SOL     OW28672   2.411   3.175   0.703 -0.1777 -0.6838 -0.0377
 5737SOL    HW128673   2.396   3.270   0.708 -1.1018 -0.7513 -1.4987
 5737SOL    HW228674   2.343   3.136   0.648  1.4450 -2.4220 -0.8046
 5738SOL     OW28675   2.966   2.541   9.971 -0.5581 -0.1306 -0.3837
 5738SOL    HW128676   3.016   2.554  10.051 -2.7025 -0.6101  1.0318
 5738SOL    HW228677   3.040   2.509   9.919  0.3106 -0.0350  0.7970
 5739SOL     OW28678   1.059   0.318  12.241  0.0849  0.4111 -0.5491
 5739SOL    HW128679   1.050   0.411  12.263 -1.1851  0.0156  0.6130
 5739SOL    HW228680   0.968   0.290  12.235 -0.0060  0.7867 -0.9477
 5740SOL     OW28681   3.614   4.381   3.962 -0.1987  0.4385 -0.2740
 5740SOL    HW128682   3.529   4.338   3.956 -1.0245  2.3388 -2.3138
 5740SOL    HW228683   3.640   4.345   4.046  0.9549 -1.5085 -1.4704
 5741SOL     OW28684   0.599   3.787  14.698 -0.2055 -0.4692 -0.0171
 5741SOL    HW128685   0.638   3.864  14.740  0.7502 -1.5977  1.1254
 5741SOL    HW228686   0.590   3.819  14.608  0.0847 -0.1217  0.0790
 5742SOL     OW28687   2.508   1.467   8.802  0.8504  0.2411 -0.1098
 5742SOL    HW128688   2.553   1.433   8.724  1.4951 -2.4994  1.4702
 5742SOL    HW228689   2.561   1.427   8.871  0.5419  1.1785  0.6677
 5743SOL     OW28690   0.991   1.875   9.621 -0.2480  0.0062 -0.3428
 5743SOL    HW128691   0.980   1.909   9.710 -0.4362 -2.7049  0.6702
 5743SOL    HW228692   1.085   1.860   9.628 -0.1062  1.6384  1.3259
 5744SOL     OW28693   3.976   2.114   7.976  0.1150  0.0274  0.4625
 5744SOL    HW128694   3.895   2.141   8.019  1.6298  0.8980  2.7554
 5744SOL    HW228695   4.043   2.153   8.032  0.4994  0.8402 -0.5679
 5745SOL     OW28696   4.661   1.421   3.818 -0.6132 -0.0974 -0.3331
 5745SOL    HW128697   0.003   1.433   3.749 -1.7129 -1.8681 -1.6489
 5745SOL    HW228698   4.722   1.415   3.892 -0.5554  1.2678 -0.2775
 5746SOL     OW28699   4.427   1.241  14.431  0.8406  0.2385 -0.0623
 5746SOL    HW128700   4.503   1.269  14.380  1.3153 -1.3126 -0.2206
 5746SOL    HW228701   4.433   1.145  14.421 -0.7703  0.0758  0.5896
 5747SOL     OW28702   1.841   3.141  11.282  0.1991 -0.1375  0.0008
 5747SOL    HW128703   1.916   3.150  11.224 -1.0183 -0.6626 -1.6416
 5747SOL    HW228704   1.800   3.224  11.260 -3.8392 -1.6432  1.8332
 5748SOL     OW28705   4.080   2.810  13.407 -0.0061 -0.0088 -0.1399
 5748SOL    HW128706   4.147   2.846  13.348  1.9048 -1.0766  1.3558
 5748SOL    HW228707   4.132   2.801  13.487 -0.1717 -0.8447 -0.1297
 5749SOL     OW28708   2.367   4.164   4.430 -0.3806 -0.4630  0.3067
 5749SOL    HW128709   2.388   4.110   4.506 -0.3961 -1.8747 -0.6867
 5749SOL    HW228710   2.452   4.207   4.423 -0.1984 -0.3298  3.2742
 5750SOL     OW28711   0.841   0.493  16.984  0.0238 -0.6309  0.5339
 5750SOL    HW128712   0.844   0.459  17.074 -0.4981  0.6407  1.0236
 5750SOL    HW228713   0.789   0.571  17.003  1.4773  0.2706  0.7664
 5751SOL     OW28714   1.851   1.165   8.847 -0.3313 -0.1448  0.2245
 5751SOL    HW128715   1.781   1.108   8.880  0.9139 -0.5248  2.1875
 5751SOL    HW228716   1.919   1.103   8.875 -0.6070 -0.6755 -0.2798
 5752SOL     OW28717   0.857   0.378   0.052 -0.1555  0.7868  0.6473
 5752SOL    HW128718   0.771   0.393   0.092 -1.4954 -1.2441 -1.4326
 5752SOL    HW228719   0.923   0.432   0.096  1.1319 -0.9781  0.9041
 5753SOL     OW28720   0.517   3.559   1.698  0.5664  0.1870 -0.1540
 5753SOL    HW128721   0.530   3.577   1.604  1.1870 -1.5396 -0.3876
 5753SOL    HW228722   0.422   3.551   1.710  0.7051 -2.5354 -0.9067
 5754SOL     OW28723   4.472   1.115   8.700  0.6378 -0.2262 -0.1621
 5754SOL    HW128724   4.481   1.208   8.720  0.4810  0.0604 -1.4342
 5754SOL    HW228725   4.423   1.087   8.777  0.5741  1.0539  0.2612
 5755SOL     OW28726   1.696   1.899   7.770 -0.1536  0.0026 -0.2297
 5755SOL    HW128727   1.780   1.918   7.813  0.0181 -2.7770  0.6424
 5755SOL    HW228728   1.668   1.815   7.805 -3.2266  0.8597 -0.6885
 5756SOL     OW28729   2.525   3.627   3.198  0.3145  0.2285  0.1993
 5756SOL    HW128730   2.616   3.631   3.170  0.3484 -2.6406 -0.0634
 5756SOL    HW228731   2.528   3.681   3.277 -2.7355 -0.4249  0.7653
 5757SOL     OW28732   1.276   1.124   2.782  0.0657  0.1378 -0.0410
 5757SOL    HW128733   1.203   1.096   2.728 -0.3088 -1.0348  1.0658
 5757SOL    HW228734   1.258   1.218   2.792  0.5330  0.1543  0.6315
 5758SOL     OW28735   4.146   2.246   8.118  0.2196 -0.4391  0.2366
 5758SOL    HW128736   4.140   2.268   8.211  2.0468  2.7319 -0.4030
 5758SOL    HW228737   4.176   2.326   8.076 -1.1522 -0.2261 -0.3333
 5759SOL     OW28738   2.833   2.828   2.724  0.1368 -0.5653  0.2845
 5759SOL    HW128739   2.912   2.881   2.737 -0.5904  0.2797  1.2417
 5759SOL    HW228740   2.856   2.735   2.728  0.9609 -0.3246  1.0288
 5760SOL     OW28741   1.373   0.091   2.298  0.6954  0.0629 -0.1829
 5760SOL    HW128742   1.431   0.094   2.373  0.2311  3.4271  0.0365
 5760SOL    HW228743   1.397   0.174   2.257  0.9453  0.4515  0.7522
 5761SOL     OW28744   3.094   1.732  12.197  0.0392 -0.0688  0.0939
 5761SOL    HW128745   3.119   1.776  12.116 -0.7610  0.7236  0.2676
 5761SOL    HW228746   3.027   1.668  12.172  1.0339 -1.3170  0.6700
 5762SOL     OW28747   2.304   0.508   3.481  0.4496 -0.0554 -0.1168
 5762SOL    HW128748   2.223   0.553   3.455  0.4169 -0.0849 -0.0647
 5762SOL    HW228749   2.268   0.425   3.510  0.0387  1.2232  2.9973
 5763SOL     OW28750   3.269   0.624  11.154 -0.7741  0.2528 -0.1501
 5763SOL    HW128751   3.342   0.564  11.171 -0.0201  1.1675 -0.2012
 5763SOL    HW228752   3.198   0.568  11.186 -1.1271 -0.4479 -2.1771
 5764SOL     OW28753   3.651   0.706  16.133  0.0773  0.0317  0.6076
 5764SOL    HW128754   3.711   0.725  16.061 -1.0009 -0.4533 -0.4206
 5764SOL    HW228755   3.564   0.729  16.100 -0.2393  0.2141  1.5629
 5765SOL     OW28756   4.110   3.216   7.798  0.1692 -0.5820  0.3608
 5765SOL    HW128757   4.102   3.269   7.719  0.6061 -0.1774  0.5843
 5765SOL    HW228758   4.113   3.126   7.765 -0.2996 -1.1035  1.7150
 5766SOL     OW28759   1.392   1.787  10.273  0.1122  0.0487  0.1898
 5766SOL    HW128760   1.332   1.860  10.256  0.8897  1.0635  1.7613
 5766SOL    HW228761   1.457   1.808  10.205 -0.9265 -0.0098 -0.8038
 5767SOL     OW28762   1.607   2.723   2.957  0.0552  0.3576  0.9702
 5767SOL    HW128763   1.555   2.781   2.900  1.9575  0.1005 -1.0338
 5767SOL    HW228764   1.581   2.634   2.931  0.6499  1.2698 -2.7916
 5768SOL     OW28765   4.710   1.502   0.405  0.3625 -0.2638 -0.2280
 5768SOL    HW128766   4.669   1.417   0.419  1.3097 -0.6490  0.1988
 5768SOL    HW228767   0.073   1.467   0.384  1.0385  0.4214  1.4063
 5769SOL     OW28768   0.890   1.331   3.204  0.3249 -0.5003 -0.5770
 5769SOL    HW128769   0.911   1.375   3.121  0.6448 -1.9694 -1.2726
 5769SOL    HW228770   0.909   1.240   3.185  0.5451 -0.6523  0.3853
 5770SOL     OW28771   3.249   0.631  12.862  0.3297  0.2610  0.0156
 5770SOL    HW128772   3.279   0.547  12.896 -0.5972  0.1452  0.5519
 5770SOL    HW228773   3.157   0.610  12.844  0.6312 -1.6543  0.6682
 5771SOL     OW28774   3.268   2.818  15.555  0.3264 -0.1216 -0.0828
 5771SOL    HW128775   3.200   2.751  15.547 -0.3406  0.5321  0.0716
 5771SOL    HW228776   3.229   2.902  15.533  2.7285  0.3705 -2.3894
 5772SOL     OW28777   3.793   2.708   3.633 -0.3012  0.1079 -0.7795
 5772SOL    HW128778   3.777   2.779   3.569 -1.0491 -0.6071 -1.3969
 5772SOL    HW228779   3.884   2.682   3.622 -1.2062 -2.0042 -3.1233
 5773SOL     OW28780   3.899   1.238  13.007  0.3175  0.4093 -0.0250
 5773SOL    HW128781   3.984   1.227  12.964  0.6176  0.6582  0.5000
 5773SOL    HW228782   3.841   1.258  12.933 -0.1661  1.2372  0.5689
 5774SOL     OW28783   4.055   2.226   5.670 -0.1131 -0.0245 -0.1182
 5774SOL    HW128784   3.997   2.242   5.596  0.7179  0.5864 -0.6366
 5774SOL    HW228785   4.015   2.143   5.695 -2.4423  1.2352  0.3083
 5775SOL     OW28786   4.172   2.918   2.463 -0.4138 -0.6046 -0.4011
 5775SOL    HW128787   4.204   2.834   2.496 -0.0006 -1.0074 -1.7879
 5775SOL    HW228788   4.247   2.941   2.408  1.6344 -3.1837  1.3140
 5776SOL     OW28789   1.719   2.161   5.346 -0.0695  0.1691  0.4745
 5776SOL    HW128790   1.813   2.144   5.358  0.0548  2.0937  2.3046
 5776SOL    HW228791   1.693   2.163   5.438  0.2897  3.0559  0.5037
 5777SOL     OW28792   3.432   1.990   5.699  0.0863 -0.1936  0.0652
 5777SOL    HW128793   3.519   2.004   5.737 -0.4157 -0.9610  1.4999
 5777SOL    HW228794   3.383   2.068   5.722 -1.3391 -0.8411 -0.8072
 5778SOL     OW28795   3.630   2.797  16.920 -0.1820 -0.3469 -0.0686
 5778SOL    HW128796   3.675   2.804  16.836 -0.2894 -0.2397 -0.1165
 5778SOL    HW228797   3.538   2.790  16.895 -0.2643 -1.9892  0.6922
 5779SOL     OW28798   0.597   2.779   2.834  0.1237 -0.1666  0.3297
 5779SOL    HW128799   0.537   2.705   2.845 -2.0792  1.4183 -1.0126
 5779SOL    HW228800   0.571   2.827   2.913  2.4977 -1.3691  1.8701
 5780SOL     OW28801   1.258   0.918   1.244 -0.4329 -0.3653  0.3180
 5780SOL    HW128802   1.199   0.993   1.254  1.8512  1.6237 -0.9307
 5780SOL    HW228803   1.346   0.955   1.249  0.1988 -1.6258 -1.3931
 5781SOL     OW28804   1.484   0.933   2.712  0.6899  0.1646 -0.0395
 5781SOL    HW128805   1.397   0.939   2.673  0.3485  2.6731  1.0981
 5781SOL    HW228806   1.533   0.992   2.654 -0.5360  1.8673  0.6661
 5782SOL     OW28807   0.791   4.360   2.739  0.1936 -0.0076  0.2979
 5782SOL    HW128808   0.861   4.352   2.674 -0.1360  1.5456 -0.2420
 5782SOL    HW228809   0.726   4.417   2.699  1.9268  1.2617 -0.7303
 5783SOL     OW28810   3.369   1.635   3.338 -0.4159 -0.9770 -0.3914
 5783SOL    HW128811   3.322   1.716   3.316  0.0142  0.0612  2.4709
 5783SOL    HW228812   3.359   1.643   3.433 -2.0191  1.4099 -0.7535
 5784SOL     OW28813   1.254   0.636  12.652  0.1759 -0.2604  0.4798
 5784SOL    HW128814   1.182   0.686  12.690 -0.4784 -0.5745 -0.3569
 5784SOL    HW228815   1.228   0.546  12.671  0.8565  0.3142  4.1195
 5785SOL     OW28816   1.596   2.523  14.255 -0.1857  0.6933 -0.0578
 5785SOL    HW128817   1.512   2.528  14.209  0.9341  3.3796 -1.8107
 5785SOL    HW228818   1.603   2.609  14.296 -0.1859  0.6340  0.0677
 5786SOL     OW28819   1.861   0.508   9.573 -0.3020 -0.2609  0.4735
 5786SOL    HW128820   1.821   0.458   9.644 -3.3564 -2.9299 -3.0995
 5786SOL    HW228821   1.873   0.593   9.614  0.7466 -0.9227  1.5302
 5787SOL     OW28822   1.834   0.247   7.925 -0.0921 -0.0891 -0.1890
 5787SOL    HW128823   1.827   0.274   8.017  0.8770  0.7540 -0.3622
 5787SOL    HW228824   1.775   0.315   7.893 -1.7380 -1.6464 -0.4031
 5788SOL     OW28825   0.994   0.120  11.837 -0.0866  0.5244  1.2502
 5788SOL    HW128826   0.937   0.099  11.911 -0.2575  0.7262  1.1735
 5788SOL    HW228827   1.057   0.052  11.861  2.0134  1.6361 -1.1172
 5789SOL     OW28828   3.974   1.596   1.910 -0.2068 -0.1909 -0.1413
 5789SOL    HW128829   3.953   1.575   2.001 -2.9093 -0.5207 -0.8332
 5789SOL    HW228830   4.001   1.687   1.918 -3.0677  0.9118 -2.7176
 5790SOL     OW28831   4.682   2.532   2.945 -0.2919 -0.4708  0.0202
 5790SOL    HW128832   4.716   2.613   2.983  0.2554  1.2832 -4.2385
 5790SOL    HW228833   0.031   2.498   2.892  1.0102 -0.5260  1.7982
 5791SOL     OW28834   3.535   4.378  13.035  0.2595  0.3206  0.1344
 5791SOL    HW128835   3.540   4.290  12.997  0.5947  0.5135 -0.2684
 5791SOL    HW228836   3.441   4.385  13.051  0.1938 -0.2806  0.0160
 5792SOL     OW28837   1.212   2.128   4.449 -0.3440  0.5022  0.0768
 5792SOL    HW128838   1.177   2.109   4.362 -0.5123  0.9290  0.0552
 5792SOL    HW228839   1.271   2.052   4.452 -0.6011  0.3149  0.3376
 5793SOL     OW28840   2.603   3.005   0.771 -0.6047  0.1938 -0.4601
 5793SOL    HW128841   2.571   2.997   0.861 -1.7235 -0.8442 -0.9637
 5793SOL    HW228842   2.541   3.069   0.737 -0.7638  0.1914 -0.1784
 5794SOL     OW28843   3.594   3.553   3.392  0.5344 -0.0763 -0.1984
 5794SOL    HW128844   3.603   3.488   3.462 -0.8813  1.4133  1.3675
 5794SOL    HW228845   3.682   3.591   3.396  0.6916 -0.4460 -0.0997
 5795SOL     OW28846   0.067   0.992   5.471  0.2900  0.3421  0.1791
 5795SOL    HW128847   0.065   0.900   5.497  1.2112  0.6144  1.2333
 5795SOL    HW228848   0.131   1.020   5.536 -1.1811  0.2791  1.6392
 5796SOL     OW28849   1.727   0.254   8.985  0.0333 -0.1483 -0.0549
 5796SOL    HW128850   1.736   0.261   8.889 -0.2658 -1.2100 -0.1527
 5796SOL    HW228851   1.708   0.347   8.998  1.3101  0.1138 -0.0086
 5797SOL     OW28852   0.850   0.719   8.511 -0.4154 -0.8204  1.0206
 5797SOL    HW128853   0.804   0.801   8.498 -0.8704 -1.3570 -0.7562
 5797SOL    HW228854   0.930   0.753   8.551  0.1862 -1.5376  0.4252
 5798SOL     OW28855   1.682   4.583  13.118 -0.1007  0.3994 -0.1497
 5798SOL    HW128856   1.754   4.529  13.150 -1.1405 -0.9992 -0.1399
 5798SOL    HW228857   1.626   4.513  13.084 -0.0968  0.2072  0.2348
 5799SOL     OW28858   1.712   3.372  14.126 -0.0423  0.2872 -0.0325
 5799SOL    HW128859   1.789   3.399  14.176 -0.2175 -1.0417  0.9578
 5799SOL    HW228860   1.638   3.390  14.184  0.1540 -1.0758  0.6260
 5800SOL     OW28861   4.351   0.993  13.430  0.4672  0.5166  0.1239
 5800SOL    HW128862   4.401   1.001  13.510  2.4320 -1.8419 -0.8667
 5800SOL    HW228863   4.271   0.961  13.473 -0.9297  1.1740 -1.9321
 5801SOL     OW28864   3.443   0.774   4.001 -0.1570  0.0401 -0.0098
 5801SOL    HW128865   3.469   0.725   3.923  0.0610  0.1441 -0.0034
 5801SOL    HW228866   3.423   0.699   4.058  0.3847  0.8435  1.2357
 5802SOL     OW28867   2.127   3.174   4.793  0.0019 -0.5002 -0.1616
 5802SOL    HW128868   2.143   3.091   4.748  1.2975 -1.3399  1.8484
 5802SOL    HW228869   2.120   3.229   4.716  2.8098 -1.1686 -0.9006
 5803SOL     OW28870   4.151   1.976   2.895  0.3299  0.0747 -0.3033
 5803SOL    HW128871   4.091   2.050   2.894 -1.3190 -1.2764 -1.8893
 5803SOL    HW228872   4.095   1.898   2.895  0.7252 -0.2164 -0.0014
 5804SOL     OW28873   3.640   3.762   8.797 -0.2625  0.2236  0.2589
 5804SOL    HW128874   3.721   3.812   8.805 -1.3363  2.0991 -0.3002
 5804SOL    HW228875   3.584   3.827   8.840 -0.0154 -1.0277  2.4582
 5805SOL     OW28876   4.550   2.591   4.462  0.5874  0.7005 -0.1817
 5805SOL    HW128877   4.526   2.595   4.370  0.8086 -2.6946 -0.3994
 5805SOL    HW228878   4.602   2.511   4.461  0.9364  0.9109  1.7597
 5806SOL     OW28879   3.459   3.504   1.522 -0.4735 -0.4234 -0.0110
 5806SOL    HW128880   3.478   3.598   1.527 -0.1978 -0.4851  0.1046
 5806SOL    HW228881   3.542   3.488   1.477  0.1350 -3.3135  2.1301
 5807SOL     OW28882   0.115   2.160   5.832  0.3431  0.0735  0.0259
 5807SOL    HW128883   0.130   2.104   5.908 -1.6720 -1.1719 -0.4950
 5807SOL    HW228884   0.118   2.250   5.865  1.4867  0.3527 -0.8175
 5808SOL     OW28885   2.527   1.334   9.674 -0.6420  0.0169  0.1750
 5808SOL    HW128886   2.604   1.370   9.631  1.3129 -1.0725  2.7355
 5808SOL    HW228887   2.512   1.407   9.734  1.2371  0.0888  0.5617
 5809SOL     OW28888   2.843   2.961  17.340  0.2695 -0.3533 -0.2184
 5809SOL    HW128889   2.853   3.045  17.294  0.7438 -0.1937  0.1700
 5809SOL    HW228890   2.896   2.909  17.279 -0.1838 -1.0233 -0.0323
 5810SOL     OW28891   0.293   0.390  11.438  0.1583 -0.1183  0.5877
 5810SOL    HW128892   0.327   0.465  11.487 -1.4579  1.7415 -1.1420
 5810SOL    HW228893   0.238   0.421  11.366  1.4109  2.3610  0.6797
 5811SOL     OW28894   0.516   0.387   3.239 -0.0307  0.2755 -0.5222
 5811SOL    HW128895   0.430   0.346   3.251  0.7784 -1.9872 -2.5414
 5811SOL    HW228896   0.533   0.401   3.333 -1.4032  0.9118 -0.3673
 5812SOL     OW28897   2.931   1.752   9.715 -0.4596 -0.5835  0.0308
 5812SOL    HW128898   2.990   1.758   9.790  0.4063 -0.8281 -0.6360
 5812SOL    HW228899   2.928   1.844   9.688  0.0826 -1.3037 -2.4358
 5813SOL     OW28900   0.268   1.990   8.793 -0.4876 -0.5826  0.2436
 5813SOL    HW128901   0.302   2.079   8.807 -0.2795 -0.9489  1.9742
 5813SOL    HW228902   0.174   2.004   8.786 -0.3233  0.7946  0.7355
 5814SOL     OW28903   2.959   2.367   6.947  0.0350 -0.2669  0.0293
 5814SOL    HW128904   2.869   2.398   6.952 -0.0702 -0.4729 -0.5792
 5814SOL    HW228905   2.988   2.339   7.034 -1.3095  0.9195  0.8605
 5815SOL     OW28906   0.398   2.199   2.943 -0.0643  0.0512  0.1832
 5815SOL    HW128907   0.469   2.136   2.943  1.6024  1.9223  1.9728
 5815SOL    HW228908   0.361   2.175   2.858  0.0247 -2.6787  0.9196
 5816SOL     OW28909   0.202   1.098   7.887 -0.1297  0.3482  0.0923
 5816SOL    HW128910   0.187   1.078   7.795  1.8869 -0.2785 -0.1008
 5816SOL    HW228911   0.297   1.087   7.895 -0.0314  0.4488 -0.8845
 5817SOL     OW28912   1.573   3.752   2.740  0.7853 -0.7302 -0.3470
 5817SOL    HW128913   1.650   3.695   2.740  1.6923  0.5213 -1.2993
 5817SOL    HW228914   1.497   3.704   2.706  1.1518 -1.1132 -0.6257
 5818SOL     OW28915   0.323   0.577   4.769 -0.2291  0.3974  0.4332
 5818SOL    HW128916   0.395   0.539   4.718 -1.6261 -0.1274 -1.1752
 5818SOL    HW228917   0.315   0.522   4.847 -3.4937 -1.3637 -1.1622
 5819SOL     OW28918   0.241   3.503   1.782 -0.3100 -0.3646 -0.0893
 5819SOL    HW128919   0.195   3.471   1.704  1.3068 -1.0955 -0.7437
 5819SOL    HW228920   0.176   3.492   1.852  2.5285 -1.5557  2.3433
 5820SOL     OW28921   0.249   3.280   0.333  0.4291  0.0525  0.1425
 5820SOL    HW128922   0.226   3.272   0.426  1.5560 -2.3189  0.2253
 5820SOL    HW228923   0.266   3.374   0.336 -0.8982  0.3553 -1.7447
 5821SOL     OW28924   1.343   2.490  11.148 -0.0658  0.4485  0.3349
 5821SOL    HW128925   1.366   2.407  11.190  1.6588  0.0329 -1.4587
 5821SOL    HW228926   1.326   2.474  11.056 -4.9643  2.0527  0.9550
 5822SOL     OW28927   3.474   0.014   7.204  0.6353  0.0355  0.2626
 5822SOL    HW128928   3.513   0.043   7.286  0.8849  0.4640 -0.0084
 5822SOL    HW228929   3.381   0.012   7.227  0.1653  2.1511 -1.4437
 5823SOL     OW28930   0.197   3.497   7.123 -0.2321 -1.1622  0.3324
 5823SOL    HW128931   0.240   3.430   7.071  2.0531  0.1584  0.5089
 5823SOL    HW228932   0.152   3.458   7.198  1.0835 -0.6827  1.3765
 5824SOL     OW28933   1.604   2.722  11.747 -0.1878 -0.4487 -0.2142
 5824SOL    HW128934   1.604   2.731  11.843  2.4762 -0.6264 -0.2027
 5824SOL    HW228935   1.553   2.800  11.725  0.1718 -0.6648 -1.7767
 5825SOL     OW28936   0.075   3.076   6.195 -0.7463  0.0477  0.1470
 5825SOL    HW128937   0.007   3.078   6.263 -0.7312  1.0446  0.1296
 5825SOL    HW228938   0.149   3.087   6.255 -1.9077 -0.1303  1.6327
 5826SOL     OW28939   4.383   2.874   3.771 -0.2684 -0.0731 -0.5395
 5826SOL    HW128940   4.329   2.940   3.727  0.7364  1.8595  1.1486
 5826SOL    HW228941   4.319   2.864   3.842  1.6989 -0.8394  1.1095
 5827SOL     OW28942   4.487   2.058   4.502 -0.6473 -0.0074 -0.0945
 5827SOL    HW128943   4.550   2.075   4.432  0.5858  0.4838  1.1359
 5827SOL    HW228944   4.537   2.083   4.579 -2.4621  2.1002  0.3937
 5828SOL     OW28945   0.618   1.398   6.363  0.1540  0.6797  0.1458
 5828SOL    HW128946   0.538   1.372   6.409  0.2872 -3.4081 -1.9507
 5828SOL    HW228947   0.643   1.307   6.347 -1.2043  0.4802 -0.7708
 5829SOL     OW28948   1.138   3.667   7.489  0.3224  1.0819  0.3218
 5829SOL    HW128949   1.118   3.735   7.553  0.9567  1.2980  0.2919
 5829SOL    HW228950   1.139   3.723   7.411  1.3053  1.4758  0.6149
 5830SOL     OW28951   1.060   1.786  12.197 -0.3302  0.3723 -0.2933
 5830SOL    HW128952   1.005   1.864  12.207 -0.0101  0.6705 -0.8503
 5830SOL    HW228953   0.999   1.713  12.188 -0.8367  1.0616 -2.3396
 5831SOL     OW28954   1.304   3.739  16.358 -0.0626 -0.0687 -0.1296
 5831SOL    HW128955   1.338   3.729  16.269 -1.1722 -0.3038 -0.5286
 5831SOL    HW228956   1.383   3.752  16.411  1.3950 -0.2995 -2.2400
 5832SOL     OW28957   2.068   4.481  10.699  0.4516  0.7471 -0.0406
 5832SOL    HW128958   2.149   4.430  10.701  0.4787  0.8661  2.1093
 5832SOL    HW228959   2.015   4.442  10.768 -0.0121  0.5039 -0.5324
 5833SOL     OW28960   2.085   3.550  12.744  0.3899 -0.3362  0.2960
 5833SOL    HW128961   2.120   3.624  12.695 -2.0946  0.1694 -0.7382
 5833SOL    HW228962   1.996   3.549  12.708 -0.1489  1.7555  1.5952
 5834SOL     OW28963   3.457   0.537   4.448  0.4720  0.5424  0.2371
 5834SOL    HW128964   3.442   0.621   4.406 -0.6274  0.3681  0.2805
 5834SOL    HW228965   3.369   0.513   4.478 -0.1731  1.4359 -0.9840
 5835SOL     OW28966   4.449   2.583  11.208  0.0544 -0.6265 -0.0603
 5835SOL    HW128967   4.519   2.524  11.182  0.7094  0.3119 -0.4371
 5835SOL    HW228968   4.386   2.524  11.248  0.7865 -1.3681 -0.0090
 5836SOL     OW28969   0.892   4.413   9.688  0.2794 -0.8435  0.4213
 5836SOL    HW128970   0.859   4.350   9.752 -2.1552  2.4128  2.3394
 5836SOL    HW228971   0.981   4.425   9.723 -0.0343  2.2474  0.0796
 5837SOL     OW28972   4.459   2.166   3.797 -0.2125  0.2985 -0.2533
 5837SOL    HW128973   4.517   2.188   3.869  0.6723 -0.7539 -0.6335
 5837SOL    HW228974   4.519   2.139   3.727  1.1494 -1.0388  1.4157
 5838SOL     OW28975   4.360   0.315   1.348 -0.6268  0.7072 -0.0049
 5838SOL    HW128976   4.419   0.345   1.418 -0.5104  0.0792  0.1649
 5838SOL    HW228977   4.277   0.296   1.391 -1.0583  2.2880 -0.1242
 5839SOL     OW28978   2.235   3.864   8.336 -0.2686 -0.7703 -0.1467
 5839SOL    HW128979   2.148   3.826   8.324 -1.3869  0.5795  3.6009
 5839SOL    HW228980   2.226   3.912   8.419 -0.2111  1.6775 -1.5528
 5840SOL     OW28981   2.947   2.478   2.327  0.1880 -0.1290  0.0750
 5840SOL    HW128982   2.858   2.472   2.361  0.3315 -1.5366  0.1751
 5840SOL    HW228983   2.931   2.459   2.234 -0.2355 -2.5418  0.6453
 5841SOL     OW28984   1.931   2.353   3.582  0.2658 -0.2855  0.5722
 5841SOL    HW128985   1.905   2.268   3.547 -0.1184 -0.3175  0.9308
 5841SOL    HW228986   1.948   2.404   3.503  0.7785 -2.3626 -0.6600
 5842SOL     OW28987   2.961   2.757   7.964  0.3681  0.7121 -0.3434
 5842SOL    HW128988   2.893   2.742   8.030 -0.4018  0.4044 -1.2082
 5842SOL    HW228989   2.937   2.846   7.939  3.1679  1.7442  0.6368
 5843SOL     OW28990   3.156   1.180   2.046  0.5912  0.3889  0.0551
 5843SOL    HW128991   3.132   1.131   1.967 -1.3096 -0.0530  0.9056
 5843SOL    HW228992   3.158   1.270   2.014  0.4510 -0.0715 -1.2514
 5844SOL     OW28993   0.374   1.201   2.438 -0.1501 -0.0564  0.0771
 5844SOL    HW128994   0.315   1.129   2.463 -0.4704 -0.5308 -2.0121
 5844SOL    HW228995   0.318   1.273   2.407 -2.6391 -2.3280 -0.7571
 5845SOL     OW28996   0.175   1.373   7.036  0.5576  0.1968 -0.1313
 5845SOL    HW128997   0.093   1.328   7.016  1.6350 -2.1150  0.6372
 5845SOL    HW228998   0.150   1.392   7.127  0.6973  1.7560 -0.4119
 5846SOL     OW28999   3.322   3.697   4.738  0.0304  0.8751 -0.1054
 5846SOL    HW129000   3.273   3.716   4.817  0.5453 -0.8301  0.6204
 5846SOL    HW229001   3.345   3.605   4.750 -0.8032  0.6847  0.0242
 5847SOL     OW29002   4.044   3.615   5.760  0.0621  0.2928  0.5718
 5847SOL    HW129003   4.116   3.555   5.780  0.0146  0.0644  0.0585
 5847SOL    HW229004   4.075   3.690   5.811  0.0205  0.6613  0.0625
 5848SOL     OW29005   1.638   2.639   1.815 -0.4814  0.0747 -0.8633
 5848SOL    HW129006   1.561   2.616   1.866 -0.6623 -0.6852 -1.4937
 5848SOL    HW229007   1.635   2.599   1.729 -1.6667  0.7110 -1.1147
 5849SOL     OW29008   2.917   3.694   2.175 -0.0705  0.3345 -0.1748
 5849SOL    HW129009   2.835   3.653   2.147  0.4169 -0.5453 -0.3107
 5849SOL    HW229010   2.891   3.720   2.264  0.3689  0.3673 -0.0566
 5850SOL     OW29011   2.776   2.984   9.226 -0.1757  0.4744 -0.0571
 5850SOL    HW129012   2.791   3.037   9.148  1.5670  0.3890  0.2386
 5850SOL    HW229013   2.716   2.924   9.181 -1.7043 -0.1549  2.8020
 5851SOL     OW29014   3.762   0.287  15.332 -0.6681 -0.3287  0.0013
 5851SOL    HW129015   3.798   0.362  15.285  2.8293 -1.9041  0.1627
 5851SOL    HW229016   3.837   0.271  15.390 -0.4607 -0.1854 -0.2291
 5852SOL     OW29017   0.932   4.032   1.715 -0.3196  0.5460 -0.2518
 5852SOL    HW129018   0.861   3.970   1.699 -0.8194  0.5891  1.8305
 5852SOL    HW229019   0.911   4.115   1.671 -0.3773  1.1081  0.8281
 5853SOL     OW29020   1.058   2.958  10.768  0.0447  0.3740 -0.0914
 5853SOL    HW129021   1.049   2.881  10.711 -0.3195  1.0005 -0.8715
 5853SOL    HW229022   1.051   2.920  10.855 -2.6339 -0.7049 -0.7533
 5854SOL     OW29023   0.660   3.069   7.598 -0.2279  0.4024 -0.4557
 5854SOL    HW129024   0.728   3.045   7.661 -1.9441  0.5424  1.4633
 5854SOL    HW229025   0.698   3.041   7.515 -1.2032  1.9906 -1.4371
 5855SOL     OW29026   4.642   1.608   2.180  0.5151  0.1779 -0.2873
 5855SOL    HW129027   4.706   1.646   2.120  1.9995 -1.6737  0.1201
 5855SOL    HW229028   4.566   1.617   2.122  0.6675  0.5326 -0.4312
 5856SOL     OW29029   4.608   1.716  17.313  0.6660  0.4090  0.2653
 5856SOL    HW129030   4.638   1.782  17.250  3.0118  0.2697  1.2493
 5856SOL    HW229031   4.542   1.669  17.263  1.6664 -0.1616 -0.5122
 5857SOL     OW29032   2.262   2.739  16.429 -0.6858 -0.7206 -0.2321
 5857SOL    HW129033   2.300   2.827  16.439 -1.0249 -0.2627 -2.8043
 5857SOL    HW229034   2.168   2.759  16.431 -0.6919 -0.7153 -0.5327
 5858SOL     OW29035   4.102   1.254  16.612 -0.0860  0.1031  0.3925
 5858SOL    HW129036   4.102   1.288  16.701 -0.2973  0.7274  0.1523
 5858SOL    HW229037   4.193   1.262  16.584 -0.2349 -0.1597 -0.1657
 5859SOL     OW29038   2.368   1.045   6.677  0.1099  0.1944  0.3057
 5859SOL    HW129039   2.390   1.017   6.766  1.9944 -1.7912 -0.7932
 5859SOL    HW229040   2.446   1.008   6.637  0.0899 -1.8881  2.2017
 5860SOL     OW29041   4.549   3.541   1.617 -0.1011 -0.2487 -0.3198
 5860SOL    HW129042   4.562   3.636   1.617 -0.3033 -0.2101  1.0013
 5860SOL    HW229043   4.630   3.518   1.573 -0.9924  0.0454 -2.0928
 5861SOL     OW29044   1.205   1.090   9.062  0.7155  0.5433  0.2257
 5861SOL    HW129045   1.154   1.152   9.113  1.8648  1.0660  0.7428
 5861SOL    HW229046   1.157   1.012   9.088 -2.4781  1.9745 -1.3947
 5862SOL     OW29047   0.434   4.007   9.375  0.0625  0.4080 -0.0349
 5862SOL    HW129048   0.415   3.920   9.341  1.8778  0.4466 -1.1657
 5862SOL    HW229049   0.509   3.975   9.426 -0.6121 -0.6904  0.2628
 5863SOL     OW29050   1.688   1.193   5.493  0.3035 -0.0714  0.3971
 5863SOL    HW129051   1.720   1.249   5.422 -1.9179  0.6945  0.0068
 5863SOL    HW229052   1.651   1.126   5.437 -0.3588  1.3827 -0.9083
 5864SOL     OW29053   1.788   0.538  11.196  0.1785 -0.7977  0.3388
 5864SOL    HW129054   1.863   0.596  11.187 -1.7410  1.3962 -1.6308
 5864SOL    HW229055   1.807   0.465  11.136 -1.1130 -0.0223 -1.0058
 5865SOL     OW29056   1.653   4.618  12.730 -0.8630 -0.3018  0.3903
 5865SOL    HW129057   1.624   4.657  12.812  0.6858 -0.0685  0.8347
 5865SOL    HW229058   1.581   4.642  12.671  1.8940 -0.0853 -2.9115
 5866SOL     OW29059   3.966   2.189   6.950 -0.6418  0.1876  0.0807
 5866SOL    HW129060   3.878   2.158   6.927 -1.2517  1.1702  1.1190
 5866SOL    HW229061   3.981   2.133   7.026 -0.7872 -0.9307 -0.7171
 5867SOL     OW29062   2.554   1.512  15.530  0.2936 -0.3304  0.2690
 5867SOL    HW129063   2.524   1.490  15.618  1.1256 -1.6327  0.2192
 5867SOL    HW229064   2.622   1.444  15.533 -0.6623 -1.3557 -1.5639
 5868SOL     OW29065   0.135   2.888   1.584  0.2508  0.1535 -0.5040
 5868SOL    HW129066   0.229   2.907   1.589  0.7221 -1.9882 -1.0869
 5868SOL    HW229067   0.141   2.804   1.629  0.3354  0.0374 -0.7323
 5869SOL     OW29068   0.399   0.306   9.190 -0.2656 -0.1761  0.0971
 5869SOL    HW129069   0.344   0.236   9.226  0.6401 -2.1740 -2.4678
 5869SOL    HW229070   0.334   0.376   9.198  0.0350 -0.0672  1.6400
 5870SOL     OW29071   0.305   3.949   1.540  0.3398  0.0708  0.0766
 5870SOL    HW129072   0.275   3.862   1.514  0.2267  0.2192 -0.2944
 5870SOL    HW229073   0.339   3.929   1.628  0.7290  3.5604  0.6971
 5871SOL     OW29074   1.388   1.112  16.824  0.3705 -0.2751 -0.1012
 5871SOL    HW129075   1.306   1.107  16.775  0.3089 -1.0308  0.0821
 5871SOL    HW229076   1.444   1.092  16.749  1.5350  0.0763  0.6778
 5872SOL     OW29077   4.384   1.227   3.517  0.3148 -0.5629  0.3902
 5872SOL    HW129078   4.417   1.198   3.602  1.7847  0.2772  0.0970
 5872SOL    HW229079   4.404   1.320   3.514 -1.2039 -0.2091  1.3606
 5873SOL     OW29080   0.612   0.086  12.850 -0.3283 -0.4183  0.6785
 5873SOL    HW129081   0.598   0.121  12.763  1.1470 -3.6367 -0.8590
 5873SOL    HW229082   0.685   0.031  12.821  0.5368  0.4805  1.1587
 5874SOL     OW29083   3.172   4.632  10.538  0.1889  0.2835 -0.2214
 5874SOL    HW129084   3.093   4.581  10.551  2.0405 -2.5835 -0.1894
 5874SOL    HW229085   3.227   4.591  10.605 -0.0967  0.8991  0.3909
 5875SOL     OW29086   2.128   3.880  10.461  0.6940 -0.0682 -0.2042
 5875SOL    HW129087   2.088   3.945  10.518 -1.1985  0.0501 -1.6998
 5875SOL    HW229088   2.217   3.880  10.498  0.3098 -1.4412  0.7276
 5876SOL     OW29089   1.303   4.201   3.770 -0.2580  0.0420  0.2094
 5876SOL    HW129090   1.356   4.121   3.762  0.5816  0.5711  0.5026
 5876SOL    HW229091   1.258   4.178   3.851  1.2096  0.1783  1.0472
 5877SOL     OW29092   1.146   0.384   6.688 -0.3102 -0.9372  0.0575
 5877SOL    HW129093   1.117   0.347   6.605 -0.3153 -0.9657  0.0719
 5877SOL    HW229094   1.240   0.366   6.687 -0.7113 -3.0081  0.4786
 5878SOL     OW29095   3.778   1.748   9.279  0.8697  0.2093  0.0271
 5878SOL    HW129096   3.682   1.752   9.277  0.8881  0.2752 -0.9631
 5878SOL    HW229097   3.789   1.653   9.278 -0.1212  0.1025 -2.2955
 5879SOL     OW29098   4.079   1.678  15.599 -0.3939  0.3847  0.0720
 5879SOL    HW129099   4.038   1.633  15.526 -1.8606  3.9650 -1.3100
 5879SOL    HW229100   4.163   1.707  15.562  0.0840 -0.1982  0.6933
 5880SOL     OW29101   4.618   0.315   5.964  0.0882  0.1186 -0.1882
 5880SOL    HW129102   4.564   0.281   6.035 -1.1667  1.1892 -0.6253
 5880SOL    HW229103   4.563   0.289   5.890 -0.8526  1.4695  0.0309
 5881SOL     OW29104   1.135   1.351   2.361  0.5468  0.1307  0.7936
 5881SOL    HW129105   1.203   1.289   2.388  1.4909  1.3088  1.1225
 5881SOL    HW229106   1.120   1.338   2.267  0.1496  0.6616  0.7864
 5882SOL     OW29107   2.625   3.396   5.107  0.2073 -0.0014  0.5944
 5882SOL    HW129108   2.669   3.315   5.130 -1.5227 -1.3138 -0.7810
 5882SOL    HW229109   2.672   3.410   5.025 -2.6077 -1.6874 -1.2814
 5883SOL     OW29110   1.020   3.880   0.533  0.1651 -0.1068  0.3158
 5883SOL    HW129111   1.089   3.881   0.600  0.3319 -1.4330  0.1615
 5883SOL    HW229112   1.047   3.826   0.459 -0.5094  2.8473 -2.0871
 5884SOL     OW29113   0.851   4.367  14.818 -0.4337  0.2110 -0.2144
 5884SOL    HW129114   0.921   4.302  14.808  0.5778  1.4576 -1.2154
 5884SOL    HW229115   0.795   4.331  14.887 -0.4221 -1.4273 -1.0762
 5885SOL     OW29116   1.853   2.799   2.952  0.0159  0.4057  0.4859
 5885SOL    HW129117   1.869   2.886   2.989  0.1638 -0.0906  1.5916
 5885SOL    HW229118   1.763   2.771   2.970 -0.9180  2.5974 -0.8429
 5886SOL     OW29119   4.462   0.359   8.425 -0.1811 -0.2948 -0.3892
 5886SOL    HW129120   4.541   0.375   8.373 -0.5085 -0.9017 -1.0730
 5886SOL    HW229121   4.447   0.443   8.467 -1.7308 -0.7962  0.0385
 5887SOL     OW29122   3.146   2.765   9.307  0.3101  0.1475  0.8139
 5887SOL    HW129123   3.147   2.816   9.225 -1.7651 -0.5030  0.3755
 5887SOL    HW229124   3.068   2.803   9.348 -0.5734  0.9005 -1.5574
 5888SOL     OW29125   0.349   3.569   4.557  0.6139  0.5882 -0.1212
 5888SOL    HW129126   0.374   3.580   4.649  2.5501  1.0650 -0.6969
 5888SOL    HW229127   0.318   3.479   4.553  1.5921  0.3142 -1.7470
 5889SOL     OW29128   0.298   1.483   6.198  0.2262 -0.9697 -0.2157
 5889SOL    HW129129   0.205   1.498   6.178 -0.0466 -0.7359  1.1897
 5889SOL    HW229130   0.294   1.393   6.231 -1.5191 -1.6444 -2.2492
 5890SOL     OW29131   3.684   1.040   0.927 -0.2896  0.3236 -0.1149
 5890SOL    HW129132   3.669   0.970   0.864 -0.8612 -1.1760  1.7075
 5890SOL    HW229133   3.615   1.104   0.909 -1.1809 -0.0827  1.9526
 5891SOL     OW29134   4.293   3.788   6.126 -0.1857  0.1037  0.2435
 5891SOL    HW129135   4.373   3.839   6.143  1.1858 -2.4220  1.3708
 5891SOL    HW229136   4.256   3.786   6.214 -0.5750  0.1313  0.0773
 5892SOL     OW29137   3.794   1.267  10.136  0.7463 -0.4021  0.0564
 5892SOL    HW129138   3.809   1.292  10.227  2.0574 -1.2240  0.0669
 5892SOL    HW229139   3.702   1.240  10.140  1.1086 -1.3655  1.8084
 5893SOL     OW29140   3.022   3.157   7.024  0.6958 -0.1620  0.2720
 5893SOL    HW129141   2.951   3.109   6.981 -0.8591  3.2000 -0.9192
 5893SOL    HW229142   3.048   3.104   7.100  1.1249  1.7707  1.4714
 5894SOL     OW29143   0.261   4.317   5.899  0.1361  0.3115  0.2625
 5894SOL    HW129144   0.314   4.315   5.978  2.0235  1.7752 -0.9627
 5894SOL    HW229145   0.328   4.347   5.838 -0.7126  0.9479 -0.3583
 5895SOL     OW29146   0.037   0.182   7.199  0.0968  0.1636 -0.6982
 5895SOL    HW129147   0.046   0.277   7.194  1.5991  0.1389  1.3538
 5895SOL    HW229148   0.097   0.162   7.127 -0.2462 -1.3724 -0.5602
 5896SOL     OW29149   4.153   2.770  11.507 -0.3196 -0.3184 -0.3870
 5896SOL    HW129150   4.067   2.809  11.497 -0.5791 -0.6498  0.6132
 5896SOL    HW229151   4.208   2.829  11.558 -0.1238 -2.9460  2.4011
 5897SOL     OW29152   4.149   1.985  11.695  0.3213 -0.1480 -0.2028
 5897SOL    HW129153   4.146   2.080  11.683  1.3321 -0.1111 -0.1664
 5897SOL    HW229154   4.067   1.956  11.654 -1.0502  0.1588  2.3592
 5898SOL     OW29155   2.233   2.646   3.793 -0.0887  0.1878  0.0431
 5898SOL    HW129156   2.148   2.607   3.814  0.5932 -0.6187  1.2895
 5898SOL    HW229157   2.245   2.705   3.868  1.4032  1.5144 -1.2324
 5899SOL     OW29158   0.114   1.794   4.725 -0.1791 -0.1861  0.4415
 5899SOL    HW129159   0.069   1.758   4.801 -0.5186  0.0460  0.3507
 5899SOL    HW229160   0.187   1.853   4.745 -1.2343  0.7577  1.4657
 5900SOL     OW29161   1.328   3.789   3.531  0.1761  0.1983 -0.8963
 5900SOL    HW129162   1.314   3.715   3.473 -0.9459 -0.4299  0.1726
 5900SOL    HW229163   1.378   3.845   3.471 -1.1748 -0.1921 -2.3589
 5901SOL     OW29164   2.886   4.102  13.466 -0.5708  0.7558  0.2812
 5901SOL    HW129165   2.866   4.129  13.377 -1.3398 -2.3865 -0.4845
 5901SOL    HW229166   2.850   4.170  13.524  0.8355  2.6455 -1.0545
 5902SOL     OW29167   3.205   0.653  13.367 -0.2063 -0.6946 -0.2804
 5902SOL    HW129168   3.175   0.614  13.449 -2.2001 -1.1198 -1.2055
 5902SOL    HW229169   3.184   0.745  13.385  0.2907 -0.9344  1.5628
 5903SOL     OW29170   0.377   2.509   3.609 -0.3511  0.7662 -0.3296
 5903SOL    HW129171   0.414   2.589   3.648  0.0607  1.3367 -1.9012
 5903SOL    HW229172   0.291   2.537   3.578 -0.9330 -0.4084  0.2460
 5904SOL     OW29173   4.032   0.488   4.082  0.1085  1.0786  0.1369
 5904SOL    HW129174   4.108   0.473   4.139 -0.6761  0.7310  1.0865
 5904SOL    HW229175   3.981   0.554   4.130  0.9835  1.6120  0.3538
 5905SOL     OW29176   0.416   2.315  11.744  0.4016 -0.0926 -0.3597
 5905SOL    HW129177   0.426   2.375  11.670  0.0762 -0.0673 -0.3853
 5905SOL    HW229178   0.390   2.379  11.811  1.2397 -2.6154  2.3478
 5906SOL     OW29179   3.610   4.153  11.038 -0.8619  0.1281 -0.2180
 5906SOL    HW129180   3.698   4.174  11.006  0.1350 -2.6415  0.7158
 5906SOL    HW229181   3.619   4.121  11.128 -0.1497  3.1177  0.7536
 5907SOL     OW29182   2.815   1.947   0.650 -0.2842  0.1811 -0.0914
 5907SOL    HW129183   2.803   1.948   0.745 -0.4028  0.4015 -0.1066
 5907SOL    HW229184   2.735   1.995   0.628  0.1029  1.8000  2.0522
 5908SOL     OW29185   0.358   4.279   6.381 -0.3707 -0.4283  0.1574
 5908SOL    HW129186   0.269   4.247   6.362 -0.2456 -0.6178 -0.1166
 5908SOL    HW229187   0.346   4.284   6.476  1.0975 -3.1331  0.4735
 5909SOL     OW29188   3.008   1.743  16.580  0.0722 -0.2982 -0.1919
 5909SOL    HW129189   2.957   1.781  16.652  0.1218  1.7723 -1.2472
 5909SOL    HW229190   2.992   1.804  16.508 -0.4753  1.1109  1.1284
 5910SOL     OW29191   0.673   3.717   0.524  0.1670 -0.4109 -0.0511
 5910SOL    HW129192   0.605   3.750   0.583  1.7804  2.5810  0.0995
 5910SOL    HW229193   0.651   3.774   0.450  1.7208  1.7212  1.1246
 5911SOL     OW29194   3.324   4.239   2.855  0.2238  0.0751  0.1711
 5911SOL    HW129195   3.399   4.181   2.869  0.0717 -0.8850 -2.9871
 5911SOL    HW229196   3.380   4.310   2.824  1.0256  0.4353  2.4524
 5912SOL     OW29197   1.613   3.998   5.217  0.8992  0.2670 -0.0961
 5912SOL    HW129198   1.527   3.960   5.233 -0.4112  3.0566 -0.4412
 5912SOL    HW229199   1.578   4.084   5.243 -0.2501  0.0637 -1.0086
 5913SOL     OW29200   1.819   2.923   7.228 -0.5034 -0.1360  0.6200
 5913SOL    HW129201   1.882   2.950   7.294 -0.1272 -0.4354  0.3879
 5913SOL    HW229202   1.737   2.953   7.265 -2.2968 -1.5110 -2.2209
 5914SOL     OW29203   4.623   1.333   6.042 -0.8637  0.3190 -0.0960
 5914SOL    HW129204   4.631   1.333   5.947  0.3435 -0.6731  0.0024
 5914SOL    HW229205   4.659   1.246   6.062 -1.4525 -0.1851 -1.2697
 5915SOL     OW29206   1.731   0.950  16.826 -0.2365  0.3869 -0.2915
 5915SOL    HW129207   1.756   0.894  16.899  1.3217 -1.2407 -2.0987
 5915SOL    HW229208   1.791   1.025  16.826 -1.1682  1.1435 -0.0295
 5916SOL     OW29209   3.055   3.087   1.022 -0.5476 -0.3651  0.0131
 5916SOL    HW129210   3.064   3.033   0.944 -2.5594  0.1111 -0.5450
 5916SOL    HW229211   2.987   3.151   1.000 -1.2800 -1.2345 -0.2709
 5917SOL     OW29212   1.609   3.399   7.293  0.1610 -0.1353 -0.6617
 5917SOL    HW129213   1.626   3.360   7.379 -0.1557  0.7264 -0.2016
 5917SOL    HW229214   1.514   3.388   7.286  0.2695 -2.1398  0.8898
 5918SOL     OW29215   3.769   0.864   3.302  0.2675 -0.3675  0.1389
 5918SOL    HW129216   3.835   0.822   3.358 -0.4994 -1.9953 -0.1836
 5918SOL    HW229217   3.813   0.923   3.241 -0.9926  1.4877  1.0269
 5919SOL     OW29218   3.145   3.440  14.337  0.3608  0.3243  0.0993
 5919SOL    HW129219   3.156   3.440  14.242  0.3006 -2.5424  0.0800
 5919SOL    HW229220   3.102   3.524  14.352 -1.5662 -0.1640 -2.6941
 5920SOL     OW29221   1.741   0.640   1.820 -0.2542 -0.0241  0.2233
 5920SOL    HW129222   1.748   0.559   1.869  0.0604  0.2749  0.6780
 5920SOL    HW229223   1.832   0.672   1.824 -0.4288  0.3548  1.1363
 5921SOL     OW29224   3.306   4.512   3.614  0.3048  0.0938  0.1538
 5921SOL    HW129225   3.303   4.418   3.629  0.3457 -0.1716 -1.5607
 5921SOL    HW229226   3.349   4.531   3.698 -0.1408 -3.3714  1.1570
 5922SOL     OW29227   2.127   2.338   2.784  0.1842  0.4861  0.4828
 5922SOL    HW129228   2.146   2.356   2.876  1.0939 -2.5114  0.8730
 5922SOL    HW229229   2.212   2.312   2.749 -0.0313  0.5926 -0.1288
 5923SOL     OW29230   1.374   4.118   6.522 -0.5884 -0.2126 -0.6382
 5923SOL    HW129231   1.419   4.063   6.458 -1.4545 -1.2664 -0.3558
 5923SOL    HW229232   1.345   4.047   6.580  1.5754  0.5650  1.3599
 5924SOL     OW29233   3.661   3.031   9.287 -0.0229 -0.4949  0.0910
 5924SOL    HW129234   3.677   3.117   9.326  0.2577 -0.1093 -0.8737
 5924SOL    HW229235   3.579   3.053   9.242 -0.5393  0.0466  1.2721
 5925SOL     OW29236   0.745   4.180  13.691 -0.1312  1.1482  0.3081
 5925SOL    HW129237   0.762   4.272  13.712 -1.7303  1.6791 -0.6962
 5925SOL    HW229238   0.818   4.140  13.644  1.3071  2.3545  1.5284
 5926SOL     OW29239   4.185   2.160   6.749 -0.3768  0.0270  0.4097
 5926SOL    HW129240   4.238   2.100   6.800 -2.4416  0.9369  3.6219
 5926SOL    HW229241   4.120   2.191   6.812 -1.2922 -0.4450 -0.2951
 5927SOL     OW29242   2.020   2.687  13.395 -0.3494  0.0805  0.4582
 5927SOL    HW129243   2.115   2.683  13.401 -0.5511 -2.3986  1.8411
 5927SOL    HW229244   1.993   2.634  13.470  2.4165  0.3785  1.6521
 5928SOL     OW29245   2.434   2.346   4.272  0.2704  0.2417  0.6620
 5928SOL    HW129246   2.399   2.428   4.306 -0.9820 -0.3617  0.8192
 5928SOL    HW229247   2.367   2.282   4.297  0.2624  0.3981  1.0466
 5929SOL     OW29248   1.375   0.355  13.860  0.1563 -0.3011 -0.1553
 5929SOL    HW129249   1.347   0.266  13.837  1.4184 -0.6877 -0.2112
 5929SOL    HW229250   1.423   0.375  13.780  0.3575 -0.2332 -0.0189
 5930SOL     OW29251   3.041   3.966   2.901  0.6851  0.4588 -0.5567
 5930SOL    HW129252   3.037   4.062   2.909  0.4007  0.4410 -0.4804
 5930SOL    HW229253   3.051   3.952   2.807 -0.9042  0.2413 -0.6852
 5931SOL     OW29254   0.134   1.079  15.966  0.1249 -0.0255 -0.3598
 5931SOL    HW129255   0.198   1.104  16.032  1.4988  1.1053 -2.1253
 5931SOL    HW229256   0.108   1.164  15.930  0.3749  0.8821  1.6137
 5932SOL     OW29257   0.778   3.656   6.249 -0.5596 -0.3097  0.0895
 5932SOL    HW129258   0.859   3.608   6.237 -0.4837 -0.2195  0.2367
 5932SOL    HW229259   0.825   3.724   6.298  0.3526 -1.2755  0.5531
 5933SOL     OW29260   4.344   0.458   0.513  0.5814  0.3429  0.0100
 5933SOL    HW129261   4.267   0.431   0.463  2.0732  0.1946 -2.1644
 5933SOL    HW229262   4.336   0.400   0.589  1.2717 -0.4263 -0.5061
 5934SOL     OW29263   2.820   2.510   5.614  0.5737 -0.1531 -0.1519
 5934SOL    HW129264   2.726   2.525   5.625  0.9427  1.9784  0.2082
 5934SOL    HW229265   2.817   2.468   5.528  1.1448  1.0905 -0.7828
 5935SOL     OW29266   0.533   2.344  14.854 -0.1348 -0.5609  0.1100
 5935SOL    HW129267   0.460   2.330  14.794  0.0407  2.0981 -0.7002
 5935SOL    HW229268   0.561   2.252  14.848 -0.5676 -0.6899  0.0405
 5936SOL     OW29269   0.825   0.223  12.413 -0.2608 -0.3913  0.3246
 5936SOL    HW129270   0.811   0.210  12.319  0.2379  0.8196  0.0833
 5936SOL    HW229271   0.737   0.200  12.444 -0.4180 -1.0343 -0.6050
 5937SOL     OW29272   2.877   0.735  10.113 -0.2470 -0.1481 -0.0274
 5937SOL    HW129273   2.954   0.700  10.068  2.4947  2.0316  3.0320
 5937SOL    HW229274   2.897   0.717  10.204 -0.8803 -0.2296  0.0978
 5938SOL     OW29275   4.600   1.119   4.001  0.0772 -0.6972  0.5645
 5938SOL    HW129276   4.525   1.075   4.040 -0.7919  0.7106  0.4728
 5938SOL    HW229277   4.581   1.210   4.024  0.7612 -0.1911 -0.8836
 5939SOL     OW29278   2.630   3.302   1.118 -0.3197 -0.2403  0.3757
 5939SOL    HW129279   2.592   3.381   1.081 -1.6480 -1.1486 -0.1822
 5939SOL    HW229280   2.707   3.299   1.061 -1.9544  0.8795 -1.8973
 5940SOL     OW29281   4.686   3.824  17.214  0.0541  0.6732  0.1865
 5940SOL    HW129282   4.610   3.790  17.167  0.1078  0.6733  0.1009
 5940SOL    HW229283   0.030   3.820  17.146 -0.7291 -0.5995 -0.5121
 5941SOL     OW29284   3.589   1.474  11.572  0.1282  0.2769 -0.0134
 5941SOL    HW129285   3.656   1.424  11.618  0.3465  0.0190 -0.6060
 5941SOL    HW229286   3.630   1.484  11.486 -0.6482  0.3229 -0.3792
 5942SOL     OW29287   3.133   0.444  13.181  0.3669 -0.6882  0.4622
 5942SOL    HW129288   3.171   0.506  13.244  1.3044  1.4357 -2.2024
 5942SOL    HW229289   3.200   0.438  13.113  0.3011  1.4313  0.2184
 5943SOL     OW29290   1.625   4.273   3.312 -0.4483 -0.1815 -0.6333
 5943SOL    HW129291   1.660   4.302   3.228  0.9256  0.6229  0.2243
 5943SOL    HW229292   1.549   4.331   3.314 -0.7150 -0.5187 -0.9651
 5944SOL     OW29293   4.151   3.211  14.279  0.0951 -0.1250 -0.0928
 5944SOL    HW129294   4.093   3.199  14.203 -0.4133 -0.3865  0.3362
 5944SOL    HW229295   4.143   3.307  14.278  0.0588 -0.1183  1.3086
 5945SOL     OW29296   0.191   4.510   4.565 -0.0965 -0.1908 -0.3532
 5945SOL    HW129297   0.219   4.487   4.653 -2.2086 -0.1272  0.3176
 5945SOL    HW229298   0.267   4.493   4.508  2.1018 -0.6136  2.7118
 5946SOL     OW29299   3.721   3.516   2.496  0.2032  0.4176 -0.0912
 5946SOL    HW129300   3.765   3.586   2.447 -0.3388 -0.1477 -1.3901
 5946SOL    HW229301   3.785   3.446   2.490  0.6027  0.6835  1.0842
 5947SOL     OW29302   2.149   2.746   0.715 -0.2883 -0.3407 -0.7822
 5947SOL    HW129303   2.216   2.769   0.779 -1.4069  0.7148 -0.0019
 5947SOL    HW229304   2.071   2.772   0.764  0.8554  1.1324  0.2674
 5948SOL     OW29305   4.027   0.624   1.974 -0.2534 -0.0673  0.2461
 5948SOL    HW129306   4.054   0.621   2.066 -0.9030  1.5740  0.4898
 5948SOL    HW229307   3.933   0.606   1.985  0.0341  0.1342  3.1722
 5949SOL     OW29308   1.307   0.005   7.810 -0.2763 -0.1036  0.7585
 5949SOL    HW129309   1.379   0.013   7.748  0.7824 -1.6439  1.8073
 5949SOL    HW229310   1.235   4.687   7.763 -0.4199  0.4394  0.4967
 5950SOL     OW29311   1.660   4.385   3.063 -0.1196  0.1905 -0.6249
 5950SOL    HW129312   1.668   4.431   2.979 -0.8318  0.8389 -0.3364
 5950SOL    HW229313   1.579   4.338   3.043  0.2160 -0.0606 -1.3966
 5951SOL     OW29314   4.692   1.046   6.051  0.0289  0.2953 -0.0902
 5951SOL    HW129315   0.029   0.971   6.049 -1.2790 -0.6408 -2.7744
 5951SOL    HW229316   4.610   1.003   6.074  1.6408 -1.0152  3.3035
 5952SOL     OW29317   2.904   3.544   5.030  0.1054 -0.4170 -0.5467
 5952SOL    HW129318   2.849   3.581   4.961  0.5950  0.7736 -0.2940
 5952SOL    HW229319   2.950   3.473   4.985  0.3967 -0.2788 -0.4649
 5953SOL     OW29320   0.593   4.530   6.503  0.1278  0.3931 -0.1905
 5953SOL    HW129321   0.628   4.508   6.589  0.2978 -1.0127 -0.6287
 5953SOL    HW229322   0.601   4.455   6.446 -2.0964  1.1401 -1.5162
 5954SOL     OW29323   2.611   4.495   7.758  0.4981  0.1597  0.3272
 5954SOL    HW129324   2.619   4.430   7.688  0.3686  0.7541 -0.2376
 5954SOL    HW229325   2.585   4.443   7.835  1.3371  1.0801  1.2188
 5955SOL     OW29326   1.256   0.179  12.014 -0.4309  0.1958 -0.0861
 5955SOL    HW129327   1.243   0.176  12.109 -0.2999  0.2047 -0.0666
 5955SOL    HW229328   1.314   0.103  12.004 -0.9439 -0.4551  2.0238
 5956SOL     OW29329   1.651   4.381   6.350 -0.1917  0.5692 -0.2039
 5956SOL    HW129330   1.701   4.315   6.397 -0.3841  0.0432 -0.7407
 5956SOL    HW229331   1.566   4.343   6.369 -0.0782 -0.2284 -1.3133
 5957SOL     OW29332   4.703   3.584   2.380 -0.0993  0.3040  0.2443
 5957SOL    HW129333   0.034   3.506   2.366  0.1829  0.8543 -1.7697
 5957SOL    HW229334   4.620   3.540   2.400 -0.0749  1.1509  2.1754
 5958SOL     OW29335   2.287   2.962   5.757 -0.2480 -0.0822 -0.0579
 5958SOL    HW129336   2.268   2.880   5.804  0.5772 -0.7535 -0.8949
 5958SOL    HW229337   2.273   2.934   5.667 -0.3689 -0.3882  0.0544
 5959SOL     OW29338   0.974   2.036   3.623 -0.1693 -0.2604 -0.7017
 5959SOL    HW129339   0.998   2.059   3.533 -0.9383  0.1858 -0.8008
 5959SOL    HW229340   0.892   1.990   3.606 -0.2305 -0.7040  0.8121
 5960SOL     OW29341   0.400   0.198   7.345 -0.0568 -0.7919 -0.0644
 5960SOL    HW129342   0.483   0.244   7.358 -0.1743 -1.0735  1.6895
 5960SOL    HW229343   0.357   0.257   7.283  1.5084  0.3363 -0.0891
 5961SOL     OW29344   4.192   0.156   0.965 -0.3027 -0.6945  0.3828
 5961SOL    HW129345   4.148   0.219   1.023  0.1947 -1.5928  1.7363
 5961SOL    HW229346   4.216   0.087   1.027 -2.2175 -0.0451  1.8853
 5962SOL     OW29347   1.629   1.972  16.510  0.2713 -0.0424  0.3283
 5962SOL    HW129348   1.596   1.907  16.572 -2.5534  0.9221 -0.1470
 5962SOL    HW229349   1.643   2.034  16.582 -0.2306  0.0871  0.3210
 5963SOL     OW29350   1.424   3.585   7.862  0.1545  0.1353 -0.0110
 5963SOL    HW129351   1.488   3.592   7.791  1.2517 -0.0815  0.9613
 5963SOL    HW229352   1.460   3.534   7.934  1.2258  2.7427  1.3050
 5964SOL     OW29353   1.819   2.997   6.960 -0.2977  0.4557 -0.0935
 5964SOL    HW129354   1.896   2.972   7.010  0.1382  0.4000 -0.7934
 5964SOL    HW229355   1.786   3.070   7.013 -1.3491 -0.1744  0.1346
 5965SOL     OW29356   0.602   0.714  10.705 -0.0439 -0.4075 -0.1033
 5965SOL    HW129357   0.672   0.654  10.679 -1.8610 -2.7510  0.4505
 5965SOL    HW229358   0.560   0.747  10.626  0.9630  1.4555  0.1232
 5966SOL     OW29359   1.270   1.704  14.016 -0.2980  0.0140 -0.3421
 5966SOL    HW129360   1.273   1.773  13.950 -1.1688 -0.8215 -1.2696
 5966SOL    HW229361   1.364   1.694  14.034 -0.4827  1.3201  1.3029
 5967SOL     OW29362   2.141   3.172   7.380  0.3637  0.3250  0.2187
 5967SOL    HW129363   2.188   3.231   7.439 -2.3763  1.4735  1.2835
 5967SOL    HW229364   2.213   3.111   7.364  0.2015  0.2176 -0.0936
 5968SOL     OW29365   0.848   0.746   5.098  0.0183  0.6570 -0.0493
 5968SOL    HW129366   0.815   0.703   5.019 -0.6904 -1.4181  1.3815
 5968SOL    HW229367   0.922   0.793   5.061 -0.0438  0.8543  0.0795
 5969SOL     OW29368   2.641   2.817   0.066 -0.5035 -0.0113 -0.0773
 5969SOL    HW129369   2.560   2.767   0.064 -1.7158  2.0811 -3.8384
 5969SOL    HW229370   2.609   2.889   0.120  1.4801  0.4206  0.5299
 5970SOL     OW29371   0.328   2.272   7.720  0.0044  0.4996  0.2658
 5970SOL    HW129372   0.280   2.352   7.742 -1.4305  0.3604 -2.4364
 5970SOL    HW229373   0.306   2.261   7.628  1.3345  0.3209 -0.0278
 5971SOL     OW29374   1.980   4.192   7.915  0.2132 -0.1576  0.2366
 5971SOL    HW129375   2.036   4.115   7.921 -1.1543 -1.1890 -0.2541
 5971SOL    HW229376   2.037   4.258   7.874 -1.8932 -1.4379 -4.7445
 5972SOL     OW29377   2.535   0.674   8.459 -0.0431 -0.6775  0.1545
 5972SOL    HW129378   2.575   0.756   8.490 -1.6094  1.8013 -4.2386
 5972SOL    HW229379   2.582   0.608   8.509  0.2069 -0.4026  0.2878
 5973SOL     OW29380   2.370   3.587  13.264 -0.1205 -0.5534  0.1437
 5973SOL    HW129381   2.392   3.615  13.175 -1.2676 -0.5257 -0.1282
 5973SOL    HW229382   2.311   3.517  13.237 -0.5090 -0.4868  0.8284
 5974SOL     OW29383   1.263   1.851   9.584 -0.0367 -0.0727  0.4206
 5974SOL    HW129384   1.317   1.863   9.662  1.5665 -1.0571 -0.5146
 5974SOL    HW229385   1.324   1.863   9.511  1.7704 -1.2297  1.7297
 5975SOL     OW29386   3.707   3.236   4.206  0.2412  0.4515 -0.1898
 5975SOL    HW129387   3.631   3.198   4.162  1.1133 -0.9402 -0.5222
 5975SOL    HW229388   3.712   3.189   4.290 -2.3303  1.7074  0.6450
 5976SOL     OW29389   2.018   1.748  16.702 -0.3051 -0.0351  0.5830
 5976SOL    HW129390   1.931   1.746  16.742 -0.4169  3.9433  0.5079
 5976SOL    HW229391   2.048   1.833  16.734 -0.4403  1.2588 -2.7363
 5977SOL     OW29392   3.730   4.115   5.342  0.2058 -0.2626  0.7142
 5977SOL    HW129393   3.731   4.096   5.435 -0.9672  0.1086  0.8143
 5977SOL    HW229394   3.819   4.089   5.318 -0.1173 -1.9558  1.3535
 5978SOL     OW29395   4.247   4.101   8.736 -0.0039  0.5417  0.2246
 5978SOL    HW129396   4.278   4.018   8.700 -0.4333  1.5716 -2.5197
 5978SOL    HW229397   4.327   4.153   8.738 -0.2025  0.8809 -1.1324
 5979SOL     OW29398   3.123   1.782   5.219 -0.4829  0.3724 -0.5051
 5979SOL    HW129399   3.188   1.845   5.186 -0.2782 -0.0203 -0.8611
 5979SOL    HW229400   3.129   1.791   5.314 -0.9891  1.7842 -0.6099
 5980SOL     OW29401   1.082   3.070   6.889  0.0276  0.1731  0.2929
 5980SOL    HW129402   1.058   3.029   6.973 -0.5670 -2.3933 -1.1178
 5980SOL    HW229403   1.177   3.064   6.900  0.0784 -1.4842 -1.0137
 5981SOL     OW29404   2.968   4.240   6.607  0.1963  0.2009  0.8473
 5981SOL    HW129405   2.912   4.227   6.684  0.1367 -2.8752  0.3044
 5981SOL    HW229406   2.920   4.203   6.534 -0.0048  2.5565 -0.1994
 5982SOL     OW29407   3.224   2.684   2.701 -0.1302  1.2975 -0.3782
 5982SOL    HW129408   3.174   2.626   2.758  2.7849 -1.4174 -0.5824
 5982SOL    HW229409   3.224   2.632   2.620 -1.3281  0.6025  0.0588
 5983SOL     OW29410   4.160   0.787   2.228 -0.1711 -0.4158  0.7053
 5983SOL    HW129411   4.230   0.846   2.255  2.1969 -2.5752 -0.7735
 5983SOL    HW229412   4.167   0.720   2.295  0.6045 -0.5459  0.4910
 5984SOL     OW29413   4.203   2.851  15.978 -0.1258  0.0705 -0.3872
 5984SOL    HW129414   4.205   2.818  15.888 -2.7496  0.9703 -0.7859
 5984SOL    HW229415   4.109   2.848  15.994 -0.1452  1.3528 -0.2671
 5985SOL     OW29416   3.356   1.944  10.503 -0.2349  0.2711 -0.7579
 5985SOL    HW129417   3.429   1.909  10.554 -0.1765 -0.1567 -1.1336
 5985SOL    HW229418   3.280   1.931  10.561  1.1276  0.6283  1.0905
 5986SOL     OW29419   2.217   1.000   0.609  0.7444 -0.8983  0.5860
 5986SOL    HW129420   2.163   0.939   0.560 -0.0465 -0.1813  0.5743
 5986SOL    HW229421   2.151   1.050   0.657  0.9751  0.0049 -0.0527
 5987SOL     OW29422   4.127   1.785   4.973  0.2325 -0.1896  0.8138
 5987SOL    HW129423   4.064   1.744   4.912  1.2014 -2.3854  1.2966
 5987SOL    HW229424   4.175   1.838   4.910 -1.6577  0.9731  0.3423
 5988SOL     OW29425   3.083   2.063   2.617  0.2113  0.1687  0.5490
 5988SOL    HW129426   3.003   2.095   2.657  0.2266 -0.0327  0.7394
 5988SOL    HW229427   3.093   2.126   2.545 -0.1175 -0.1783  0.1977
 5989SOL     OW29428   3.954   3.145   3.850 -0.2999 -0.3046  0.2492
 5989SOL    HW129429   3.984   3.188   3.770  0.2737 -3.2427 -1.1048
 5989SOL    HW229430   4.011   3.168   3.922 -0.2528 -1.1378  0.4790
 5990SOL     OW29431   2.242   4.434   1.263  0.3615  0.0455 -0.2798
 5990SOL    HW129432   2.168   4.469   1.213  1.3043 -1.8805 -3.0488
 5990SOL    HW229433   2.211   4.344   1.274  1.0563 -0.1769 -0.1449
 5991SOL     OW29434   4.290   2.121   5.040  0.0661  0.4629 -0.5400
 5991SOL    HW129435   4.274   2.058   5.111  0.2086 -0.1348 -1.0375
 5991SOL    HW229436   4.258   2.070   4.965  1.3837 -0.6831 -0.3269
 5992SOL     OW29437   2.963   3.655   8.133  0.0477 -0.5738  0.2559
 5992SOL    HW129438   2.893   3.611   8.083 -1.6500 -1.3243  3.2476
 5992SOL    HW229439   2.912   3.715   8.188 -2.2478 -1.8162 -0.4845
 5993SOL     OW29440   1.524   0.284   0.647 -0.2175  0.4888  0.1253
 5993SOL    HW129441   1.450   0.344   0.639 -1.4919 -1.0398  0.4497
 5993SOL    HW229442   1.504   0.260   0.738 -1.3231  1.2395  0.0856
 5994SOL     OW29443   3.915   3.687  11.450 -0.1841  0.4556  0.0505
 5994SOL    HW129444   3.901   3.629  11.524 -1.0140  1.1769  0.4607
 5994SOL    HW229445   3.834   3.661  11.406 -0.0895 -1.6446  1.1165
 5995SOL     OW29446   2.475   4.494   2.640 -0.7732 -0.3368 -0.3405
 5995SOL    HW129447   2.499   4.508   2.732 -0.1643  2.1948 -0.8822
 5995SOL    HW229448   2.563   4.515   2.608 -0.5450  0.5167  0.8527
 5996SOL     OW29449   3.832   3.674   1.339 -0.1746  0.3554  0.6715
 5996SOL    HW129450   3.793   3.650   1.423 -0.1910 -1.3458  0.1697
 5996SOL    HW229451   3.759   3.706   1.287 -0.3742 -2.0227 -0.5071
 5997SOL     OW29452   3.407   3.033   5.520 -0.5134 -0.7254  0.3087
 5997SOL    HW129453   3.469   3.104   5.539 -0.7477 -0.7288  1.0916
 5997SOL    HW229454   3.344   3.047   5.591 -0.8825 -0.5244 -0.0531
 5998SOL     OW29455   3.016   2.773  17.213 -0.3695  0.2740 -0.3156
 5998SOL    HW129456   3.098   2.740  17.251  0.4512  1.9175 -0.6363
 5998SOL    HW229457   3.026   2.820  17.130  1.7575 -0.3670 -0.4237
 5999SOL     OW29458   4.481   0.162   7.259 -0.0757 -0.3825  0.0967
 5999SOL    HW129459   4.575   0.148   7.249  0.0686  0.8493 -0.3271
 5999SOL    HW229460   4.467   0.098   7.329  2.9743 -3.0439 -1.7572
 6000SOL     OW29461   3.685   3.632  14.381 -0.2421  0.2834 -0.7217
 6000SOL    HW129462   3.625   3.604  14.312  0.6180 -0.9472 -0.9802
 6000SOL    HW229463   3.695   3.724  14.357  0.0630  1.2175  3.0224
 6001SOL     OW29464   3.531   3.446   6.793  0.5057 -0.4286  0.3841
 6001SOL    HW129465   3.549   3.525   6.844 -1.5378  1.9134 -2.5578
 6001SOL    HW229466   3.573   3.373   6.839  2.2698 -0.1772 -0.8255
 6002SOL     OW29467   4.341   1.634   8.899 -0.2549  0.1177 -0.0012
 6002SOL    HW129468   4.365   1.670   8.985 -2.1659  1.3204  0.0426
 6002SOL    HW229469   4.344   1.541   8.923  3.6103  0.8213  2.1918
 6003SOL     OW29470   4.111   3.550  10.609 -0.2071 -0.2177 -0.1154
 6003SOL    HW129471   4.154   3.547  10.524 -0.1264  1.2679 -0.1196
 6003SOL    HW229472   4.062   3.632  10.599  1.8838  1.0300 -0.0100
 6004SOL     OW29473   2.674   2.528   8.901 -0.0856 -0.7141 -0.3346
 6004SOL    HW129474   2.756   2.571   8.875 -0.7968  0.3162 -0.9173
 6004SOL    HW229475   2.672   2.535   8.996 -0.6537 -2.3968 -0.2187
 6005SOL     OW29476   3.275   1.172   5.286 -0.1742 -0.1994 -0.1663
 6005SOL    HW129477   3.303   1.238   5.349  1.6612 -1.7289  0.6139
 6005SOL    HW229478   3.346   1.160   5.222 -2.2791 -2.7128 -2.0575
 6006SOL     OW29479   0.600   0.934   1.739 -0.1335  0.0986 -0.7006
 6006SOL    HW129480   0.556   0.863   1.692  0.3613 -0.1621 -0.7712
 6006SOL    HW229481   0.686   0.933   1.697 -0.6142 -1.2282 -1.6553
 6007SOL     OW29482   0.509   1.261   8.873  0.8233 -0.1097  0.8131
 6007SOL    HW129483   0.486   1.194   8.937  0.6588 -1.9162 -1.1479
 6007SOL    HW229484   0.450   1.324   8.915 -0.8497 -1.3218  0.2939
 6008SOL     OW29485   4.137   3.689   9.158 -0.3405 -0.2310  0.1381
 6008SOL    HW129486   4.136   3.599   9.193 -2.8593 -0.4182 -0.4817
 6008SOL    HW229487   4.210   3.690   9.095 -1.7155 -0.3547 -1.4415
 6009SOL     OW29488   2.529   1.255   3.024 -0.3961  0.1180  0.1632
 6009SOL    HW129489   2.622   1.276   3.035 -0.4972  1.6373 -1.6921
 6009SOL    HW229490   2.539   1.175   2.973 -2.1535  0.3033 -0.4799
 6010SOL     OW29491   1.069   3.057   3.159 -0.1485  0.2119 -0.1812
 6010SOL    HW129492   1.058   3.015   3.244 -2.1670  0.4761 -0.3046
 6010SOL    HW229493   1.023   3.141   3.164 -2.6065 -1.2646  2.0127
 6011SOL     OW29494   0.874   0.806   6.573 -0.1493  1.0536  0.0853
 6011SOL    HW129495   0.882   0.711   6.580  0.0715  0.9308 -1.6960
 6011SOL    HW229496   0.833   0.811   6.487  1.8925  2.5602 -0.8069
 6012SOL     OW29497   3.662   2.246   7.168 -0.1472 -0.0129  0.4477
 6012SOL    HW129498   3.578   2.224   7.128 -0.8175 -1.2702  2.5450
 6012SOL    HW229499   3.666   2.334   7.132  1.9566 -1.0217 -1.8082
 6013SOL     OW29500   0.312   2.116   6.815 -0.1171  0.3710  0.0813
 6013SOL    HW129501   0.288   2.051   6.881  1.1735  0.3441  0.5332
 6013SOL    HW229502   0.301   2.069   6.733  1.1769 -0.0210  0.1405
 6014SOL     OW29503   2.827   4.057  12.042 -0.5229  0.0080  0.1690
 6014SOL    HW129504   2.752   4.115  12.025 -0.4868  0.2062  0.6814
 6014SOL    HW229505   2.855   4.092  12.126 -0.9865  0.5676  0.0907
 6015SOL     OW29506   0.078   2.301  10.366  0.6772 -0.0654 -0.3489
 6015SOL    HW129507   0.149   2.256  10.321 -0.3624  1.5145 -3.5414
 6015SOL    HW229508   0.123   2.370  10.415  1.2379 -0.8503  0.2351
 6016SOL     OW29509   4.159   4.707   8.437  0.2310  0.1611  0.2750
 6016SOL    HW129510   4.206   0.041   8.376  0.2602 -2.1196 -1.8776
 6016SOL    HW229511   4.221   4.696   8.509  0.5428 -1.4169 -0.2242
 6017SOL     OW29512   0.176   4.116   8.704  0.3893 -0.2305  0.5533
 6017SOL    HW129513   0.261   4.136   8.665  0.1162 -0.0694  0.0441
 6017SOL    HW229514   0.205   4.038   8.752  1.3201  0.7574  1.5938
 6018SOL     OW29515   4.519   1.334   4.147 -0.2405  0.4423 -0.0651
 6018SOL    HW129516   4.582   1.374   4.206 -1.2721  1.9861 -0.0031
 6018SOL    HW229517   4.428   1.356   4.171 -0.3608 -0.4085  0.2715
 6019SOL     OW29518   4.107   0.851   9.560  0.2900 -0.4871  0.2844
 6019SOL    HW129519   4.039   0.787   9.579 -0.6873  0.8959  1.4143
 6019SOL    HW229520   4.137   0.879   9.647  0.9148  2.5534 -0.8968
 6020SOL     OW29521   4.551   4.449   3.571 -0.1336 -0.0514  0.2446
 6020SOL    HW129522   4.642   4.471   3.551 -0.7445  2.2851  0.0000
 6020SOL    HW229523   4.501   4.526   3.547 -0.2147 -0.5632 -1.2235
 6021SOL     OW29524   0.848   1.556   7.385 -0.1227  0.0055 -0.3845
 6021SOL    HW129525   0.939   1.563   7.416 -0.7313  1.3316  1.0971
 6021SOL    HW229526   0.851   1.524   7.295  0.8625 -1.3277  0.1124
 6022SOL     OW29527   3.571   4.385   8.451 -0.4875 -0.2518 -0.0581
 6022SOL    HW129528   3.632   4.368   8.379 -0.6889 -1.4876  0.0582
 6022SOL    HW229529   3.602   4.465   8.493 -0.2498 -0.9527  1.1230
 6023SOL     OW29530   4.487   1.726   7.276 -0.0238 -0.2232  0.0739
 6023SOL    HW129531   4.417   1.702   7.336  2.4389 -1.8711  2.2807
 6023SOL    HW229532   4.477   1.821   7.268  1.1379  0.0447  2.0154
 6024SOL     OW29533   1.540   0.818  13.917 -0.2531 -1.0385 -0.1513
 6024SOL    HW129534   1.469   0.756  13.930 -0.3072 -0.9999 -0.2614
 6024SOL    HW229535   1.576   0.795  13.831  0.2143 -1.6907  0.2171
 6025SOL     OW29536   1.824   1.745   4.291 -0.2602 -0.0450 -0.4009
 6025SOL    HW129537   1.784   1.667   4.251 -1.0078  0.6154 -0.9414
 6025SOL    HW229538   1.858   1.722   4.377 -0.2555 -2.8450 -1.1498
 6026SOL     OW29539   2.696   3.002   5.957 -0.0565 -0.0162 -0.0546
 6026SOL    HW129540   2.614   2.993   6.006  1.1057  2.4994  2.3462
 6026SOL    HW229541   2.685   2.928   5.897 -2.6154 -1.5745  2.3447
 6027SOL     OW29542   3.565   2.370   1.505  0.3376  0.5196  0.3006
 6027SOL    HW129543   3.476   2.368   1.469 -0.6264  2.0105  2.6201
 6027SOL    HW229544   3.558   2.334   1.593 -0.7265  1.8901  0.7756
 6028SOL     OW29545   0.234   1.178   3.446  0.0350 -0.3154 -0.0212
 6028SOL    HW129546   0.265   1.125   3.519  2.4942 -0.1252 -0.9300
 6028SOL    HW229547   0.149   1.208   3.478  0.8949  0.0799  1.8576
 6029SOL     OW29548   0.447   3.614  15.566  0.8242 -0.2082  0.9609
 6029SOL    HW129549   0.388   3.688  15.580  2.1708  1.4849 -2.3192
 6029SOL    HW229550   0.456   3.620  15.471 -0.1007 -3.7663  0.6244
 6030SOL     OW29551   2.782   2.405   2.973  0.6848  0.4841  0.0490
 6030SOL    HW129552   2.737   2.321   2.983  3.7398 -1.0669  0.7430
 6030SOL    HW229553   2.769   2.440   3.061  1.6998  0.8601  0.0444
 6031SOL     OW29554   4.623   0.912   7.261 -0.3099 -0.0603 -0.0460
 6031SOL    HW129555   4.537   0.922   7.221 -0.0092 -0.6710 -0.8416
 6031SOL    HW229556   4.596   0.856   7.334  1.4077 -1.3844 -0.4352
 6032SOL     OW29557   2.360   2.568  16.236  0.7765 -0.4374 -0.0958
 6032SOL    HW129558   2.340   2.643  16.292  0.0279 -0.5059 -0.2606
 6032SOL    HW229559   2.442   2.588  16.192  1.4787  0.4395  1.6163
 6033SOL     OW29560   1.315   3.981   9.033  0.5413 -0.2517 -0.0209
 6033SOL    HW129561   1.368   4.057   9.059 -0.8270  1.1920 -1.4113
 6033SOL    HW229562   1.272   3.960   9.116 -0.8731 -0.0638 -0.6944
 6034SOL     OW29563   1.885   1.130   5.666 -0.4241 -0.4396  0.2931
 6034SOL    HW129564   1.928   1.056   5.624 -0.7653 -0.9500  0.8600
 6034SOL    HW229565   1.821   1.151   5.598 -0.6320 -0.2291  0.5562
 6035SOL     OW29566   4.189   2.059   8.532 -0.1198  0.3554 -0.7348
 6035SOL    HW129567   4.138   1.981   8.556 -0.1601  1.1207  1.6214
 6035SOL    HW229568   4.120   2.123   8.548  0.4250  1.0272 -1.0966
 6036SOL     OW29569   1.092   4.321  15.041  0.1422 -0.5086 -0.2031
 6036SOL    HW129570   1.024   4.344  15.103  0.7566  0.1087  0.2353
 6036SOL    HW229571   1.128   4.407  15.020 -0.7612  0.1120  0.8294
 6037SOL     OW29572   2.303   1.910   1.795  0.0737  0.0085 -0.5188
 6037SOL    HW129573   2.368   1.963   1.750  1.3323  0.1980  1.5302
 6037SOL    HW229574   2.221   1.928   1.748 -1.0328 -2.9841  0.2707
 6038SOL     OW29575   1.055   0.808   3.301  0.2160  0.8640  0.1488
 6038SOL    HW129576   1.077   0.752   3.375 -1.2306  1.5423  1.0829
 6038SOL    HW229577   0.966   0.779   3.282  0.9360 -0.7032 -0.8684
 6039SOL     OW29578   3.904   1.596   5.808 -0.0120  0.3201 -0.7200
 6039SOL    HW129579   3.860   1.537   5.869  2.2513  0.2111  0.8261
 6039SOL    HW229580   3.891   1.677   5.856 -0.4784  0.2040 -0.6512
 6040SOL     OW29581   0.516   3.262   6.479 -0.1358  0.1587  0.3546
 6040SOL    HW129582   0.523   3.345   6.430 -1.9790 -0.1025 -0.3648
 6040SOL    HW229583   0.589   3.212   6.444 -0.6937 -0.4025 -0.0012
 6041SOL     OW29584   1.098   4.592   5.218 -0.0155 -0.2491 -0.2090
 6041SOL    HW129585   1.142   4.538   5.152  0.4781  0.4582 -0.4573
 6041SOL    HW229586   1.071   4.673   5.176  1.3219 -0.1154 -0.8171
 6042SOL     OW29587   1.772   0.861  17.542  0.3573 -0.5559  0.1294
 6042SOL    HW129588   1.699   0.846  17.482 -0.6009 -1.7653  1.5929
 6042SOL    HW229589   1.729   0.892  17.622 -2.5528  1.0734 -2.0478
 6043SOL     OW29590   3.402   4.233  17.262  0.8799  0.3104 -0.2987
 6043SOL    HW129591   3.354   4.271  17.189 -2.4631 -1.0478  1.1796
 6043SOL    HW229592   3.452   4.309  17.294  1.1094 -0.0199  0.1188
 6044SOL     OW29593   3.247   2.000   4.029  0.2314 -0.1194 -0.0635
 6044SOL    HW129594   3.153   2.007   4.042  0.1130 -1.1065 -0.3715
 6044SOL    HW229595   3.278   1.956   4.108 -2.0523  1.5098  1.6977
 6045SOL     OW29596   3.988   3.483   3.581  0.2104  0.7854 -0.0032
 6045SOL    HW129597   3.901   3.520   3.568  0.2145  0.4370 -1.0950
 6045SOL    HW229598   3.969   3.392   3.604  2.7647 -0.0147 -1.0223
 6046SOL     OW29599   1.835   4.201   6.488 -0.5077 -0.0263  0.0386
 6046SOL    HW129600   1.874   4.241   6.566  0.5091 -0.6861 -0.1248
 6046SOL    HW229601   1.786   4.129   6.528  2.9327 -2.0124  0.7038
 6047SOL     OW29602   3.957   2.143   5.084  0.6884  0.0087  0.2707
 6047SOL    HW129603   4.013   2.141   5.006 -0.2394 -0.4336 -0.3863
 6047SOL    HW229604   3.893   2.207   5.053  2.1839  1.6270  0.4700
 6048SOL     OW29605   2.117   0.345  12.661  0.6028  0.2151  0.1826
 6048SOL    HW129606   2.057   0.419  12.661  0.8843  0.4579  1.6008
 6048SOL    HW229607   2.189   0.390  12.706 -0.0484  2.9503 -1.5126
 6049SOL     OW29608   3.073   3.656   0.683  0.1867 -0.4337  0.1085
 6049SOL    HW129609   3.147   3.715   0.670  1.3226 -2.1720 -1.2775
 6049SOL    HW229610   3.009   3.726   0.695  0.7028  0.4014 -2.1355
 6050SOL     OW29611   2.280   0.868   8.325 -0.1072  0.5286 -0.0257
 6050SOL    HW129612   2.367   0.879   8.288 -0.2902 -1.1009 -0.9012
 6050SOL    HW229613   2.232   0.946   8.296  0.3642  0.3895 -1.1557
 6051SOL     OW29614   2.335   3.936   4.139 -0.2481 -0.2542 -0.3061
 6051SOL    HW129615   2.334   4.017   4.190  0.6259 -0.7794  0.5491
 6051SOL    HW229616   2.291   3.884   4.206  2.4313 -0.8087  1.0002
 6052SOL     OW29617   2.006   3.196   9.652  0.2283  0.1251 -0.2925
 6052SOL    HW129618   1.989   3.216   9.560 -2.6001 -1.9168 -0.2163
 6052SOL    HW229619   1.961   3.112   9.655  1.7339 -0.6948 -0.2737
 6053SOL     OW29620   0.448   1.234   7.668 -0.4974 -0.5085 -0.0152
 6053SOL    HW129621   0.480   1.255   7.755  1.4502  2.3659 -1.4527
 6053SOL    HW229622   0.522   1.179   7.641  0.7295  0.3657  1.6058
 6054SOL     OW29623   1.192   3.506  12.113 -0.3303 -0.3293 -0.2429
 6054SOL    HW129624   1.167   3.430  12.165  1.2447 -2.3429 -2.4525
 6054SOL    HW229625   1.235   3.475  12.033 -3.1317 -0.8415 -1.5599
 6055SOL     OW29626   1.561   2.222   3.417  0.6078 -0.3501 -0.2988
 6055SOL    HW129627   1.527   2.194   3.332 -0.7810  1.7468 -0.4315
 6055SOL    HW229628   1.546   2.315   3.400  0.0814 -0.6851 -1.6563
 6056SOL     OW29629   3.590   3.204   5.072 -0.3514  0.3095  0.1687
 6056SOL    HW129630   3.683   3.215   5.093  0.0237 -2.3094 -0.1686
 6056SOL    HW229631   3.582   3.112   5.095  0.8134  0.4831  1.2607
 6057SOL     OW29632   1.799   3.071   8.923  0.1961  0.1154  0.5619
 6057SOL    HW129633   1.777   3.124   8.999  2.3535  0.2856  1.0829
 6057SOL    HW229634   1.806   2.987   8.969  1.1224  1.0358  2.0966
 6058SOL     OW29635   4.520   0.957   8.504  0.5220 -0.0740  0.1584
 6058SOL    HW129636   4.501   1.028   8.566  1.8661 -0.6825  1.2808
 6058SOL    HW229637   4.434   0.958   8.462  0.4308 -1.8303  0.3236
 6059SOL     OW29638   0.545   0.519   2.535  0.3344 -0.6621  0.4892
 6059SOL    HW129639   0.492   0.587   2.576  2.6120 -0.1665  2.6288
 6059SOL    HW229640   0.521   0.556   2.450  0.2318  1.2806  1.3775
 6060SOL     OW29641   4.271   3.003  17.165 -0.3465 -0.1254 -0.2984
 6060SOL    HW129642   4.241   3.006  17.074 -1.3898  0.4668  0.0669
 6060SOL    HW229643   4.193   3.019  17.219 -1.3238  1.1155 -2.0729
 6061SOL     OW29644   0.635   1.067  12.531 -0.6098  0.3429 -0.2748
 6061SOL    HW129645   0.629   1.147  12.479  1.6617  0.0596 -0.9444
 6061SOL    HW229646   0.543   1.042  12.534 -0.4394  0.0775  2.6293
 6062SOL     OW29647   2.083   0.655  10.675 -0.1259 -0.1979 -0.6057
 6062SOL    HW129648   2.087   0.749  10.687  2.6763 -0.3664 -0.0910
 6062SOL    HW229649   2.177   0.633  10.675 -0.6056 -2.2772 -1.7668
 6063SOL     OW29650   2.162   2.237  13.017  0.2505  0.3944  0.1771
 6063SOL    HW129651   2.252   2.214  13.037  0.4663  1.6202  0.5938
 6063SOL    HW229652   2.118   2.158  13.049 -1.2576  1.8965  1.8573
 6064SOL     OW29653   4.473   4.584   0.367 -0.0427  0.2520 -0.7950
 6064SOL    HW129654   4.489   4.612   0.277 -0.1067  1.2261 -0.5008
 6064SOL    HW229655   4.407   4.649   0.389  0.1510  0.1481  0.1120
 6065SOL     OW29656   3.097   0.229   5.941 -0.2055  0.0808 -0.6182
 6065SOL    HW129657   3.105   0.226   6.037 -4.1984  2.7846 -0.1961
 6065SOL    HW229658   3.148   0.152   5.917 -0.2108 -0.6249  1.6013
 6066SOL     OW29659   0.763   3.521   1.118 -0.2827 -0.0328  0.2499
 6066SOL    HW129660   0.720   3.437   1.105  2.8259 -1.3778 -1.3156
 6066SOL    HW229661   0.784   3.541   1.027 -2.7105  0.0992 -0.2728
 6067SOL     OW29662   1.873   2.954  10.971  0.1751 -0.4838  0.2477
 6067SOL    HW129663   1.812   2.992  10.907 -0.9466 -1.1670  0.9181
 6067SOL    HW229664   1.911   3.035  11.006  0.2449  0.3744 -1.7841
 6068SOL     OW29665   3.436   3.135   1.064  0.4929 -0.5759 -0.3956
 6068SOL    HW129666   3.524   3.117   1.096  0.5387  3.7172  1.9686
 6068SOL    HW229667   3.382   3.070   1.108 -2.5296  0.5917 -2.3345
 6069SOL     OW29668   0.805   0.581   1.952 -0.1446  0.6695  0.0147
 6069SOL    HW129669   0.886   0.613   1.992 -1.3675 -0.0863  3.1502
 6069SOL    HW229670   0.749   0.640   2.002 -1.6272 -1.7016  1.1999
 6070SOL     OW29671   3.462   1.234  11.548 -0.0776 -1.0911 -0.0470
 6070SOL    HW129672   3.508   1.312  11.580 -0.3443 -0.7320 -0.5232
 6070SOL    HW229673   3.413   1.211  11.626 -1.3744 -1.4660 -0.9624
 6071SOL     OW29674   1.156   3.101  12.548 -0.1242  0.2611 -0.0724
 6071SOL    HW129675   1.151   3.040  12.621 -0.9607 -0.0716 -0.4103
 6071SOL    HW229676   1.063   3.099  12.524 -0.2917 -2.6759  0.8221
 6072SOL     OW29677   4.147   1.809  11.200  0.1091 -0.0030 -0.1547
 6072SOL    HW129678   4.107   1.852  11.125 -2.4538  0.9505  1.7414
 6072SOL    HW229679   4.208   1.874  11.235  0.2755 -0.6080  0.7007
 6073SOL     OW29680   3.544   1.271  17.291  0.1916  0.9135 -0.4373
 6073SOL    HW129681   3.532   1.351  17.342 -3.5132 -0.8567  1.4164
 6073SOL    HW229682   3.628   1.297  17.254  0.9356  1.2180  1.4567
 6074SOL     OW29683   3.990   3.802  10.575  0.9196 -0.2290 -0.2166
 6074SOL    HW129684   4.046   3.847  10.512  1.6779  0.4664  0.9465
 6074SOL    HW229685   3.916   3.862  10.575  1.0477 -0.0556  1.7071
 6075SOL     OW29686   4.373   0.602   8.552  0.0213 -0.0605 -0.2995
 6075SOL    HW129687   4.336   0.553   8.625  0.4851 -0.0920 -0.0882
 6075SOL    HW229688   4.398   0.686   8.590 -1.1810 -0.1200  0.6354
 6076SOL     OW29689   2.658   3.374   1.394  0.1789  0.4316  0.1065
 6076SOL    HW129690   2.652   3.339   1.305 -0.5681  0.9659 -0.0454
 6076SOL    HW229691   2.569   3.392   1.422  0.0042 -1.2999  0.6860
 6077SOL     OW29692   3.560   4.626   5.612  0.6495  0.3075  0.2132
 6077SOL    HW129693   3.649   4.633   5.576  0.9099  1.1939  1.0401
 6077SOL    HW229694   3.510   4.657   5.537 -0.0500  0.7472  0.8604
 6078SOL     OW29695   0.638   4.379   7.311  0.3023  0.0446  0.4183
 6078SOL    HW129696   0.705   4.399   7.245 -1.2584  0.9925 -0.8900
 6078SOL    HW229697   0.593   4.301   7.278 -1.1984 -0.5191  3.8788
 6079SOL     OW29698   3.572   0.148   1.916  0.2189 -0.0517  0.3539
 6079SOL    HW129699   3.589   0.238   1.889 -0.2158 -0.1743 -0.3172
 6079SOL    HW229700   3.480   0.145   1.941  0.2548  0.2751  0.5259
 6080SOL     OW29701   1.849   1.404   9.090 -0.2653 -0.2919  0.4150
 6080SOL    HW129702   1.760   1.435   9.075 -0.0671 -0.5322 -1.2917
 6080SOL    HW229703   1.864   1.439   9.177  1.7599 -1.8137  0.6850
 6081SOL     OW29704   1.320   1.914   6.494  0.0097 -0.2738  0.2769
 6081SOL    HW129705   1.342   1.980   6.560 -0.7533  1.6696 -1.3845
 6081SOL    HW229706   1.264   1.863   6.552 -0.5567 -1.1419 -1.0200
 6082SOL     OW29707   1.885   2.727   4.466  0.1994 -0.5567 -0.1224
 6082SOL    HW129708   1.829   2.660   4.505 -1.8811  1.6830  0.7037
 6082SOL    HW229709   1.847   2.738   4.379  0.8853 -0.0910 -0.3618
 6083SOL     OW29710   0.482   4.077   7.963 -0.0355 -0.4050  0.2377
 6083SOL    HW129711   0.413   4.041   7.906 -0.1245  0.3235 -0.1164
 6083SOL    HW229712   0.556   4.017   7.950  0.8460  0.3620  1.6891
 6084SOL     OW29713   4.606   3.733   5.136  0.5318 -0.0018 -0.7985
 6084SOL    HW129714   4.518   3.770   5.127 -0.3675 -2.2908 -1.3269
 6084SOL    HW229715   4.588   3.648   5.097  0.3843 -1.4650  2.4573
 6085SOL     OW29716   1.198   4.273   8.576  0.1636 -0.2702  0.5359
 6085SOL    HW129717   1.169   4.240   8.491  0.7747 -1.5907  0.8407
 6085SOL    HW229718   1.291   4.253   8.579 -0.1348 -1.7718  0.0958
 6086SOL     OW29719   2.946   0.417  14.562 -0.7625  0.1438  0.4338
 6086SOL    HW129720   2.856   0.389  14.575 -0.8886 -0.7072 -2.2278
 6086SOL    HW229721   2.934   0.475  14.486  0.8631  0.6588  0.5639
 6087SOL     OW29722   2.236   0.944   7.756  0.3628  0.5241 -0.5003
 6087SOL    HW129723   2.284   0.862   7.774  0.8311  0.5942 -1.4650
 6087SOL    HW229724   2.212   0.917   7.668 -0.3822 -0.0283 -0.1267
 6088SOL     OW29725   0.390   2.374   4.998 -0.5178 -0.1726  0.1521
 6088SOL    HW129726   0.482   2.347   5.002 -0.7814 -1.2909 -1.1978
 6088SOL    HW229727   0.350   2.287   4.994 -2.4666  0.9100 -2.9154
 6089SOL     OW29728   0.059   2.533   5.441  0.0556 -0.5464 -0.6896
 6089SOL    HW129729   0.017   2.588   5.507 -0.7319 -0.1887 -1.5033
 6089SOL    HW229730   0.145   2.519   5.480 -0.2564  1.2867  0.6416
 6090SOL     OW29731   3.892   0.931   1.092 -0.0686  0.2675  0.0058
 6090SOL    HW129732   3.815   0.959   1.042 -0.1843 -2.0244 -1.0881
 6090SOL    HW229733   3.942   0.883   1.027  0.9157  3.7593 -1.8478
 6091SOL     OW29734   3.763   2.918   5.492  0.1671  0.2873 -0.9244
 6091SOL    HW129735   3.756   2.944   5.400  2.1326 -1.1525 -1.4933
 6091SOL    HW229736   3.751   2.998   5.542 -0.5512 -1.5743  1.8749
 6092SOL     OW29737   0.630   1.154   0.425 -0.2218 -0.0332 -0.0387
 6092SOL    HW129738   0.592   1.068   0.407  0.6900  0.0807 -2.5087
 6092SOL    HW229739   0.599   1.192   0.343 -0.7627 -0.5381 -0.0648
 6093SOL     OW29740   1.140   0.442   7.395  0.4980  0.5421  0.5623
 6093SOL    HW129741   1.222   0.402   7.368  0.3693 -0.6185  1.9136
 6093SOL    HW229742   1.121   0.403   7.481 -3.0252  2.0123  0.4725
 6094SOL     OW29743   1.649   1.413   4.871 -0.2726 -0.0044  0.4307
 6094SOL    HW129744   1.573   1.396   4.815 -0.7101  1.0555  0.7059
 6094SOL    HW229745   1.646   1.337   4.929  2.7301 -1.5408 -1.3981
 6095SOL     OW29746   0.981   1.563  11.009 -0.5267  0.4321 -0.0731
 6095SOL    HW129747   1.058   1.509  10.990 -1.4454 -0.5404 -1.0620
 6095SOL    HW229748   0.927   1.521  10.942 -1.2573  1.1995  0.0414
 6096SOL     OW29749   2.342   2.910  11.922  0.2605  0.9721 -0.0772
 6096SOL    HW129750   2.394   2.990  11.929 -0.6600  1.4965  0.7224
 6096SOL    HW229751   2.414   2.847  11.917 -0.5308  0.2537 -2.5322
 6097SOL     OW29752   0.331   2.848   3.811 -0.1198 -0.7447  0.2178
 6097SOL    HW129753   0.261   2.783   3.820 -2.1096  1.3614  0.2202
 6097SOL    HW229754   0.393   2.795   3.762  0.4253 -0.9886  1.1864
 6098SOL     OW29755   4.244   1.568   5.883  0.3504  0.3218  0.4546
 6098SOL    HW129756   4.330   1.570   5.926  1.1102  2.3536 -1.1353
 6098SOL    HW229757   4.249   1.641   5.821  0.1956  0.5894  0.7584
 6099SOL     OW29758   4.713   3.498   7.807 -0.2052  0.2777 -0.3756
 6099SOL    HW129759   4.723   3.580   7.855 -0.1830  0.4896 -0.7457
 6099SOL    HW229760   0.031   3.503   7.721  0.4842  0.0360 -0.0634
 6100SOL     OW29761   0.432   3.454  15.793  0.7122 -0.1421  0.3042
 6100SOL    HW129762   0.407   3.534  15.746 -0.4942 -0.7291 -0.0493
 6100SOL    HW229763   0.517   3.437  15.754 -0.1885 -1.1229 -1.2237
 6101SOL     OW29764   1.468   0.775  16.507 -0.1689 -0.4265  0.1576
 6101SOL    HW129765   1.433   0.688  16.524 -0.7898 -0.0852  0.6260
 6101SOL    HW229766   1.413   0.796  16.431 -1.1176 -1.9854  0.4285
 6102SOL     OW29767   4.703   0.181  16.936 -0.0160  0.1882 -0.1783
 6102SOL    HW129768   0.068   0.219  16.937  0.6330 -1.3126  0.3585
 6102SOL    HW229769   4.713   0.088  16.955  0.2216  0.3150  0.3025
 6103SOL     OW29770   0.323   2.596   6.983 -0.1574 -0.0064 -0.2951
 6103SOL    HW129771   0.399   2.613   6.928 -0.4089  5.1066  0.9268
 6103SOL    HW229772   0.333   2.503   6.999  1.1705  0.1830 -0.0702
 6104SOL     OW29773   0.750   0.959   8.401  0.3345 -0.0577 -0.8088
 6104SOL    HW129774   0.682   1.026   8.399 -0.1804 -0.5625 -0.0904
 6104SOL    HW229775   0.818   0.997   8.345  0.2159  1.6730  0.2166
 6105SOL     OW29776   0.298   3.361  16.013  0.0458 -0.6384  0.2223
 6105SOL    HW129777   0.342   3.401  15.937  0.6091 -0.0033  0.8874
 6105SOL    HW229778   0.255   3.433  16.058  1.2444 -0.0246  0.3587
 6106SOL     OW29779   2.807   1.770   6.794  0.1327 -0.4197  0.2207
 6106SOL    HW129780   2.757   1.823   6.856  0.0212 -2.7812  2.1583
 6106SOL    HW229781   2.746   1.702   6.766 -2.4452  1.5012  1.1643
 6107SOL     OW29782   0.566   0.253   4.436  0.1652 -0.1448 -0.0056
 6107SOL    HW129783   0.658   0.232   4.421  0.0831  0.3241 -1.1906
 6107SOL    HW229784   0.531   0.249   4.347  2.8890 -1.0547 -1.0357
 6108SOL     OW29785   0.626   3.445   7.540  0.7214  0.6853 -0.3457
 6108SOL    HW129786   0.575   3.403   7.471  0.1996  0.4633  0.1697
 6108SOL    HW229787   0.674   3.376   7.586  0.3061  1.2181  0.9014
 6109SOL     OW29788   3.827   2.932   2.721 -0.2551 -0.0314  0.0661
 6109SOL    HW129789   3.754   2.979   2.683 -0.4682  0.5248  1.1621
 6109SOL    HW229790   3.848   2.874   2.648 -0.0495  0.7933 -0.5269
 6110SOL     OW29791   0.911   2.703   6.606 -0.1739 -0.6032  0.2397
 6110SOL    HW129792   0.960   2.705   6.524  1.3997  0.8311  1.2102
 6110SOL    HW229793   0.987   2.704   6.665  0.1634 -0.6225 -0.1982
 6111SOL     OW29794   0.743   2.752  17.608  0.5961  0.3429 -0.4503
 6111SOL    HW129795   0.816   2.705  17.567  1.4572  0.7677  0.6032
 6111SOL    HW229796   0.747   2.837  17.564 -0.5204 -0.4239 -2.0024
 6112SOL     OW29797   1.333   4.614   2.842 -0.3344 -0.0917 -1.1510
 6112SOL    HW129798   1.336   4.574   2.754  1.5560 -0.7299 -0.7970
 6112SOL    HW229799   1.289   4.546   2.893 -1.1868  1.2102 -0.1598
 6113SOL     OW29800   4.001   1.526   8.656 -0.2852  0.4942  0.2769
 6113SOL    HW129801   4.018   1.455   8.718 -0.2964  0.0248 -0.2572
 6113SOL    HW229802   4.079   1.530   8.600 -2.4976 -0.3540 -2.8740
 6114SOL     OW29803   0.196   0.995  13.152  0.4795  0.1955 -0.0929
 6114SOL    HW129804   0.161   1.080  13.178 -0.5654 -0.1733 -0.2805
 6114SOL    HW229805   0.138   0.937  13.201  0.0372  0.7105 -0.0083
 6115SOL     OW29806   3.115   2.659  17.646  0.2213 -0.2668  0.0125
 6115SOL    HW129807   3.023   2.637  17.661 -0.7379  3.4981 -0.3546
 6115SOL    HW229808   3.102   2.738  17.594  5.5061  1.1709  0.8888
 6116SOL     OW29809   3.035   2.155   0.089 -0.0364 -0.4247  0.5701
 6116SOL    HW129810   2.965   2.145   0.154 -2.0241 -0.1312 -1.5622
 6116SOL    HW229811   2.992   2.210   0.024 -0.1364 -2.3845 -1.0431
 6117SOL     OW29812   1.670   3.273   0.111 -0.2321  0.5379 -0.2247
 6117SOL    HW129813   1.715   3.192   0.135  0.2483  0.6858 -0.6115
 6117SOL    HW229814   1.740   3.330   0.080 -1.2970  0.8747 -2.0139
 6118SOL     OW29815   0.173   0.175   7.524  0.7410  0.1260  0.4642
 6118SOL    HW129816   0.102   0.153   7.465  0.7507  1.4987 -0.0696
 6118SOL    HW229817   0.246   0.210   7.472 -0.9459  2.9527 -0.0247
 6119SOL     OW29818   4.120   4.495   3.993 -0.5090  0.3832 -0.2401
 6119SOL    HW129819   4.078   4.452   3.918 -0.5182  0.1373 -0.0940
 6119SOL    HW229820   4.148   4.578   3.956  0.8021  0.4687  0.9310
 6120SOL     OW29821   4.209   1.021  16.749 -0.1891  0.7918 -0.0047
 6120SOL    HW129822   4.264   0.943  16.736 -2.3957 -0.9244  1.0973
 6120SOL    HW229823   4.279   1.086  16.745 -0.0653  0.7809  1.8940
 6121SOL     OW29824   1.932   0.569   8.586 -0.8774  0.0743  0.3995
 6121SOL    HW129825   1.858   0.545   8.530 -0.3293  2.1015 -1.2062
 6121SOL    HW229826   1.985   0.630   8.535 -1.3402 -0.6032 -0.8990
 6122SOL     OW29827   3.965   0.468   2.290 -0.6199  0.4359 -0.1547
 6122SOL    HW129828   4.037   0.406   2.297 -0.7869  0.2890  0.2610
 6122SOL    HW229829   4.000   0.536   2.347 -1.1324 -0.0917  0.7840
 6123SOL     OW29830   0.044   1.206  17.671  0.4142  0.0790 -0.9371
 6123SOL    HW129831   0.042   1.124  17.621 -0.5592  1.1187 -2.5930
 6123SOL    HW229832   0.079   1.169   0.059 -1.9393 -4.7767 -2.1469
 6124SOL     OW29833   0.716   2.654  11.865 -0.2208 -0.2794  0.3022
 6124SOL    HW129834   0.674   2.576  11.902 -0.3991 -0.4032 -0.1578
 6124SOL    HW229835   0.791   2.619  11.816 -0.3523  1.7787 -1.3472
 6125SOL     OW29836   0.758   1.087  13.455  0.6364 -0.4465 -0.1213
 6125SOL    HW129837   0.717   1.032  13.521  2.5073  0.0262  1.4657
 6125SOL    HW229838   0.827   1.027  13.429  0.3161 -0.2396 -1.4284
 6126SOL     OW29839   0.612   0.310   8.285 -0.2446  0.3043 -0.2715
 6126SOL    HW129840   0.651   0.397   8.298  1.6414 -0.5863  0.0690
 6126SOL    HW229841   0.605   0.301   8.190  1.9445 -2.2587 -0.1910
 6127SOL     OW29842   0.974   3.174   4.083  0.1259  0.2671  0.6499
 6127SOL    HW129843   0.921   3.242   4.125  0.0152 -0.1598  1.2048
 6127SOL    HW229844   0.966   3.102   4.145 -0.5995 -1.6756 -1.7016
 6128SOL     OW29845   2.362   2.173  16.816  0.0293 -0.6322 -0.4364
 6128SOL    HW129846   2.427   2.176  16.886 -1.1930  0.9628  0.6423
 6128SOL    HW229847   2.301   2.120  16.868  0.6714  0.8818  1.8653
 6129SOL     OW29848   1.147   0.937   7.510  0.7105  0.2311  0.5123
 6129SOL    HW129849   1.137   0.908   7.419  0.0906 -0.3917  0.7748
 6129SOL    HW229850   1.219   1.000   7.509 -0.8824  2.0278 -1.8759
 6130SOL     OW29851   2.924   2.906   3.468  0.5480  0.1946  0.5289
 6130SOL    HW129852   2.941   2.993   3.433 -1.1289 -0.0593 -0.9254
 6130SOL    HW229853   2.852   2.927   3.528  0.3520  1.1636 -0.0511
 6131SOL     OW29854   2.904   2.363   5.815 -0.3323 -0.6179 -0.3591
 6131SOL    HW129855   2.897   2.419   5.737  1.1773  0.7089  0.4429
 6131SOL    HW229856   2.843   2.295   5.787  1.9452 -3.3458  1.3521
 6132SOL     OW29857   0.867   3.720  14.042 -0.2947  0.4111 -0.1583
 6132SOL    HW129858   0.936   3.667  14.082 -2.6573 -0.7426  2.4441
 6132SOL    HW229859   0.797   3.655  14.051  1.4296 -1.2270  1.4676
 6133SOL     OW29860   2.358   3.981   8.122 -0.5967  0.0764  0.0437
 6133SOL    HW129861   2.325   4.067   8.146 -0.0110  0.8610 -1.9444
 6133SOL    HW229862   2.321   3.922   8.187 -0.4294 -1.3951 -1.1838
 6134SOL     OW29863   1.303   3.069  15.613  0.8998 -0.5590 -0.2166
 6134SOL    HW129864   1.338   3.032  15.694  0.6425  2.9541  1.4926
 6134SOL    HW229865   1.209   3.057  15.629  0.4777  1.2236 -1.4157
 6135SOL     OW29866   1.305   3.240   8.497  0.3254  0.2104 -0.6203
 6135SOL    HW129867   1.300   3.256   8.591 -1.1146 -3.0541 -0.1420
 6135SOL    HW229868   1.393   3.203   8.488 -0.4483 -1.6768 -0.3492
 6136SOL     OW29869   1.394   4.084  17.295 -0.1467 -0.4405  0.1201
 6136SOL    HW129870   1.331   4.070  17.365  0.5257  1.1796  1.0542
 6136SOL    HW229871   1.345   4.114  17.218  2.5634 -2.3733 -2.3612
 6137SOL     OW29872   3.077   3.408   8.183  0.6366  0.6045 -0.6412
 6137SOL    HW129873   3.160   3.439   8.219 -0.9609  2.7716  1.1058
 6137SOL    HW229874   3.034   3.490   8.163 -1.3250 -0.7746 -2.1069
 6138SOL     OW29875   1.951   4.536   2.902  0.0953 -0.2917 -0.2322
 6138SOL    HW129876   1.862   4.527   2.867 -0.6059  0.7377  1.2921
 6138SOL    HW229877   1.998   4.523   2.820 -1.3391 -0.0509 -1.0994
 6139SOL     OW29878   2.093   0.036   8.226 -0.2196  0.2048 -0.2320
 6139SOL    HW129879   2.056   0.069   8.145  1.3517  1.6125 -0.3865
 6139SOL    HW229880   2.143   0.113   8.254 -0.3061  0.4928 -0.8622
 6140SOL     OW29881   4.311   0.037   3.343  0.2296  0.4099  0.3830
 6140SOL    HW129882   4.404   0.016   3.339 -0.0198 -0.4266 -1.3495
 6140SOL    HW229883   4.278   4.721   3.261 -1.2292 -0.3296  1.3175
 6141SOL     OW29884   0.704   2.492  10.866  0.3209 -0.0419  0.2683
 6141SOL    HW129885   0.744   2.523  10.785  0.3882 -0.8208  0.0139
 6141SOL    HW229886   0.635   2.441  10.824 -1.6506  2.6886  0.1781
 6142SOL     OW29887   3.468   3.797   5.020 -0.6358  0.6969 -0.7011
 6142SOL    HW129888   3.441   3.838   5.102  0.5560 -1.1740  0.6399
 6142SOL    HW229889   3.435   3.853   4.950 -0.7955  1.2159 -0.2159
 6143SOL     OW29890   0.907   1.595   2.224 -0.0815 -0.5267 -0.1640
 6143SOL    HW129891   0.990   1.612   2.267  0.0459 -0.5291 -0.4085
 6143SOL    HW229892   0.889   1.518   2.278  0.4764 -0.3957  0.2131
 6144SOL     OW29893   4.058   3.940   0.287  0.1952  0.6079 -0.0522
 6144SOL    HW129894   4.019   3.997   0.353 -1.0482 -0.7924  0.4080
 6144SOL    HW229895   4.114   3.999   0.236  1.4270 -0.0870  0.4957
 6145SOL     OW29896   3.232   3.732   8.011 -0.3825  0.2515  0.3983
 6145SOL    HW129897   3.282   3.692   8.082 -0.1456 -0.8596 -0.4066
 6145SOL    HW229898   3.143   3.727   8.046 -0.0255 -0.9561  1.1342
 6146SOL     OW29899   1.530   1.241  10.956  0.2449  0.0306 -0.1109
 6146SOL    HW129900   1.584   1.303  10.906 -0.2845  1.3163  0.9076
 6146SOL    HW229901   1.448   1.289  10.969  0.7913  0.8224  0.4583
 6147SOL     OW29902   2.865   0.317  12.302  0.9060  0.5875  0.0263
 6147SOL    HW129903   2.839   0.362  12.221  2.4907  1.5023  0.0173
 6147SOL    HW229904   2.952   0.286  12.278  1.1249  0.4651  1.0083
 6148SOL     OW29905   1.441   2.612   6.256  0.6370  0.2826 -0.1624
 6148SOL    HW129906   1.487   2.695   6.265  1.2421  0.0830 -1.3077
 6148SOL    HW229907   1.524   2.571   6.231  1.1415  0.6101  0.9667
 6149SOL     OW29908   2.757   3.501   8.014  0.2118  0.2304  0.5005
 6149SOL    HW129909   2.768   3.493   7.919 -0.3682 -1.5423  0.5871
 6149SOL    HW229910   2.705   3.424   8.035  1.8300 -0.7197  1.0048
 6150SOL     OW29911   3.170   0.436   4.452 -0.7993 -0.6008 -0.3063
 6150SOL    HW129912   3.118   0.513   4.430 -2.3501 -1.8106 -0.8738
 6150SOL    HW229913   3.103   0.398   4.509 -1.0046 -0.2448 -0.3100
 6151SOL     OW29914   2.029   3.077  16.160  0.5533  0.4968  0.6075
 6151SOL    HW129915   2.091   3.149  16.145  1.2133 -0.6304 -2.1994
 6151SOL    HW229916   1.951   3.121  16.128 -1.4027 -3.2232  0.2290
 6152SOL     OW29917   4.027   2.813   8.509 -0.0421 -0.3844  0.4901
 6152SOL    HW129918   3.955   2.844   8.456 -0.6245 -1.5235  0.6102
 6152SOL    HW229919   4.030   2.863   8.591  2.4428  0.2387  0.0226
 6153SOL     OW29920   3.451   3.288  14.358  0.0048 -0.3366 -0.1934
 6153SOL    HW129921   3.419   3.314  14.271 -0.5778  2.5589  0.8702
 6153SOL    HW229922   3.460   3.368  14.409 -0.4212 -1.0811  1.0467
 6154SOL     OW29923   4.130   0.257  14.582 -0.5742  0.2311  0.4644
 6154SOL    HW129924   4.124   0.351  14.597  0.7773  0.8007 -2.5937
 6154SOL    HW229925   4.222   0.245  14.561 -0.9352 -1.2872 -0.3019
 6155SOL     OW29926   1.554   3.470   3.453  0.4741  0.3106 -0.1582
 6155SOL    HW129927   1.595   3.390   3.486 -1.8358 -0.8522 -0.1189
 6155SOL    HW229928   1.493   3.435   3.388  1.4241 -0.1424 -0.8056
 6156SOL     OW29929   3.354   4.685   1.813 -0.0333 -0.0731  0.5498
 6156SOL    HW129930   3.290   4.630   1.859 -0.0393 -0.8435 -0.3663
 6156SOL    HW229931   3.299   0.032   1.778 -0.3496 -0.7081 -0.2342
 6157SOL     OW29932   4.130   1.456   6.726  0.3622  0.6966 -0.8375
 6157SOL    HW129933   4.056   1.394   6.731  0.7489  0.3807  0.8247
 6157SOL    HW229934   4.190   1.405   6.672  1.3032  0.4190  0.4744
 6158SOL     OW29935   0.120   1.048  12.676 -0.2292 -0.7757  0.4057
 6158SOL    HW129936   0.160   0.982  12.733  0.4571 -1.2180 -0.5827
 6158SOL    HW229937   0.048   0.991  12.648  0.3070 -1.2417 -0.0213
 6159SOL     OW29938   3.747   2.808   8.120 -0.2644 -0.1963 -0.1105
 6159SOL    HW129939   3.772   2.719   8.093  0.1288  0.5709 -2.2833
 6159SOL    HW229940   3.812   2.855   8.068 -2.8966  0.7982 -2.4733
 6160SOL     OW29941   0.963   4.622  14.876  0.4844 -0.1591 -0.3187
 6160SOL    HW129942   0.911   4.694  14.840 -2.3748 -1.2899  1.5548
 6160SOL    HW229943   0.905   4.548  14.858 -1.9048  1.4326  0.7994
 6161SOL     OW29944   1.723   3.993  15.776 -0.8112  0.6075  0.1427
 6161SOL    HW129945   1.785   4.059  15.807  1.5489 -0.7638 -1.7326
 6161SOL    HW229946   1.726   4.005  15.682  1.0559 -0.1259  0.1017
 6162SOL     OW29947   0.879   2.863  15.426 -0.3238 -0.0350 -0.0868
 6162SOL    HW129948   0.881   2.836  15.518  2.4190 -0.5190 -0.2613
 6162SOL    HW229949   0.961   2.913  15.421 -0.9626  1.0329  0.2022
 6163SOL     OW29950   2.435   1.203   5.915  0.4603 -0.5958  0.6149
 6163SOL    HW129951   2.406   1.294   5.916 -0.6046 -0.9190 -0.5494
 6163SOL    HW229952   2.355   1.161   5.883  1.5413 -0.6088 -2.0676
 6164SOL     OW29953   4.013   2.736   5.522  0.0083  0.3092  0.3200
 6164SOL    HW129954   3.946   2.798   5.495 -0.9631 -0.0133  1.9974
 6164SOL    HW229955   4.020   2.675   5.449 -1.5708  2.1468 -1.3563
 6165SOL     OW29956   3.354   2.317  10.823  0.1619 -0.2448  0.1820
 6165SOL    HW129957   3.357   2.390  10.761  0.0066  0.4466  0.9839
 6165SOL    HW229958   3.261   2.297  10.839  0.2898  0.1937  1.5472
 6166SOL     OW29959   0.883   1.118   0.176 -0.1079  0.0986 -0.7055
 6166SOL    HW129960   0.862   1.205   0.208 -1.9333  0.3213 -2.4893
 6166SOL    HW229961   0.896   1.059   0.250 -1.8776  1.1871  0.4762
 6167SOL     OW29962   4.237   0.391   2.192 -0.2455 -0.2514  0.1756
 6167SOL    HW129963   4.239   0.347   2.107  1.6481  0.3171 -0.0766
 6167SOL    HW229964   4.318   0.442   2.188 -0.6938  0.6324  2.4659
 6168SOL     OW29965   1.115   3.180   5.768  0.3684 -0.1137  0.0527
 6168SOL    HW129966   1.020   3.180   5.776  0.4851 -0.4670  1.5144
 6168SOL    HW229967   1.133   3.147   5.680  0.4712 -0.2439  0.1216
 6169SOL     OW29968   1.660   3.519   6.252  0.1243 -0.0991  0.2021
 6169SOL    HW129969   1.651   3.495   6.344 -2.5277 -1.0049 -0.2856
 6169SOL    HW229970   1.641   3.612   6.247 -1.7286 -0.4415  0.7605
 6170SOL     OW29971   4.053   0.202   2.712  0.5611 -0.1869  0.0979
 6170SOL    HW129972   4.066   0.113   2.743 -1.1808 -0.8156 -0.9546
 6170SOL    HW229973   4.019   0.236   2.795 -0.1326  1.3306 -0.8137
 6171SOL     OW29974   1.361   1.665   6.272  0.0214 -0.1856 -0.3816
 6171SOL    HW129975   1.351   1.759   6.255 -1.1396  0.0390  1.6051
 6171SOL    HW229976   1.289   1.658   6.335 -1.0206 -0.8731 -1.6535
 6172SOL     OW29977   3.407   4.076   9.470 -0.1017 -0.5384  0.4845
 6172SOL    HW129978   3.405   4.154   9.414  0.2072 -1.7820 -1.2830
 6172SOL    HW229979   3.499   4.081   9.495  0.1553 -0.5649 -0.4309
 6173SOL     OW29980   4.406   1.306  16.274  0.1060  0.0099  0.4145
 6173SOL    HW129981   4.312   1.323  16.264  0.3227 -0.2348 -1.9646
 6173SOL    HW229982   4.414   1.345  16.361 -1.5228 -1.0923  1.0619
 6174SOL     OW29983   0.208   1.237  16.744 -0.1684  0.6737  0.1796
 6174SOL    HW129984   0.143   1.307  16.749 -1.0240 -0.0391 -0.7207
 6174SOL    HW229985   0.227   1.226  16.651 -0.9619  1.1553 -0.0472
 6175SOL     OW29986   2.955   1.552   2.615  0.1325  0.1023 -0.2072
 6175SOL    HW129987   3.004   1.624   2.576  0.7946  0.0647  0.5640
 6175SOL    HW229988   2.962   1.484   2.548 -3.3743 -2.2577  1.8511
 6176SOL     OW29989   3.288   1.071   0.394 -0.4388 -0.2799  0.7060
 6176SOL    HW129990   3.325   1.001   0.449 -0.4291  0.2521  1.3704
 6176SOL    HW229991   3.282   1.022   0.312 -1.8386 -0.1270  0.7137
 6177SOL     OW29992   2.381   2.106   8.485  0.1654  0.0683 -0.0896
 6177SOL    HW129993   2.378   2.014   8.460  0.0434  0.2404 -0.7088
 6177SOL    HW229994   2.372   2.094   8.580  1.3989 -1.6777 -0.1895
 6178SOL     OW29995   2.290   1.269   8.305  0.0768 -0.2627  0.1520
 6178SOL    HW129996   2.325   1.199   8.359  0.8352  0.1746  0.2300
 6178SOL    HW229997   2.217   1.217   8.272  1.0705 -0.3966 -1.7977
 6179SOL     OW29998   1.783   1.877   5.772 -0.2118  0.6256  0.3535
 6179SOL    HW129999   1.688   1.888   5.770 -0.6973 -3.2609  1.3295
 6179SOL    HW230000   1.813   1.851   5.685 -1.3820 -0.3382  0.2456
 6180SOL     OW30001   0.329   1.617  11.305 -0.5479  0.4144 -0.1928
 6180SOL    HW130002   0.416   1.615  11.345 -0.2616 -0.1293 -0.8420
 6180SOL    HW230003   0.266   1.610  11.377  0.8794  1.5774  1.1887
 6181SOL     OW30004   0.473   3.775   2.998 -0.1994 -0.1064  0.8105
 6181SOL    HW130005   0.426   3.701   2.962 -1.5564  1.7122 -1.1408
 6181SOL    HW230006   0.541   3.735   3.052 -0.7866 -1.3704  0.6015
 6182SOL     OW30007   3.264   3.146   5.725 -0.1576  0.4043  0.1352
 6182SOL    HW130008   3.271   3.240   5.740 -2.1694  0.4405  0.9117
 6182SOL    HW230009   3.170   3.128   5.734 -0.5311  1.5732 -1.5560
 6183SOL     OW30010   2.380   4.341   3.674 -0.1640  0.4425  0.5448
 6183SOL    HW130011   2.381   4.316   3.581  0.4631  0.4323  0.5591
 6183SOL    HW230012   2.305   4.401   3.670 -1.9342 -1.9006 -1.4554
 6184SOL     OW30013   2.235   2.924   2.064  0.1800  0.3878 -0.2474
 6184SOL    HW130014   2.172   2.990   2.091 -2.8308 -2.5366 -0.0229
 6184SOL    HW230015   2.176   2.854   2.035 -0.8167  2.3305 -2.8307
 6185SOL     OW30016   3.328   1.830   1.623  0.2725 -0.1357 -0.0068
 6185SOL    HW130017   3.387   1.904   1.637 -1.3587  1.1355  0.1371
 6185SOL    HW230018   3.304   1.851   1.532  0.1359 -0.9552 -0.1591
 6186SOL     OW30019   3.521   0.086   6.290  0.9052  0.7414 -0.3024
 6186SOL    HW130020   3.584   0.035   6.237  0.0233 -0.9040  0.2321
 6186SOL    HW230021   3.556   0.054   6.373 -0.8652 -0.1089  0.1002
 6187SOL     OW30022   2.473   3.282   8.298  0.3892  0.2126 -0.0164
 6187SOL    HW130023   2.405   3.229   8.255  1.4484 -0.8352 -0.3794
 6187SOL    HW230024   2.511   3.223   8.362  3.5978  1.4319 -0.8132
 6188SOL     OW30025   1.223   0.510   5.446 -0.3640  0.2719 -0.5283
 6188SOL    HW130026   1.239   0.421   5.416  0.2565 -0.1327  0.9819
 6188SOL    HW230027   1.291   0.525   5.511  0.1803 -0.4981 -0.9306
 6189SOL     OW30028   1.917   1.133   9.186 -0.1924  0.2444 -0.4534
 6189SOL    HW130029   1.875   1.064   9.136 -1.8524  0.5775  0.4706
 6189SOL    HW230030   1.902   1.203   9.122 -1.5661 -0.6205 -1.0594
 6190SOL     OW30031   4.460   4.518   8.257  0.4413 -0.2164  0.1906
 6190SOL    HW130032   4.474   4.594   8.314  2.6064  0.3090 -1.0232
 6190SOL    HW230033   4.492   4.440   8.303  0.3060 -0.5917 -0.3588
 6191SOL     OW30034   2.402   1.982   7.994  0.8357 -0.4570  0.5914
 6191SOL    HW130035   2.379   2.070   8.023 -1.4595 -1.2200  1.0882
 6191SOL    HW230036   2.486   1.971   8.039  0.9933  0.5690  0.5485
 6192SOL     OW30037   1.914   2.779   4.936  0.1686  0.1201 -0.4827
 6192SOL    HW130038   1.936   2.698   4.891 -1.6453  0.2488 -1.5822
 6192SOL    HW230039   1.959   2.840   4.877 -0.8462  1.9887  0.6740
 6193SOL     OW30040   4.399   2.220  13.496 -0.5815 -0.3588 -0.0729
 6193SOL    HW130041   4.443   2.203  13.413 -0.5525 -0.8885  0.0548
 6193SOL    HW230042   4.470   2.195  13.555 -0.2420  1.0542  0.1303
 6194SOL     OW30043   0.439   3.083   8.218 -0.3475  0.2346  0.3554
 6194SOL    HW130044   0.528   3.085   8.183 -0.7285 -1.0721 -0.6883
 6194SOL    HW230045   0.414   2.994   8.191 -1.4981  0.0832  1.9499
 6195SOL     OW30046   3.785   0.344  15.665 -0.3619  0.2300  0.2882
 6195SOL    HW130047   3.871   0.330  15.627 -0.0882  1.3024  0.5096
 6195SOL    HW230048   3.763   0.252  15.684 -1.1142  0.2357 -0.5586
 6196SOL     OW30049   0.150   3.171  16.581  0.3144  0.4585 -0.0166
 6196SOL    HW130050   0.069   3.183  16.631  1.2748  0.6871  1.5062
 6196SOL    HW230051   0.216   3.164  16.650  0.5690 -5.0749 -0.8362
 6197SOL     OW30052   3.188   2.420  16.191  0.2570 -0.3076  0.4740
 6197SOL    HW130053   3.244   2.421  16.113 -0.5407 -0.2602 -0.0984
 6197SOL    HW230054   3.247   2.456  16.257  1.7825  0.1826 -1.1564
 6198SOL     OW30055   3.947   3.525  15.098  0.5026  0.0884 -0.2071
 6198SOL    HW130056   3.969   3.588  15.166 -0.3385  0.2662 -0.0915
 6198SOL    HW230057   4.033   3.499  15.066  0.5019 -1.9099  1.3738
 6199SOL     OW30058   1.562   3.158   2.888 -0.1727  0.8320  0.0443
 6199SOL    HW130059   1.559   3.253   2.901  0.3390  0.6165  1.7860
 6199SOL    HW230060   1.486   3.145   2.831 -0.7858  2.5018  0.4620
 6200SOL     OW30061   1.189   3.894  13.727 -0.8332  0.3079  0.2546
 6200SOL    HW130062   1.213   3.978  13.689  0.4373 -0.8736 -1.5803
 6200SOL    HW230063   1.094   3.883  13.726 -0.8714  0.7644 -0.5680
 6201SOL     OW30064   4.457   2.412   6.187  0.3502  0.2161 -0.7044
 6201SOL    HW130065   4.532   2.376   6.139  0.1951 -0.9288 -0.0933
 6201SOL    HW230066   4.414   2.457   6.114  1.1878  0.9989 -0.7186
 6202SOL     OW30067   2.015   0.258   3.758  0.1353 -0.4774  0.8662
 6202SOL    HW130068   1.981   0.346   3.769 -0.7821 -0.8425  0.9239
 6202SOL    HW230069   1.933   0.212   3.772  0.5860 -1.1693  1.2769
 6203SOL     OW30070   1.645   1.280  11.877  0.0188  0.0294 -0.0486
 6203SOL    HW130071   1.672   1.353  11.821 -0.3564  0.1358 -0.0954
 6203SOL    HW230072   1.598   1.219  11.820 -1.6586  0.8685  0.4202
 6204SOL     OW30073   1.763   1.517   8.296  0.5702 -0.3001 -0.0253
 6204SOL    HW130074   1.726   1.515   8.384  3.2028  2.0070  1.1543
 6204SOL    HW230075   1.855   1.528   8.322  0.0597 -1.2700  2.1298
 6205SOL     OW30076   1.064   1.687   7.770  0.3246 -0.2229  0.2786
 6205SOL    HW130077   1.009   1.735   7.708 -0.3241  0.4696  1.4007
 6205SOL    HW230078   1.026   1.718   7.852 -0.9637  1.3725 -0.9114
 6206SOL     OW30079   4.572   1.478  10.051 -0.4827 -0.2707 -0.0797
 6206SOL    HW130080   4.596   1.385  10.049  0.7959  0.0281  1.5050
 6206SOL    HW230081   4.515   1.482  10.128 -2.3513  0.1357 -1.4703
 6207SOL     OW30082   3.865   4.339  12.920 -0.1321 -0.1242 -0.3780
 6207SOL    HW130083   3.860   4.249  12.951 -0.3105 -0.8127 -2.4765
 6207SOL    HW230084   3.779   4.342  12.878 -1.3732 -0.3998  2.1096
 6208SOL     OW30085   4.162   2.631   4.039  0.6158 -0.2235 -0.0837
 6208SOL    HW130086   4.159   2.724   4.015  2.8126 -0.2484 -0.5406
 6208SOL    HW230087   4.077   2.619   4.081 -1.0579  0.1525 -3.3222
 6209SOL     OW30088   2.321   1.782   2.033  0.0615 -0.3331 -0.7649
 6209SOL    HW130089   2.327   1.814   1.943  0.4698 -0.7454 -0.8868
 6209SOL    HW230090   2.241   1.823   2.067 -0.1707 -1.3183 -0.1098
 6210SOL     OW30091   3.232   3.821   5.701 -0.0481  0.2517  0.4185
 6210SOL    HW130092   3.146   3.788   5.678 -0.6321  0.4640  2.2395
 6210SOL    HW230093   3.252   3.871   5.622  0.9725 -2.4102 -0.9690
 6211SOL     OW30094   2.411   3.651   7.944 -0.2287 -0.1589  0.3098
 6211SOL    HW130095   2.318   3.674   7.942 -0.3844 -0.5450  2.7190
 6211SOL    HW230096   2.414   3.564   7.983  2.3797 -0.4826 -0.6190
 6212SOL     OW30097   3.101   0.412  14.778  0.1783  0.2555 -0.0002
 6212SOL    HW130098   3.160   0.337  14.775 -2.5224 -1.8766  0.8805
 6212SOL    HW230099   3.057   0.416  14.693  1.4714  0.4711 -0.6647
 6213SOL     OW30100   4.461   1.292   6.344 -0.5712 -0.0597  0.0987
 6213SOL    HW130101   4.454   1.361   6.409 -0.5830  1.1177 -1.1527
 6213SOL    HW230102   4.549   1.255   6.350 -0.5104  0.0366 -0.1807
 6214SOL     OW30103   0.673   4.554  14.273  0.5843 -0.4642 -0.3373
 6214SOL    HW130104   0.659   4.478  14.328  1.1552  0.2094  0.7297
 6214SOL    HW230105   0.586   4.594  14.275 -0.9394 -3.8905  0.2755
 6215SOL     OW30106   3.837   2.355  12.720  0.3287  0.1087 -0.3833
 6215SOL    HW130107   3.859   2.343  12.627 -0.4275  0.9897 -0.6676
 6215SOL    HW230108   3.768   2.290  12.734  0.0736  0.7945  1.4350
 6216SOL     OW30109   1.562   4.366   0.970  0.0496 -0.9364 -0.2359
 6216SOL    HW130110   1.596   4.397   0.886  1.7944  1.4391  1.3573
 6216SOL    HW230111   1.637   4.387   1.026  0.1540  0.6341 -0.9724
 6217SOL     OW30112   2.916   1.063  15.299  0.0481  0.2529  0.2906
 6217SOL    HW130113   2.828   1.095  15.319 -0.0397  1.6449 -2.2749
 6217SOL    HW230114   2.947   1.030  15.383  0.2773 -0.5507 -0.1050
 6218SOL     OW30115   1.296   0.146  12.920 -0.3440 -0.2996  0.3039
 6218SOL    HW130116   1.227   0.082  12.936  0.5318 -1.1534  0.6782
 6218SOL    HW230117   1.370   0.089  12.903 -0.3638 -0.4752  0.8084
 6219SOL     OW30118   1.444   2.669   1.086  0.1138 -0.0272 -0.4207
 6219SOL    HW130119   1.370   2.608   1.092 -0.6716  0.8614 -1.1594
 6219SOL    HW230120   1.432   2.731   1.158  2.6537  0.3125 -0.2989
 6220SOL     OW30121   1.889   1.198  15.321  0.1543 -0.5585  0.0013
 6220SOL    HW130122   1.944   1.276  15.321 -1.8275  0.8198 -0.7302
 6220SOL    HW230123   1.873   1.188  15.227 -0.8972  1.4010 -0.0147
 6221SOL     OW30124   3.553   4.500   6.230 -0.3083  0.0531  0.1190
 6221SOL    HW130125   3.601   4.556   6.168  0.4190 -2.6481 -1.7435
 6221SOL    HW230126   3.601   4.417   6.235  2.4968  1.6811  0.5862
 6222SOL     OW30127   3.758   3.688   3.712 -0.5763  0.4894  0.4996
 6222SOL    HW130128   3.747   3.749   3.640 -1.3598 -1.1376 -0.7514
 6222SOL    HW230129   3.848   3.709   3.738 -0.1196 -0.4455 -0.3100
 6223SOL     OW30130   0.987   1.597  11.284 -0.4362 -0.2727 -0.0165
 6223SOL    HW130131   1.002   1.575  11.193 -0.5533  0.6689 -0.2658
 6223SOL    HW230132   1.030   1.518  11.318  1.9962  1.1624  0.3051
 6224SOL     OW30133   3.394   2.379   9.105 -0.0959 -0.0417  0.0231
 6224SOL    HW130134   3.458   2.438   9.146 -1.5305  1.1545  0.5470
 6224SOL    HW230135   3.326   2.377   9.172  1.3758  3.3823  1.6408
 6225SOL     OW30136   3.424   4.132   6.246  0.2469  0.0625 -0.2708
 6225SOL    HW130137   3.450   4.172   6.329 -0.1319 -1.8119  0.7635
 6225SOL    HW230138   3.482   4.179   6.187  1.3560 -3.4972 -1.9539
 6226SOL     OW30139   2.258   2.983   6.715 -0.3675 -0.4539  0.3754
 6226SOL    HW130140   2.254   3.068   6.671  0.6696  0.3052  1.7232
 6226SOL    HW230141   2.294   2.926   6.647 -1.8059 -1.8557  0.7932
 6227SOL     OW30142   3.523   2.581   2.741 -0.0955 -0.0213 -0.5562
 6227SOL    HW130143   3.498   2.499   2.699 -0.2201 -0.4679  0.4069
 6227SOL    HW230144   3.457   2.630   2.693 -0.2755  1.2245  0.9714
 6228SOL     OW30145   4.305   4.130   1.402  0.4002 -0.2068  0.1357
 6228SOL    HW130146   4.306   4.039   1.370  2.2939  0.2615 -1.1643
 6228SOL    HW230147   4.341   4.112   1.489  0.0288  0.9671  0.5199
 6229SOL     OW30148   4.237   0.654   0.943 -0.9830 -0.2180 -0.1750
 6229SOL    HW130149   4.222   0.675   1.035 -2.9025  2.6646 -1.0979
 6229SOL    HW230150   4.290   0.575   0.952 -0.9464 -0.0525  0.9980
 6230SOL     OW30151   3.538   4.435  12.299  0.5705 -0.2435  0.2416
 6230SOL    HW130152   3.442   4.431  12.301  0.4932  0.5468 -1.7379
 6230SOL    HW230153   3.559   4.511  12.244  0.0647 -0.1768  0.1363
 6231SOL     OW30154   0.739   1.751  10.911  0.8732  0.6627  0.3078
 6231SOL    HW130155   0.742   1.837  10.954  0.4966  0.1029  1.4388
 6231SOL    HW230156   0.762   1.696  10.986  0.6279  0.4275  0.2092
 6232SOL     OW30157   0.434   1.839   7.874  0.7302  0.6270 -0.3350
 6232SOL    HW130158   0.346   1.865   7.901  0.4109 -1.6000  0.7666
 6232SOL    HW230159   0.491   1.858   7.949 -0.1510  0.2245  0.4390
 6233SOL     OW30160   1.860   0.352  16.258  0.1142  0.3300 -0.7468
 6233SOL    HW130161   1.862   0.421  16.192  2.5778 -1.7790 -2.8489
 6233SOL    HW230162   1.805   0.399  16.321  0.1415 -2.2914  1.2230
 6234SOL     OW30163   3.257   2.626   9.913  0.0925 -0.3932 -0.6396
 6234SOL    HW130164   3.328   2.658   9.858  0.1206  0.1083 -0.3001
 6234SOL    HW230165   3.227   2.711   9.943  0.3025 -0.0319 -1.4529
 6235SOL     OW30166   3.752   0.526  12.498  0.0840 -0.2190 -0.1387
 6235SOL    HW130167   3.753   0.491  12.409  0.4883 -0.0679 -0.1885
 6235SOL    HW230168   3.782   0.453  12.553  1.1885  0.9157  0.7436
 6236SOL     OW30169   4.003   1.422   5.128  0.3657  0.8347  0.0597
 6236SOL    HW130170   4.085   1.381   5.152 -0.0432  0.8744  1.5203
 6236SOL    HW230171   4.013   1.515   5.145  1.1547  0.8500 -0.4959
 6237SOL     OW30172   1.968   1.134   6.173  0.4633  0.1283  0.1187
 6237SOL    HW130173   2.039   1.070   6.175  1.8387  1.6241 -0.4072
 6237SOL    HW230174   1.917   1.076   6.116  0.2175  0.8591 -0.4159
 6238SOL     OW30175   0.932   4.567   1.318 -0.2072  0.4410 -0.3174
 6238SOL    HW130176   0.943   4.536   1.408 -1.2470 -0.7496 -0.6117
 6238SOL    HW230177   0.924   4.482   1.274  0.6068 -0.2681  0.9016
 6239SOL     OW30178   0.742   0.575   4.910 -0.0841 -0.1471 -0.0656
 6239SOL    HW130179   0.792   0.556   4.830  0.3253 -0.6843  0.3113
 6239SOL    HW230180   0.663   0.617   4.876 -0.3834 -0.9883 -0.4135
 6240SOL     OW30181   1.139   4.398  12.151 -0.3586 -0.1672 -0.4041
 6240SOL    HW130182   1.171   4.481  12.187  0.2009  0.3992 -2.1671
 6240SOL    HW230183   1.216   4.352  12.117  0.8298  1.2933  0.2994
 6241SOL     OW30184   0.475   4.640   8.142  0.4309  0.0819  0.8417
 6241SOL    HW130185   0.459   4.569   8.080 -2.0190  0.9821  0.4689
 6241SOL    HW230186   0.419   4.709   8.107  1.2767  0.5468  0.4055
 6242SOL     OW30187   3.424   2.674   2.987 -0.0029 -0.5887 -0.1270
 6242SOL    HW130188   3.353   2.615   2.961 -0.4769 -0.1720  0.2030
 6242SOL    HW230189   3.497   2.642   2.935 -0.2212  0.9817 -1.4177
 6243SOL     OW30190   1.595   4.084   4.899 -0.1289  0.2314 -0.0549
 6243SOL    HW130191   1.634   4.155   4.849 -1.5992  1.5460  0.6798
 6243SOL    HW230192   1.674   4.042   4.933 -0.5557 -1.3167 -0.9942
 6244SOL     OW30193   3.823   0.678   4.765  0.4253  0.2652 -0.4832
 6244SOL    HW130194   3.830   0.640   4.677 -0.5805 -3.6200  1.0916
 6244SOL    HW230195   3.798   0.598   4.811 -0.6820 -0.2888 -2.0371
 6245SOL     OW30196   3.149   3.878  17.090 -0.6417  0.4444  0.0053
 6245SOL    HW130197   3.142   3.783  17.102  0.3752  0.1296 -1.9008
 6245SOL    HW230198   3.056   3.893  17.109 -0.7655  0.2857 -0.4669
 6246SOL     OW30199   2.794   4.380   2.558  0.4849 -0.1546  0.6835
 6246SOL    HW130200   2.821   4.443   2.624 -2.2687  2.6656 -0.8649
 6246SOL    HW230201   2.744   4.307   2.594  1.7563  0.0599  2.8376
 6247SOL     OW30202   3.844   4.559   8.123  0.0795 -0.8615 -0.0740
 6247SOL    HW130203   3.920   4.502   8.111 -0.8353 -2.1128  0.2113
 6247SOL    HW230204   3.785   4.510   8.180 -3.1648  2.0980 -0.8436
 6248SOL     OW30205   3.151   2.663   1.995 -0.1181 -0.1906  0.1639
 6248SOL    HW130206   3.086   2.731   2.015  0.8307  0.3206  1.5475
 6248SOL    HW230207   3.098   2.594   1.955  0.0489  0.4579 -1.1467
 6249SOL     OW30208   1.487   3.900  11.142  0.2614  0.3826  0.5695
 6249SOL    HW130209   1.469   3.975  11.199 -1.3960  0.7879 -0.4958
 6249SOL    HW230210   1.420   3.910  11.075 -1.2397  1.6432  2.2435
 6250SOL     OW30211   1.949   1.359  13.805 -0.3719 -0.5287  0.2885
 6250SOL    HW130212   1.941   1.404  13.889 -2.2962 -0.6142  0.1499
 6250SOL    HW230213   1.864   1.317  13.788 -0.4451 -0.1284 -0.3307
 6251SOL     OW30214   3.602   1.127   0.393 -0.7825  0.3588  0.3620
 6251SOL    HW130215   3.623   1.043   0.351  1.2571  0.6729  0.7683
 6251SOL    HW230216   3.556   1.100   0.473 -0.7373 -5.4696 -1.6006
 6252SOL     OW30217   2.419   1.338  12.453 -0.4579  0.2405  0.1582
 6252SOL    HW130218   2.511   1.315  12.464 -0.4327 -0.0431 -0.7176
 6252SOL    HW230219   2.411   1.396  12.377  0.1001 -2.9000 -2.2841
 6253SOL     OW30220   2.075   4.338   5.270 -0.1088 -0.4145 -0.2349
 6253SOL    HW130221   1.999   4.299   5.314  0.6807  0.6492  2.0436
 6253SOL    HW230222   2.031   4.368   5.190 -0.2567 -0.7829 -0.2979
 6254SOL     OW30223   3.112   1.802   5.501 -0.1092  0.0546  0.2202
 6254SOL    HW130224   3.039   1.864   5.494 -2.4809 -2.6793  1.0473
 6254SOL    HW230225   3.140   1.824   5.590  0.0799 -2.6040  0.8041
 6255SOL     OW30226   1.413   0.358   6.584 -0.2695  0.2825  0.4967
 6255SOL    HW130227   1.507   0.356   6.568 -0.1897 -2.3763  1.3247
 6255SOL    HW230228   1.398   0.320   6.497  0.0519 -1.6739  1.3214
 6256SOL     OW30229   0.588   0.935  15.384 -0.3057 -0.4807 -0.2876
 6256SOL    HW130230   0.574   0.886  15.303 -0.9331  1.3005 -1.2814
 6256SOL    HW230231   0.679   0.959  15.367 -0.0602  0.2558  2.0723
 6257SOL     OW30232   4.606   3.181   0.604  0.5233  0.0712 -0.7686
 6257SOL    HW130233   4.650   3.096   0.604  0.8916  0.2589 -0.1637
 6257SOL    HW230234   4.545   3.164   0.532  0.6363 -1.8430 -0.4055
 6258SOL     OW30235   4.649   2.933   0.941  0.1407  0.2486  0.2706
 6258SOL    HW130236   4.701   2.855   0.921 -0.6612 -0.9594  3.0545
 6258SOL    HW230237   4.599   2.953   0.861 -0.9035  3.5202  1.7250
 6259SOL     OW30238   3.434   4.500   5.212 -0.5774 -0.2490 -0.4655
 6259SOL    HW130239   3.528   4.491   5.193 -0.9240  1.2354 -2.7788
 6259SOL    HW230240   3.409   4.408   5.198 -2.2010 -0.0444  1.0994
 6260SOL     OW30241   3.665   0.526  10.767 -1.0306 -0.2035  0.1391
 6260SOL    HW130242   3.689   0.446  10.721  0.5091 -0.1924  0.9489
 6260SOL    HW230243   3.595   0.490  10.822 -0.1209 -1.0697  0.7242
 6261SOL     OW30244   0.794   3.173  10.412  0.0136 -0.8926  0.6789
 6261SOL    HW130245   0.854   3.239  10.449 -2.0015  0.9959  0.5525
 6261SOL    HW230246   0.827   3.097  10.459 -0.1221 -1.9242 -0.9199
 6262SOL     OW30247   1.776   0.795  13.714 -0.2838  0.0848  0.2897
 6262SOL    HW130248   1.828   0.792  13.794  1.1035  2.0544 -0.5463
 6262SOL    HW230249   1.822   0.857  13.656  0.8182 -1.9256 -0.9810
 6263SOL     OW30250   3.154   0.389  10.289 -0.4688 -0.0344 -0.0054
 6263SOL    HW130251   3.196   0.346  10.214 -2.2496 -1.5853 -0.1122
 6263SOL    HW230252   3.149   0.314  10.348  2.6882 -1.2635 -1.2797
 6264SOL     OW30253   0.029   2.691  10.977  0.5806  0.0752  0.8140
 6264SOL    HW130254   0.028   2.665  11.070 -1.5952 -0.3480  0.6752
 6264SOL    HW230255   4.671   2.653  10.945  0.9580 -0.1160  0.0911
 6265SOL     OW30256   0.098   4.223  16.808 -0.6511  0.1856 -0.2225
 6265SOL    HW130257   0.074   4.253  16.721  1.1107  1.1958 -0.3558
 6265SOL    HW230258   0.087   4.130  16.793  0.6515  0.4400 -2.6914
 6266SOL     OW30259   3.328   4.394   9.926  0.1575  0.6571  0.2853
 6266SOL    HW130260   3.354   4.406  10.017  3.7634  1.1565 -0.7868
 6266SOL    HW230261   3.409   4.347   9.906 -0.9891 -1.2013  0.0511
 6267SOL     OW30262   0.652   1.992   4.577 -0.4761  0.4976  0.8142
 6267SOL    HW130263   0.662   2.044   4.497  2.8622 -1.9225 -0.3494
 6267SOL    HW230264   0.676   2.053   4.646  0.4006 -0.6247  1.5102
 6268SOL     OW30265   4.551   2.523   7.277  0.9030 -0.4062  0.0281
 6268SOL    HW130266   4.533   2.534   7.184 -3.3526 -1.3416  0.7735
 6268SOL    HW230267   4.633   2.569   7.296  0.4339 -0.0138  1.1334
 6269SOL     OW30268   0.897   2.366   3.196 -0.0783  0.1466 -0.0632
 6269SOL    HW130269   0.802   2.370   3.182  0.0292 -0.9288 -1.1439
 6269SOL    HW230270   0.911   2.340   3.287  0.4249  0.6366 -0.0036
 6270SOL     OW30271   3.034   4.036   4.054  0.0796  0.1791 -0.9315
 6270SOL    HW130272   3.116   4.066   4.094 -0.4013  0.8523 -0.4646
 6270SOL    HW230273   3.077   4.005   3.974  0.7283  3.7474 -1.9640
 6271SOL     OW30274   4.254   3.353   2.693 -0.1662 -0.4072  0.4230
 6271SOL    HW130275   4.293   3.320   2.611 -1.5764 -1.2819  0.0974
 6271SOL    HW230276   4.258   3.269   2.738  0.0369  0.3260  1.7576
 6272SOL     OW30277   3.030   0.035  12.433 -0.1709 -0.3312 -0.6500
 6272SOL    HW130278   3.056   4.672  12.400 -1.4271 -1.5556  1.5155
 6272SOL    HW230279   3.054   0.090  12.358 -0.7858 -0.5355 -0.9958
 6273SOL     OW30280   1.736   0.505   8.390  0.0166  0.0593 -0.1711
 6273SOL    HW130281   1.734   0.468   8.302  1.5720  0.1027 -0.2315
 6273SOL    HW230282   1.774   0.588   8.364 -0.4674 -0.5278 -2.7436
 6274SOL     OW30283   3.282   2.716   3.940  0.4678  0.1879 -0.4190
 6274SOL    HW130284   3.191   2.732   3.964  0.0707 -0.3452 -1.5790
 6274SOL    HW230285   3.262   2.688   3.851  1.0408 -1.0413 -0.1579
 6275SOL     OW30286   2.498   3.961   4.572 -0.0488 -0.1172 -0.5606
 6275SOL    HW130287   2.446   3.923   4.643 -1.4019 -0.2820 -1.6364
 6275SOL    HW230288   2.547   4.019   4.630  2.1743 -2.5032 -0.0811
 6276SOL     OW30289   2.999   1.146   6.599  0.1580  0.6674  0.3303
 6276SOL    HW130290   2.922   1.173   6.649  1.2764  0.1083  2.3418
 6276SOL    HW230291   3.044   1.229   6.581 -0.6272  0.9828 -0.1766
 6277SOL     OW30292   4.021   3.789   6.619 -0.1615  0.3928 -0.0580
 6277SOL    HW130293   4.028   3.696   6.597 -1.3387 -0.0208  1.3795
 6277SOL    HW230294   3.936   3.785   6.662 -0.5293 -2.9465 -1.0924
 6278SOL     OW30295   4.545   0.888   8.065  0.1230  0.0354 -0.2115
 6278SOL    HW130296   4.614   0.832   8.029  1.5525  1.8540 -0.2302
 6278SOL    HW230297   4.474   0.826   8.083 -0.4581  0.7771  0.0598
 6279SOL     OW30298   1.870   1.509  11.889  0.0448  0.3209  0.4030
 6279SOL    HW130299   1.844   1.535  11.977 -0.2541 -1.9832  0.9708
 6279SOL    HW230300   1.959   1.477  11.905  0.6601  2.3833  1.2125
 6280SOL     OW30301   3.920   3.120   9.188  0.1326  0.1175 -0.6225
 6280SOL    HW130302   4.001   3.076   9.212  1.3769  2.7410  0.0771
 6280SOL    HW230303   3.855   3.052   9.204  1.4958 -1.0443 -0.0962
 6281SOL     OW30304   2.832   3.772   2.405 -0.3036 -0.3642  0.1242
 6281SOL    HW130305   2.855   3.720   2.482  0.8507 -0.9884 -0.6555
 6281SOL    HW230306   2.834   3.856   2.452 -1.4280 -1.0120  1.3314
 6282SOL     OW30307   1.155   3.684  14.205 -0.1488 -0.1147  0.1992
 6282SOL    HW130308   1.224   3.682  14.271  0.2624  2.6353 -0.1179
 6282SOL    HW230309   1.202   3.662  14.125  0.1918 -1.4866  0.7951
 6283SOL     OW30310   1.958   2.899   8.362 -0.2074 -0.4812 -0.2587
 6283SOL    HW130311   1.948   2.833   8.431 -0.4512 -0.8970 -0.6882
 6283SOL    HW230312   2.036   2.942   8.397 -0.1586 -1.1409  0.4289
 6284SOL     OW30313   0.504   1.866   6.342  0.6100 -0.1666  0.1256
 6284SOL    HW130314   0.442   1.938   6.330  1.0839  0.5768  2.2398
 6284SOL    HW230315   0.564   1.871   6.268 -0.5417  0.0061 -0.7974
 6285SOL     OW30316   3.057   4.372   4.689 -0.1865  0.3695  0.0449
 6285SOL    HW130317   3.126   4.428   4.653  1.8331 -1.4052  1.1343
 6285SOL    HW230318   3.018   4.432   4.753  0.3791  0.2874  0.4679
 6286SOL     OW30319   2.804   1.566   3.813 -0.1490  0.2015  0.2322
 6286SOL    HW130320   2.836   1.538   3.727 -1.5491 -0.5681 -0.0435
 6286SOL    HW230321   2.851   1.648   3.825 -0.5429  0.1614  2.1720
 6287SOL     OW30322   0.606   4.447   0.749 -0.2610 -0.4874  0.1025
 6287SOL    HW130323   0.695   4.456   0.715 -0.1102  1.1924  0.9436
 6287SOL    HW230324   0.577   4.358   0.728  0.5559 -0.5753 -0.6547
 6288SOL     OW30325   1.754   4.612   3.660  0.2399 -0.6032 -0.2719
 6288SOL    HW130326   1.795   4.619   3.574  2.8764 -2.6001  0.8438
 6288SOL    HW230327   1.683   4.549   3.646 -0.0194  0.1961 -2.5584
 6289SOL     OW30328   3.295   0.732   2.118  0.4637  0.1835 -0.2576
 6289SOL    HW130329   3.272   0.729   2.025  0.1087 -0.8388 -0.1389
 6289SOL    HW230330   3.311   0.826   2.128 -1.1687  0.2266  2.0542
 6290SOL     OW30331   3.857   2.786  17.072  0.3632  0.1573  0.0230
 6290SOL    HW130332   3.771   2.774  17.033 -0.2867  2.0438  0.8660
 6290SOL    HW230333   3.893   2.867  17.034  3.1550 -1.9571 -1.8998
 6291SOL     OW30334   3.231   3.535   6.817  0.5311  0.3258  0.9916
 6291SOL    HW130335   3.171   3.583   6.873  0.1853  1.1662 -0.0822
 6291SOL    HW230336   3.302   3.529   6.881  1.4306 -3.5848 -0.3611
 6292SOL     OW30337   1.759   1.438  12.727  0.1661 -0.0584 -0.7790
 6292SOL    HW130338   1.850   1.429  12.754  0.4229 -0.4140 -1.7602
 6292SOL    HW230339   1.739   1.353  12.686 -1.4879 -0.1575  0.2314
 6293SOL     OW30340   2.947   3.828  15.492  0.1825  0.5223  0.3241
 6293SOL    HW130341   3.026   3.776  15.507  0.7723  0.2712 -3.5933
 6293SOL    HW230342   2.908   3.832  15.579  0.4838 -1.1774  0.5479
 6294SOL     OW30343   0.333   2.647   1.280 -0.3205 -0.1880 -0.3024
 6294SOL    HW130344   0.404   2.705   1.254  0.9829 -2.0094 -0.8505
 6294SOL    HW230345   0.275   2.679   1.211 -0.8219  0.0311  0.2277
 6295SOL     OW30346   3.607   0.194   8.318  0.0276  0.0032 -0.5291
 6295SOL    HW130347   3.688   0.144   8.328 -0.1589 -0.3089 -0.6060
 6295SOL    HW230348   3.633   0.283   8.294 -0.5153  0.3797  0.2887
 6296SOL     OW30349   3.732   2.324   2.999  0.2370  0.1746  0.0737
 6296SOL    HW130350   3.648   2.368   2.988  0.0829 -0.4597 -1.2787
 6296SOL    HW230351   3.715   2.274   3.079 -0.4381  0.0324 -0.1519
 6297SOL     OW30352   0.097   2.766  15.951 -0.0928  0.2731 -0.2254
 6297SOL    HW130353   0.108   2.827  15.878 -3.5894  0.1158 -0.8480
 6297SOL    HW230354   0.177   2.715  15.965 -0.9943 -1.6259 -2.0874
 6298SOL     OW30355   0.662   2.092   3.241 -0.0239 -0.6323 -0.1469
 6298SOL    HW130356   0.647   2.132   3.156  0.3407 -1.8373 -0.7804
 6298SOL    HW230357   0.680   2.168   3.296 -0.8803 -0.5285 -0.0211
 6299SOL     OW30358   0.544   2.030  12.813  0.3730 -0.0048  0.3740
 6299SOL    HW130359   0.498   1.960  12.767 -1.1022  2.1913 -1.4760
 6299SOL    HW230360   0.593   2.064  12.738  0.4881 -0.9171  0.0459
 6300SOL     OW30361   2.638   3.906   4.908  0.5638 -0.0940 -0.4038
 6300SOL    HW130362   2.722   3.949   4.918 -0.3878  1.3664  1.2179
 6300SOL    HW230363   2.620   3.882   4.999 -1.2142  0.8594 -0.5039
 6301SOL     OW30364   3.697   3.555   0.560 -0.0775  0.0026 -0.4923
 6301SOL    HW130365   3.612   3.529   0.595  0.7721 -1.9325  0.1041
 6301SOL    HW230366   3.753   3.537   0.636  1.3796 -0.0997 -1.5988
 6302SOL     OW30367   4.405   4.453   2.238 -0.4796 -0.6241 -0.1525
 6302SOL    HW130368   4.430   4.409   2.157 -0.6754  0.0867 -0.5956
 6302SOL    HW230369   4.357   4.386   2.287  0.6441 -0.2712  1.4485
 6303SOL     OW30370   1.714   3.792   8.224  0.5803 -0.1740 -0.5157
 6303SOL    HW130371   1.670   3.717   8.184  1.1376 -0.7490 -0.0654
 6303SOL    HW230372   1.743   3.847   8.151  1.1498  1.2969  0.8082
 6304SOL     OW30373   0.560   1.826   7.361 -0.3892 -0.2116 -0.1024
 6304SOL    HW130374   0.522   1.913   7.379  2.3467  0.2390  3.5804
 6304SOL    HW230375   0.542   1.778   7.442 -0.8300 -0.1779 -0.1805
 6305SOL     OW30376   4.638   2.910   4.817 -0.0130 -0.5264  0.1731
 6305SOL    HW130377   4.626   2.826   4.860  1.9646 -0.4415  0.8821
 6305SOL    HW230378   4.705   2.884   4.753 -0.6882 -0.9012 -0.3794
 6306SOL     OW30379   2.548   1.854   4.197 -0.2242 -0.0634 -0.2686
 6306SOL    HW130380   2.639   1.876   4.217 -0.2412  0.3061 -0.6173
 6306SOL    HW230381   2.529   1.899   4.115 -2.9646 -1.9983 -0.7189
 6307SOL     OW30382   3.994   1.730   7.740 -0.3049 -0.2409 -0.0154
 6307SOL    HW130383   3.915   1.783   7.750  0.8526  1.1564  1.8667
 6307SOL    HW230384   4.059   1.798   7.758  0.3921 -1.1529  0.8835
 6308SOL     OW30385   4.230   2.215  14.080  0.2041  0.0824  0.3076
 6308SOL    HW130386   4.316   2.173  14.076  1.8132  3.2073  1.3965
 6308SOL    HW230387   4.199   2.185  13.994 -0.3985 -2.5298  1.4494
 6309SOL     OW30388   3.040   1.392   4.607 -0.2350 -0.1906  0.0199
 6309SOL    HW130389   3.033   1.452   4.533 -1.1135 -0.0749  0.1874
 6309SOL    HW230390   2.952   1.405   4.644 -0.4652  1.0979 -0.9683
 6310SOL     OW30391   2.382   2.811   6.131  0.2450 -0.0785 -0.0144
 6310SOL    HW130392   2.380   2.900   6.096 -1.7268 -0.1819 -0.1690
 6310SOL    HW230393   2.466   2.804   6.177  0.5516 -1.9057 -0.8489
 6311SOL     OW30394   3.721   1.488   8.954  0.3349 -0.5486  0.6384
 6311SOL    HW130395   3.774   1.422   8.999 -0.8767 -1.0433  1.3333
 6311SOL    HW230396   3.787   1.557   8.945  0.6328 -1.1382 -1.6854
 6312SOL     OW30397   0.883   3.968   3.668  0.9009  0.1398  0.0541
 6312SOL    HW130398   0.892   3.874   3.682 -1.4983  0.4691  3.7710
 6312SOL    HW230399   0.930   3.974   3.584  2.2048 -3.0271  0.5436
 6313SOL     OW30400   0.052   4.642   6.345  0.5088  0.5635  0.0148
 6313SOL    HW130401   4.695   4.693   6.359  0.4828  0.1895  1.2548
 6313SOL    HW230402   0.120   4.698   6.382  0.1102  0.0136  1.5969
 6314SOL     OW30403   0.947   2.181   7.730 -0.1802  0.4638 -0.4320
 6314SOL    HW130404   0.898   2.111   7.686  1.3876 -1.7841  1.4257
 6314SOL    HW230405   1.033   2.142   7.747 -1.2763 -0.6614  2.4802
 6315SOL     OW30406   4.251   3.627  15.304  0.1546 -0.1117 -0.2452
 6315SOL    HW130407   4.224   3.553  15.359 -1.9726  1.0594  0.3098
 6315SOL    HW230408   4.324   3.662  15.356 -0.8746 -1.6991  2.2418
 6316SOL     OW30409   4.381   1.799  13.242 -0.0583 -0.3372 -0.1821
 6316SOL    HW130410   4.461   1.847  13.263  0.4193 -1.7300  1.1736
 6316SOL    HW230411   4.319   1.834  13.306 -0.6640 -0.6730 -0.5840
 6317SOL     OW30412   2.589   3.748   8.606 -0.1382  0.5920  0.2332
 6317SOL    HW130413   2.604   3.832   8.562  0.3343 -0.3910 -1.4661
 6317SOL    HW230414   2.548   3.712   8.528  0.2432 -0.8045  0.6734
 6318SOL     OW30415   2.590   0.132   9.382 -0.0155  0.1646  0.2753
 6318SOL    HW130416   2.528   0.092   9.321 -0.4354 -0.2214  0.9506
 6318SOL    HW230417   2.604   0.219   9.343  2.9888 -0.3288  0.2644
 6319SOL     OW30418   2.342   3.232   1.810 -0.1075  0.1190  0.0723
 6319SOL    HW130419   2.378   3.201   1.727 -1.7368 -1.4451 -0.0511
 6319SOL    HW230420   2.259   3.185   1.816  0.5431 -1.0941 -0.3198
 6320SOL     OW30421   1.683   2.138  15.966 -0.3040  0.4291  0.1408
 6320SOL    HW130422   1.673   2.106  16.055  0.7915 -2.7645 -0.8856
 6320SOL    HW230423   1.744   2.213  15.969  1.7692 -1.1656 -1.6630
 6321SOL     OW30424   3.591   2.055   2.139  0.1917 -0.3794  0.4163
 6321SOL    HW130425   3.648   2.052   2.062  0.6172  1.9744  0.6356
 6321SOL    HW230426   3.502   2.059   2.101  0.0606 -1.4436  0.6389
 6322SOL     OW30427   4.204   2.747  16.813 -0.5771  0.6503  0.2281
 6322SOL    HW130428   4.298   2.733  16.799 -0.9974 -1.2964 -0.6516
 6322SOL    HW230429   4.171   2.657  16.820  0.6425  0.2160  0.3865
 6323SOL     OW30430   2.220   1.141  11.632 -0.2198  0.2345 -0.1177
 6323SOL    HW130431   2.137   1.186  11.613  0.2646  2.2394  2.4176
 6323SOL    HW230432   2.185   1.074  11.690  1.4478  0.7308  1.4471
 6324SOL     OW30433   1.741   1.836   6.877 -0.5078  0.1662  0.3521
 6324SOL    HW130434   1.758   1.871   6.790 -4.5513  1.9215  0.2630
 6324SOL    HW230435   1.650   1.862   6.892 -0.5098 -0.8893  2.2574
 6325SOL     OW30436   3.286   1.773  10.122  0.2481 -0.1060 -0.0162
 6325SOL    HW130437   3.270   1.680  10.108 -2.3694  0.1899  1.0330
 6325SOL    HW230438   3.378   1.771  10.094  0.2332 -2.3481  0.1522
 6326SOL     OW30439   2.350   0.473  11.560 -0.6559  0.3624  0.2064
 6326SOL    HW130440   2.406   0.481  11.637 -2.0288 -0.3849  1.2835
 6326SOL    HW230441   2.410   0.434  11.497 -0.7046 -1.8478  1.5425
 6327SOL     OW30442   4.660   2.216   6.560  0.1571 -0.1728  0.4093
 6327SOL    HW130443   4.656   2.165   6.641  2.9011 -2.9422 -1.2154
 6327SOL    HW230444   4.596   2.168   6.508  1.3932  0.7529 -1.9831
 6328SOL     OW30445   1.475   0.630   6.077  0.2697  0.1504 -0.0970
 6328SOL    HW130446   1.522   0.554   6.043  0.5244 -0.5122  1.7479
 6328SOL    HW230447   1.480   0.683   5.998 -0.6470 -1.6902 -1.4139
 6329SOL     OW30448   3.525   0.293  13.195 -0.1275  0.1742  0.1460
 6329SOL    HW130449   3.542   0.204  13.224 -1.5434  0.1789  1.0040
 6329SOL    HW230450   3.452   0.325  13.249  1.0122 -2.1870  3.0353
 6330SOL     OW30451   1.585   3.329  12.202  0.7278 -0.1428  0.5222
 6330SOL    HW130452   1.581   3.422  12.223 -1.7229 -0.5280  1.7077
 6330SOL    HW230453   1.570   3.332  12.107 -0.4223 -1.8468  0.6612
 6331SOL     OW30454   2.457   2.461   0.535  0.1420 -0.3327  0.5215
 6331SOL    HW130455   2.363   2.449   0.550  0.0673 -2.3851 -1.6243
 6331SOL    HW230456   2.462   2.434   0.443  0.4616 -0.4618  0.5775
 6332SOL     OW30457   3.119   0.403   6.209  0.3203  0.4436  0.1036
 6332SOL    HW130458   3.167   0.485   6.217  0.5433  0.3320 -0.1088
 6332SOL    HW230459   3.171   0.337   6.255 -0.3312  0.2839  0.6151
 6333SOL     OW30460   3.422   1.247   3.404  0.0914  0.5659 -0.1885
 6333SOL    HW130461   3.420   1.234   3.309 -1.1320  0.0629 -0.1025
 6333SOL    HW230462   3.481   1.179   3.434 -0.3061 -0.0962 -0.9019
 6334SOL     OW30463   0.943   3.625   5.431  0.5379  0.9083  0.1288
 6334SOL    HW130464   0.896   3.636   5.348  0.3451 -1.2601 -0.0654
 6334SOL    HW230465   0.925   3.531   5.439  0.7652  0.8036 -0.5480
 6335SOL     OW30466   2.915   2.440  16.986  0.1701  0.0427  0.1720
 6335SOL    HW130467   2.866   2.521  16.997  0.7130  0.5040 -0.7833
 6335SOL    HW230468   2.862   2.393  16.923  0.0233 -0.2142  0.4876
 6336SOL     OW30469   4.098   1.117   9.082  0.2776  0.7554 -0.1508
 6336SOL    HW130470   4.174   1.085   9.132  0.0367  0.4772  0.0377
 6336SOL    HW230471   4.047   1.039   9.059 -0.3882  0.8266  1.0516
 6337SOL     OW30472   1.786   3.069   0.443 -0.6291 -0.4195  0.7745
 6337SOL    HW130473   1.757   3.043   0.356 -3.2247 -0.9780  1.8032
 6337SOL    HW230474   1.725   3.139   0.464 -0.3767 -0.5456  1.9436
 6338SOL     OW30475   3.534   0.627   3.518  0.2614 -0.1786 -0.1372
 6338SOL    HW130476   3.489   0.652   3.437  1.1801  4.1281  0.6755
 6338SOL    HW230477   3.586   0.550   3.494 -0.0712 -0.3908 -0.1812
 6339SOL     OW30478   3.175   0.897   6.182  0.3085 -0.2174  0.2828
 6339SOL    HW130479   3.133   0.983   6.175 -0.4045 -0.5992 -0.0742
 6339SOL    HW230480   3.231   0.910   6.259  1.2832 -1.2376 -0.2574
 6340SOL     OW30481   0.439   4.646   8.433  0.2038  0.7849 -0.0603
 6340SOL    HW130482   0.376   4.711   8.464 -0.2281  0.5729 -0.4973
 6340SOL    HW230483   0.460   4.670   8.342  0.1428  2.2396  0.3033
 6341SOL     OW30484   3.879   1.097   4.170 -0.0529  0.0037 -0.2920
 6341SOL    HW130485   3.872   1.179   4.121 -2.4334 -0.2257 -0.3487
 6341SOL    HW230486   3.789   1.066   4.155  0.5538  0.1495 -4.3815
 6342SOL     OW30487   0.285   4.209   2.252  0.4648 -0.3036  0.1545
 6342SOL    HW130488   0.247   4.142   2.309 -0.6170  0.9490  0.9206
 6342SOL    HW230489   0.366   4.164   2.231  0.1122 -0.5323 -0.6979
 6343SOL     OW30490   4.537   2.659  10.809 -0.2575  0.0041  0.1776
 6343SOL    HW130491   4.460   2.607  10.830  2.0822 -2.9473  1.5265
 6343SOL    HW230492   4.497   2.745  10.803 -3.3849 -1.5362 -1.0919
 6344SOL     OW30493   1.964   4.503   3.906 -0.1285  0.3440 -0.3162
 6344SOL    HW130494   2.005   4.589   3.909  0.8909 -0.2092  1.3583
 6344SOL    HW230495   1.927   4.496   3.818  0.9445  1.0778 -0.8287
 6345SOL     OW30496   2.947   0.494  13.993 -0.3086  0.0062  0.3295
 6345SOL    HW130497   2.870   0.504  14.049 -0.3592  2.4931 -0.1880
 6345SOL    HW230498   2.919   0.421  13.937  2.3837 -0.5217 -0.3263
 6346SOL     OW30499   2.061   0.137   5.216  0.3177 -0.0157  0.0752
 6346SOL    HW130500   2.066   0.192   5.138 -2.2706  0.2373  0.0736
 6346SOL    HW230501   1.965   0.136   5.222  0.1085  1.2330 -3.1947
 6347SOL     OW30502   4.540   4.598   1.396 -0.0679  0.0205  0.2615
 6347SOL    HW130503   4.572   4.548   1.321 -2.0953 -3.0516  1.4313
 6347SOL    HW230504   4.474   4.653   1.354  1.8811  0.9427 -1.5738
 6348SOL     OW30505   2.590   0.080   3.352 -0.3023  0.3926  0.5194
 6348SOL    HW130506   2.684   0.094   3.346 -0.1111 -0.2607  1.8148
 6348SOL    HW230507   2.573   0.057   3.444  2.3970 -1.8387  0.4675
 6349SOL     OW30508   2.026   4.246  10.472 -0.0229  0.4122  0.4969
 6349SOL    HW130509   2.070   4.234  10.556 -1.2384 -1.8028  0.8106
 6349SOL    HW230510   1.945   4.196  10.486 -1.0069  2.3460  1.6893
 6350SOL     OW30511   0.225   0.095   9.286 -0.1085  0.2553  0.2047
 6350SOL    HW130512   0.137   0.061   9.272  0.3080 -1.2575  1.2935
 6350SOL    HW230513   0.235   0.089   9.381  2.5427  0.8987 -0.0316
 6351SOL     OW30514   2.998   2.494  17.362  0.4876 -0.1991  0.4402
 6351SOL    HW130515   3.093   2.504  17.358  0.6559 -1.2598  1.7728
 6351SOL    HW230516   2.964   2.583  17.368 -0.9617 -0.7553  0.6264
 6352SOL     OW30517   2.862   0.506   2.743 -0.5772  0.5372  0.1844
 6352SOL    HW130518   2.814   0.487   2.824 -1.6399 -0.8766 -0.7922
 6352SOL    HW230519   2.821   0.583   2.704  0.6836  0.8873 -0.4520
 6353SOL     OW30520   1.176   3.691  14.560  0.4168  0.5494  0.1457
 6353SOL    HW130521   1.257   3.697  14.509 -0.6656 -1.0219 -1.7501
 6353SOL    HW230522   1.217   3.624  14.614 -1.9746 -0.7780  0.3100
 6354SOL     OW30523   4.496   0.347   4.291  0.1960 -0.3537 -0.0893
 6354SOL    HW130524   4.583   0.384   4.305  0.5240 -1.2095  0.1060
 6354SOL    HW230525   4.517   0.260   4.326 -1.3705 -0.9901 -0.6984
 6355SOL     OW30526   2.140   0.934   4.659 -0.6893  0.0211  0.2944
 6355SOL    HW130527   2.218   0.981   4.690  0.8410 -1.2327 -1.6453
 6355SOL    HW230528   2.149   0.961   4.567  1.5615 -3.3786 -0.4834
 6356SOL     OW30529   3.921   2.773   2.497  0.5956 -0.2250 -0.0588
 6356SOL    HW130530   3.912   2.699   2.437  0.7940  0.2916 -0.7255
 6356SOL    HW230531   4.001   2.810   2.460  1.8263 -1.4724  1.3600
 6357SOL     OW30532   1.493   4.405   4.942  1.0308 -0.5052 -0.4381
 6357SOL    HW130533   1.551   4.331   4.925 -0.0866 -1.3550 -0.5457
 6357SOL    HW230534   1.544   4.455   5.006 -0.3818  1.4712 -0.8546
 6358SOL     OW30535   3.481   3.408  15.178 -0.5328  0.3002  0.3138
 6358SOL    HW130536   3.422   3.357  15.121 -2.4256  0.1103  2.4340
 6358SOL    HW230537   3.538   3.470  15.133 -0.1871  2.0498  3.1551
 6359SOL     OW30538   0.140   3.474   0.084 -0.0312 -0.2343 -0.2973
 6359SOL    HW130539   0.110   3.422   0.158 -0.9450  0.2122 -0.3578
 6359SOL    HW230540   0.216   3.422   0.056  0.4314  0.7917 -0.9577
 6360SOL     OW30541   2.561   4.595   5.067  0.1719 -0.0463  0.0970
 6360SOL    HW130542   2.517   4.661   5.120  0.2624  1.7095 -2.0106
 6360SOL    HW230543   2.606   4.658   5.010 -0.7885  1.0661  0.5729
 6361SOL     OW30544   4.029   0.032  14.699  0.3408 -0.1109  0.0545
 6361SOL    HW130545   4.074   0.107  14.660  0.2891  0.9666  2.0328
 6361SOL    HW230546   3.985   0.017  14.616 -0.5613 -2.0169  0.8803
 6362SOL     OW30547   3.249   1.733   2.024  0.4581 -0.3675  0.0841
 6362SOL    HW130548   3.171   1.702   1.980 -0.2261  1.0268  0.3155
 6362SOL    HW230549   3.234   1.724   2.118 -0.8083  0.4155 -0.0437
 6363SOL     OW30550   4.707   3.329   5.901  0.4648 -0.0654  0.0633
 6363SOL    HW130551   4.676   3.240   5.916 -0.9125  0.3184 -0.6017
 6363SOL    HW230552   4.703   3.369   5.988 -1.5323  2.0995 -1.0518
 6364SOL     OW30553   3.852   4.420   3.798 -0.2872 -0.0949 -0.5474
 6364SOL    HW130554   3.804   4.395   3.877 -1.6987 -0.1172 -1.4089
 6364SOL    HW230555   3.807   4.503   3.784 -1.1386 -0.3092  0.9601
 6365SOL     OW30556   2.372   2.100   5.465  0.1268 -0.0609 -0.2973
 6365SOL    HW130557   2.319   2.178   5.451  0.4099  0.3557  0.9498
 6365SOL    HW230558   2.314   2.051   5.522  0.4580  0.7128  0.7001
 6366SOL     OW30559   1.321   0.525   8.559  0.4201  0.3184  0.1203
 6366SOL    HW130560   1.286   0.518   8.648  0.7416 -2.7522 -0.0091
 6366SOL    HW230561   1.415   0.515   8.578  0.6703  2.6278  0.1288
 6367SOL     OW30562   2.103   4.708   3.497  0.6083  0.3008 -0.4406
 6367SOL    HW130563   2.124   4.654   3.421  1.4604 -0.6774  0.4868
 6367SOL    HW230564   2.061   0.056   3.448 -0.8755 -0.1346  0.2046
 6368SOL     OW30565   0.153   1.502   3.693  0.4188 -0.5434 -0.2123
 6368SOL    HW130566   0.195   1.583   3.719 -1.2416 -0.0225  0.9040
 6368SOL    HW230567   0.233   1.452   3.676  1.8386  1.4584  0.6350
 6369SOL     OW30568   1.869   0.722   5.530  0.2829  0.1421 -0.2549
 6369SOL    HW130569   1.910   0.736   5.616 -1.6661  2.1071  0.3519
 6369SOL    HW230570   1.943   0.720   5.469  1.1636  0.1565  0.7932
 6370SOL     OW30571   2.665   2.809   2.050  0.6909  0.0871  0.0254
 6370SOL    HW130572   2.617   2.891   2.049  0.5259  0.0142  1.2698
 6370SOL    HW230573   2.666   2.784   2.143 -0.0763  0.9897  0.2774
 6371SOL     OW30574   0.729   2.062  10.068 -0.2160  0.0721 -0.0685
 6371SOL    HW130575   0.675   2.132  10.031 -2.7024 -1.3051  0.9770
 6371SOL    HW230576   0.661   1.996  10.059 -0.7906  0.5103  1.0545
 6372SOL     OW30577   1.469   4.625   6.002 -0.4351 -0.1845 -0.0479
 6372SOL    HW130578   1.519   4.608   6.082  0.9391  1.4255 -0.5593
 6372SOL    HW230579   1.466   4.721   6.000 -0.5294 -0.1501  1.7180
 6373SOL     OW30580   3.374   1.911  14.165  0.3635 -0.1269 -0.2899
 6373SOL    HW130581   3.392   1.873  14.079  1.5627 -0.4269  0.0870
 6373SOL    HW230582   3.361   2.002  14.139 -1.1942 -0.5086 -0.8436
 6374SOL     OW30583   2.379   2.721   5.247  0.2151  0.1154 -0.4504
 6374SOL    HW130584   2.319   2.795   5.252 -0.0925 -0.1214 -0.6251
 6374SOL    HW230585   2.449   2.778   5.215  1.0169 -0.1330  0.8700
 6375SOL     OW30586   4.111   3.787  16.441 -0.3588  0.1571  0.5371
 6375SOL    HW130587   4.034   3.761  16.492  0.1773 -2.0094  0.2786
 6375SOL    HW230588   4.088   3.777  16.349  0.9673  1.0950  0.0983
 6376SOL     OW30589   2.724   2.124  12.917  0.7669 -0.4135  0.4638
 6376SOL    HW130590   2.712   2.066  12.841 -2.0147 -1.3643  1.6207
 6376SOL    HW230591   2.813   2.107  12.947  1.3138 -1.4456 -1.7842
 6377SOL     OW30592   1.255   4.551   4.284 -0.2669 -0.1837  0.6323
 6377SOL    HW130593   1.347   4.534   4.266 -0.7770 -1.3738 -0.8420
 6377SOL    HW230594   1.236   4.468   4.243 -0.1886  0.5421 -0.8598
 6378SOL     OW30595   2.200   1.890  12.752 -0.2077  0.5202 -0.0786
 6378SOL    HW130596   2.267   1.886  12.821 -1.3806  1.7651  1.1130
 6378SOL    HW230597   2.124   1.886  12.809  0.2405 -1.1012  0.3912
 6379SOL     OW30598   4.713   0.767   8.471  0.4077  0.1077 -0.1970
 6379SOL    HW130599   0.060   0.806   8.419 -0.6187  0.4247 -1.3257
 6379SOL    HW230600   4.646   0.835   8.475  0.6967  0.2546  2.1615
 6380SOL     OW30601   1.944   1.472   0.774 -0.1829  0.2396 -0.1721
 6380SOL    HW130602   1.963   1.399   0.833  0.5911 -0.1399 -0.8929
 6380SOL    HW230603   1.948   1.439   0.684  0.3573  0.3738 -0.1970
 6381SOL     OW30604   4.160   0.699   5.112  0.0693  0.1130  0.3999
 6381SOL    HW130605   4.123   0.705   5.024 -0.5749 -0.8905  0.5906
 6381SOL    HW230606   4.129   0.612   5.140  0.2780 -0.8518 -2.3527
 6382SOL     OW30607   2.648   1.165   1.472 -0.3346  0.3251 -0.1969
 6382SOL    HW130608   2.578   1.222   1.440 -0.1734 -0.5393 -2.1322
 6382SOL    HW230609   2.675   1.210   1.551 -1.9169  2.8877 -1.1275
 6383SOL     OW30610   4.010   3.526  17.632 -0.1902 -0.5665  0.1820
 6383SOL    HW130611   3.937   3.576  17.596  0.8866 -0.9825 -2.5783
 6383SOL    HW230612   3.975   3.519   0.027  0.1189  2.8495  0.5529
 6384SOL     OW30613   2.084   4.036  10.866  0.3763 -0.3607 -0.4188
 6384SOL    HW130614   2.022   4.059  10.935  0.8322 -0.2627 -0.0379
 6384SOL    HW230615   2.170   4.045  10.908  0.7644  0.8555 -1.4707
 6385SOL     OW30616   2.474   3.140  11.875  0.3604 -0.3196  0.5751
 6385SOL    HW130617   2.484   3.104  11.787  1.5927  1.3801  0.0134
 6385SOL    HW230618   2.546   3.202  11.886 -0.0944 -0.3370  3.6983
 6386SOL     OW30619   3.529   0.595  15.463  0.5730 -0.7818  0.2243
 6386SOL    HW130620   3.493   0.559  15.544 -0.7987  1.0513  0.4413
 6386SOL    HW230621   3.506   0.525  15.402 -1.2428 -0.8247  0.9411
 6387SOL     OW30622   3.683   1.791  14.482  0.2604 -0.0527  0.1083
 6387SOL    HW130623   3.697   1.761  14.392  2.4534 -2.6362  1.3048
 6387SOL    HW230624   3.750   1.860  14.484 -0.3244  0.5168 -0.2026
 6388SOL     OW30625   2.468   0.369  10.152 -0.8434 -0.4920 -0.2229
 6388SOL    HW130626   2.506   0.417  10.077  3.3422  0.4211  2.4784
 6388SOL    HW230627   2.390   0.336  10.108 -2.1802 -0.3726  2.0842
 6389SOL     OW30628   4.340   4.601   8.657 -0.3325 -0.5978  0.1593
 6389SOL    HW130629   4.435   4.608   8.663 -0.3022 -0.8192 -0.0726
 6389SOL    HW230630   4.318   4.604   8.750 -1.2315  1.2006 -0.1122
 6390SOL     OW30631   1.824   2.550  13.263  0.2629 -0.3675  0.2646
 6390SOL    HW130632   1.894   2.615  13.262 -1.3036  1.2908 -0.7569
 6390SOL    HW230633   1.820   2.535  13.358 -0.0141 -1.1468  0.1309
 6391SOL     OW30634   2.351   0.463  17.282 -0.2782  0.3738 -0.2578
 6391SOL    HW130635   2.375   0.451  17.190 -1.7525 -0.4696 -0.5264
 6391SOL    HW230636   2.268   0.504  17.260 -1.4584 -1.4665  0.7505
 6392SOL     OW30637   2.363   3.653  12.986  0.1735 -0.9218 -0.7170
 6392SOL    HW130638   2.375   3.735  12.938 -1.4648 -0.1522  0.1944
 6392SOL    HW230639   2.437   3.608  12.945 -0.1248 -2.3845  0.3635
 6393SOL     OW30640   1.110   2.397   8.526  0.4551 -0.0985  0.6089
 6393SOL    HW130641   1.041   2.329   8.526  0.3408  0.0248  1.4020
 6393SOL    HW230642   1.183   2.347   8.489  0.0181 -0.3593  0.0853
 6394SOL     OW30643   1.972   2.315   1.602  1.0019  0.5105  0.2690
 6394SOL    HW130644   1.891   2.273   1.631  1.1900  0.4368  0.6976
 6394SOL    HW230645   1.966   2.396   1.653  1.1646 -0.2449  1.4891
 6395SOL     OW30646   0.083   1.570   2.576  0.5038 -0.5540  0.4630
 6395SOL    HW130647   0.171   1.585   2.540 -0.6616 -0.4308 -2.2568
 6395SOL    HW230648   0.073   1.476   2.568 -2.0244 -0.3113  0.9111
 6396SOL     OW30649   2.798   4.263  13.703  0.6547  0.6350 -0.3122
 6396SOL    HW130650   2.736   4.335  13.714 -0.8430 -0.6949  0.0525
 6396SOL    HW230651   2.878   4.316  13.701  1.5590 -0.6804  1.1641
 6397SOL     OW30652   2.111   1.133   8.183 -0.4442  0.0370  0.0719
 6397SOL    HW130653   2.087   1.048   8.146  0.8302 -1.1805  1.9869
 6397SOL    HW230654   2.028   1.178   8.170 -0.4964 -0.3230 -0.8581
 6398SOL     OW30655   3.330   4.215   4.432  0.2693  0.1048 -0.7004
 6398SOL    HW130656   3.310   4.121   4.438  1.9583 -0.1162  1.7293
 6398SOL    HW230657   3.422   4.216   4.459 -1.1547 -0.3083  4.1219
 6399SOL     OW30658   1.570   0.032   2.844  0.7757  0.9895  0.1168
 6399SOL    HW130659   1.492   4.701   2.845  0.2980  1.6309 -2.7608
 6399SOL    HW230660   1.530   0.113   2.811 -0.0381  0.8081  0.6786
 6400SOL     OW30661   1.399   0.011   8.979  0.6032  0.6942  0.0592
 6400SOL    HW130662   1.466   4.699   9.038 -3.3964  0.9060  4.6697
 6400SOL    HW230663   1.425   4.702   8.893  1.7045 -0.8030  0.9479
 6401SOL     OW30664   0.303   1.446   9.059  0.4010 -0.3747  0.2832
 6401SOL    HW130665   0.325   1.474   8.970  1.8482  1.7401  1.3056
 6401SOL    HW230666   0.246   1.370   9.050 -1.7993  1.1360  1.6183
 6402SOL     OW30667   2.199   0.646   5.719  0.3984  0.2533  0.2722
 6402SOL    HW130668   2.260   0.610   5.784  2.0739  0.1700 -1.3515
 6402SOL    HW230669   2.168   0.561   5.692 -0.6163  0.3623  1.1035
 6403SOL     OW30670   4.314   1.186   6.127  0.3075  0.1090 -0.3772
 6403SOL    HW130671   4.365   1.224   6.200 -0.5827 -0.5174  0.5722
 6403SOL    HW230672   4.345   1.095   6.132  1.1761  0.3436 -1.3665
 6404SOL     OW30673   0.845   0.083   6.244  0.6693 -0.3274  0.4286
 6404SOL    HW130674   0.760   0.056   6.276 -0.7879  2.9716 -0.6086
 6404SOL    HW230675   0.884   0.007   6.201 -1.2357 -0.9377 -0.1743
 6405SOL     OW30676   4.567   4.209   8.398  0.1921  0.6114 -0.4179
 6405SOL    HW130677   4.541   4.137   8.341  0.8571 -1.5565  2.0685
 6405SOL    HW230678   4.482   4.251   8.411  0.3357  1.5272 -2.4219
 6406SOL     OW30679   1.936   4.017   5.858  0.4744  0.3701  0.0332
 6406SOL    HW130680   1.983   4.005   5.941 -0.3778 -0.7127  0.3659
 6406SOL    HW230681   1.966   3.938   5.814  1.9548  0.1207  1.4719
 6407SOL     OW30682   3.078   3.983  11.337 -0.0635  0.2978 -0.0031
 6407SOL    HW130683   3.082   4.013  11.428  0.9323 -0.3547  0.1690
 6407SOL    HW230684   3.156   4.024  11.300 -0.6598  0.3566 -1.2025
 6408SOL     OW30685   0.913   1.517   9.476 -0.3505 -0.2517 -0.5812
 6408SOL    HW130686   0.876   1.523   9.388  0.0230 -1.1071 -0.7906
 6408SOL    HW230687   1.003   1.544   9.459 -0.4907 -0.4011 -1.5493
 6409SOL     OW30688   0.399   4.222  17.681  0.1181 -0.6999 -0.0490
 6409SOL    HW130689   0.364   4.156   0.046  0.6093  0.1792  1.2423
 6409SOL    HW230690   0.344   4.294   0.018  0.0784 -0.9483  0.4565
 6410SOL     OW30691   2.969   1.453   9.319 -0.2318  0.3423 -0.3396
 6410SOL    HW130692   2.932   1.540   9.305 -0.5926  0.4185  1.0499
 6410SOL    HW230693   3.053   1.469   9.362 -1.1931  0.8324  1.3492
 6411SOL     OW30694   3.322   3.091   1.927 -0.2782 -0.3817 -0.0566
 6411SOL    HW130695   3.335   3.186   1.924 -2.9409 -0.1156 -3.0185
 6411SOL    HW230696   3.388   3.072   1.860 -0.2575 -0.1977 -0.0889
 6412SOL     OW30697   2.753   1.865   1.876 -0.2761 -0.1192 -0.6789
 6412SOL    HW130698   2.771   1.916   1.797  1.6080  0.1418 -0.0899
 6412SOL    HW230699   2.688   1.917   1.923  0.2904  0.0747 -0.1002
 6413SOL     OW30700   0.924   1.080   3.104 -0.1707 -0.0200  0.6346
 6413SOL    HW130701   0.831   1.067   3.123  0.1023 -1.1685  1.1914
 6413SOL    HW230702   0.938   1.015   3.036 -0.8646 -1.5813  2.0003
 6414SOL     OW30703   3.728   2.434   6.100  0.4829  0.1232 -0.4494
 6414SOL    HW130704   3.686   2.512   6.064 -1.8519 -1.2683 -0.7176
 6414SOL    HW230705   3.813   2.473   6.119 -0.8349  3.4536 -1.4631
 6415SOL     OW30706   0.082   4.177   5.051  0.2616  0.0353  0.2214
 6415SOL    HW130707   0.075   4.239   5.124  1.2254 -1.2861  1.4299
 6415SOL    HW230708   4.722   4.131   5.066  0.3947  0.0738  1.0857
 6416SOL     OW30709   1.614   4.073  11.769  0.1418 -0.0091 -0.6334
 6416SOL    HW130710   1.629   4.131  11.844 -0.1041  0.4320 -0.9298
 6416SOL    HW230711   1.605   3.988  11.813 -2.2930  0.1692 -0.7857
 6417SOL     OW30712   0.593   3.462   9.539  0.2041  0.0803 -0.9123
 6417SOL    HW130713   0.623   3.409   9.613 -0.8597  0.6443 -0.0693
 6417SOL    HW230714   0.548   3.525   9.596 -0.4625  0.2568 -1.6358
 6418SOL     OW30715   1.563   4.423  14.183  0.7594  0.0771  0.4312
 6418SOL    HW130716   1.570   4.408  14.089  0.1610 -0.4429  0.4731
 6418SOL    HW230717   1.477   4.387  14.203  2.5670 -4.0178  1.0127
 6419SOL     OW30718   1.865   1.989   8.937  0.0557  0.4683 -0.2858
 6419SOL    HW130719   1.958   2.009   8.927  0.6146 -0.9731  1.9889
 6419SOL    HW230720   1.822   2.070   8.909 -0.3856  0.0718 -0.7609
 6420SOL     OW30721   3.660   4.522   4.358  0.3018  0.0264 -0.6625
 6420SOL    HW130722   3.672   4.616   4.345 -1.9748  0.2987 -0.7896
 6420SOL    HW230723   3.579   4.531   4.408  0.4379 -0.0061 -0.4355
 6421SOL     OW30724   3.754   4.644  11.804 -0.4625 -0.0159 -0.2054
 6421SOL    HW130725   3.789   4.581  11.742  1.3874  2.0782 -1.2671
 6421SOL    HW230726   3.676   4.657  11.749 -0.5147  2.2656  0.4047
 6422SOL     OW30727   0.738   2.483  14.969 -0.1763 -0.0562  0.8826
 6422SOL    HW130728   0.664   2.433  14.934  1.3298 -1.5770 -0.1384
 6422SOL    HW230729   0.723   2.567  14.924  0.2125  0.1471  1.1295
 6423SOL     OW30730   0.792   1.006   4.683  0.3782 -0.6236  0.1717
 6423SOL    HW130731   0.733   0.995   4.609  2.1867 -3.3770 -0.8579
 6423SOL    HW230732   0.860   0.944   4.655  0.6134 -1.0219  1.6248
 6424SOL     OW30733   1.424   4.480   5.770 -0.4624  0.0543 -0.3096
 6424SOL    HW130734   1.432   4.541   5.844  0.2926  1.0650 -1.2156
 6424SOL    HW230735   1.337   4.441   5.770  0.3743 -1.8184 -3.0731
 6425SOL     OW30736   1.792   0.010  10.819  0.4269 -0.1325 -0.3008
 6425SOL    HW130737   1.724   0.051  10.872  3.2041  1.1748  2.2586
 6425SOL    HW230738   1.753   0.014  10.732 -2.3512 -1.2559  0.8974
 6426SOL     OW30739   4.253   3.988   7.426  0.1385  0.0198  0.3524
 6426SOL    HW130740   4.244   3.923   7.356 -0.6479 -0.2080  0.6656
 6426SOL    HW230741   4.206   4.060   7.383  0.0505  0.0994  0.5831
 6427SOL     OW30742   1.074   1.072  13.642 -0.1698 -0.4312  0.0096
 6427SOL    HW130743   1.042   1.155  13.606 -2.7166 -0.7281  1.6053
 6427SOL    HW230744   1.081   1.102  13.732 -0.3030  1.8866 -0.7428
 6428SOL     OW30745   3.327   4.156   7.603 -0.1048 -0.4080 -0.4116
 6428SOL    HW130746   3.301   4.066   7.625 -0.5687 -0.1696  0.0152
 6428SOL    HW230747   3.349   4.158   7.510 -0.3024  0.0297 -0.4494
 6429SOL     OW30748   1.270   3.080   9.088  0.4008  0.3189 -0.3347
 6429SOL    HW130749   1.273   3.145   9.157  2.6072  1.6370 -1.6891
 6429SOL    HW230750   1.322   3.004   9.112  0.8780  0.8791  0.3604
 6430SOL     OW30751   4.439   2.307   6.846  0.1924  0.5513 -0.0597
 6430SOL    HW130752   4.348   2.336   6.855 -0.3149 -2.1495  3.6799
 6430SOL    HW230753   4.472   2.375   6.788  2.0716 -1.1709 -1.0527
 6431SOL     OW30754   0.528   0.836   8.245 -0.9952 -0.4606 -0.2328
 6431SOL    HW130755   0.607   0.889   8.248 -0.3247 -1.5919  1.8138
 6431SOL    HW230756   0.494   0.825   8.333  1.5063 -1.4364  0.5947
 6432SOL     OW30757   3.301   2.252   5.815  0.2908  0.5322  0.2987
 6432SOL    HW130758   3.371   2.277   5.876  1.0733 -0.5104 -0.1656
 6432SOL    HW230759   3.235   2.245   5.884  1.5587  3.5822  1.8399
 6433SOL     OW30760   0.030   1.431   2.902 -0.3646 -0.7716  0.4604
 6433SOL    HW130761   0.037   1.384   2.819 -2.2155 -2.3971  1.2267
 6433SOL    HW230762   4.663   1.463   2.897  0.2892  0.9281 -0.2422
 6434SOL     OW30763   0.265   3.742   0.045  0.8836 -0.6761 -0.3287
 6434SOL    HW130764   0.206   3.674   0.079  0.0422 -0.8871 -2.2189
 6434SOL    HW230765   0.237   3.737  17.648  2.5322  2.6773 -1.0054
 6435SOL     OW30766   3.657   0.389   1.872  0.1934 -0.0732 -0.1651
 6435SOL    HW130767   3.713   0.411   1.947  2.0173  0.0954 -1.5671
 6435SOL    HW230768   3.736   0.375   1.818 -1.5272 -2.2738 -2.1153
 6436SOL     OW30769   0.806   1.604   6.326  0.5608  0.2095 -0.6981
 6436SOL    HW130770   0.762   1.520   6.335  0.5655  0.1996 -0.7726
 6436SOL    HW230771   0.766   1.647   6.401  1.8340  1.3433 -0.6645
 6437SOL     OW30772   1.668   0.125  11.136 -0.1106 -0.3032 -0.6119
 6437SOL    HW130773   1.603   0.074  11.185 -1.0178  0.6471 -0.8312
 6437SOL    HW230774   1.733   0.123  11.206  1.1438  2.9502 -1.7131
 6438SOL     OW30775   0.762   3.111   2.945  0.6091 -0.5030  0.3334
 6438SOL    HW130776   0.789   3.056   2.872 -1.2449 -0.1090 -0.6510
 6438SOL    HW230777   0.848   3.122   2.985  1.0289  0.0075 -0.7159
 6439SOL     OW30778   4.614   2.264   9.091  0.0588  0.0044  0.0133
 6439SOL    HW130779   4.609   2.259   9.186 -0.6835  1.5680  0.0579
 6439SOL    HW230780   4.524   2.292   9.075 -0.2641 -0.7173  0.5734
 6440SOL     OW30781   4.096   1.600   5.571 -0.3196 -0.1453  0.7129
 6440SOL    HW130782   4.069   1.583   5.661  0.4835 -0.3288  0.9242
 6440SOL    HW230783   4.178   1.649   5.579 -0.9936  0.8741  1.2704
 6441SOL     OW30784   2.040   0.191   1.990 -0.1831 -0.2032 -0.3025
 6441SOL    HW130785   2.004   0.103   1.992  0.4557 -0.4943 -1.5793
 6441SOL    HW230786   2.022   0.215   2.081 -1.8318 -1.6509 -0.2573
 6442SOL     OW30787   1.305   2.840   3.402  0.4200  0.0808 -0.5425
 6442SOL    HW130788   1.368   2.786   3.448 -0.3922 -1.4785 -1.2512
 6442SOL    HW230789   1.318   2.925   3.444  2.1003 -0.7257  0.5456
 6443SOL     OW30790   0.036   0.792   2.739 -0.1446  0.0543 -0.1001
 6443SOL    HW130791   0.094   0.744   2.680 -0.9857  0.8059 -1.5235
 6443SOL    HW230792   0.090   0.869   2.761 -0.1128  0.7097 -2.5088
 6444SOL     OW30793   3.568   4.093   4.095 -0.7450 -0.0002  0.3566
 6444SOL    HW130794   3.588   4.002   4.119 -1.2768 -0.6317 -1.5956
 6444SOL    HW230795   3.631   4.145   4.145 -1.5017  0.1354  1.1683
 6445SOL     OW30796   3.825   2.240  10.996  0.1938 -0.0485 -0.4382
 6445SOL    HW130797   3.852   2.196  10.916 -0.1480 -1.5518  0.2732
 6445SOL    HW230798   3.757   2.297  10.962  0.8512  1.1372  0.2249
 6446SOL     OW30799   2.000   3.162   8.719 -0.4803 -0.0008 -0.5963
 6446SOL    HW130800   2.014   3.067   8.726  0.6715  0.1233 -1.1010
 6446SOL    HW230801   1.911   3.160   8.753  0.5260  1.4246  2.0866
 6447SOL     OW30802   1.888   3.211   5.611 -0.1681 -0.6103 -0.0392
 6447SOL    HW130803   1.960   3.266   5.581 -2.2123  0.4110 -3.0848
 6447SOL    HW230804   1.834   3.272   5.662  0.2134 -0.3539  0.0599
 6448SOL     OW30805   4.538   0.333   1.143 -0.1167  0.5385 -0.0873
 6448SOL    HW130806   4.479   0.313   1.215 -0.3494 -0.2668 -0.5036
 6448SOL    HW230807   4.621   0.339   1.191 -0.3049 -0.8471  0.4177
 6449SOL     OW30808   1.295   1.955  13.939  0.5604  0.5429  0.6599
 6449SOL    HW130809   1.263   2.039  13.905 -0.0397  0.2410  0.4747
 6449SOL    HW230810   1.298   1.977  14.032  1.6938 -0.0288  0.7615
 6450SOL     OW30811   0.829   4.476   5.291  0.2289  0.0147 -0.1494
 6450SOL    HW130812   0.817   4.397   5.237 -1.6068  0.6670 -0.6674
 6450SOL    HW230813   0.846   4.546   5.228  0.5640 -0.1018 -0.1915
 6451SOL     OW30814   2.619   2.428   7.050  0.5225 -0.3382 -0.0431
 6451SOL    HW130815   2.671   2.405   7.127 -2.1909 -0.1359  1.8464
 6451SOL    HW230816   2.531   2.407   7.079  1.5919 -1.8338  2.1130
 6452SOL     OW30817   3.447   1.959  14.902  0.3703 -0.0592  0.1250
 6452SOL    HW130818   3.381   1.890  14.911  0.1835  0.0866 -0.1719
 6452SOL    HW230819   3.531   1.914  14.910 -0.1405 -1.0831 -0.3021
 6453SOL     OW30820   2.413   3.813   5.062  0.5307  0.3298 -0.5317
 6453SOL    HW130821   2.326   3.851   5.076  1.0852  1.6755 -0.7134
 6453SOL    HW230822   2.394   3.762   4.983  0.0608 -0.2255 -0.0532
 6454SOL     OW30823   4.296   3.477   6.726  0.0324 -0.1791 -0.4666
 6454SOL    HW130824   4.304   3.407   6.662  0.8082 -0.3841 -0.1512
 6454SOL    HW230825   4.385   3.481   6.763 -0.7915 -0.4267  1.5469
 6455SOL     OW30826   2.614   1.919   6.928 -0.1792  0.3054 -0.5612
 6455SOL    HW130827   2.664   1.993   6.961  0.5624 -0.3741 -0.1324
 6455SOL    HW230828   2.530   1.958   6.905 -1.6038 -2.0456  0.5300
 6456SOL     OW30829   2.542   1.584   4.390  0.3439 -0.1654 -0.0499
 6456SOL    HW130830   2.447   1.593   4.382  0.2746  0.2120  1.2863
 6456SOL    HW230831   2.563   1.627   4.306 -0.6886  2.0723  0.8305
 6457SOL     OW30832   4.658   0.814  16.553  0.7736 -0.1541  0.0784
 6457SOL    HW130833   4.689   0.816  16.462 -0.6554  0.1114 -0.3958
 6457SOL    HW230834   4.666   0.907  16.577  0.4060  0.1876 -1.1067
 6458SOL     OW30835   3.586   3.679   6.978 -0.0153  0.2472  0.1991
 6458SOL    HW130836   3.663   3.695   7.033  0.4627  1.7176 -0.8665
 6458SOL    HW230837   3.598   3.750   6.914  1.3649 -1.3249 -1.2862
 6459SOL     OW30838   2.954   2.562   8.181  0.4698  0.8773  0.3443
 6459SOL    HW130839   3.030   2.541   8.236 -0.7115  0.1183  1.7020
 6459SOL    HW230840   2.933   2.651   8.209 -0.1926  0.2028  1.9797
 6460SOL     OW30841   1.916   3.908   4.711  0.0687  0.4317 -0.3580
 6460SOL    HW130842   1.904   3.978   4.647  0.4876 -1.0149 -2.0295
 6460SOL    HW230843   1.940   3.954   4.791 -0.3472 -1.5655  0.9244
 6461SOL     OW30844   4.113   2.249  13.506 -0.2535  0.6974 -0.2011
 6461SOL    HW130845   4.097   2.326  13.560 -1.6121 -0.1001  0.5324
 6461SOL    HW230846   4.207   2.236  13.503 -0.5018 -0.8050 -1.8777
 6462SOL     OW30847   3.881   3.538   6.883 -0.4027  0.6826  0.3242
 6462SOL    HW130848   3.838   3.469   6.833 -1.2984  2.3512 -1.2281
 6462SOL    HW230849   3.934   3.483   6.940  0.4573  1.9784  0.7889
 6463SOL     OW30850   0.878   3.332  16.815  0.0029 -0.0144 -0.0155
 6463SOL    HW130851   0.860   3.403  16.877  1.1107 -1.0991  1.5411
 6463SOL    HW230852   0.913   3.384  16.743  0.9242 -0.4916  0.0845
 6464SOL     OW30853   1.860   3.532  15.909 -0.1361  0.4198  0.1631
 6464SOL    HW130854   1.809   3.519  15.988  1.3195 -0.9711  0.8725
 6464SOL    HW230855   1.893   3.622  15.919  1.9410 -0.1434 -1.5866
 6465SOL     OW30856   3.264   3.352   1.073  0.0003  0.4167  0.1314
 6465SOL    HW130857   3.322   3.280   1.049 -0.8093 -0.6904  1.4450
 6465SOL    HW230858   3.186   3.312   1.111  0.2157 -0.3831 -0.2857
 6466SOL     OW30859   0.838   2.542   3.611 -0.1140 -0.2282 -0.1519
 6466SOL    HW130860   0.903   2.509   3.548 -0.5942 -2.7320  0.6323
 6466SOL    HW230861   0.857   2.496   3.693 -0.4503 -1.7221 -0.9084
 6467SOL     OW30862   1.616   4.004   3.152 -0.2083 -0.2264 -0.5622
 6467SOL    HW130863   1.548   4.068   3.131 -0.9126 -1.2070 -1.2402
 6467SOL    HW230864   1.646   3.973   3.067 -1.7759 -4.2027  0.3242
 6468SOL     OW30865   3.735   0.263  10.643 -0.7293  0.5059  0.7273
 6468SOL    HW130866   3.802   0.288  10.580  0.3906  0.0174  1.7197
 6468SOL    HW230867   3.659   0.267  10.584 -1.9412 -2.3987  2.0848
 6469SOL     OW30868   2.393   0.681   7.816 -0.1191  0.1645  0.2326
 6469SOL    HW130869   2.452   0.747   7.853 -2.0324  1.7818  0.4537
 6469SOL    HW230870   2.336   0.671   7.892  0.2114  0.0189  0.4597
 6470SOL     OW30871   3.327   3.597   9.534  0.4826  0.0127 -0.6312
 6470SOL    HW130872   3.313   3.565   9.444  0.8090  0.0341 -0.6909
 6470SOL    HW230873   3.389   3.528   9.559  0.1811  0.1511  0.4725
 6471SOL     OW30874   0.067   3.283  10.709  0.1421 -1.0957  0.0901
 6471SOL    HW130875   0.077   3.301  10.615  4.4157  0.9106  0.9361
 6471SOL    HW230876   0.103   3.194  10.701 -0.2842 -1.2703  0.1532
 6472SOL     OW30877   0.756   2.764  15.214 -0.6135 -0.0425 -0.5296
 6472SOL    HW130878   0.799   2.788  15.297 -0.0046 -0.3623 -0.7485
 6472SOL    HW230879   0.779   2.832  15.151 -3.8662 -0.1121 -1.7877
 6473SOL     OW30880   2.107   4.474   9.566  0.0922  1.3190  0.0866
 6473SOL    HW130881   2.066   4.400   9.611  0.5222  2.2563  2.0209
 6473SOL    HW230882   2.163   4.435   9.499  0.3886 -0.2184  1.2230
 6474SOL     OW30883   2.707   2.688  13.325 -0.1925 -0.0682  0.3809
 6474SOL    HW130884   2.689   2.779  13.302 -1.5816 -1.5381 -4.2802
 6474SOL    HW230885   2.622   2.649  13.346  0.3004 -2.5503 -2.2016
 6475SOL     OW30886   2.245   2.978   5.229  0.5638 -0.0892 -0.2453
 6475SOL    HW130887   2.156   2.990   5.198  0.9187  1.1382 -0.7794
 6475SOL    HW230888   2.288   3.062   5.215  0.1468  0.0707 -0.5248
 6476SOL     OW30889   2.422   2.349   0.273  0.1743 -0.5454  0.5186
 6476SOL    HW130890   2.449   2.257   0.279 -3.0752 -1.6995 -2.5504
 6476SOL    HW230891   2.342   2.332   0.223 -0.4817 -1.6315  1.9357
 6477SOL     OW30892   2.334   1.270  15.476 -0.2191  0.5228  0.1573
 6477SOL    HW130893   2.284   1.344  15.511  0.6025  1.2771 -0.2737
 6477SOL    HW230894   2.269   1.203  15.453 -0.2910  0.1777  1.3559
 6478SOL     OW30895   0.391   1.652   4.535 -0.1071 -0.4860 -0.0798
 6478SOL    HW130896   0.400   1.689   4.623  2.4543 -2.0442  0.3187
 6478SOL    HW230897   0.377   1.737   4.493 -1.2187 -0.5441  0.1604
 6479SOL     OW30898   3.425   3.125   7.625  0.2018 -0.1344  0.2238
 6479SOL    HW130899   3.518   3.148   7.631  0.0509  0.5717 -0.1568
 6479SOL    HW230900   3.395   3.212   7.600  2.9556  1.1595  1.4519
 6480SOL     OW30901   3.260   4.206   2.449  0.0445 -0.4408  0.0100
 6480SOL    HW130902   3.213   4.289   2.442 -2.1892 -1.6641  0.4598
 6480SOL    HW230903   3.207   4.155   2.510 -1.0684 -0.2419 -0.7689
 6481SOL     OW30904   4.534   3.946   8.977  0.6252  0.7138  0.1381
 6481SOL    HW130905   4.549   4.041   8.980 -0.3561  0.8451  0.7026
 6481SOL    HW230906   4.592   3.913   9.046  0.0852  1.9078  1.1624
 6482SOL     OW30907   3.260   1.549   6.061  0.1436 -0.2940  0.0365
 6482SOL    HW130908   3.213   1.490   6.120 -1.5368  1.2487  0.2470
 6482SOL    HW230909   3.209   1.539   5.981 -0.0490 -1.1458  0.2618
 6483SOL     OW30910   0.931   1.762   3.009 -0.0021  0.0793 -0.1802
 6483SOL    HW130911   0.855   1.763   3.067 -0.6718  0.2719 -1.0611
 6483SOL    HW230912   0.924   1.851   2.974 -1.1546 -0.7080 -1.9120
 6484SOL     OW30913   2.685   0.480   8.599 -0.0486  0.8578 -0.0882
 6484SOL    HW130914   2.769   0.475   8.644 -0.6137 -2.4108  0.6050
 6484SOL    HW230915   2.696   0.405   8.540 -0.0273  2.8052 -2.5754
 6485SOL     OW30916   0.946   3.059   5.248 -0.8098  0.4041 -0.1123
 6485SOL    HW130917   1.021   3.022   5.294  0.3370  1.3322 -1.1987
 6485SOL    HW230918   0.916   2.994   5.185 -0.4880 -0.6208  0.7973
 6486SOL     OW30919   3.266   3.527   5.178 -0.4379  0.5100  0.1043
 6486SOL    HW130920   3.293   3.435   5.184 -0.7252  0.3744 -0.7040
 6486SOL    HW230921   3.350   3.571   5.192 -0.7249  1.2991 -0.6874
 6487SOL     OW30922   2.633   2.157  16.674  0.4517  0.6919 -0.8448
 6487SOL    HW130923   2.542   2.184  16.690 -0.2711 -1.8660 -0.5616
 6487SOL    HW230924   2.619   2.081  16.618  1.8337  1.4037 -2.1618
 6488SOL     OW30925   1.849   1.564  15.131  0.1309  0.4495 -0.0181
 6488SOL    HW130926   1.797   1.619  15.073 -1.1964  0.4643  1.1855
 6488SOL    HW230927   1.935   1.603  15.119  0.8552 -0.5883  1.8674
 6489SOL     OW30928   4.536   2.686   6.468  0.6298 -0.1480  0.1994
 6489SOL    HW130929   4.449   2.719   6.450  0.7623  0.2774  0.3296
 6489SOL    HW230930   4.497   2.624   6.529 -1.2551 -0.6939 -1.5772
 6490SOL     OW30931   1.125   1.969  14.427 -0.2258 -0.3788 -0.4008
 6490SOL    HW130932   1.135   2.030  14.354  2.7783 -0.9029 -0.4136
 6490SOL    HW230933   1.183   1.901  14.395 -0.6167 -0.7971 -0.2155
 6491SOL     OW30934   1.057   1.428   0.652 -0.5466 -0.1339  0.2450
 6491SOL    HW130935   1.044   1.379   0.570  1.0642 -0.9452  0.4738
 6491SOL    HW230936   0.988   1.492   0.638  0.1768  0.3558 -1.1609
 6492SOL     OW30937   0.061   1.500  15.641  0.0659 -0.2841  0.5486
 6492SOL    HW130938   4.701   1.459  15.663 -0.6229 -0.0645 -1.6032
 6492SOL    HW230939   0.123   1.429  15.660  1.9700  1.3556  0.4689
 6493SOL     OW30940   1.284   0.216   5.064 -0.0018 -0.0323 -0.1928
 6493SOL    HW130941   1.255   0.301   5.029  3.6761  1.5102  0.5797
 6493SOL    HW230942   1.227   0.156   5.016 -0.5347  0.1082  0.2527
 6494SOL     OW30943   0.977   0.799   4.692 -0.3741  0.2406  0.1935
 6494SOL    HW130944   0.913   0.730   4.712  0.2820  0.4061  2.9676
 6494SOL    HW230945   1.011   0.777   4.606  0.7882  0.3676  0.6318
 6495SOL     OW30946   0.307   1.172   4.173  0.0591 -0.1200  0.0171
 6495SOL    HW130947   0.212   1.174   4.169 -0.0144 -0.5770  1.8759
 6495SOL    HW230948   0.328   1.252   4.220  1.7298 -0.2369 -0.5063
 6496SOL     OW30949   2.376   2.069  10.514 -0.5865 -0.1800  0.7733
 6496SOL    HW130950   2.462   2.107  10.498 -1.9046  1.7751 -1.8466
 6496SOL    HW230951   2.395   1.994  10.569 -0.3515  0.9453  2.2227
 6497SOL     OW30952   4.172   2.988  16.920  0.1642  0.0993  0.0825
 6497SOL    HW130953   4.084   2.987  16.881  0.4433 -0.6672 -0.5302
 6497SOL    HW230954   4.196   2.903  16.883 -0.2211 -0.0650  0.2117
 6498SOL     OW30955   3.229   1.825   0.694  0.0309  0.2597 -0.4165
 6498SOL    HW130956   3.254   1.834   0.786  0.5579  1.1918 -0.6547
 6498SOL    HW230957   3.148   1.774   0.693 -0.1031  0.5034 -2.3890
 6499SOL     OW30958   2.977   2.102   9.024  0.2691 -0.3661 -0.9598
 6499SOL    HW130959   2.911   2.169   9.039 -0.3710 -1.6627  2.0730
 6499SOL    HW230960   3.048   2.145   8.977  2.2283 -2.6203 -0.0817
 6500SOL     OW30961   4.551   0.219  17.170 -0.6610 -0.5738 -0.2029
 6500SOL    HW130962   4.527   0.127  17.178  0.3435 -0.9147 -1.0284
 6500SOL    HW230963   4.600   0.216  17.088 -0.9748  0.8212 -0.4353
 6501SOL     OW30964   1.960   2.698   8.565  0.0513 -0.7372  0.3081
 6501SOL    HW130965   1.868   2.687   8.588 -0.0714 -1.2826 -0.4709
 6501SOL    HW230966   1.986   2.606   8.552  3.7254  0.1731  1.1060
 6502SOL     OW30967   3.163   2.827   2.423 -0.0394 -0.1738 -0.1749
 6502SOL    HW130968   3.182   2.808   2.515 -0.5274 -0.6221 -0.1627
 6502SOL    HW230969   3.118   2.911   2.433 -0.1014 -0.3205  0.8248
 6503SOL     OW30970   2.582   1.695   4.889 -0.4326 -0.0474 -0.3337
 6503SOL    HW130971   2.518   1.674   4.821 -0.4906 -0.8531 -0.0344
 6503SOL    HW230972   2.647   1.628   4.868 -1.1274 -0.4064 -1.3342
 6504SOL     OW30973   3.811   4.095   2.168  0.5525  0.2713  0.0900
 6504SOL    HW130974   3.803   4.049   2.084 -1.0043 -1.0054  0.9330
 6504SOL    HW230975   3.771   4.029   2.225  1.8170 -0.7889 -0.2455
 6505SOL     OW30976   2.298   2.066   4.715  0.0796  0.4826 -0.0919
 6505SOL    HW130977   2.266   2.156   4.713 -1.2659 -0.0136 -1.3788
 6505SOL    HW230978   2.300   2.051   4.809 -1.3730  0.7564 -0.0074
 6506SOL     OW30979   1.514   2.526  13.242 -0.3346  0.4609  0.0040
 6506SOL    HW130980   1.501   2.620  13.252  2.2737  0.9451 -1.4062
 6506SOL    HW230981   1.603   2.523  13.277 -0.3692 -0.0474  0.0510
 6507SOL     OW30982   4.202   3.530   4.789 -0.5824 -0.1004  0.1362
 6507SOL    HW130983   4.200   3.569   4.701  3.1594 -1.5034 -0.5963
 6507SOL    HW230984   4.272   3.465   4.776  1.1141  1.8012 -0.2916
 6508SOL     OW30985   0.964   2.311   9.395 -0.1600 -0.3773 -0.0216
 6508SOL    HW130986   0.935   2.220   9.393  1.6254 -0.9332 -1.3655
 6508SOL    HW230987   1.055   2.286   9.414 -0.1188  0.1890  0.5325
 6509SOL     OW30988   2.684   0.090  13.753  0.4714  0.1517  0.2410
 6509SOL    HW130989   2.646   0.013  13.796 -0.3887  1.2539  1.4787
 6509SOL    HW230990   2.612   0.127  13.703  0.1803 -1.2153 -0.3371
 6510SOL     OW30991   3.983   2.497   3.601 -0.4922  0.1313  0.2333
 6510SOL    HW130992   4.013   2.409   3.624  0.2934  0.6773  1.3072
 6510SOL    HW230993   4.055   2.552   3.634 -2.0227  1.0687  1.9984
 6511SOL     OW30994   3.681   0.669  11.326 -0.0733 -0.1554  0.0419
 6511SOL    HW130995   3.617   0.605  11.294  1.0942 -1.5525  0.5032
 6511SOL    HW230996   3.751   0.609  11.354  1.3126  1.0896 -0.8082
 6512SOL     OW30997   2.075   0.479   9.419  0.2540  0.5451  0.0011
 6512SOL    HW130998   2.008   0.486   9.487  0.3584  1.4035  0.0179
 6512SOL    HW230999   2.019   0.440   9.352  0.2389 -1.3781  1.1118
 6513SOL     OW31000   1.151   1.625   9.430 -0.3678  0.1195  0.0075
 6513SOL    HW131001   1.237   1.601   9.397  0.0163  0.8115  0.5118
 6513SOL    HW231002   1.172   1.702   9.482  0.9057 -1.5855  2.0412
 6514SOL     OW31003   2.284   4.686  13.457 -0.3102 -1.0441  0.5176
 6514SOL    HW131004   2.367   4.644  13.433  0.6470  0.1633  1.7248
 6514SOL    HW231005   2.223   4.613  13.457 -0.9036 -0.5548  0.2679
 6515SOL     OW31006   0.639   3.464  16.591 -0.2393  0.7896  0.1234
 6515SOL    HW131007   0.633   3.406  16.515  0.4266  0.0663  0.6239
 6515SOL    HW231008   0.599   3.542  16.553 -0.8663  0.4624  0.1139
 6516SOL     OW31009   0.721   0.222   4.901  0.3715 -0.2470  0.2280
 6516SOL    HW131010   0.657   0.166   4.945 -0.8397  0.1161 -1.0660
 6516SOL    HW231011   0.679   0.306   4.921  2.0391  0.5035  0.5071
 6517SOL     OW31012   4.447   3.366   4.806 -0.0694 -0.5321 -0.1361
 6517SOL    HW131013   4.456   3.430   4.876  0.2452 -0.4368 -0.2635
 6517SOL    HW231014   4.445   3.285   4.857 -0.5016 -0.9820 -0.8653
 6518SOL     OW31015   0.595   1.585  11.907  0.5742  0.3543  0.1230
 6518SOL    HW131016   0.554   1.663  11.945  1.3190  0.3357  0.9436
 6518SOL    HW231017   0.630   1.619  11.825 -1.2020 -0.4718 -0.9848
 6519SOL     OW31018   3.908   3.960   2.865 -0.3902 -0.0592  0.0663
 6519SOL    HW131019   3.867   3.917   2.940  0.2947  0.0756  0.5154
 6519SOL    HW231020   3.902   3.881   2.811  0.0771 -0.6692  0.9078
 6520SOL     OW31021   0.246   3.083   5.367  0.1156  0.1014 -1.2975
 6520SOL    HW131022   0.228   3.037   5.285  1.2515 -1.3883 -0.7005
 6520SOL    HW231023   0.307   3.149   5.332  0.1392  0.9663  0.3698
 6521SOL     OW31024   3.335   0.580   9.328 -0.0527  0.1627  0.2379
 6521SOL    HW131025   3.315   0.655   9.272 -1.1705 -0.5870 -0.3814
 6521SOL    HW231026   3.302   0.607   9.413 -0.3920 -2.5269  0.9647
 6522SOL     OW31027   1.007   1.871  10.861  0.1951  0.0341 -0.3594
 6522SOL    HW131028   1.054   1.856  10.943  3.6238  1.5678 -2.0315
 6522SOL    HW231029   0.942   1.802  10.851  0.7853 -0.4841 -0.5873
 6523SOL     OW31030   2.447   4.054   5.686  0.2225 -0.1143 -0.5019
 6523SOL    HW131031   2.511   4.124   5.697 -2.2129  2.1803 -0.8157
 6523SOL    HW231032   2.440   4.055   5.591  2.1194 -1.0618 -0.6574
 6524SOL     OW31033   2.292   2.242   6.792 -0.5456 -0.0073 -0.3282
 6524SOL    HW131034   2.282   2.331   6.758 -0.7089 -0.0696 -0.4428
 6524SOL    HW231035   2.201   2.218   6.807  0.0720 -1.4908  0.9602
 6525SOL     OW31036   4.017   4.101  12.397 -0.2079 -0.1203  1.2353
 6525SOL    HW131037   3.988   4.105  12.488 -1.2127 -0.6680  0.9395
 6525SOL    HW231038   4.064   4.018  12.404 -1.4317 -0.8653  0.5414
 6526SOL     OW31039   3.842   2.498  13.259 -0.2400 -0.7684 -0.1437
 6526SOL    HW131040   3.814   2.512  13.169  0.2128 -0.0270 -0.1667
 6526SOL    HW231041   3.899   2.421  13.255 -0.8809 -1.3624  2.0503
 6527SOL     OW31042   0.376   4.619  11.115 -0.9818  0.2411 -0.0209
 6527SOL    HW131043   0.466   4.602  11.143 -1.3771  2.8047  2.7512
 6527SOL    HW231044   0.344   4.537  11.077 -0.0578 -1.2031  2.3276
 6528SOL     OW31045   1.126   4.646   4.809  0.4445 -0.0754  0.0178
 6528SOL    HW131046   1.140   4.586   4.736 -0.4189 -0.1259 -0.1053
 6528SOL    HW231047   1.040   4.682   4.787  0.6875 -0.5561 -1.6949
 6529SOL     OW31048   3.362   2.279   5.185 -0.3131 -0.3145 -0.0841
 6529SOL    HW131049   3.378   2.300   5.093 -2.6733 -0.0138 -0.4273
 6529SOL    HW231050   3.326   2.366   5.202  0.3199 -0.3432  1.3829
 6530SOL     OW31051   3.452   2.570   4.437  0.1155 -0.0305  0.3008
 6530SOL    HW131052   3.411   2.655   4.423  4.1249  1.9362  0.4633
 6530SOL    HW231053   3.503   2.563   4.356 -0.7737 -1.3174 -0.1436
 6531SOL     OW31054   2.572   2.814  10.687 -0.1769  0.6526  0.3423
 6531SOL    HW131055   2.518   2.818  10.608  1.3906  0.5911 -0.7348
 6531SOL    HW231056   2.516   2.823  10.764 -2.7202 -2.2422 -1.1454
 6532SOL     OW31057   3.275   2.204   2.227  0.6509  0.1625  0.1693
 6532SOL    HW131058   3.330   2.281   2.212 -1.1086  1.4415  0.2436
 6532SOL    HW231059   3.341   2.147   2.267 -0.6255  0.4034  2.6322
 6533SOL     OW31060   4.322   2.520  17.569  0.3740 -0.5139 -0.2728
 6533SOL    HW131061   4.403   2.558  17.535 -0.6324  1.1658 -0.8484
 6533SOL    HW231062   4.251   2.551  17.512  0.8417 -0.1388 -0.6530
 6534SOL     OW31063   4.055   1.217   6.014  0.3182  0.0536  0.5361
 6534SOL    HW131064   4.059   1.312   6.017  0.6314  0.0220  1.0064
 6534SOL    HW231065   4.134   1.187   6.059  0.2335 -0.3039  0.4505
 6535SOL     OW31066   2.987   1.744   1.932 -0.0838  0.2517  0.2218
 6535SOL    HW131067   2.957   1.664   1.889 -1.9659  1.5118 -0.8097
 6535SOL    HW231068   2.906   1.790   1.910  0.6247  1.1174 -0.5934
 6536SOL     OW31069   1.147   4.339   1.713 -0.0909 -0.1111  0.2568
 6536SOL    HW131070   1.235   4.303   1.724 -0.2292 -0.7136 -0.6924
 6536SOL    HW231071   1.117   4.297   1.633  1.2176  1.2525 -0.9397
 6537SOL     OW31072   4.240   2.482   2.260 -0.0866  0.2878  0.0522
 6537SOL    HW131073   4.176   2.434   2.208 -0.5617 -1.4996  2.2762
 6537SOL    HW231074   4.225   2.463   2.353  0.2549  0.7578  0.2069
 6538SOL     OW31075   3.158   2.640   0.589  0.8024  0.0972  0.3750
 6538SOL    HW131076   3.203   2.565   0.628 -1.3075 -1.2401  0.1981
 6538SOL    HW231077   3.085   2.636   0.650  0.1245  1.3754 -0.3554
 6539SOL     OW31078   3.993   0.697   7.794 -0.2622  0.3652 -0.2830
 6539SOL    HW131079   3.914   0.732   7.753  0.5381  0.1447 -1.9949
 6539SOL    HW231080   4.066   0.746   7.757  0.4423 -1.0506 -0.7548
 6540SOL     OW31081   1.779   4.432   7.389 -0.3267 -0.0856  0.0686
 6540SOL    HW131082   1.804   4.375   7.316  1.0571 -0.1123  0.5576
 6540SOL    HW231083   1.860   4.482   7.400 -0.0574 -0.4588 -0.1750
 6541SOL     OW31084   4.004   3.547   7.888 -0.2282 -0.3380  0.3672
 6541SOL    HW131085   3.960   3.630   7.868 -0.5858 -0.9225 -1.2738
 6541SOL    HW231086   3.963   3.508   7.966 -0.7007 -1.7739 -0.6059
 6542SOL     OW31087   0.520   0.469   4.594 -0.1639  0.3512 -0.1631
 6542SOL    HW131088   0.531   0.533   4.524  1.6163 -3.4762 -3.3425
 6542SOL    HW231089   0.548   0.386   4.558 -0.0006 -1.4548  4.1451
 6543SOL     OW31090   1.908   0.562   4.356  0.9592 -0.3217 -0.4856
 6543SOL    HW131091   1.927   0.542   4.264  0.9616  0.0138 -0.5556
 6543SOL    HW231092   1.848   0.492   4.383 -1.2066  3.0552  3.4825
 6544SOL     OW31093   4.356   0.156   2.939  0.1177 -0.2933  0.6879
 6544SOL    HW131094   4.274   0.171   2.986  0.9025  2.0642  1.3050
 6544SOL    HW231095   4.421   0.177   3.006  0.0364 -0.9911  0.9850
 6545SOL     OW31096   3.830   2.836  12.088 -0.0143 -0.1407 -0.2386
 6545SOL    HW131097   3.883   2.853  12.010  0.5255 -0.2272  0.1144
 6545SOL    HW231098   3.859   2.745  12.096 -0.1371 -0.1277  0.3548
 6546SOL     OW31099   2.082   1.046   4.389 -0.0999  0.7109 -0.0490
 6546SOL    HW131100   2.020   1.041   4.317 -1.2189 -0.0372  0.9709
 6546SOL    HW231101   2.050   1.126   4.430 -1.3943  0.6439 -0.9516
 6547SOL     OW31102   4.135   3.570   1.051 -0.3324  0.3286  0.2734
 6547SOL    HW131103   4.065   3.505   1.056 -0.9085  0.8320 -1.3296
 6547SOL    HW231104   4.122   3.633   1.122 -0.8073 -0.0138  0.4967
 6548SOL     OW31105   0.542   2.241  14.519  0.4011  0.0545  0.4425
 6548SOL    HW131106   0.551   2.271  14.429  0.6193  0.4057  0.5797
 6548SOL    HW231107   0.628   2.215  14.553 -0.2878 -0.8825  1.4730
 6549SOL     OW31108   1.976   1.231   7.391  0.3416  0.3266  0.3884
 6549SOL    HW131109   2.003   1.141   7.374  2.3171  1.0434 -0.3395
 6549SOL    HW231110   1.882   1.226   7.375  0.3117 -2.7113  1.6779
 6550SOL     OW31111   1.451   1.887  13.720  0.0107 -0.2871  0.2737
 6550SOL    HW131112   1.446   1.792  13.729  1.2027 -0.3454  0.3068
 6550SOL    HW231113   1.374   1.908  13.772 -1.3631  0.5207 -2.1391
 6551SOL     OW31114   2.777   4.015   6.406 -0.4119 -0.2481  0.2695
 6551SOL    HW131115   2.850   3.988   6.461 -1.2758 -2.5502  0.2839
 6551SOL    HW231116   2.720   3.940   6.424 -1.2924  0.5232  0.6906
 6552SOL     OW31117   3.394   4.123   6.893  0.3884 -0.3107 -0.0216
 6552SOL    HW131118   3.370   4.188   6.960 -2.3502  0.3107 -1.6010
 6552SOL    HW231119   3.424   4.170   6.815 -0.2854 -1.6505 -1.0891
 6553SOL     OW31120   4.183   3.592  13.671 -0.0388 -0.3589  0.0089
 6553SOL    HW131121   4.250   3.656  13.694  0.5722 -1.1401  0.3962
 6553SOL    HW231122   4.112   3.618  13.731 -0.7727  1.2840 -1.5674
 6554SOL     OW31123   3.902   1.680  11.361 -0.2396  0.5285 -0.4267
 6554SOL    HW131124   3.984   1.669  11.313 -0.5261 -1.4562 -0.4680
 6554SOL    HW231125   3.903   1.604  11.420 -0.6980 -0.2629 -1.4489
 6555SOL     OW31126   2.801   3.311   4.158  0.2232 -0.6390 -0.2458
 6555SOL    HW131127   2.843   3.397   4.157 -1.3671  0.1230 -2.1086
 6555SOL    HW231128   2.711   3.332   4.184  0.3442 -0.5930  0.1361
 6556SOL     OW31129   1.903   0.827   3.726 -0.2758 -0.7745  0.6525
 6556SOL    HW131130   1.985   0.827   3.678 -0.0537 -0.0534  1.0330
 6556SOL    HW231131   1.867   0.915   3.716 -2.4754 -1.3616  3.5451
 6557SOL     OW31132   1.665   0.528   6.688 -0.9956  0.1383 -0.0210
 6557SOL    HW131133   1.720   0.452   6.670  0.3862  0.8406  1.2725
 6557SOL    HW231134   1.663   0.575   6.605  0.2363 -0.9004 -0.6215
 6558SOL     OW31135   3.540   1.171   8.795  0.5508  0.0119 -0.2957
 6558SOL    HW131136   3.496   1.226   8.860  0.2154 -0.5710 -0.0272
 6558SOL    HW231137   3.573   1.248   8.749 -0.9247  1.5192  1.1605
 6559SOL     OW31138   2.432   3.770   5.462  0.3326 -0.0422  0.3969
 6559SOL    HW131139   2.447   3.860   5.432 -0.4092 -0.4215 -1.0953
 6559SOL    HW231140   2.469   3.732   5.383 -1.2157  0.3674 -0.5394
 6560SOL     OW31141   1.783   2.736   6.871  0.3471  0.4952  0.3673
 6560SOL    HW131142   1.791   2.717   6.964 -0.7425 -0.3604  0.2778
 6560SOL    HW231143   1.788   2.831   6.880  1.9093  0.3022  1.5782
 6561SOL     OW31144   1.967   3.570   6.431 -0.0576  0.1697  0.0156
 6561SOL    HW131145   1.905   3.499   6.441  0.1699  0.0206  0.3785
 6561SOL    HW231146   2.052   3.529   6.446 -0.5280 -1.2046 -1.0728
 6562SOL     OW31147   2.107   4.240   0.946  0.2898 -0.0803  0.2676
 6562SOL    HW131148   2.046   4.314   0.939 -0.3063 -0.3597  2.6646
 6562SOL    HW231149   2.116   4.221   0.853  0.7269  1.2402  0.0466
 6563SOL     OW31150   2.984   1.950   9.237 -0.0216  0.2078 -0.1919
 6563SOL    HW131151   2.964   2.011   9.165 -0.1132 -0.0514 -0.3874
 6563SOL    HW231152   2.947   1.994   9.313 -1.1980  1.1774 -1.3073
 6564SOL     OW31153   1.235   2.215   7.506 -0.4317 -0.4703  0.5351
 6564SOL    HW131154   1.316   2.250   7.468  0.8114 -1.1804  2.5587
 6564SOL    HW231155   1.240   2.120   7.503 -0.9312 -0.5345  2.0034
 6565SOL     OW31156   1.742   1.819   4.918 -0.0558  0.4055 -0.0290
 6565SOL    HW131157   1.829   1.858   4.914 -0.2716  0.6353 -2.2316
 6565SOL    HW231158   1.694   1.902   4.922  0.5092  0.7985 -1.3614
 6566SOL     OW31159   4.528   3.186   4.341  0.1425  0.1065 -0.5801
 6566SOL    HW131160   4.495   3.181   4.430 -3.2182  0.5105 -1.8139
 6566SOL    HW231161   4.468   3.124   4.300 -0.9070  0.9898 -0.3556
 6567SOL     OW31162   3.023   3.577   6.360  0.3805 -0.0544 -0.3811
 6567SOL    HW131163   3.071   3.552   6.281  3.8414  2.9554  0.7713
 6567SOL    HW231164   3.085   3.543   6.425  0.0270  0.0996  0.0334
 6568SOL     OW31165   2.243   4.418   4.476  0.1785  0.2690  0.3445
 6568SOL    HW131166   2.311   4.351   4.483 -1.9440 -1.8604  0.3892
 6568SOL    HW231167   2.181   4.394   4.545 -0.8250 -0.8309 -0.9288
 6569SOL     OW31168   0.596   1.539   3.733  0.7205 -0.1371 -0.0285
 6569SOL    HW131169   0.661   1.469   3.729  0.4672 -0.3539 -0.3773
 6569SOL    HW231170   0.535   1.507   3.667  0.5067  0.6672 -0.2128
 6570SOL     OW31171   4.717   1.648   6.595  0.1463 -0.1488 -0.3442
 6570SOL    HW131172   4.660   1.636   6.672 -2.3792 -0.9664 -2.3461
 6570SOL    HW231173   4.675   1.723   6.553 -1.7534 -1.0162 -0.0210
 6571SOL     OW31174   4.672   4.399  16.978  0.3884 -0.2638 -0.1831
 6571SOL    HW131175   4.588   4.375  16.939  0.0436 -0.3629  0.6198
 6571SOL    HW231176   0.005   4.331  16.943  1.5227 -0.4417  1.9618
 6572SOL     OW31177   4.503   0.026   8.428  0.0164  0.0232  0.5473
 6572SOL    HW131178   4.568   4.706   8.483  0.3371 -1.3473 -0.8918
 6572SOL    HW231179   4.562   0.087   8.384 -0.1530  0.2075  0.5752
 6573SOL     OW31180   3.359   0.819   4.351  0.0237 -0.4444  0.2652
 6573SOL    HW131181   3.380   0.888   4.415  2.3543 -0.0080 -0.9889
 6573SOL    HW231182   3.282   0.854   4.306 -0.2655 -1.3114  0.0866
 6574SOL     OW31183   3.880   2.355  12.402 -0.4896 -0.3022  1.0823
 6574SOL    HW131184   3.892   2.437  12.355 -2.0466 -1.8171 -1.9248
 6574SOL    HW231185   3.967   2.326  12.429  0.1427 -0.2415 -0.9235
 6575SOL     OW31186   3.149   3.374  10.925 -0.0910 -0.2038  0.0804
 6575SOL    HW131187   3.240   3.347  10.934  0.7467  2.3814 -0.6515
 6575SOL    HW231188   3.152   3.449  10.984 -0.6111  0.2894 -0.5100
 6576SOL     OW31189   3.096   4.721   6.241  0.0959 -0.1522  0.4957
 6576SOL    HW131190   3.015   4.669   6.242 -0.3252  0.5210  1.2751
 6576SOL    HW231191   3.160   4.657   6.210  0.0085  0.7794 -1.6045
 6577SOL     OW31192   0.995   2.639  15.128 -0.1334 -0.3921 -0.5892
 6577SOL    HW131193   0.965   2.554  15.097 -1.2551 -0.7168  1.4053
 6577SOL    HW231194   0.912   2.686  15.138  0.6381  0.4537  1.9731
 6578SOL     OW31195   2.671   0.723   6.783  0.2901 -0.0182 -0.2444
 6578SOL    HW131196   2.640   0.633   6.789  2.7239 -0.9287 -1.5910
 6578SOL    HW231197   2.661   0.767   6.868 -0.9299 -2.2079  0.7342
 6579SOL     OW31198   4.375   0.920   6.171 -0.0997 -0.0845  0.2721
 6579SOL    HW131199   4.447   0.866   6.204  1.3338  0.3453 -2.1512
 6579SOL    HW231200   4.401   0.897   6.082  0.9583 -0.1843  0.6058
 6580SOL     OW31201   2.788   4.174   9.484  0.5563 -0.1097  0.2414
 6580SOL    HW131202   2.703   4.186   9.526  0.8842 -1.2680  1.2013
 6580SOL    HW231203   2.833   4.165   9.568  0.2424 -0.6071  0.3551
 6581SOL     OW31204   3.902   1.507  14.150 -0.0157  0.2898 -0.0696
 6581SOL    HW131205   3.987   1.498  14.107  0.5429 -0.1689  1.1252
 6581SOL    HW231206   3.874   1.416  14.140 -0.5655  0.3912  0.5657
 6582SOL     OW31207   0.307   0.462   6.411 -1.2167  0.3697 -0.0562
 6582SOL    HW131208   0.366   0.446   6.338 -0.1306 -0.6149  1.0279
 6582SOL    HW231209   0.347   0.396   6.468  0.3800  0.2985 -1.2847
 6583SOL     OW31210   3.467   2.962  11.383 -0.3004  0.4260 -0.2946
 6583SOL    HW131211   3.400   3.005  11.329 -0.5794 -0.8843 -0.9845
 6583SOL    HW231212   3.530   2.947  11.312 -0.7925 -2.2215 -0.1676
 6584SOL     OW31213   0.695   4.714   1.039  0.9416 -0.0855  0.1090
 6584SOL    HW131214   0.670   4.625   1.063  0.5219 -0.5664 -2.0702
 6584SOL    HW231215   0.621   4.710   0.977  0.9689  1.9178 -0.0324
 6585SOL     OW31216   0.235   1.598   7.550 -0.4859 -0.2527  0.5395
 6585SOL    HW131217   0.212   1.638   7.466 -1.8691 -1.9699  0.1053
 6585SOL    HW231218   0.325   1.627   7.564 -1.1007  0.0921  3.8845
 6586SOL     OW31219   3.912   0.397   3.340  0.5269 -0.0372  0.2760
 6586SOL    HW131220   4.005   0.381   3.323  0.4730 -0.0548 -0.0079
 6586SOL    HW231221   3.867   0.386   3.256 -0.5603  1.6371  0.6344
 6587SOL     OW31222   1.280   3.836  13.974 -0.8431  0.2502 -0.3215
 6587SOL    HW131223   1.254   3.857  13.884  0.7912  1.3629 -0.5348
 6587SOL    HW231224   1.374   3.835  13.960 -1.2256 -1.4107 -2.8479
 6588SOL     OW31225   4.322   3.734   8.976  0.5021  0.2829  0.0755
 6588SOL    HW131226   4.398   3.791   8.972  0.6162 -0.0063 -1.8973
 6588SOL    HW231227   4.377   3.656   8.982  0.1275 -0.0093 -0.3024
 6589SOL     OW31228   1.427   2.068   3.944 -0.4552  0.0454 -0.0093
 6589SOL    HW131229   1.448   2.071   3.851 -1.4543  3.0321 -0.1441
 6589SOL    HW231230   1.475   2.147   3.969  0.6613 -0.1257 -1.6499
 6590SOL     OW31231   0.101   0.240   4.637 -0.6039  0.9002  0.4887
 6590SOL    HW131232   0.161   0.218   4.708 -1.4416  0.2440  0.9917
 6590SOL    HW231233   0.047   0.308   4.677  0.2953  1.2390  1.1166
 6591SOL     OW31234   0.488   0.741   1.546 -0.0690  0.2508 -0.1391
 6591SOL    HW131235   0.394   0.728   1.545  0.3100 -2.3903 -0.7156
 6591SOL    HW231236   0.524   0.665   1.591 -2.8501 -0.1115  1.4291
 6592SOL     OW31237   1.300   0.266   7.015 -0.0817 -0.0716  0.9437
 6592SOL    HW131238   1.327   0.266   6.923 -1.8339  0.5856  0.4415
 6592SOL    HW231239   1.267   0.176   7.020 -0.6932  0.0782 -0.4114
 6593SOL     OW31240   3.423   4.419   7.788 -0.0175 -0.4869  0.4363
 6593SOL    HW131241   3.359   4.353   7.760 -0.2665 -0.2187  0.3660
 6593SOL    HW231242   3.436   4.377   7.873  2.7496 -1.8886 -0.6918
 6594SOL     OW31243   1.860   2.643   6.611 -0.2556  0.8655  0.9009
 6594SOL    HW131244   1.896   2.726   6.579  1.0664 -0.9759 -2.3090
 6594SOL    HW231245   1.819   2.682   6.689 -2.4809  0.5756 -0.1253
 6595SOL     OW31246   3.441   3.948  17.055 -0.0553  0.7189 -0.2757
 6595SOL    HW131247   3.351   3.922  17.076  0.8830 -1.3238  1.2111
 6595SOL    HW231248   3.482   3.865  17.031  0.1475  0.2274  1.7625
 6596SOL     OW31249   3.844   1.828   5.440 -0.1362 -0.3773  0.0502
 6596SOL    HW131250   3.780   1.888   5.402 -0.2994 -1.2639 -1.0666
 6596SOL    HW231251   3.782   1.795   5.506 -1.0669  1.7298  0.2196
 6597SOL     OW31252   1.035   0.439   2.750  0.0491  0.4698 -0.0886
 6597SOL    HW131253   1.048   0.389   2.831  0.6039  1.5265  0.4744
 6597SOL    HW231254   1.080   0.379   2.690 -1.5135 -0.2518 -0.5231
 6598SOL     OW31255   2.659   2.195   3.182 -0.5065 -0.3272  0.0852
 6598SOL    HW131256   2.566   2.175   3.176 -0.5833  1.1776 -3.6950
 6598SOL    HW231257   2.653   2.286   3.211  0.9641 -0.2981  0.3275
 6599SOL     OW31258   2.382   1.444  12.207 -0.0470  0.5457  0.5400
 6599SOL    HW131259   2.331   1.525  12.211  0.7583  1.2999 -4.0973
 6599SOL    HW231260   2.334   1.375  12.162  1.4170 -0.7678  0.9756
 6600SOL     OW31261   1.521   0.149   8.137 -0.1679 -0.3836  0.5612
 6600SOL    HW131262   1.610   0.169   8.109 -0.0335 -0.1699  1.1399
 6600SOL    HW231263   1.505   0.232   8.181  3.9145  1.0876 -0.8156
 6601SOL     OW31264   2.744   3.134   6.405  0.3376 -0.1642 -0.0183
 6601SOL    HW131265   2.705   3.217   6.379 -1.0826 -0.6422  0.6300
 6601SOL    HW231266   2.835   3.149   6.379  1.4684 -0.2318  3.8758
 6602SOL     OW31267   0.565   2.270   2.689 -0.0985  0.3294 -0.5735
 6602SOL    HW131268   0.534   2.319   2.765  0.6036 -0.6701  0.3529
 6602SOL    HW231269   0.591   2.352   2.647 -0.4369  0.5283 -0.4043
 6603SOL     OW31270   1.847   3.941   7.144 -0.0618  0.0924  0.3569
 6603SOL    HW131271   1.801   3.861   7.121 -0.5051  0.6381 -0.6298
 6603SOL    HW231272   1.925   3.907   7.189  0.4234  1.9937  0.9490
 6604SOL     OW31273   0.720   2.122   1.321  0.1440 -0.0996  0.0684
 6604SOL    HW131274   0.722   2.212   1.290 -0.0419  0.4149  1.5335
 6604SOL    HW231275   0.778   2.122   1.397  0.8599  0.6287 -0.4952
 6605SOL     OW31276   2.508   4.331  16.109  0.1474 -0.8115 -0.1522
 6605SOL    HW131277   2.544   4.403  16.159  0.1800 -2.3296  1.9826
 6605SOL    HW231278   2.553   4.255  16.146 -0.2250 -1.5662 -1.2438
 6606SOL     OW31279   2.967   3.520   3.467  0.0312 -0.5039  0.2307
 6606SOL    HW131280   2.906   3.585   3.502  0.8257  0.2241  0.2771
 6606SOL    HW231281   3.032   3.574   3.422  0.7856 -2.5722 -1.1951
 6607SOL     OW31282   1.776   4.183   7.229 -0.4385  0.9200 -0.1483
 6607SOL    HW131283   1.800   4.103   7.182 -0.3513  1.3279 -0.7969
 6607SOL    HW231284   1.764   4.157   7.320 -0.2911  0.6618 -0.2020
 6608SOL     OW31285   2.582   0.008   6.883 -0.1127 -0.6283 -0.1517
 6608SOL    HW131286   2.499   0.018   6.929  0.0340 -0.9852  0.1916
 6608SOL    HW231287   2.642   0.030   6.955  1.8451  1.4585 -2.4270
 6609SOL     OW31288   3.105   1.281   9.137 -0.0919 -0.3614 -0.4936
 6609SOL    HW131289   3.073   1.326   9.215  1.4573  0.4413 -0.3253
 6609SOL    HW231290   3.068   1.342   9.074  0.0526  0.1130 -0.1142
 6610SOL     OW31291   4.177   3.826   1.584 -0.3855 -0.4477  0.0396
 6610SOL    HW131292   4.187   3.732   1.602  0.3841 -0.3418  0.1601
 6610SOL    HW231293   4.250   3.840   1.523 -1.2849 -0.7931 -1.1332
 6611SOL     OW31294   4.242   1.497   3.859 -0.4262 -0.3771  0.5079
 6611SOL    HW131295   4.217   1.589   3.854  2.8461  0.4933  0.3162
 6611SOL    HW231296   4.302   1.493   3.785 -0.5302  1.8089  0.2883
 6612SOL     OW31297   1.445   1.267  14.990 -0.0484  0.3468 -0.3977
 6612SOL    HW131298   1.463   1.173  14.988  0.1049  0.4166 -2.1577
 6612SOL    HW231299   1.532   1.305  14.974 -1.1120  3.3889  0.9525
 6613SOL     OW31300   3.617   2.525   0.940 -0.7342 -0.7476  0.0253
 6613SOL    HW131301   3.586   2.481   0.861  2.6785  0.0332 -1.7154
 6613SOL    HW231302   3.588   2.613   0.913 -0.9965 -0.6176  0.7121
 6614SOL     OW31303   1.108   2.358   9.693 -0.5558  0.1674 -0.0605
 6614SOL    HW131304   1.046   2.286   9.706  0.3958 -0.7455 -0.5654
 6614SOL    HW231305   1.167   2.316   9.630 -0.6102  0.6809 -0.4512
 6615SOL     OW31306   0.814   1.241  17.345  0.0555  0.4729  0.2963
 6615SOL    HW131307   0.888   1.290  17.308 -1.0142  0.9852 -1.1758
 6615SOL    HW231308   0.821   1.259  17.439  0.4143  1.0264  0.1658
 6616SOL     OW31309   4.353   2.546  17.163 -0.3566  0.6584  0.0739
 6616SOL    HW131310   4.261   2.522  17.152 -0.7842  1.3711  2.2674
 6616SOL    HW231311   4.349   2.624  17.217  0.3622 -1.0473  2.5696
 6617SOL     OW31312   3.818   3.378   9.167 -0.0954  0.5910  0.1748
 6617SOL    HW131313   3.849   3.291   9.192  0.7925 -0.0398 -3.2248
 6617SOL    HW231314   3.860   3.393   9.082  0.2450  1.2818  0.4590
 6618SOL     OW31315   0.144   0.039  11.091  0.0007 -0.2682  0.1553
 6618SOL    HW131316   0.160   0.094  11.168  3.6173 -3.2312  1.5268
 6618SOL    HW231317   0.233   0.003  11.093 -0.2039 -0.7332  0.8200
 6619SOL     OW31318   0.678   4.422  16.243 -0.2435 -0.6707 -0.2556
 6619SOL    HW131319   0.661   4.466  16.160  1.3871 -0.7022 -0.5963
 6619SOL    HW231320   0.772   4.426  16.262 -0.7612  0.3611  2.1584
 6620SOL     OW31321   4.672   4.171   4.125 -0.0051 -0.2027  0.6095
 6620SOL    HW131322   0.034   4.157   4.168  1.0374  0.1045 -1.3352
 6620SOL    HW231323   4.693   4.221   4.046  1.8946 -1.2413  0.4590
 6621SOL     OW31324   2.669   2.884   9.714  0.5794  0.5270  1.0258
 6621SOL    HW131325   2.593   2.899   9.770 -1.2563 -3.6167 -0.3969
 6621SOL    HW231326   2.631   2.903   9.629  1.5613 -0.2280  0.4197
 6622SOL     OW31327   2.324   1.431   9.282 -0.7032  0.1357  0.1456
 6622SOL    HW131328   2.350   1.423   9.190 -1.8444  1.8297 -0.3134
 6622SOL    HW231329   2.244   1.380   9.292 -0.8140 -0.2190 -2.7191
 6623SOL     OW31330   1.138   4.146   1.948 -0.0451  0.1234  0.1676
 6623SOL    HW131331   1.075   4.091   1.901 -1.2994  1.6803  0.0421
 6623SOL    HW231332   1.215   4.141   1.891 -0.0870 -0.8480  0.2051
 6624SOL     OW31333   3.400   4.681   4.184 -0.1351  0.2642 -0.1694
 6624SOL    HW131334   3.438   4.681   4.272  0.2862 -0.0620 -0.3488
 6624SOL    HW231335   3.416   4.594   4.147  1.3399  0.6750 -0.5360
 6625SOL     OW31336   0.273   0.703   7.668  0.0578  0.3731  0.2277
 6625SOL    HW131337   0.305   0.750   7.591 -3.6503  0.4348 -1.2611
 6625SOL    HW231338   0.287   0.767   7.738 -0.7998 -0.9535  1.6064
 6626SOL     OW31339   1.724   0.301   3.392 -0.1087  0.1387  0.1319
 6626SOL    HW131340   1.664   0.309   3.317 -0.4637  0.1070  0.4111
 6626SOL    HW231341   1.691   0.214   3.414  1.2430 -0.2327  0.6664
 6627SOL     OW31342   0.248   1.438  11.110 -0.0007 -0.0632  0.0154
 6627SOL    HW131343   0.317   1.421  11.046 -0.6178  0.2638 -0.7324
 6627SOL    HW231344   0.294   1.505  11.161 -0.4368 -0.2942  0.7223
 6628SOL     OW31345   3.432   1.175   8.365 -0.2830 -0.2349  0.1092
 6628SOL    HW131346   3.510   1.189   8.418 -2.0830 -2.7243  3.3755
 6628SOL    HW231347   3.374   1.230   8.417 -0.8624  0.7029 -1.4989
 6629SOL     OW31348   2.611   3.161   6.881 -0.2405 -0.1588  0.0591
 6629SOL    HW131349   2.601   3.152   6.786  2.9995 -2.7620 -0.0622
 6629SOL    HW231350   2.689   3.107   6.896  0.6927  1.7295  2.1717
 6630SOL     OW31351   0.965   0.261   3.848  0.2805 -0.4011 -0.4397
 6630SOL    HW131352   1.012   0.217   3.919  1.0811 -0.5621 -1.0707
 6630SOL    HW231353   0.882   0.214   3.845  0.0745 -0.2511  2.3960
 6631SOL     OW31354   4.562   0.836   2.551 -0.2560 -0.0549 -0.1442
 6631SOL    HW131355   4.524   0.924   2.557 -0.8965 -0.2692 -0.9750
 6631SOL    HW231356   4.614   0.838   2.631 -1.7479  2.2844  0.7721
 6632SOL     OW31357   4.282   0.510   4.202  0.1550  0.8015 -0.1168
 6632SOL    HW131358   4.322   0.525   4.117  4.0727 -0.5001  1.4841
 6632SOL    HW231359   4.351   0.458   4.244 -0.4307  0.8993  0.9727
 6633SOL     OW31360   2.175   2.392   5.497 -0.1372  0.4767 -0.0264
 6633SOL    HW131361   2.152   2.376   5.589 -0.4622 -2.9787 -0.6783
 6633SOL    HW231362   2.126   2.317   5.461 -0.8719  0.1673  1.6108
 6634SOL     OW31363   1.598   0.490   0.346 -0.2934  0.2031  0.2821
 6634SOL    HW131364   1.534   0.423   0.323  1.6675 -2.0020  1.3363
 6634SOL    HW231365   1.648   0.456   0.420 -0.0846  0.7454  0.3899
 6635SOL     OW31366   4.556   0.357   2.748  0.3464  0.2076  0.1200
 6635SOL    HW131367   4.577   0.364   2.655  0.7749  2.3309  0.3762
 6635SOL    HW231368   4.466   0.326   2.753  0.0894  1.1436  1.1535
 6636SOL     OW31369   2.872   0.100  10.202  0.0812  0.0803 -0.0659
 6636SOL    HW131370   2.871   0.006  10.223 -2.3327  0.4775  1.5156
 6636SOL    HW231371   2.783   0.109  10.170 -0.1089  1.2301  0.7847
 6637SOL     OW31372   4.517   3.983   6.890 -0.3610  0.0740  0.0269
 6637SOL    HW131373   4.423   3.964   6.887 -0.1552 -0.6825 -1.4872
 6637SOL    HW231374   4.529   3.984   6.985  1.9743  3.2236 -0.2736
 6638SOL     OW31375   4.019   0.146   2.441  0.4194  0.0776  0.0589
 6638SOL    HW131376   3.999   0.139   2.535 -0.5443  3.4257  0.0775
 6638SOL    HW231377   4.102   0.192   2.447  0.0915  0.9369 -2.1733
 6639SOL     OW31378   3.928   2.879   7.061 -0.1327  0.2853 -0.6262
 6639SOL    HW131379   3.901   2.939   6.992  0.3678  0.3017 -0.8066
 6639SOL    HW231380   3.867   2.807   7.046 -0.1099  0.4796 -1.6683
 6640SOL     OW31381   4.180   3.666   6.942 -0.1210  0.8593 -0.0220
 6640SOL    HW131382   4.101   3.649   6.891 -0.5651  2.6405  0.0953
 6640SOL    HW231383   4.248   3.646   6.877  2.2757  0.8889  2.4540
 6641SOL     OW31384   1.075   0.545  11.604 -0.0066  0.9211  0.0135
 6641SOL    HW131385   1.154   0.599  11.600  0.9837 -0.4853  0.6251
 6641SOL    HW231386   1.009   0.592  11.553  1.1019  0.0143 -2.2407
 6642SOL     OW31387   4.133   1.238  14.648  0.2936 -0.1644  0.2900
 6642SOL    HW131388   4.139   1.214  14.740 -0.5556  1.8477  0.8594
 6642SOL    HW231389   4.220   1.215  14.614 -0.8241 -0.4913 -2.3538
 6643SOL     OW31390   2.738   0.791   0.530 -0.1987 -0.1159  0.4171
 6643SOL    HW131391   2.795   0.847   0.477 -2.4228  2.0434  0.2728
 6643SOL    HW231392   2.673   0.853   0.564  0.2253 -0.7622  2.4293
 6644SOL     OW31393   2.497   2.381   8.766  0.1326  0.4709  0.3220
 6644SOL    HW131394   2.551   2.430   8.828  1.7606  0.5518 -1.1466
 6644SOL    HW231395   2.429   2.343   8.821  0.2469 -3.4102 -2.1824
 6645SOL     OW31396   3.872   0.985  15.463 -0.6559  0.1887 -0.4814
 6645SOL    HW131397   3.872   1.018  15.553  0.9458 -2.4423  0.4961
 6645SOL    HW231398   3.836   0.898  15.484  0.3873 -0.0096  0.4645
 6646SOL     OW31399   0.194   4.474   8.668 -0.4356  0.1352  0.8219
 6646SOL    HW131400   0.247   4.530   8.726  1.7111  0.5152 -1.5148
 6646SOL    HW231401   0.241   4.481   8.585  0.3743 -1.1202  1.1653
 6647SOL     OW31402   4.127   1.312  12.837  0.0386 -0.0070 -0.1089
 6647SOL    HW131403   4.078   1.349  12.762 -2.5343 -1.3403  0.9195
 6647SOL    HW231404   4.129   1.386  12.898 -0.7015  0.2109 -0.3433
 6648SOL     OW31405   3.706   0.667   1.542 -0.0971 -0.7544 -0.0656
 6648SOL    HW131406   3.655   0.660   1.622  0.4110  1.4796  0.4412
 6648SOL    HW231407   3.658   0.606   1.486  0.1431  0.5198 -1.6501
 6649SOL     OW31408   4.462   3.719   7.419 -0.0409  0.6470  0.7313
 6649SOL    HW131409   4.508   3.636   7.407  0.9794  1.5295 -1.4690
 6649SOL    HW231410   4.538   3.768   7.449  0.2167  0.1082  0.9459
 6650SOL     OW31411   1.685   4.189  12.043 -0.3752  0.9024  0.1924
 6650SOL    HW131412   1.694   4.095  12.055 -1.7038  0.6646 -0.7329
 6650SOL    HW231413   1.768   4.211  11.999  0.1231 -1.7232 -0.1474
 6651SOL     OW31414   2.963   3.356   2.321 -0.4013 -0.5473  0.2046
 6651SOL    HW131415   2.880   3.364   2.275  1.0789  1.3048 -2.1010
 6651SOL    HW231416   3.015   3.429   2.287  0.1653 -0.9283  0.2419
 6652SOL     OW31417   4.243   2.697   8.415  0.3734 -0.4494 -0.4800
 6652SOL    HW131418   4.159   2.718   8.455  1.2425  0.0576  1.0560
 6652SOL    HW231419   4.303   2.760   8.455  0.7127 -1.3247  0.3912
 6653SOL     OW31420   1.603   2.172  12.796 -0.3408 -0.1970  0.5313
 6653SOL    HW131421   1.659   2.126  12.859 -0.5689 -2.8499 -1.2177
 6653SOL    HW231422   1.538   2.106  12.772  0.8594 -0.9057 -0.7170
 6654SOL     OW31423   3.392   1.314  10.518 -0.6482  0.1499  0.1988
 6654SOL    HW131424   3.414   1.372  10.444 -1.6476 -1.0363 -1.0243
 6654SOL    HW231425   3.459   1.246  10.511  0.0658  0.9542 -0.7980
 6655SOL     OW31426   1.526   2.562   7.849 -0.6101  0.4134 -0.3263
 6655SOL    HW131427   1.467   2.537   7.778 -0.9608  0.3976 -0.0299
 6655SOL    HW231428   1.465   2.579   7.921  0.8399 -0.3950  1.0923
 6656SOL     OW31429   2.960   0.526   8.012 -0.3297  0.2094 -0.5389
 6656SOL    HW131430   2.941   0.598   7.952 -0.6676 -1.0421 -1.9191
 6656SOL    HW231431   3.055   0.531   8.025 -0.2574  1.3953 -1.5430
 6657SOL     OW31432   0.897   3.353   6.110  0.1458 -0.4823  0.3453
 6657SOL    HW131433   0.881   3.431   6.057 -0.2231 -0.4616  0.4831
 6657SOL    HW231434   0.907   3.377   6.202 -2.0587 -0.1368  0.5131
 6658SOL     OW31435   1.351   1.130   7.497 -0.0685 -0.1098  0.2146
 6658SOL    HW131436   1.414   1.195   7.529 -0.3605  0.5187 -0.4802
 6658SOL    HW231437   1.390   1.050   7.533 -0.9387 -0.1302  1.1017
 6659SOL     OW31438   1.155   1.422  13.319 -0.3498 -0.4856 -0.1700
 6659SOL    HW131439   1.079   1.417  13.260 -0.8598 -0.2899  0.4719
 6659SOL    HW231440   1.220   1.431  13.250 -0.4346  0.2954 -0.1517
 6660SOL     OW31441   2.422   1.718   5.957 -0.0452  0.1583 -0.4026
 6660SOL    HW131442   2.334   1.739   5.927 -1.2788  0.4103  3.4191
 6660SOL    HW231443   2.411   1.749   6.047 -0.0712  1.7895 -0.9689
 6661SOL     OW31444   2.513   0.520   3.308 -0.0736 -0.2409 -0.4784
 6661SOL    HW131445   2.479   0.490   3.224 -2.4288 -0.9417  0.7341
 6661SOL    HW231446   2.453   0.491   3.377  0.0441 -2.6668 -1.4104
 6662SOL     OW31447   4.370   1.981  11.256  0.4661 -0.7492 -0.2384
 6662SOL    HW131448   4.444   1.936  11.215  0.3520 -0.4067 -0.8371
 6662SOL    HW231449   4.407   1.996  11.343  0.0654  2.5740 -0.6423
 6663SOL     OW31450   3.506   4.474   2.846 -0.0197  0.0575 -0.5451
 6663SOL    HW131451   3.526   4.564   2.819  0.6959  0.1703  0.3584
 6663SOL    HW231452   3.533   4.480   2.938 -1.4948  2.4597 -0.2649
 6664SOL     OW31453   1.736   0.705   7.427  0.3515  0.3578  0.6098
 6664SOL    HW131454   1.642   0.689   7.419  0.0165  3.7191 -2.2004
 6664SOL    HW231455   1.753   0.726   7.335  1.4014  0.6049  0.8515
 6665SOL     OW31456   2.162   0.115   2.934  0.1121 -0.1689  0.5370
 6665SOL    HW131457   2.147   0.198   2.980 -1.5592 -0.2854  0.2308
 6665SOL    HW231458   2.098   0.127   2.864  1.9188 -1.6527 -1.3463
 6666SOL     OW31459   4.428   4.638   6.096  0.2738 -0.2567  0.2149
 6666SOL    HW131460   4.430   4.546   6.070 -0.1126  0.0129 -0.7735
 6666SOL    HW231461   4.376   4.632   6.176 -0.4127  0.2319 -0.1964
 6667SOL     OW31462   4.544   1.406   7.579  0.6093  0.0061  0.4416
 6667SOL    HW131463   4.601   1.463   7.527 -0.7401  1.8337  0.9392
 6667SOL    HW231464   4.535   1.323   7.532 -0.5150  1.6154 -2.2123
 6668SOL     OW31465   0.314   1.602   9.312 -0.4131  0.4235  0.2726
 6668SOL    HW131466   0.231   1.634   9.276 -1.5025 -0.6383  1.8799
 6668SOL    HW231467   0.313   1.521   9.260  3.0840 -1.2569  2.8535
 6669SOL     OW31468   3.887   1.410   0.181 -0.3988  0.0055  0.7139
 6669SOL    HW131469   3.911   1.503   0.179 -0.9423  0.1359  0.3338
 6669SOL    HW231470   3.852   1.397   0.093  0.3224  0.0228  0.4210
 6670SOL     OW31471   1.559   2.219   7.374  0.4327  0.7174  0.2656
 6670SOL    HW131472   1.546   2.124   7.372 -0.2097  0.8095  0.0669
 6670SOL    HW231473   1.596   2.222   7.462 -1.1160 -2.0091  1.0448
 6671SOL     OW31474   4.363   1.110  13.158  0.0643  0.4111 -0.4029
 6671SOL    HW131475   4.295   1.170  13.189  1.9990  1.8724  1.0676
 6671SOL    HW231476   4.362   1.049  13.232  1.3658  1.0236  0.1098
 6672SOL     OW31477   1.816   0.422   2.885  0.3542 -0.3995  0.2820
 6672SOL    HW131478   1.732   0.398   2.925 -0.3920  1.7264  0.0110
 6672SOL    HW231479   1.797   0.415   2.792  0.8993  0.1621  0.1295
 6673SOL     OW31480   1.301   2.264   5.229 -0.0409  0.0145 -0.1557
 6673SOL    HW131481   1.331   2.280   5.140 -0.2985  1.7660  0.0618
 6673SOL    HW231482   1.380   2.289   5.276 -0.1074 -1.3914  0.7081
 6674SOL     OW31483   1.752   0.472   5.336 -0.2271  0.0998 -0.4737
 6674SOL    HW131484   1.680   0.522   5.297 -0.9869 -0.1784  0.5779
 6674SOL    HW231485   1.747   0.489   5.430  0.1585  0.1716 -0.4625
 6675SOL     OW31486   3.878   0.997   6.778  0.2006 -0.0193 -0.0916
 6675SOL    HW131487   3.814   0.942   6.732  0.4237  1.3786 -2.0733
 6675SOL    HW231488   3.952   0.986   6.718  0.2855 -0.0219  0.0137
 6676SOL     OW31489   2.777   0.088  12.078  0.6927 -0.0608 -0.1640
 6676SOL    HW131490   2.697   0.067  12.030  0.3488 -1.1579  0.8767
 6676SOL    HW231491   2.839   0.102  12.006  1.6757  1.5310  0.9971
 6677SOL     OW31492   1.139   4.466   4.619  0.0298 -0.2017 -0.1011
 6677SOL    HW131493   1.098   4.414   4.688  1.4655  0.3707  1.1673
 6677SOL    HW231494   1.155   4.400   4.552 -1.7612 -1.8760  1.1292
 6678SOL     OW31495   4.548   4.173   9.551  0.3462  0.1857 -0.1732
 6678SOL    HW131496   4.469   4.159   9.499  0.3959 -1.4996  0.1736
 6678SOL    HW231497   4.604   4.135   9.483  1.2517  0.4896  0.4053
 6679SOL     OW31498   0.484   0.656   5.640  0.5604  0.1828 -0.2698
 6679SOL    HW131499   0.524   0.736   5.604 -1.7976  2.1849  1.5175
 6679SOL    HW231500   0.556   0.598   5.663  1.0219  0.7690 -0.2327
 6680SOL     OW31501   2.322   0.549   5.959  0.4021 -0.1300 -0.2641
 6680SOL    HW131502   2.304   0.475   6.016 -1.3952  1.1431  0.8151
 6680SOL    HW231503   2.310   0.619   6.023  0.7801 -0.2895 -0.0224
 6681SOL     OW31504   0.531   1.782   9.447  0.1491  0.1406  0.0768
 6681SOL    HW131505   0.480   1.737   9.379 -1.8067  1.4246  0.6755
 6681SOL    HW231506   0.512   1.873   9.424  2.2744  0.4927 -0.2785
 6682SOL     OW31507   0.290   1.346  12.445 -0.2547  0.5167  0.6093
 6682SOL    HW131508   0.242   1.371  12.367 -1.1074 -1.3682  0.5191
 6682SOL    HW231509   0.224   1.381  12.505 -0.0434 -1.6505  2.1199
 6683SOL     OW31510   4.158   2.094  12.821  0.2842  0.5629  0.5906
 6683SOL    HW131511   4.102   2.131  12.889  0.5060  3.5369 -0.8182
 6683SOL    HW231512   4.202   2.032  12.878 -0.8172 -1.6242 -0.9325
 6684SOL     OW31513   4.110   0.897   8.496  0.5088  0.1986  0.7270
 6684SOL    HW131514   4.028   0.902   8.545  0.3869 -2.2709  0.7882
 6684SOL    HW231515   4.119   0.802   8.494  3.1232  0.4834 -0.5278
 6685SOL     OW31516   4.380   4.147  15.043 -0.2652  0.2662  0.9857
 6685SOL    HW131517   4.433   4.081  15.088 -0.3677  0.8281  1.9290
 6685SOL    HW231518   4.455   4.201  15.018 -0.6785  1.1489  1.6491
 6686SOL     OW31519   1.325   3.284  10.247 -0.0614 -0.1085  0.7893
 6686SOL    HW131520   1.278   3.355  10.203 -0.8679 -0.9259  0.3232
 6686SOL    HW231521   1.344   3.334  10.326  2.1880  0.4522 -0.1088
 6687SOL     OW31522   1.724   2.564  14.019 -0.2928 -0.0678 -0.0283
 6687SOL    HW131523   1.691   2.525  14.100 -1.1018 -0.3897 -0.5105
 6687SOL    HW231524   1.816   2.542  14.039 -0.6046 -0.3520  1.1147
 6688SOL     OW31525   2.514   0.841   3.954 -0.1265 -0.2549 -0.2400
 6688SOL    HW131526   2.439   0.834   3.895  0.8914 -0.0675 -1.5493
 6688SOL    HW231527   2.542   0.932   3.942  0.8792 -0.0971  3.2246
 6689SOL     OW31528   3.363   0.617   9.849 -0.4852  0.3159 -0.1571
 6689SOL    HW131529   3.401   0.682   9.908 -1.2547  0.4859  0.1460
 6689SOL    HW231530   3.401   0.533   9.874 -0.5692  0.5692  0.8375
 6690SOL     OW31531   2.097   4.092   1.480  0.5022 -0.0109  0.2566
 6690SOL    HW131532   2.140   4.079   1.395  0.5481 -0.2151  0.3104
 6690SOL    HW231533   2.173   4.080   1.537 -1.0878 -0.7266  2.2334
 6691SOL     OW31534   1.499   2.211   6.832  0.0468 -0.4617 -0.1683
 6691SOL    HW131535   1.490   2.129   6.783 -0.7934 -0.5629  0.1541
 6691SOL    HW231536   1.590   2.225   6.807 -0.2307  0.2844 -0.7472
 6692SOL     OW31537   1.173   3.853  11.324  0.2094  0.0915  0.5781
 6692SOL    HW131538   1.196   3.873  11.233  0.5981  1.6212  1.0198
 6692SOL    HW231539   1.260   3.826  11.353  0.3622 -1.1854 -1.1001
 6693SOL     OW31540   3.113   3.814   8.422  0.3340 -0.0702 -0.1723
 6693SOL    HW131541   3.151   3.853   8.501 -0.2426 -0.5124  0.3277
 6693SOL    HW231542   3.035   3.771   8.456 -0.0241  0.5861 -0.1576
 6694SOL     OW31543   2.204   4.579   2.752  0.4463  0.0734 -0.6307
 6694SOL    HW131544   2.218   4.637   2.827 -1.0542  0.3258 -0.5363
 6694SOL    HW231545   2.289   4.570   2.709 -0.3271  0.1237 -2.1564
 6695SOL     OW31546   0.673   4.335   8.785  0.2410  0.5401 -0.3758
 6695SOL    HW131547   0.719   4.338   8.868 -0.3111 -3.6514  0.0443
 6695SOL    HW231548   0.744   4.368   8.730  0.2768 -0.9129 -1.2083
 6696SOL     OW31549   3.266   1.938  15.188 -0.4495  0.4389 -0.1452
 6696SOL    HW131550   3.277   1.969  15.278  0.1975 -1.5577  0.4488
 6696SOL    HW231551   3.179   1.973  15.170 -1.2850 -2.0518 -0.9506
 6697SOL     OW31552   4.237   1.337   5.230  0.3208  0.5252 -0.9083
 6697SOL    HW131553   4.192   1.256   5.258  0.0387  0.7892 -0.6023
 6697SOL    HW231554   4.283   1.346   5.313  0.7489 -0.5168 -1.0291
 6698SOL     OW31555   4.045   3.745   0.783  0.1768 -0.6925 -0.3766
 6698SOL    HW131556   4.068   3.762   0.874 -1.9456 -1.6961  0.3464
 6698SOL    HW231557   3.969   3.687   0.785  0.5737 -1.2847 -2.3278
 6699SOL     OW31558   1.400   1.817   1.967 -0.5193 -0.0680  0.5357
 6699SOL    HW131559   1.349   1.765   2.030 -0.4414  1.4610  1.8618
 6699SOL    HW231560   1.459   1.869   2.021  0.8790 -0.7084 -0.3834
 6700SOL     OW31561   0.399   2.109  14.712  0.1641  0.0443  0.4677
 6700SOL    HW131562   0.448   2.146  14.639 -2.2428  1.4314 -0.4150
 6700SOL    HW231563   0.313   2.110  14.670 -0.3146 -0.3637  1.4451
 6701SOL     OW31564   0.684   3.996   4.255  0.0636 -0.1146 -0.0127
 6701SOL    HW131565   0.685   4.089   4.230  2.1957 -0.4160 -1.1157
 6701SOL    HW231566   0.605   3.991   4.308  0.4025  1.3729  0.6535
 6702SOL     OW31567   3.820   0.141   6.961 -0.5964 -0.3812  0.7785
 6702SOL    HW131568   3.853   0.103   7.042 -0.6271  2.7971  2.2795
 6702SOL    HW231569   3.771   0.067   6.926 -0.9268 -0.1426  0.7392
 6703SOL     OW31570   2.372   3.968  13.607  0.1913  0.4904 -0.3733
 6703SOL    HW131571   2.354   3.961  13.513  0.3942 -2.0546 -0.2373
 6703SOL    HW231572   2.400   4.059  13.607  1.3480  0.1415  1.2884
 6704SOL     OW31573   3.704   2.214   6.241  0.2205 -0.7744 -0.0991
 6704SOL    HW131574   3.719   2.293   6.189  1.6314 -1.1349 -0.2446
 6704SOL    HW231575   3.791   2.183   6.267  0.0397  0.4363  1.9906
 6705SOL     OW31576   4.615   3.106  14.221  0.0011 -0.5920 -0.5733
 6705SOL    HW131577   4.550   3.037  14.233 -3.3580  3.0673  2.1169
 6705SOL    HW231578   4.673   3.054  14.165 -1.2556 -2.4611 -0.1379
 6706SOL     OW31579   4.555   0.069  14.346  0.0307  0.2271  0.1617
 6706SOL    HW131580   4.622   0.094  14.281  1.0105 -0.6396  0.8557
 6706SOL    HW231581   4.592   4.709  14.374 -1.3784 -0.8683 -1.2647
 6707SOL     OW31582   3.422   3.355  10.958 -0.5022 -0.0350 -0.2367
 6707SOL    HW131583   3.440   3.421  10.891  0.0714  1.1169  1.0496
 6707SOL    HW231584   3.504   3.307  10.947 -1.3276 -1.6696  0.6534
 6708SOL     OW31585   3.654   4.257   6.161  0.3311  0.0246 -0.5265
 6708SOL    HW131586   3.696   4.274   6.077  0.1988 -1.2817 -0.8622
 6708SOL    HW231587   3.715   4.201   6.210 -0.3099  1.2157  1.6533
 6709SOL     OW31588   1.170   1.402   3.914  0.5482 -0.2618  0.1437
 6709SOL    HW131589   1.255   1.403   3.869  0.4855  2.1604  0.1050
 6709SOL    HW231590   1.182   1.318   3.958 -0.5637 -0.2062  0.5605
 6710SOL     OW31591   3.197   2.019   2.936  0.5188  0.5637  0.4802
 6710SOL    HW131592   3.169   1.930   2.958 -0.2631 -0.2626 -3.8383
 6710SOL    HW231593   3.127   2.064   2.889 -1.5710 -2.9330  0.2622
 6711SOL     OW31594   0.947   3.329   2.962  0.1645 -0.2034  0.0397
 6711SOL    HW131595   0.928   3.353   2.871 -0.2960 -0.4909  0.0594
 6711SOL    HW231596   1.037   3.361   2.968 -0.4004  1.7506 -1.6608
 6712SOL     OW31597   0.509   4.557  14.818  0.9784 -0.0130 -0.0955
 6712SOL    HW131598   0.554   4.474  14.800  0.2174 -0.2707 -0.8541
 6712SOL    HW231599   0.549   4.624  14.764 -0.1228  1.4758  0.9385
 6713SOL     OW31600   4.706   1.687   4.464  0.0373 -0.2813 -0.1416
 6713SOL    HW131601   0.024   1.738   4.394 -2.6226  1.1910 -0.6229
 6713SOL    HW231602   0.017   1.711   4.550 -0.2622 -1.6177  0.3471
 6714SOL     OW31603   2.314   3.359   7.767 -0.0403 -0.5457 -0.5758
 6714SOL    HW131604   2.226   3.348   7.802  0.1268 -2.7483 -0.8747
 6714SOL    HW231605   2.370   3.301   7.819 -2.1833 -2.0211  0.0702
 6715SOL     OW31606   2.523   2.051  16.101  0.5641  0.0073 -0.4605
 6715SOL    HW131607   2.548   2.022  16.013 -0.1091 -0.7592 -0.4049
 6715SOL    HW231608   2.464   2.122  16.076  0.0455 -0.9377 -1.9588
 6716SOL     OW31609   1.394   1.245   0.801  0.3123 -0.0781 -0.7974
 6716SOL    HW131610   1.382   1.263   0.707  1.3482  0.7925 -0.7728
 6716SOL    HW231611   1.321   1.301   0.826  1.2718  0.6893  0.3289
 6717SOL     OW31612   4.488   1.868   4.010  0.1014  0.2033 -0.4613
 6717SOL    HW131613   4.521   1.811   3.940  2.9742  0.6006  0.5907
 6717SOL    HW231614   4.563   1.916   4.045 -0.4788  0.5567  0.2868
 6718SOL     OW31615   4.100   3.481  14.292 -0.3239 -0.5174 -0.3845
 6718SOL    HW131616   4.073   3.558  14.241 -1.8745 -0.9889 -0.2659
 6718SOL    HW231617   4.042   3.484  14.368  2.5045 -0.2723  1.7479
 6719SOL     OW31618   1.538   0.440   1.298  0.1321 -0.0512 -0.4693
 6719SOL    HW131619   1.611   0.379   1.307 -1.5430 -2.0018 -0.2123
 6719SOL    HW231620   1.472   0.390   1.251 -1.4234  0.8570  0.7531
 6720SOL     OW31621   0.362   3.918   8.653  0.3244  0.1925 -0.2507
 6720SOL    HW131622   0.443   3.872   8.674 -1.1433 -2.3918 -0.2109
 6720SOL    HW231623   0.397   4.002   8.622 -1.4415  1.4885  1.2448
 6721SOL     OW31624   2.050   1.986   8.612  0.0026  0.5671  0.2392
 6721SOL    HW131625   2.084   1.906   8.652  0.9164  0.9013  0.1356
 6721SOL    HW231626   2.106   2.044   8.664 -1.2880  0.3322  1.8932
 6722SOL     OW31627   1.428   1.970   6.750  0.0065 -0.1935  0.2049
 6722SOL    HW131628   1.449   1.883   6.715 -4.0376 -0.3856 -1.7331
 6722SOL    HW231629   1.422   1.942   6.842 -3.1646  2.7824  0.9236
 6723SOL     OW31630   1.368   1.739   2.958  0.0035 -0.1856  0.4596
 6723SOL    HW131631   1.313   1.745   3.036  1.2592  1.0972  1.2421
 6723SOL    HW231632   1.303   1.699   2.901  1.4764 -2.1783  0.1647
 6724SOL     OW31633   1.710   0.019   1.374 -0.3048 -0.6264 -0.4709
 6724SOL    HW131634   1.805   0.012   1.385 -0.3844 -1.1806 -0.1423
 6724SOL    HW231635   1.685   0.027   1.466  0.5471 -1.0240 -0.1979
 6725SOL     OW31636   3.875   2.669  17.586  0.1234  0.0565 -0.8498
 6725SOL    HW131637   3.816   2.731  17.630 -1.1689 -0.3529 -1.9899
 6725SOL    HW231638   3.818   2.592  17.582 -0.5103  0.4142  0.9937
 6726SOL     OW31639   0.768   1.208   2.854 -0.0315 -0.1129  0.1024
 6726SOL    HW131640   0.758   1.153   2.932 -0.4321 -0.0115  0.1200
 6726SOL    HW231641   0.682   1.244   2.832  0.7290  0.9043 -1.2057
 6727SOL     OW31642   0.276   0.835   9.178 -0.0678 -0.0582 -0.3782
 6727SOL    HW131643   0.324   0.753   9.164 -1.7326 -0.9948 -0.6642
 6727SOL    HW231644   0.275   0.841   9.274 -0.2363  1.8206 -0.5044
 6728SOL     OW31645   2.152   3.838   1.670 -0.0650  0.2112 -0.1252
 6728SOL    HW131646   2.170   3.911   1.611 -0.7488  0.5810  0.1226
 6728SOL    HW231647   2.241   3.835   1.704 -0.1540  1.6980  0.2229
 6729SOL     OW31648   2.899   4.302   5.314 -0.4346  0.6437 -0.1371
 6729SOL    HW131649   2.931   4.299   5.224  1.1978  2.2291  0.3882
 6729SOL    HW231650   2.885   4.397   5.316 -3.1360  0.1979  2.1418
 6730SOL     OW31651   3.503   3.036  14.251 -0.0587  0.0440 -0.3263
 6730SOL    HW131652   3.492   3.113  14.307 -2.6740  0.2052 -1.0510
 6730SOL    HW231653   3.553   2.990  14.319  0.0963 -1.3531 -1.3835
 6731SOL     OW31654   1.771   2.209   8.794  0.5752  0.3255  0.1773
 6731SOL    HW131655   1.701   2.269   8.768  2.7423  2.2458 -1.1899
 6731SOL    HW231656   1.796   2.179   8.707 -0.0987 -2.6959  1.0387
 6732SOL     OW31657   3.895   2.409   4.954 -0.6057 -0.2231  0.3795
 6732SOL    HW131658   3.880   2.493   4.996 -0.1860  1.6048 -3.1544
 6732SOL    HW231659   3.854   2.423   4.869  0.5000  1.0831  0.0652
 6733SOL     OW31660   4.517   0.411   5.643  0.2484  0.1732  0.0745
 6733SOL    HW131661   4.540   0.322   5.672 -0.2463 -0.3743 -1.1889
 6733SOL    HW231662   4.459   0.384   5.571 -0.3142  1.9276 -0.1157
 6734SOL     OW31663   4.476   2.930   7.262  0.2146 -0.0366  0.4272
 6734SOL    HW131664   4.419   2.854   7.274  0.0262  0.4026  2.2445
 6734SOL    HW231665   4.446   2.968   7.345 -2.1218  0.5165 -0.6675
 6735SOL     OW31666   3.383   2.761   6.799  0.0730 -0.0431 -0.1407
 6735SOL    HW131667   3.288   2.764   6.794  0.0482 -1.7840 -0.5961
 6735SOL    HW231668   3.408   2.854   6.799 -0.3880  0.0580  2.6019
 6736SOL     OW31669   1.507   1.531   7.149 -0.1776  0.8742 -0.5805
 6736SOL    HW131670   1.554   1.615   7.144  0.0577  0.8266  0.8860
 6736SOL    HW231671   1.429   1.558   7.101  0.1301  2.1580 -0.3804
 6737SOL     OW31672   3.692   1.129   2.914  0.0269 -0.7290 -0.5428
 6737SOL    HW131673   3.745   1.106   2.837  0.0941 -1.7425 -0.1917
 6737SOL    HW231674   3.606   1.127   2.871 -0.2936  1.1559 -0.0106
 6738SOL     OW31675   1.090   2.523  11.534  0.0405  0.1672 -0.3262
 6738SOL    HW131676   1.081   2.514  11.440  0.2736  0.4697 -0.3787
 6738SOL    HW231677   1.132   2.440  11.554 -1.5911 -0.3652  0.8994
 6739SOL     OW31678   3.287   1.652   3.599  0.4747  0.1608  0.4566
 6739SOL    HW131679   3.285   1.675   3.692 -1.4946  0.8189  0.2629
 6739SOL    HW231680   3.197   1.622   3.583  2.0940 -3.9514 -1.1153
 6740SOL     OW31681   1.210   3.409   0.175  0.2840  0.0469  0.3291
 6740SOL    HW131682   1.134   3.401   0.233 -0.7753 -0.3889 -1.1263
 6740SOL    HW231683   1.279   3.393   0.240  0.4805 -1.8143 -0.3511
 6741SOL     OW31684   0.251   1.233   3.901 -0.1648 -0.5094  0.5358
 6741SOL    HW131685   0.188   1.193   3.841 -1.6289  1.3952  0.8145
 6741SOL    HW231686   0.251   1.166   3.969  0.4606 -1.9927 -0.9151
 6742SOL     OW31687   4.012   0.825   0.864 -0.3507 -0.1760 -0.4092
 6742SOL    HW131688   4.043   0.886   0.797  0.7833 -1.5988 -1.1587
 6742SOL    HW231689   4.092   0.775   0.881 -0.3925 -0.1832 -0.2300
 6743SOL     OW31690   2.192   3.953   3.176 -0.0826 -0.6711 -0.2605
 6743SOL    HW131691   2.256   4.019   3.152 -0.5165 -1.1176 -2.6049
 6743SOL    HW231692   2.154   3.936   3.090  0.2541 -1.0525 -0.3340
 6744SOL     OW31693   3.189   1.139   8.669 -0.3686 -0.1288  0.2530
 6744SOL    HW131694   3.104   1.176   8.691 -0.4777 -0.2181 -0.0176
 6744SOL    HW231695   3.221   1.114   8.756  1.5050 -2.0727 -0.9984
 6745SOL     OW31696   0.834   2.821   3.225  0.1569  0.1431 -0.1243
 6745SOL    HW131697   0.881   2.818   3.142 -0.8625 -2.3625 -0.6304
 6745SOL    HW231698   0.907   2.837   3.286 -0.0390 -0.7502  0.3412
 6746SOL     OW31699   2.441   4.193  17.545 -0.2646 -0.4551  0.0498
 6746SOL    HW131700   2.426   4.099  17.551  0.1466 -0.5575 -0.4317
 6746SOL    HW231701   2.377   4.233  17.602 -0.8976  0.0593 -1.0192
 6747SOL     OW31702   1.920   1.967  12.113  0.2843  0.1704  0.2144
 6747SOL    HW131703   1.956   1.878  12.123 -1.7032 -0.6746 -0.1944
 6747SOL    HW231704   1.974   2.000  12.042  2.5357 -1.3786  1.1767
 6748SOL     OW31705   1.577   0.735   4.461  0.3485 -0.5747 -0.2312
 6748SOL    HW131706   1.669   0.730   4.489  0.8436  2.9921 -1.2047
 6748SOL    HW231707   1.567   0.644   4.434 -0.3745 -0.7452  0.6523
 6749SOL     OW31708   1.425   3.723   4.322  0.0351  0.3024  0.9006
 6749SOL    HW131709   1.488   3.764   4.382  0.6897  1.8275 -0.8477
 6749SOL    HW231710   1.354   3.714   4.386  0.3641  1.0908  1.3741
 6750SOL     OW31711   4.492   1.715   6.155  0.1974  0.1495 -0.0251
 6750SOL    HW131712   4.456   1.630   6.129 -0.3496  0.2895  0.2671
 6750SOL    HW231713   4.432   1.734   6.227 -1.1338 -2.4034 -0.4555
 6751SOL     OW31714   2.252   1.474   3.802  0.5532 -0.7384 -0.1169
 6751SOL    HW131715   2.346   1.485   3.787 -0.0453  0.0414 -3.3136
 6751SOL    HW231716   2.238   1.560   3.843 -1.6815 -1.2823  0.2345
 6752SOL     OW31717   3.431   1.469   8.847  0.2791  0.1441  0.2131
 6752SOL    HW131718   3.515   1.477   8.892  0.3765  0.3206 -0.0015
 6752SOL    HW231719   3.377   1.467   8.926  2.2173  1.2288  1.5704
 6753SOL     OW31720   2.814   1.958   7.902  0.1557  0.3315  0.1433
 6753SOL    HW131721   2.752   1.903   7.855 -0.4065  1.9674 -1.0124
 6753SOL    HW231722   2.795   1.950   7.996 -1.0551 -1.4344 -0.2577
 6754SOL     OW31723   3.719   2.330   8.277  0.8154  0.1192 -0.4350
 6754SOL    HW131724   3.797   2.377   8.308  0.6912 -0.5581  0.9102
 6754SOL    HW231725   3.705   2.250   8.327 -0.5816  0.5872 -0.0842
 6755SOL     OW31726   1.564   0.044  12.947  0.7913 -0.2375  0.0971
 6755SOL    HW131727   1.594   0.006  13.029  0.5939  2.0646  1.2295
 6755SOL    HW231728   1.612   0.127  12.948  1.0516 -0.3757 -0.9420
 6756SOL     OW31729   2.301   2.215  16.569 -0.7122  0.3998  0.3314
 6756SOL    HW131730   2.315   2.181  16.658  2.4884 -2.0197 -1.1235
 6756SOL    HW231731   2.205   2.211  16.568 -0.6660 -0.7749 -0.1692
 6757SOL     OW31732   3.393   0.374   2.238 -0.9550 -0.2379  0.0935
 6757SOL    HW131733   3.362   0.454   2.196 -2.3278 -0.1156  1.3295
 6757SOL    HW231734   3.372   0.312   2.167 -1.9847 -1.3418  1.3535
 6758SOL     OW31735   1.180   1.174   4.074 -0.2050  0.1112  0.3747
 6758SOL    HW131736   1.176   1.096   4.019  0.2396 -0.8779  1.7692
 6758SOL    HW231737   1.262   1.168   4.124 -0.3587 -1.8428  0.3957
 6759SOL     OW31738   0.390   0.590   9.096  0.1126 -1.0330  0.2444
 6759SOL    HW131739   0.312   0.539   9.116 -1.2619  1.3937  1.0959
 6759SOL    HW231740   0.361   0.617   9.009  1.0618  0.6930  0.4491
 6760SOL     OW31741   4.631   1.862   5.962  0.0670 -0.1521  0.5320
 6760SOL    HW131742   4.575   1.841   6.036 -2.4755 -0.9001 -1.6236
 6760SOL    HW231743   4.588   1.938   5.923  0.9732 -1.0495 -2.2275
 6761SOL     OW31744   1.848   1.932   1.682 -0.4771  0.4352  0.2105
 6761SOL    HW131745   1.781   1.994   1.711 -0.3709  0.2982  0.7412
 6761SOL    HW231746   1.807   1.893   1.605 -1.0146  1.3524  0.0278
 6762SOL     OW31747   2.794   1.700   4.112 -0.0004 -0.2204  0.3356
 6762SOL    HW131748   2.858   1.719   4.043  0.4438  0.7396  1.0125
 6762SOL    HW231749   2.845   1.720   4.191  0.3778  3.7016 -0.8974
 6763SOL     OW31750   3.797   0.031   4.951 -0.1187  0.1437 -0.2718
 6763SOL    HW131751   3.840   4.670   4.968 -2.1969 -0.6401  1.0657
 6763SOL    HW231752   3.789   0.029   4.856 -1.0438  0.6591 -0.2030
 6764SOL     OW31753   4.063   0.307   4.820 -0.5804 -0.3072  0.0931
 6764SOL    HW131754   3.987   0.345   4.776 -1.9824 -1.3747  1.6142
 6764SOL    HW231755   4.110   0.259   4.752  0.4575  1.1942 -0.2389
 6765SOL     OW31756   1.594   0.544   4.839  0.0025 -0.0643 -0.4115
 6765SOL    HW131757   1.677   0.574   4.802  1.1144 -1.5926  0.8259
 6765SOL    HW231758   1.591   0.589   4.924  1.0922 -1.9816  0.6516
 6766SOL     OW31759   2.044   0.562  14.606  0.3996  0.1546  0.9076
 6766SOL    HW131760   1.980   0.603  14.549  0.6701 -0.6164  0.0580
 6766SOL    HW231761   2.070   0.480  14.564  1.6570  1.1708 -0.2939
 6767SOL     OW31762   0.260   4.064   2.575 -0.3376  0.0154 -0.0607
 6767SOL    HW131763   0.189   4.022   2.526 -1.4018 -1.4132  2.7604
 6767SOL    HW231764   0.211   4.107   2.644 -0.3803 -0.4985  0.2293
 6768SOL     OW31765   0.750   0.123  11.659  0.3040  0.1848  0.2715
 6768SOL    HW131766   0.749   0.079  11.744  1.8098  0.3230  0.3445
 6768SOL    HW231767   0.833   0.169  11.648 -0.6343  1.7752 -0.1719
 6769SOL     OW31768   0.502   3.516   8.559  0.2489 -0.2077  0.0908
 6769SOL    HW131769   0.427   3.574   8.551  1.2751  1.1325  0.0501
 6769SOL    HW231770   0.542   3.538   8.643  0.7621 -0.3210 -0.1211
 6770SOL     OW31771   1.945   4.661   9.447  0.2045 -0.3070  0.5305
 6770SOL    HW131772   1.985   4.605   9.513  0.6741 -1.7667 -0.9953
 6770SOL    HW231773   1.853   4.634   9.453  0.6728 -2.1495 -0.7611
 6771SOL     OW31774   1.857   0.980   2.836  0.5708 -0.8459  0.0962
 6771SOL    HW131775   1.818   0.977   2.748 -1.4744  1.0591  0.9488
 6771SOL    HW231776   1.781   1.012   2.885 -0.2806 -2.6764 -0.0056
 6772SOL     OW31777   4.233   3.965   6.620 -0.5222  0.0020 -0.5865
 6772SOL    HW131778   4.167   3.895   6.616  1.3554 -1.9955  3.1461
 6772SOL    HW231779   4.245   3.954   6.714 -2.8101  1.1235 -0.1638
 6773SOL     OW31780   3.078   0.658   0.018  0.4113 -0.1888  0.1195
 6773SOL    HW131781   3.051   0.608  17.635 -0.1332  0.6138 -0.2075
 6773SOL    HW231782   3.000   0.706   0.045 -0.0728 -1.1683  0.4633
 6774SOL     OW31783   3.305   1.525   9.089 -0.5355 -0.2178 -0.8623
 6774SOL    HW131784   3.347   1.512   9.175  0.6285  1.0256 -1.2458
 6774SOL    HW231785   3.251   1.603   9.100 -0.3984 -0.1880 -0.3861
 6775SOL     OW31786   3.729   0.781  12.277 -0.2470 -0.4164 -0.4060
 6775SOL    HW131787   3.761   0.697  12.310  1.8709  0.7225  0.4557
 6775SOL    HW231788   3.642   0.759  12.245 -0.3069 -0.1943 -0.3973
 6776SOL     OW31789   3.968   0.617   2.654 -0.2310  0.2225 -0.5093
 6776SOL    HW131790   3.911   0.599   2.729  2.2101  0.1050  1.3229
 6776SOL    HW231791   3.903   0.650   2.592 -1.1043  2.8301  1.7484
 6777SOL     OW31792   2.814   1.042   3.484 -0.1618 -0.6165 -0.2075
 6777SOL    HW131793   2.762   1.115   3.451 -0.8216 -0.1300  1.9078
 6777SOL    HW231794   2.883   1.034   3.419 -0.5701  2.7395 -1.0412
 6778SOL     OW31795   0.774   2.800   7.661  0.1007  0.5818 -0.4417
 6778SOL    HW131796   0.711   2.782   7.591 -0.0325  1.6206 -0.5861
 6778SOL    HW231797   0.843   2.736   7.644 -1.1640 -0.9993  0.3500
 6779SOL     OW31798   1.810   3.678   9.618  0.2164 -0.1564  0.6094
 6779SOL    HW131799   1.905   3.666   9.615 -0.3794 -3.9908 -2.5868
 6779SOL    HW231800   1.800   3.683   9.523  2.6619  0.3102  0.3819
 6780SOL     OW31801   0.658   4.420  11.992 -0.5096 -0.2772  0.6692
 6780SOL    HW131802   0.690   4.342  12.038 -1.0956 -0.1347  1.3289
 6780SOL    HW231803   0.596   4.450  12.059 -1.2385 -0.0096 -0.1277
 6781SOL     OW31804   0.584   3.058   3.582 -0.8302 -0.6980  0.1855
 6781SOL    HW131805   0.663   3.105   3.609  0.0734 -1.0421 -1.8459
 6781SOL    HW231806   0.609   3.032   3.494  0.6973  0.7680  0.1827
 6782SOL     OW31807   3.759   3.880   3.098  0.7733  0.3325 -0.5634
 6782SOL    HW131808   3.672   3.864   3.061  1.6387 -1.8408 -1.5925
 6782SOL    HW231809   3.747   3.970   3.129 -0.7567  0.0941 -0.4827
 6783SOL     OW31810   0.840   0.587   1.653 -0.1196  0.0841 -0.0533
 6783SOL    HW131811   0.813   0.589   1.745  0.9965 -0.8112  0.2897
 6783SOL    HW231812   0.900   0.661   1.643 -0.8944  0.9785  1.7738
 6784SOL     OW31813   4.289   4.312   7.944 -0.0228  0.9997 -0.1706
 6784SOL    HW131814   4.249   4.267   8.019 -0.7980 -2.5716 -2.7196
 6784SOL    HW231815   4.377   4.320   7.980 -0.6939 -1.2147  1.9703
 6785SOL     OW31816   2.279   1.398  11.483 -0.4488 -0.1784  0.2619
 6785SOL    HW131817   2.361   1.364  11.519 -0.4380 -1.0085 -0.5112
 6785SOL    HW231818   2.272   1.346  11.402  2.4254 -2.2784  1.3719
 6786SOL     OW31819   1.268   4.596  12.278  0.4275 -0.2839 -0.5805
 6786SOL    HW131820   1.360   4.615  12.297  0.2445  0.7554 -0.6829
 6786SOL    HW231821   1.234   4.686  12.274  1.7463  0.3147  1.6756
 6787SOL     OW31822   0.108   4.258   8.322 -0.3792  0.6549 -0.5235
 6787SOL    HW131823   0.085   4.264   8.229 -1.4690 -2.5085 -0.4426
 6787SOL    HW231824   0.022   4.253   8.364  0.0727 -1.1774  0.1447
 6788SOL     OW31825   4.109   4.705   1.582  0.6296  0.3066  0.0687
 6788SOL    HW131826   4.065   0.002   1.665 -2.4512  1.1999 -1.7628
 6788SOL    HW231827   4.036   4.682   1.524  1.5984 -2.0692 -0.1908
 6789SOL     OW31828   2.104   1.679   7.275 -0.4003 -0.4020 -0.0205
 6789SOL    HW131829   2.165   1.639   7.337  0.0019  0.9732  0.4752
 6789SOL    HW231830   2.109   1.602   7.219 -2.5025  0.9937 -2.1435
 6790SOL     OW31831   3.916   0.367   8.117  0.0512  0.2357 -0.0287
 6790SOL    HW131832   3.948   0.457   8.109  2.7277 -0.7709 -0.6854
 6790SOL    HW231833   3.844   0.384   8.178 -0.4671 -1.6412 -0.0926
 6791SOL     OW31834   0.235   0.958   8.609 -0.3092  0.2132  0.2526
 6791SOL    HW131835   0.202   1.026   8.550 -1.0342  0.5376  1.0224
 6791SOL    HW231836   0.159   0.951   8.667  0.2417  0.8501  1.0576
 6792SOL     OW31837   1.895   3.924   2.662  0.4113 -0.0979  0.1417
 6792SOL    HW131838   1.974   3.979   2.665  0.9543 -0.7778 -1.8334
 6792SOL    HW231839   1.822   3.985   2.676  0.8662  0.1486  1.4707
 6793SOL     OW31840   1.620   2.471  12.851  0.5365  0.2536 -0.1783
 6793SOL    HW131841   1.587   2.405  12.911 -1.6049  1.3940 -0.0906
 6793SOL    HW231842   1.704   2.486  12.893 -0.1360 -2.2388  2.0226
 6794SOL     OW31843   4.175   2.348  14.365 -0.1197  0.5255 -0.3831
 6794SOL    HW131844   4.123   2.326  14.442  1.1649  0.1824  0.3623
 6794SOL    HW231845   4.231   2.271  14.368 -0.4169  0.2933 -0.7465
 6795SOL     OW31846   3.314   0.322   3.141 -0.0306  0.8452 -0.1104
 6795SOL    HW131847   3.286   0.242   3.186 -2.0939  3.0596  2.5385
 6795SOL    HW231848   3.229   0.366   3.139  0.3262  1.4680 -1.4368
 6796SOL     OW31849   3.754   3.813   9.372 -0.4722  0.3942 -0.6912
 6796SOL    HW131850   3.796   3.730   9.392  3.1225  1.9801 -1.7442
 6796SOL    HW231851   3.675   3.796   9.424  0.6333  0.8396  1.1108
 6797SOL     OW31852   4.404   4.212  14.328  0.2533 -0.5827 -0.4536
 6797SOL    HW131853   4.450   4.133  14.355  0.2074 -0.3290  0.3778
 6797SOL    HW231854   4.443   4.226  14.241 -1.7496  0.0271 -1.2476
 6798SOL     OW31855   0.021   1.343   2.350  0.4914  0.2869 -0.5170
 6798SOL    HW131856   4.701   1.426   2.326 -1.4192 -0.4667  0.2820
 6798SOL    HW231857   0.112   1.371   2.339  0.4118  0.3772 -0.9483
 6799SOL     OW31858   1.429   1.721   2.551  0.3846 -0.6079  0.2818
 6799SOL    HW131859   1.415   1.680   2.465 -1.2977  1.0005 -0.2086
 6799SOL    HW231860   1.352   1.682   2.593  1.5376 -2.8119  0.3705
 6800SOL     OW31861   1.092   3.324  14.170  0.0188 -0.0345  0.0348
 6800SOL    HW131862   1.135   3.241  14.149  2.3266  0.7594  1.5795
 6800SOL    HW231863   1.130   3.384  14.106 -0.7063 -0.1683 -0.5189
 6801SOL     OW31864   0.868   3.114   2.448 -0.0707  0.0559  0.3124
 6801SOL    HW131865   0.941   3.129   2.388  2.4495 -1.7097  2.9766
 6801SOL    HW231866   0.798   3.102   2.383 -0.3080 -1.1008  0.7801
 6802SOL     OW31867   1.244   2.979  17.576 -0.5498  0.5515 -0.3236
 6802SOL    HW131868   1.320   3.009  17.526 -1.0186 -0.4113 -1.6102
 6802SOL    HW231869   1.218   3.055  17.627  1.4749 -0.3290  2.0355
 6803SOL     OW31870   1.580   1.036  14.625 -0.3354  0.4454  0.4186
 6803SOL    HW131871   1.551   1.106  14.684  2.1010 -1.6826  4.1696
 6803SOL    HW231872   1.553   1.076  14.543 -0.1274 -0.6836 -0.2046
 6804SOL     OW31873   4.351   4.002   8.411 -0.1726  0.2362 -0.1916
 6804SOL    HW131874   4.308   3.918   8.430  0.6433  0.2481  1.6594
 6804SOL    HW231875   4.283   4.059   8.448  1.2851  0.8800  1.4989
 6805SOL     OW31876   3.335   1.028   6.397  0.1660 -0.6304 -0.0075
 6805SOL    HW131877   3.354   1.085   6.322 -0.1499 -0.3355  0.1350
 6805SOL    HW231878   3.349   1.088   6.470 -1.6056 -1.4063  0.9573
 6806SOL     OW31879   3.662   0.411   9.728 -0.5028 -0.2072  0.4233
 6806SOL    HW131880   3.719   0.413   9.651  1.8746 -0.2682  2.1572
 6806SOL    HW231881   3.603   0.476   9.690 -0.6479 -1.2380 -1.1000
 6807SOL     OW31882   3.811   3.093   3.401  0.0176 -0.0241  0.0974
 6807SOL    HW131883   3.732   3.076   3.453 -0.6107  2.0666 -0.1705
 6807SOL    HW231884   3.827   3.001   3.379 -0.7164 -0.1789  0.1933
 6808SOL     OW31885   4.011   3.044   1.205  0.0803  0.0054 -0.2199
 6808SOL    HW131886   4.104   3.030   1.222 -0.1228 -0.5730  0.3943
 6808SOL    HW231887   3.986   2.966   1.156 -1.4512  1.2797 -1.4539
 6809SOL     OW31888   3.944   1.146   7.403  0.2063  0.1038 -0.6696
 6809SOL    HW131889   3.912   1.161   7.492 -1.8758 -0.3758 -1.3300
 6809SOL    HW231890   3.857   1.140   7.364  0.2439  2.8127 -1.1147
 6810SOL     OW31891   4.393   1.015   4.118 -0.3555 -0.0325 -0.2597
 6810SOL    HW131892   4.315   1.059   4.153 -1.2583 -1.6836 -0.1752
 6810SOL    HW231893   4.385   0.934   4.169  0.2515 -0.2498 -0.5146
 6811SOL     OW31894   0.864   3.552   0.865  0.0849 -0.0841 -0.0787
 6811SOL    HW131895   0.937   3.597   0.823 -1.8307  2.3741 -0.7387
 6811SOL    HW231896   0.906   3.466   0.873 -1.9709 -0.8868  2.1831
 6812SOL     OW31897   0.935   3.909  16.751 -0.3921 -0.1636 -0.5315
 6812SOL    HW131898   0.889   3.848  16.693 -0.0211 -0.3676 -0.6130
 6812SOL    HW231899   1.018   3.893  16.707 -0.6280 -0.0798 -1.0120
 6813SOL     OW31900   0.795   4.583   2.414  0.1530  0.0916  0.4077
 6813SOL    HW131901   0.839   4.504   2.381  4.3857  2.4955  0.2016
 6813SOL    HW231902   0.741   4.603   2.338 -0.4104 -1.7423  0.3243
 6814SOL     OW31903   1.033   2.906   3.384  0.4420 -0.1061  0.2725
 6814SOL    HW131904   0.998   2.873   3.467 -0.0242 -0.5729 -0.1036
 6814SOL    HW231905   1.123   2.875   3.381 -0.6942 -3.3600 -0.7526
 6815SOL     OW31906   2.117   1.317  11.926  0.4172  0.5540 -0.1957
 6815SOL    HW131907   2.199   1.285  11.889 -0.2855 -1.3134 -0.1586
 6815SOL    HW231908   2.050   1.257  11.892 -0.4624  1.7949 -0.6427
 6816SOL     OW31909   0.541   0.067  10.912 -0.5051  0.4712  0.1309
 6816SOL    HW131910   0.475   4.722  10.923  1.0320 -0.9364  0.6083
 6816SOL    HW231911   0.549   0.096  11.003  1.6197  2.7509 -0.7885
 6817SOL     OW31912   3.043   4.230   2.839  0.2548  0.6385  0.8500
 6817SOL    HW131913   3.137   4.239   2.856  0.8271 -2.9009 -0.4393
 6817SOL    HW231914   3.039   4.211   2.745  0.7687 -1.0438  1.1714
 6818SOL     OW31915   3.593   4.666   9.208  0.1529 -0.6481  0.1818
 6818SOL    HW131916   3.513   4.716   9.198  1.4141  0.7319 -3.2470
 6818SOL    HW231917   3.601   4.613   9.129 -3.1199 -0.0820 -0.5253
 6819SOL     OW31918   0.658   4.582  12.486 -0.0648  0.4258  0.1496
 6819SOL    HW131919   0.700   4.596  12.401 -0.0451 -0.7670 -0.0463
 6819SOL    HW231920   0.623   4.670  12.492  0.3891  0.5748  0.5984
 6820SOL     OW31921   3.914   4.379   9.459 -0.1256  0.1594  0.0676
 6820SOL    HW131922   3.918   4.472   9.434 -0.0976  0.6959  2.0765
 6820SOL    HW231923   3.845   4.377   9.525  1.9056 -0.3178  2.1454
 6821SOL     OW31924   3.839   4.267   5.934 -0.0452  0.1255 -0.4440
 6821SOL    HW131925   3.823   4.307   5.849  1.8595 -1.0130 -1.3623
 6821SOL    HW231926   3.912   4.213   5.902  0.0194  0.9862 -1.7680
 6822SOL     OW31927   0.467   0.121  13.072 -0.1139  0.2743 -0.3346
 6822SOL    HW131928   0.530   0.107  13.001  0.2252 -2.0338  0.4263
 6822SOL    HW231929   0.477   0.038  13.119 -2.9114  0.0643 -0.0693
 6823SOL     OW31930   2.367   0.114   4.022  0.5325 -0.4201  0.5579
 6823SOL    HW131931   2.428   0.061   3.970  2.2816 -1.3202  3.5018
 6823SOL    HW231932   2.369   0.076   4.110 -0.1685 -1.4656  0.1211
 6824SOL     OW31933   0.470   4.519  12.242 -0.6111  0.4678 -0.7675
 6824SOL    HW131934   0.384   4.522  12.284 -0.1851  0.2614  0.1066
 6824SOL    HW231935   0.535   4.520  12.312  0.2306 -2.1631 -1.5312
 6825SOL     OW31936   3.615   2.702   5.232 -0.6623  0.3010  0.3029
 6825SOL    HW131937   3.603   2.706   5.326 -0.8087 -1.1861  0.3561
 6825SOL    HW231938   3.654   2.615   5.221  2.3095  1.6801 -0.2019
 6826SOL     OW31939   0.504   4.275   7.673  0.0834  0.2513  0.0320
 6826SOL    HW131940   0.496   4.180   7.674  1.1104  0.1227 -3.3095
 6826SOL    HW231941   0.485   4.302   7.763  0.1698 -2.0130  0.7100
 6827SOL     OW31942   1.860   1.810   7.339 -0.6351  0.5742 -0.0040
 6827SOL    HW131943   1.935   1.752   7.329  0.5289  2.2745 -1.1778
 6827SOL    HW231944   1.901   1.897   7.336 -2.0715  1.2790  1.0606
 6828SOL     OW31945   3.791   3.744  13.190  0.5177 -0.6561 -0.4291
 6828SOL    HW131946   3.780   3.684  13.116  0.4034  0.1228 -1.0426
 6828SOL    HW231947   3.722   3.709  13.247 -0.4925  1.4330 -0.3836
 6829SOL     OW31948   1.923   3.177   6.044 -0.1064 -0.6135  0.4716
 6829SOL    HW131949   1.856   3.215   5.987  0.5387  0.6893  0.5793
 6829SOL    HW231950   1.982   3.155   5.972 -0.8623  0.3244 -0.4434
 6830SOL     OW31951   4.364   4.405   5.556  0.5014 -0.1255 -0.2040
 6830SOL    HW131952   4.326   4.375   5.474 -1.4118 -1.6985  1.2453
 6830SOL    HW231953   4.286   4.409   5.611 -0.6955  2.3109 -2.0908
 6831SOL     OW31954   4.628   0.122   6.904 -0.6918 -0.0682  0.0532
 6831SOL    HW131955   4.642   0.076   6.822 -0.2463 -1.2364  0.7883
 6831SOL    HW231956   4.686   0.198   6.906  0.3905 -0.8794 -0.9848
 6832SOL     OW31957   3.687   0.558   8.929  0.0918  0.0069  0.3266
 6832SOL    HW131958   3.696   0.486   8.867  2.8584  1.0936 -0.5021
 6832SOL    HW231959   3.703   0.637   8.878  0.8983  0.9013  1.9774
 6833SOL     OW31960   0.013   1.750   4.975  0.7821 -0.3393  0.3137
 6833SOL    HW131961   4.692   1.698   5.042  1.1032  0.5900  1.2379
 6833SOL    HW231962   4.723   1.834   5.019  2.5430 -0.7370  1.6122
 6834SOL     OW31963   1.331   3.467  10.452  0.2225 -0.5125  0.2356
 6834SOL    HW131964   1.393   3.479  10.523 -0.9620 -0.1132  1.1946
 6834SOL    HW231965   1.287   3.551  10.462  0.5254 -0.3357  0.1075
 6835SOL     OW31966   1.516   0.790  16.962 -0.2659  0.4283  0.1972
 6835SOL    HW131967   1.536   0.827  17.048 -1.9975 -1.0036  1.2230
 6835SOL    HW231968   1.562   0.850  16.904 -0.3030  1.7083  1.5026
 6836SOL     OW31969   1.943   3.677   4.581  0.1978 -0.1532 -0.0765
 6836SOL    HW131970   1.941   3.761   4.626 -1.9750 -0.3601  0.1983
 6836SOL    HW231971   2.037   3.691   4.569  0.2267  0.2845  0.7349
 6837SOL     OW31972   1.895   3.210   7.975 -0.5149 -0.5083  0.2374
 6837SOL    HW131973   1.811   3.241   7.939 -0.7523 -0.5257  0.7838
 6837SOL    HW231974   1.951   3.222   7.898  0.9694 -0.4749  1.3304
 6838SOL     OW31975   1.519   2.146  13.914 -0.5351 -0.4282  0.1843
 6838SOL    HW131976   1.532   2.052  13.925 -0.4658 -0.6427 -1.6737
 6838SOL    HW231977   1.608   2.170  13.940 -1.4980  1.9588  1.1959
 6839SOL     OW31978   2.286   1.533  16.898  0.3613 -0.3862  0.8066
 6839SOL    HW131979   2.299   1.626  16.918 -0.3346  0.0889 -0.9490
 6839SOL    HW231980   2.373   1.500  16.875  0.4832  1.0231 -0.7173
 6840SOL     OW31981   1.015   3.317   4.570  0.2613  0.4526  0.0043
 6840SOL    HW131982   0.963   3.284   4.643 -0.0870 -1.9609 -1.3311
 6840SOL    HW231983   0.953   3.378   4.530 -0.3577 -0.2021 -0.0371
 6841SOL     OW31984   2.017   3.128   0.906 -0.0185  0.4803 -0.0815
 6841SOL    HW131985   1.990   3.186   0.835  0.0938  0.6815  0.0377
 6841SOL    HW231986   1.980   3.045   0.877  0.4407 -0.4419  1.9920
 6842SOL     OW31987   0.204   1.865   6.885 -0.0464 -0.3603  0.1232
 6842SOL    HW131988   0.175   1.871   6.794  0.1173  1.6438  0.2029
 6842SOL    HW231989   0.235   1.775   6.889 -4.1450 -1.7101  2.0267
 6843SOL     OW31990   2.269   3.354   6.248 -0.0341  0.1620  0.1228
 6843SOL    HW131991   2.229   3.300   6.179 -0.7911 -0.3079  0.9231
 6843SOL    HW231992   2.243   3.441   6.217  0.7959 -0.0020 -1.0464
 6844SOL     OW31993   4.130   2.267   3.988  0.4409 -0.7593 -0.2821
 6844SOL    HW131994   4.072   2.279   3.913 -1.0081 -0.7166  0.8445
 6844SOL    HW231995   4.183   2.347   3.983 -0.3989 -0.2081 -0.3136
 6845SOL     OW31996   0.838   3.521   9.344  0.2229  0.1666 -0.8779
 6845SOL    HW131997   0.764   3.501   9.401  0.9741  1.0470  0.4143
 6845SOL    HW231998   0.869   3.591   9.401  1.0497 -2.0489  1.3725
 6846SOL     OW31999   3.559   1.973   4.938 -0.5485  0.2213 -0.0754
 6846SOL    HW132000   3.491   1.906   4.931  2.1060 -2.6581  1.6251
 6846SOL    HW232001   3.599   1.970   5.025  1.5276 -1.2194 -1.0802
 6847SOL     OW32002   2.920   3.513   0.490 -0.1815  0.3154 -0.5785
 6847SOL    HW132003   2.883   3.598   0.469 -0.1866  0.9842  2.1217
 6847SOL    HW232004   3.001   3.545   0.531 -1.2463  1.2641  0.7809
 6848SOL     OW32005   0.671   1.024   3.128 -0.0217 -0.3395  0.2566
 6848SOL    HW132006   0.594   1.078   3.109  0.6174  0.0550 -1.1583
 6848SOL    HW232007   0.652   1.000   3.219 -3.0069  1.4196  0.1057
 6849SOL     OW32008   1.052   3.042  12.888 -0.8167  0.0811  0.5518
 6849SOL    HW132009   1.103   2.980  12.837 -0.2569  1.8174 -1.0140
 6849SOL    HW232010   0.977   2.983  12.890 -2.0072  1.5826  0.3141
 6850SOL     OW32011   0.795   2.401   9.622  0.3655 -0.0408 -0.5997
 6850SOL    HW132012   0.801   2.494   9.598 -1.3988  0.0909 -0.5132
 6850SOL    HW232013   0.869   2.379   9.566  1.5108 -1.5289  1.5003
 6851SOL     OW32014   0.374   0.458   5.419  0.3832  0.3505 -0.2607
 6851SOL    HW132015   0.413   0.371   5.416 -0.8668 -0.1857 -0.5061
 6851SOL    HW232016   0.445   0.494   5.366  1.2781 -0.8638  0.1222
 6852SOL     OW32017   1.333   0.338   1.124 -0.3431 -0.4744  0.7012
 6852SOL    HW132018   1.281   0.351   1.044  0.8868 -0.6032 -0.1151
 6852SOL    HW232019   1.283   0.383   1.192  1.9872  0.4519  1.7913
 6853SOL     OW32020   3.270   1.095   2.535  0.2742  0.0177 -0.2416
 6853SOL    HW132021   3.182   1.129   2.522  0.6002  0.2552 -1.8664
 6853SOL    HW232022   3.257   1.000   2.537 -1.4251  0.2856  2.1387
 6854SOL     OW32023   3.834   1.842   4.495  0.3993  0.4260 -0.3165
 6854SOL    HW132024   3.918   1.868   4.532  0.6891 -0.7784 -0.1576
 6854SOL    HW232025   3.831   1.902   4.420  1.4667  0.5488 -0.2606
 6855SOL     OW32026   3.089   0.855  11.907 -0.1721 -0.7622 -0.4600
 6855SOL    HW132027   3.112   0.764  11.889  0.3385 -0.7280  0.0091
 6855SOL    HW232028   3.117   0.860  11.999 -0.9972 -0.7950 -0.2116
 6856SOL     OW32029   4.170   1.689   4.541  0.2764 -0.5283  0.2926
 6856SOL    HW132030   4.151   1.662   4.452  1.7771 -0.4953 -0.0350
 6856SOL    HW232031   4.260   1.720   4.532 -0.2081  0.3976 -1.2625
 6857SOL     OW32032   3.421   0.422  15.656  0.0120  0.1836 -0.4338
 6857SOL    HW132033   3.332   0.407  15.688  0.2513  0.5941  0.4350
 6857SOL    HW232034   3.470   0.341  15.648 -2.3872 -1.3169  0.0137
 6858SOL     OW32035   0.846   3.000   8.897  0.0071 -0.0597 -0.1393
 6858SOL    HW132036   0.784   2.941   8.939 -1.1142  1.1103 -0.1355
 6858SOL    HW232037   0.804   3.043   8.822  0.2487 -0.5962 -0.5717
 6859SOL     OW32038   1.495   2.680  11.247 -0.2970 -0.3282  0.2975
 6859SOL    HW132039   1.444   2.604  11.220 -2.7357  1.3408  0.1886
 6859SOL    HW232040   1.459   2.710  11.330 -1.2183  0.1690 -0.2796
 6860SOL     OW32041   3.809   4.100  12.577  0.1083 -0.2416  0.6927
 6860SOL    HW132042   3.819   4.172  12.639 -0.1103 -0.4731  0.9975
 6860SOL    HW232043   3.801   4.029  12.641  0.1339  0.4342  1.4496
 6861SOL     OW32044   3.569   3.835   4.158 -0.2560 -0.6279  0.0527
 6861SOL    HW132045   3.509   3.791   4.098 -1.3792  0.2142  0.5642
 6861SOL    HW232046   3.556   3.787   4.240  0.1582 -0.8976 -0.0382
 6862SOL     OW32047   4.091   0.533   0.745 -0.0613 -0.4103  0.5324
 6862SOL    HW132048   4.158   0.569   0.803 -0.3751  0.7630  0.1702
 6862SOL    HW232049   4.042   0.489   0.814 -0.4572 -1.1176 -0.1891
 6863SOL     OW32050   2.560   1.348   3.408 -0.7503  0.5320 -0.3346
 6863SOL    HW132051   2.503   1.274   3.390 -2.0770  1.3094  0.6908
 6863SOL    HW232052   2.530   1.420   3.353  1.4188  0.1511 -2.0256
 6864SOL     OW32053   4.265   1.962   5.842  0.3173  0.4025 -0.6991
 6864SOL    HW132054   4.343   2.015   5.856 -0.8351  2.4977 -2.2319
 6864SOL    HW232055   4.277   1.909   5.762  1.5686 -1.7760  0.9243
 6865SOL     OW32056   4.539   1.076   3.122  0.0233 -0.0482 -0.4599
 6865SOL    HW132057   4.633   1.069   3.135 -0.2564  0.2290  1.6959
 6865SOL    HW232058   4.514   1.006   3.182  4.5144  0.0657  1.4647
 6866SOL     OW32059   3.464   3.809   5.318  0.0410  0.5641 -0.0494
 6866SOL    HW132060   3.548   3.837   5.355  1.1601 -0.5935 -1.7064
 6866SOL    HW232061   3.400   3.867   5.360  0.4243 -0.0051  1.3227
 6867SOL     OW32062   1.033   3.929   8.043  0.6646 -0.4010  0.1610
 6867SOL    HW132063   1.049   4.007   7.990 -0.7919 -0.3502 -0.2021
 6867SOL    HW232064   1.085   3.861   8.001  1.0696  0.5830 -0.9458
 6868SOL     OW32065   2.193   1.000   7.121  0.0486 -0.0433 -0.0808
 6868SOL    HW132066   2.165   0.912   7.147 -1.7236  0.1761 -1.1736
 6868SOL    HW232067   2.123   1.041   7.068 -0.2533 -0.7740 -0.2472
 6869SOL     OW32068   1.572   0.345   6.903 -0.0775 -0.6817  0.2371
 6869SOL    HW132069   1.571   0.428   6.855  0.3971 -0.0714  1.2838
 6869SOL    HW232070   1.499   0.294   6.868 -1.3943  2.2755 -1.3472
 6870SOL     OW32071   4.697   0.209   7.935 -0.3550 -0.7942 -0.0452
 6870SOL    HW132072   4.711   0.180   8.025 -3.5351  0.0228  0.7007
 6870SOL    HW232073   0.065   0.223   7.907 -0.1389 -2.4241 -0.1344
 6871SOL     OW32074   0.735   4.056  12.618 -0.5286  0.2819  0.0891
 6871SOL    HW132075   0.771   4.038  12.705 -0.2870  1.9460  0.3273
 6871SOL    HW232076   0.653   4.007  12.618  0.3221 -1.1314  1.0595
 6872SOL     OW32077   1.961   0.383   4.705 -0.1453 -0.4546 -0.1774
 6872SOL    HW132078   2.046   0.390   4.661 -0.4797  1.4437 -0.4899
 6872SOL    HW232079   1.973   0.328   4.782 -0.7077  0.1726  0.3491
 6873SOL     OW32080   3.406   1.776  14.387 -0.3991  0.1284  0.6265
 6873SOL    HW132081   3.407   1.835  14.312 -0.7762 -1.3767 -0.5697
 6873SOL    HW232082   3.493   1.771  14.427 -0.0030  0.0928 -0.2320
 6874SOL     OW32083   4.192   3.546  10.276 -0.1628  0.1175 -0.3044
 6874SOL    HW132084   4.163   3.636  10.267 -0.6614  0.0000  0.1326
 6874SOL    HW232085   4.148   3.515  10.196  1.0090 -1.2881 -0.4029
 6875SOL     OW32086   4.158   1.777   4.130  0.9356 -0.1405 -0.1839
 6875SOL    HW132087   4.186   1.695   4.169 -0.8346 -0.8512 -0.4394
 6875SOL    HW232088   4.189   1.841   4.194 -0.1879  0.2429 -0.0193
 6876SOL     OW32089   2.780   1.819  10.101 -0.3919 -0.2951  0.0896
 6876SOL    HW132090   2.826   1.903  10.097 -0.9542  0.0209  0.3394
 6876SOL    HW232091   2.848   1.759  10.068 -0.2278 -0.6188  0.9824
 6877SOL     OW32092   0.816   0.550   4.646 -0.2728  0.0821  0.0224
 6877SOL    HW132093   0.874   0.477   4.624  0.8273  1.7803 -2.7250
 6877SOL    HW232094   0.731   0.513   4.622  0.2598 -1.0686 -0.0924
 6878SOL     OW32095   2.755   1.539   9.635 -0.1598 -0.7877 -0.1448
 6878SOL    HW132096   2.786   1.613   9.688 -0.9924  0.6789 -1.6917
 6878SOL    HW232097   2.831   1.493   9.600  0.6392  1.2066 -1.0272
 6879SOL     OW32098   2.700   3.007  12.181 -0.7874  0.2832 -0.3813
 6879SOL    HW132099   2.728   3.016  12.272 -1.5516  1.2417 -0.2354
 6879SOL    HW232100   2.612   2.970  12.190 -0.3156 -0.2789  2.1388
 6880SOL     OW32101   4.296   4.294   3.957 -0.1315  0.0818 -0.2824
 6880SOL    HW132102   4.340   4.307   3.872 -2.0076  1.3097 -1.0559
 6880SOL    HW232103   4.233   4.366   3.960 -1.6203 -1.1736 -1.4293
 6881SOL     OW32104   4.577   2.038   8.143  0.2505 -0.6013 -0.4656
 6881SOL    HW132105   4.486   2.006   8.135 -0.0993  0.9649 -2.7710
 6881SOL    HW232106   4.611   1.976   8.207  1.9279  2.1900  1.2792
 6882SOL     OW32107   3.832   1.163   4.778 -0.2972 -0.5304  0.1542
 6882SOL    HW132108   3.862   1.246   4.815  0.0589 -0.0830 -1.1505
 6882SOL    HW232109   3.913   1.124   4.746 -0.2096 -0.7260  0.6043
 6883SOL     OW32110   3.323   0.802   2.782 -0.1587 -0.6603 -0.3026
 6883SOL    HW132111   3.408   0.759   2.782 -0.0720 -0.5060 -1.8166
 6883SOL    HW232112   3.270   0.728   2.753 -0.9644  0.3737 -1.4762
 6884SOL     OW32113   4.172   0.383   1.165 -0.2690 -0.3987  0.4672
 6884SOL    HW132114   4.255   0.386   1.212 -0.4465 -0.6178  0.7893
 6884SOL    HW232115   4.111   0.420   1.229 -0.4269  0.7347 -0.3237
 6885SOL     OW32116   1.390   3.375   0.358  0.3257  0.9259 -0.1575
 6885SOL    HW132117   1.441   3.309   0.406 -1.2537  0.1019  0.3783
 6885SOL    HW232118   1.457   3.418   0.305 -0.2773 -1.0596 -2.5282
 6886SOL     OW32119   2.132   4.282   6.621 -0.3890 -0.0217  1.3060
 6886SOL    HW132120   2.125   4.187   6.611  0.5647  0.0909 -0.3723
 6886SOL    HW232121   2.219   4.291   6.659 -0.2862  2.1756  0.5449
 6887SOL     OW32122   3.234   2.388   5.573 -0.1893 -0.3258 -0.5322
 6887SOL    HW132123   3.277   2.367   5.656  0.1471  0.4814 -0.5025
 6887SOL    HW232124   3.167   2.450   5.601 -0.0114 -0.1995 -0.3909
 6888SOL     OW32125   1.587   1.866   9.713  0.0276 -0.6640  0.2589
 6888SOL    HW132126   1.679   1.894   9.711 -0.7484  1.7275 -0.9216
 6888SOL    HW232127   1.612   1.773   9.710 -2.2780 -1.2015 -2.0853
 6889SOL     OW32128   1.002   3.365   1.402 -0.6975  0.0312 -0.7449
 6889SOL    HW132129   0.963   3.452   1.405  0.0487  0.3614 -0.7390
 6889SOL    HW232130   1.035   3.366   1.492  0.3232 -1.4861 -1.1090
 6890SOL     OW32131   0.990   3.248   3.821  0.5513  0.0534  0.0577
 6890SOL    HW132132   0.977   3.215   3.910  1.9871  4.1489  1.8244
 6890SOL    HW232133   1.062   3.307   3.843 -0.2558  0.8119  0.6399
 6891SOL     OW32134   2.644   2.348   6.105  0.2237  0.9629 -0.3538
 6891SOL    HW132135   2.681   2.360   6.192 -1.3253  0.2180  0.3976
 6891SOL    HW232136   2.655   2.432   6.061  1.5248 -0.7318 -3.3430
 6892SOL     OW32137   0.209   2.448   4.603  0.6828 -0.1147  0.0445
 6892SOL    HW132138   0.222   2.536   4.637  0.4432  0.6107 -1.7189
 6892SOL    HW232139   0.138   2.415   4.659  0.3485 -0.0982 -0.3667
 6893SOL     OW32140   4.326   3.201   9.637  0.2892  0.3829  0.0611
 6893SOL    HW132141   4.318   3.285   9.592 -2.8932 -0.3140 -0.6992
 6893SOL    HW232142   4.243   3.157   9.617  0.6772  0.8885 -2.7036
 6894SOL     OW32143   3.548   3.737   7.519  0.2601 -0.3734  0.0781
 6894SOL    HW132144   3.594   3.702   7.443 -2.7456  0.1095 -1.9521
 6894SOL    HW232145   3.570   3.678   7.591  2.6012 -0.3484 -0.6278
 6895SOL     OW32146   3.361   0.101   8.361  0.4273  0.2019 -0.1792
 6895SOL    HW132147   3.453   0.123   8.344  0.7819 -0.4939  0.8599
 6895SOL    HW232148   3.297   0.144   8.303 -1.0975 -0.1775  1.2342
 6896SOL     OW32149   4.614   3.802   3.333  0.4702  0.0882  0.1124
 6896SOL    HW132150   4.564   3.727   3.301 -0.3405  0.0638  1.4361
 6896SOL    HW232151   4.697   3.786   3.289 -0.2023  1.5585 -1.6993
 6897SOL     OW32152   0.594   1.935   6.962  0.2440 -0.1797 -0.4502
 6897SOL    HW132153   0.688   1.938   6.944  0.4832 -0.2945  0.7998
 6897SOL    HW232154   0.579   1.843   6.939  1.5409 -0.3056 -0.8388
 6898SOL     OW32155   1.706   2.496   1.601  0.1474 -0.3107 -0.2011
 6898SOL    HW132156   1.719   2.406   1.629 -1.7690  0.3496  2.7580
 6898SOL    HW232157   1.738   2.494   1.511 -0.0967  0.8140 -0.3235
 6899SOL     OW32158   0.478   1.411   2.593 -0.0275  0.4124  0.0627
 6899SOL    HW132159   0.449   1.352   2.523  0.7376  0.0716  0.0384
 6899SOL    HW232160   0.417   1.482   2.572 -1.1768 -0.5756  0.0424
 6900SOL     OW32161   3.026   1.333   9.630 -0.1785 -0.2450 -0.1215
 6900SOL    HW132162   3.072   1.384   9.563  0.0362 -2.3990 -1.6234
 6900SOL    HW232163   2.967   1.276   9.580 -0.2248  0.2373 -0.6230
 6901SOL     OW32164   4.097   1.219   6.434 -0.1288  0.2722  0.2524
 6901SOL    HW132165   4.041   1.210   6.510  0.9195  1.0317  1.1194
 6901SOL    HW232166   4.178   1.168   6.447  0.5936  1.2563 -0.3899
 6902SOL     OW32167   1.722   3.234   3.522 -0.1904  0.3698 -0.6531
 6902SOL    HW132168   1.705   3.140   3.528  2.3975 -0.0410  0.0510
 6902SOL    HW232169   1.758   3.245   3.434 -0.3709  0.0789 -0.7649
 6903SOL     OW32170   4.254   1.985  14.917  0.0215  0.3379  0.1472
 6903SOL    HW132171   4.161   2.008  14.915 -0.2834 -0.7428  1.9986
 6903SOL    HW232172   4.251   1.928  14.994 -2.2473  0.5472  0.2247
 6904SOL     OW32173   1.333   1.722   7.834  0.3269 -0.1236  0.1721
 6904SOL    HW132174   1.330   1.758   7.922 -1.5024 -0.9014  0.4338
 6904SOL    HW232175   1.245   1.693   7.812  1.1349 -2.5398  0.1033
 6905SOL     OW32176   4.611   4.181  14.916 -0.0744 -0.2568  0.0453
 6905SOL    HW132177   4.547   4.184  14.846  1.4089 -0.9286 -1.3327
 6905SOL    HW232178   4.688   4.143  14.873  0.5556  0.7854  0.2573
 6906SOL     OW32179   0.241   0.658   8.873 -0.2307  0.0898 -0.2754
 6906SOL    HW132180   0.150   0.657   8.842  0.3366  1.7709 -1.9577
 6906SOL    HW232181   0.279   0.584   8.826  1.8931 -0.3728  2.1425
 6907SOL     OW32182   1.121   2.881  15.155  0.2815 -0.0729  0.3208
 6907SOL    HW132183   1.048   2.820  15.161  0.5398 -0.2197  1.8651
 6907SOL    HW232184   1.086   2.943  15.091 -0.5935  1.0221  1.8528
 6908SOL     OW32185   4.231   0.296   1.923 -0.0932  0.3510  0.0659
 6908SOL    HW132186   4.284   0.263   1.851 -1.4706  0.4349 -0.9872
 6908SOL    HW232187   4.152   0.302   1.869  0.1884 -1.3229 -0.5320
 6909SOL     OW32188   3.729   3.644   5.751  0.1684  0.1379  0.1595
 6909SOL    HW132189   3.800   3.680   5.804 -1.6396  0.5196  2.3598
 6909SOL    HW232190   3.683   3.725   5.729  1.8957  1.0062 -0.2712
 6910SOL     OW32191   1.236   0.701   2.549  0.5573 -0.2159 -0.2397
 6910SOL    HW132192   1.187   0.690   2.631 -0.7017  0.4349 -0.9059
 6910SOL    HW232193   1.166   0.669   2.493 -0.1030 -0.7476  0.8809
 6911SOL     OW32194   0.060   1.165  16.257  0.2935  0.6428 -0.1402
 6911SOL    HW132195   0.151   1.155  16.230  0.3671  1.7786 -0.2711
 6911SOL    HW232196   0.040   1.072  16.272 -0.8574  0.5523 -2.2859
 6912SOL     OW32197   0.238   4.469   7.771 -0.3132  0.0853 -0.6942
 6912SOL    HW132198   0.204   4.556   7.746 -1.0297  0.4495  1.4904
 6912SOL    HW232199   0.318   4.480   7.822 -0.7478 -1.1947  0.2545
 6913SOL     OW32200   3.059   1.159   5.441 -0.0488  0.0642  0.1377
 6913SOL    HW132201   3.083   1.180   5.531 -0.3637 -0.3344  0.3163
 6913SOL    HW232202   3.144   1.146   5.399  0.8084  2.4680  1.1526
 6914SOL     OW32203   1.593   3.718   3.360  0.2162  0.0906 -0.7130
 6914SOL    HW132204   1.521   3.737   3.300  1.1709  0.2826 -1.7911
 6914SOL    HW232205   1.579   3.626   3.384  0.2205  0.5884  1.2028
 6915SOL     OW32206   3.875   2.142   9.090  1.0224 -0.1637  0.2505
 6915SOL    HW132207   3.787   2.162   9.123  0.9413  1.4726 -0.9607
 6915SOL    HW232208   3.930   2.214   9.122 -2.1175  2.3143  0.0400
 6916SOL     OW32209   3.819   1.325   6.264 -0.2339 -0.1580  0.5727
 6916SOL    HW132210   3.785   1.324   6.354  0.3460 -0.0445  0.7949
 6916SOL    HW232211   3.829   1.233   6.242  0.4479  0.5123 -1.8745
 6917SOL     OW32212   1.937   2.943   5.508  0.5832  0.2557 -0.3598
 6917SOL    HW132213   1.914   2.852   5.489 -0.2235  0.3805  0.0255
 6917SOL    HW232214   1.865   2.973   5.453 -1.1258 -3.1176  0.0263
 6918SOL     OW32215   4.289   2.776  14.568 -0.5094 -0.1986  0.3337
 6918SOL    HW132216   4.291   2.724  14.487 -3.6315 -0.5366  0.4767
 6918SOL    HW232217   4.332   2.719  14.632 -1.2682  0.4722  1.4113
 6919SOL     OW32218   2.969   1.988   5.813 -0.5111 -0.2613 -0.4397
 6919SOL    HW132219   3.047   1.942   5.783 -0.5192 -1.4213  1.3643
 6919SOL    HW232220   3.002   2.066   5.857 -0.3804  0.0037 -0.9973
 6920SOL     OW32221   4.063   1.542   6.083 -0.3879 -0.1799  0.2578
 6920SOL    HW132222   4.124   1.549   6.010 -0.4404 -0.7470  0.1597
 6920SOL    HW232223   4.023   1.629   6.079 -1.3336 -0.5562  1.7235
 6921SOL     OW32224   1.581   2.371   6.472 -0.3664  0.0702 -0.2595
 6921SOL    HW132225   1.524   2.436   6.513 -0.5063 -1.0120  1.2304
 6921SOL    HW232226   1.641   2.351   6.544 -3.7688  1.6404  3.0021
 6922SOL     OW32227   0.606   0.029   6.331  0.1432  0.5790  0.5284
 6922SOL    HW132228   0.586   4.686   6.398 -1.7840  0.5383 -0.0758
 6922SOL    HW232229   0.552   4.717   6.260  0.2098  0.3503  0.5901
 6923SOL     OW32230   4.000   2.689   5.799  0.0927 -0.6209  0.1377
 6923SOL    HW132231   4.038   2.718   5.716  3.1235  1.0840  2.1125
 6923SOL    HW232232   3.930   2.633   5.766 -1.0793  0.5880  0.5691
 6924SOL     OW32233   1.998   1.139   6.940  0.0893 -0.3634 -0.3292
 6924SOL    HW132234   1.937   1.206   6.970  0.0288  0.7416 -2.9233
 6924SOL    HW232235   1.945   1.098   6.872 -1.4004 -2.1656  1.9043
 6925SOL     OW32236   1.672   1.605   9.722 -0.0455  0.0535 -0.2442
 6925SOL    HW132237   1.749   1.582   9.669  0.0212  0.5324 -0.3511
 6925SOL    HW232238   1.702   1.588   9.811 -1.0516  0.0293  0.0808
 6926SOL     OW32239   3.192   2.432  17.042  0.4176 -0.9261 -0.2223
 6926SOL    HW132240   3.108   2.428  16.996 -0.8924 -0.1673  2.1266
 6926SOL    HW232241   3.190   2.527  17.055 -0.9649 -0.5956 -2.7962
 6927SOL     OW32242   2.845   0.635   7.274 -0.1379  0.0565 -0.2175
 6927SOL    HW132243   2.851   0.694   7.350  0.9934  0.1758 -0.4140
 6927SOL    HW232244   2.880   0.691   7.205  2.3507  0.8965  1.7330
 6928SOL     OW32245   2.135   0.611  17.222  0.0426 -0.1628 -0.3286
 6928SOL    HW132246   2.042   0.619  17.245  0.2295  1.6644 -0.1841
 6928SOL    HW232247   2.172   0.675  17.283 -2.0570  0.9419 -0.2006
 6929SOL     OW32248   3.696   3.624   7.343  0.0208 -0.2769  0.2329
 6929SOL    HW132249   3.714   3.647   7.252  1.0839 -0.7389  0.3231
 6929SOL    HW232250   3.724   3.533   7.352  0.0407 -0.1986  0.9126
 6930SOL     OW32251   1.601   0.324  10.597 -0.0947  0.2579  0.1666
 6930SOL    HW132252   1.618   0.333  10.691  2.9706 -0.3891 -0.3387
 6930SOL    HW232253   1.612   0.230  10.587  1.0603  0.3936  0.1995
 6931SOL     OW32254   2.428   3.179   5.220  0.2814 -0.0926 -0.8665
 6931SOL    HW132255   2.429   3.169   5.315  0.2614 -1.4850 -1.0013
 6931SOL    HW232256   2.516   3.149   5.197  0.1022 -0.5194 -1.0127
 6932SOL     OW32257   3.238   4.358  17.077 -0.0455 -0.0307  0.2300
 6932SOL    HW132258   3.252   4.452  17.077  1.6515 -0.2799  1.5128
 6932SOL    HW232259   3.199   4.337  16.992  2.3657  0.9621 -1.1194
 6933SOL     OW32260   0.188   0.024   5.352 -0.1011  0.2607 -0.5063
 6933SOL    HW132261   0.212   0.116   5.336 -0.4142  0.7162  1.6457
 6933SOL    HW232262   0.094   0.029   5.365  0.1022  1.2401  0.5640
 6934SOL     OW32263   1.919   2.273   3.133 -0.4968 -0.4651  0.4059
 6934SOL    HW132264   1.953   2.187   3.109  2.6144  0.8347  0.1438
 6934SOL    HW232265   1.827   2.266   3.106 -0.3142 -1.0004 -0.0784
 6935SOL     OW32266   1.293   3.557   6.152 -0.5161  0.2564  0.1409
 6935SOL    HW132267   1.201   3.583   6.158 -0.7606 -0.6514  0.3440
 6935SOL    HW232268   1.299   3.479   6.208 -3.8345 -0.8717 -1.0738
 6936SOL     OW32269   0.137   4.122  14.809  0.4986 -0.0808 -1.3889
 6936SOL    HW132270   0.180   4.037  14.802 -2.1431 -1.4894 -0.3435
 6936SOL    HW232271   0.193   4.161  14.741 -0.3680  1.2916 -1.3079
 6937SOL     OW32272   0.376   4.136  17.158  0.3161 -0.1701 -0.1611
 6937SOL    HW132273   0.353   4.213  17.106 -0.1116 -0.4111 -0.3283
 6937SOL    HW232274   0.339   4.150  17.245 -0.4796  1.0410 -0.6978
 6938SOL     OW32275   1.043   3.663   0.358 -0.7039  0.2800 -0.6976
 6938SOL    HW132276   1.099   3.602   0.310  1.8496  1.6912  0.5033
 6938SOL    HW232277   0.990   3.606   0.414  2.7433  0.4480  2.8113
 6939SOL     OW32278   2.631   1.174  15.355 -0.6680 -0.5766 -0.2043
 6939SOL    HW132279   2.587   1.258  15.338 -1.9587 -1.0520  0.7642
 6939SOL    HW232280   2.664   1.200  15.441 -1.7824 -1.4501  0.4945
 6940SOL     OW32281   3.836   4.689   9.418  0.3559  0.3059  0.3004
 6940SOL    HW132282   3.778   0.026   9.463  0.7545  0.9816 -0.0824
 6940SOL    HW232283   3.792   4.681   9.333 -1.1413  1.0981  1.0049
 6941SOL     OW32284   0.732   1.051   6.955 -0.2981  0.3293 -0.3166
 6941SOL    HW132285   0.658   1.077   6.902  0.8219 -1.7146 -2.8622
 6941SOL    HW232286   0.797   1.025   6.890 -0.9826 -1.3111 -0.3438
 6942SOL     OW32287   3.814   2.488   1.380 -0.0284  0.5394  0.3095
 6942SOL    HW132288   3.725   2.465   1.407  0.2859 -1.6854 -0.5008
 6942SOL    HW232289   3.791   2.554   1.315 -0.5646  1.6973  1.6809
 6943SOL     OW32290   0.586   3.751   6.821  0.0196  0.1133  0.4856
 6943SOL    HW132291   0.652   3.687   6.793  0.1517  0.8949 -0.9798
 6943SOL    HW232292   0.646   3.822   6.843 -1.6500  0.8941  2.5287
 6944SOL     OW32293   2.764   3.974   4.494 -0.0638 -0.2009 -0.2714
 6944SOL    HW132294   2.846   4.013   4.526  0.1975 -2.0910  1.3927
 6944SOL    HW232295   2.787   3.957   4.403 -0.5257  2.1743 -0.8431
 6945SOL     OW32296   1.456   0.346   8.330  0.0232  0.6051 -0.1129
 6945SOL    HW132297   1.457   0.385   8.417  0.2841  1.0573 -0.3186
 6945SOL    HW232298   1.390   0.278   8.346 -0.1912  1.6017  3.2068
 6946SOL     OW32299   4.194   2.361   9.194  0.0168 -0.1394  0.4159
 6946SOL    HW132300   4.153   2.395   9.273 -0.5165  0.2431 -0.0217
 6946SOL    HW232301   4.114   2.358   9.141 -1.0381  0.7048  1.9399
 6947SOL     OW32302   0.562   2.719  10.958  0.1801  0.1223  0.6464
 6947SOL    HW132303   0.620   2.646  10.936  1.5124  1.1639  0.7483
 6947SOL    HW232304   0.475   2.680  10.949  0.8253 -1.3146  0.5193
 6948SOL     OW32305   1.610   0.069   3.454 -0.7151 -0.3948 -0.2403
 6948SOL    HW132306   1.587   4.705   3.486  2.8393 -1.4825 -0.6872
 6948SOL    HW232307   1.612   0.046   3.361  3.2987  0.3570 -0.3181
 6949SOL     OW32308   1.397   3.902  16.838  0.3913  0.1323 -0.2675
 6949SOL    HW132309   1.331   3.840  16.870  2.5139 -1.4125  1.1316
 6949SOL    HW232310   1.377   3.913  16.745 -1.5410  2.8778  0.4949
 6950SOL     OW32311   1.438   3.511  12.325 -0.1256 -0.2551  0.2227
 6950SOL    HW132312   1.510   3.574  12.320 -1.0455  0.7039 -0.8591
 6950SOL    HW232313   1.364   3.561  12.290  2.2252  2.4599 -0.8365
 6951SOL     OW32314   1.225   3.373   7.774  0.4010  0.7360  0.3246
 6951SOL    HW132315   1.264   3.457   7.795  0.6136  1.3598 -2.5399
 6951SOL    HW232316   1.148   3.366   7.830  2.3083  2.2519  3.1197
 6952SOL     OW32317   2.146   1.822   3.525 -0.5167 -0.8146  0.3918
 6952SOL    HW132318   2.208   1.794   3.457  1.4862  0.9799  1.4903
 6952SOL    HW232319   2.097   1.741   3.538 -1.8061 -0.3909 -1.8546
 6953SOL     OW32320   1.251   3.725  12.258  0.0197 -0.1361 -0.0012
 6953SOL    HW132321   1.231   3.658  12.193  0.4246 -0.1972 -0.0612
 6953SOL    HW232322   1.209   3.688  12.336 -0.5921 -0.5366 -0.5164
 6954SOL     OW32323   2.408   3.438   0.714  0.2872  0.4742 -0.2271
 6954SOL    HW132324   2.343   3.499   0.746 -2.4892 -2.6694  0.1555
 6954SOL    HW232325   2.416   3.448   0.619 -0.8658 -1.2959 -0.5027
 6955SOL     OW32326   3.030   2.074  15.244 -0.0685  0.0265 -0.2736
 6955SOL    HW132327   2.986   2.009  15.189  0.0640  1.2873 -1.8751
 6955SOL    HW232328   3.002   2.156  15.204  1.9362  0.4495 -0.8291
 6956SOL     OW32329   2.352   1.806   8.955 -0.6603 -0.3466 -0.0061
 6956SOL    HW132330   2.327   1.889   8.995 -1.3281  0.1592 -1.4703
 6956SOL    HW232331   2.347   1.761   9.039  1.3310 -0.8736 -0.1820
 6957SOL     OW32332   1.230   0.761   3.626  0.0538  0.2102  0.6309
 6957SOL    HW132333   1.140   0.732   3.612  0.8652 -0.3164 -3.4488
 6957SOL    HW232334   1.276   0.682   3.654 -0.1924 -0.3753 -0.6218
 6958SOL     OW32335   1.422   3.245  17.663  0.0937  0.2831  0.1262
 6958SOL    HW132336   1.498   3.268   0.023 -1.1361 -1.5651  2.6781
 6958SOL    HW232337   1.408   3.323  17.610  1.9711  0.8292  0.4331
 6959SOL     OW32338   1.667   4.673   3.216 -0.0046 -0.2802 -0.0595
 6959SOL    HW132339   1.616   4.667   3.135  0.6699 -0.7917 -0.4476
 6959SOL    HW232340   1.737   4.609   3.200 -0.7600 -1.5673  1.9161
 6960SOL     OW32341   1.732   3.804   8.840  0.0458  0.2832 -0.6677
 6960SOL    HW132342   1.637   3.815   8.831  0.1495  1.3608 -0.4488
 6960SOL    HW232343   1.761   3.849   8.760  2.2932  1.7528  0.9480
 6961SOL     OW32344   0.696   2.136   7.958  0.4566  0.3241 -0.4719
 6961SOL    HW132345   0.618   2.155   8.010  0.2348  2.0912 -1.4227
 6961SOL    HW232346   0.660   2.167   7.874 -0.3798  0.0270 -0.2204
 6962SOL     OW32347   2.522   2.050   1.599 -0.5651 -0.4843 -0.2211
 6962SOL    HW132348   2.488   2.128   1.555  0.0822  0.7090  1.3956
 6962SOL    HW232349   2.610   2.072   1.628 -1.1301  2.4535 -0.7067
 6963SOL     OW32350   3.611   2.807   9.021 -0.2561  0.2682 -0.1561
 6963SOL    HW132351   3.585   2.897   9.001  1.4800  1.0657  1.1500
 6963SOL    HW232352   3.635   2.773   8.935  1.8909  0.9142  0.1855
 6964SOL     OW32353   1.294   1.950   3.353 -0.2199  0.7537 -0.4229
 6964SOL    HW132354   1.316   2.019   3.290  1.9804 -0.4589 -1.0057
 6964SOL    HW232355   1.243   1.890   3.299 -2.0649  1.5556  0.4316
 6965SOL     OW32356   3.469   2.905   8.039  0.3942  0.3590  0.4141
 6965SOL    HW132357   3.550   2.869   8.075 -1.6258 -1.2096  3.3866
 6965SOL    HW232358   3.417   2.936   8.113 -0.0210 -0.4040  0.4380
 6966SOL     OW32359   0.133   0.218  14.643 -0.2084 -1.3069  0.0186
 6966SOL    HW132360   0.133   0.221  14.547  2.3861  2.1637  0.1513
 6966SOL    HW232361   0.041   0.228  14.665  0.3150  1.0415  1.0179
 6967SOL     OW32362   2.274   1.429   5.857  0.0806 -0.2944 -0.1602
 6967SOL    HW132363   2.193   1.381   5.876  0.2785  0.4212  2.5010
 6967SOL    HW232364   2.307   1.451   5.944 -0.8615  0.9434 -0.1181
 6968SOL     OW32365   1.419   3.242   7.991  0.0834  0.6807  0.6097
 6968SOL    HW132366   1.342   3.289   8.022  0.4697  0.0511  2.5270
 6968SOL    HW232367   1.410   3.166   8.049 -0.5973 -1.9944 -2.9956
 6969SOL     OW32368   4.384   0.997   2.715  0.0710  0.1134 -0.0142
 6969SOL    HW132369   4.302   1.009   2.669 -1.5150  1.5997  3.1618
 6969SOL    HW232370   4.387   0.905   2.741 -0.8314  0.0069 -0.3192
 6970SOL     OW32371   1.482   0.464  17.451  0.1757 -0.2887 -0.0811
 6970SOL    HW132372   1.413   0.400  17.467 -0.5383  0.7472  1.0409
 6970SOL    HW232373   1.458   0.533  17.513 -0.2712 -0.4199 -0.1135
 6971SOL     OW32374   0.786   1.497   2.945 -0.4892  0.1179  0.4995
 6971SOL    HW132375   0.766   1.417   2.896 -0.4093  0.3924  0.0180
 6971SOL    HW232376   0.876   1.525   2.928 -0.4858 -1.5839 -2.2812
 6972SOL     OW32377   3.508   0.313   0.187  0.7253 -0.0478  0.1540
 6972SOL    HW132378   3.521   0.367   0.265 -0.6454  0.9911 -0.3417
 6972SOL    HW232379   3.560   0.241   0.223 -1.5832 -1.0951  1.4419
 6973SOL     OW32380   2.437   1.929  12.897 -0.4752 -0.3709 -0.0007
 6973SOL    HW132381   2.499   1.857  12.912  1.5966  0.7699 -2.9243
 6973SOL    HW232382   2.439   1.950  12.990  1.7509 -1.3552  0.1819
 6974SOL     OW32383   4.311   3.376   3.053 -0.5860 -0.0955 -0.3860
 6974SOL    HW132384   4.388   3.381   2.997 -0.4277 -1.0997 -0.2557
 6974SOL    HW232385   4.275   3.297   3.013  0.0695 -1.3209  1.4316
 6975SOL     OW32386   3.913   0.832  11.102 -0.0162  0.2502  0.0419
 6975SOL    HW132387   3.828   0.802  11.070  1.7690 -1.3019 -3.2590
 6975SOL    HW232388   3.885   0.871  11.185 -0.2549  0.2816 -0.0548
 6976SOL     OW32389   2.337   0.831   5.952 -0.0226 -0.7372  0.0642
 6976SOL    HW132390   2.287   0.844   5.872  0.1176  2.3634  0.4783
 6976SOL    HW232391   2.420   0.812   5.908 -0.4829 -1.8692 -0.3024
 6977SOL     OW32392   4.400   3.947   4.922 -0.2829  0.0348 -0.1994
 6977SOL    HW132393   4.474   3.980   4.972 -0.0114 -1.3038  0.2960
 6977SOL    HW232394   4.350   4.028   4.917 -1.5915 -0.7610  0.0096
 6978SOL     OW32395   3.298   0.921  12.124  0.0337 -0.5610  0.3036
 6978SOL    HW132396   3.352   0.955  12.195  0.8889  0.2400 -0.7439
 6978SOL    HW232397   3.331   0.970  12.050  0.0074 -0.3138  0.4563
 6979SOL     OW32398   2.956   1.816   3.602  0.4018 -0.2200 -0.1876
 6979SOL    HW132399   2.969   1.724   3.579  0.4325 -0.3714  0.4106
 6979SOL    HW232400   3.001   1.827   3.686  0.0639 -2.2812  0.2799
 6980SOL     OW32401   0.717   0.007   1.614  0.2711  0.5638 -0.1598
 6980SOL    HW132402   0.671   4.647   1.616 -0.9478  1.2129 -1.2777
 6980SOL    HW232403   0.808   4.703   1.625  0.2729  0.0478 -1.4406
 6981SOL     OW32404   4.579   4.335   4.856  0.0052  0.3792  0.1228
 6981SOL    HW132405   4.636   4.406   4.886 -1.0904  0.4952  1.9272
 6981SOL    HW232406   4.525   4.341   4.935  0.0465  0.4166  0.1482
 6982SOL     OW32407   4.173   3.783   7.206  0.3281 -0.0116 -0.5143
 6982SOL    HW132408   4.192   3.755   7.116  0.0359  0.1905 -0.6410
 6982SOL    HW232409   4.100   3.840   7.181  0.0996  0.1647  0.5554
 6983SOL     OW32410   0.426   0.581  12.140  0.2245  0.2076  0.0217
 6983SOL    HW132411   0.420   0.627  12.056  0.3373  2.3655  1.1873
 6983SOL    HW232412   0.349   0.525  12.131  0.0630  0.5602 -0.8786
 6984SOL     OW32413   2.921   0.348  10.123  0.3788  0.0171 -0.8935
 6984SOL    HW132414   2.900   0.271  10.175  0.6013 -0.0207 -0.8596
 6984SOL    HW232415   2.990   0.393  10.171 -0.6504  1.2360 -0.5284
 6985SOL     OW32416   4.702   0.200  14.159 -0.9449  0.0628  0.0142
 6985SOL    HW132417   4.651   0.278  14.138 -1.4584 -0.2421  0.1121
 6985SOL    HW232418   4.675   0.160  14.077 -0.5453 -0.6001  0.2100
 6986SOL     OW32419   2.936   2.806   4.199 -0.6286 -0.0295 -0.2996
 6986SOL    HW132420   2.957   2.722   4.239  1.2712  0.0337 -1.1519
 6986SOL    HW232421   2.953   2.780   4.108 -0.8565  1.1625 -0.6789
 6987SOL     OW32422   1.211   0.139  12.359 -0.4294  0.1791  0.4040
 6987SOL    HW132423   1.155   0.143  12.437 -1.6462 -0.6469 -0.4258
 6987SOL    HW232424   1.179   0.218  12.315  1.8413  0.7276 -0.2730
 6988SOL     OW32425   2.408   1.459   5.188 -0.0423  0.0704  0.0522
 6988SOL    HW132426   2.361   1.520   5.131  1.6484 -0.3511 -1.8117
 6988SOL    HW232427   2.455   1.523   5.240  0.8571  0.3362 -1.0925
 6989SOL     OW32428   0.957   0.398   3.444 -0.5093 -0.0712  0.9272
 6989SOL    HW132429   0.945   0.410   3.350  1.1226 -1.4628  0.5431
 6989SOL    HW232430   0.938   0.304   3.449 -0.5664 -0.0596  0.9321
 6990SOL     OW32431   0.806   4.645   5.082  0.1431 -0.5998 -0.2330
 6990SOL    HW132432   0.728   4.691   5.112  0.6093 -0.5536  0.8958
 6990SOL    HW232433   0.865   4.715   5.054  1.9502 -1.8274  0.4379
 6991SOL     OW32434   1.987   2.877  10.303 -0.6622 -0.3973  0.3359
 6991SOL    HW132435   1.927   2.929  10.356  0.0112 -0.0780  0.7890
 6991SOL    HW232436   1.997   2.799  10.358  1.2483  0.0324  0.6195
 6992SOL     OW32437   4.297   0.612   1.867  0.1507 -0.7998 -0.1575
 6992SOL    HW132438   4.258   0.570   1.790 -0.1995  0.3099 -0.5773
 6992SOL    HW232439   4.264   0.552   1.934 -0.8987 -0.4070 -0.3285
 6993SOL     OW32440   2.244   4.716  14.085 -0.4027 -0.1445  0.1548
 6993SOL    HW132441   2.297   0.047  14.026 -0.5851  0.6111  0.6871
 6993SOL    HW232442   2.226   4.665  14.006 -2.0851  0.4959  0.1260
 6994SOL     OW32443   0.925   2.858   5.877 -0.6013 -0.0720 -0.0948
 6994SOL    HW132444   0.928   2.790   5.945  1.0506 -1.0669 -1.1778
 6994SOL    HW232445   0.887   2.933   5.922  1.6050  0.1173  1.4706
 6995SOL     OW32446   4.415   3.321   6.003  0.6720 -0.6730 -0.3663
 6995SOL    HW132447   4.439   3.282   5.919  0.5256 -0.9601 -0.2743
 6995SOL    HW232448   4.500   3.316   6.048 -0.9732  0.6915  2.9030
 6996SOL     OW32449   2.505   4.129   6.069 -0.3584 -0.2315 -0.6069
 6996SOL    HW132450   2.494   4.095   6.157 -0.0161  0.3189 -0.3518
 6996SOL    HW232451   2.426   4.184   6.065  0.3322  0.7319 -0.9575
 6997SOL     OW32452   0.115   3.330   2.365  0.2040 -0.3411  0.4494
 6997SOL    HW132453   0.042   3.269   2.371 -1.4597  1.6473  0.1178
 6997SOL    HW232454   0.176   3.291   2.429 -0.3952 -2.2365 -0.1274
 6998SOL     OW32455   4.565   2.326   3.995  0.6429 -1.0632 -0.1812
 6998SOL    HW132456   4.497   2.381   3.956  1.5567  1.2359  1.4103
 6998SOL    HW232457   4.540   2.340   4.087 -0.4810  0.6236 -0.7397
 6999SOL     OW32458   3.158   1.869   7.558  0.0077 -0.0886  0.5712
 6999SOL    HW132459   3.123   1.790   7.515  0.7602 -0.5100  0.7325
 6999SOL    HW232460   3.157   1.850   7.652  1.9568 -1.7133  0.2753
 7000SOL     OW32461   4.105   2.644  17.462 -0.4295 -0.2750 -0.2849
 7000SOL    HW132462   4.030   2.669  17.515 -0.8390 -1.3256 -0.3600
 7000SOL    HW232463   4.061   2.632  17.377 -0.3150 -0.1021 -0.3688
 7001SOL     OW32464   1.489   3.476   8.327  0.0438 -0.1547 -0.3613
 7001SOL    HW132465   1.394   3.470   8.329  0.0885 -2.0069 -3.0456
 7001SOL    HW232466   1.500   3.544   8.394 -1.1717  1.0010 -1.3303
 7002SOL     OW32467   0.506   1.242   3.750  0.3261 -0.4614 -0.3671
 7002SOL    HW132468   0.465   1.307   3.693  1.3979 -0.2358 -0.8839
 7002SOL    HW232469   0.435   1.215   3.809  1.2181 -0.2058  0.8191
 7003SOL     OW32470   2.815   3.819   8.317  0.2448  0.0669 -0.3494
 7003SOL    HW132471   2.752   3.771   8.264 -0.9134  0.7548  0.4140
 7003SOL    HW232472   2.755   3.866   8.375  1.3203 -1.8743  2.3490
 7004SOL     OW32473   2.348   3.372   6.987 -0.6554 -0.0384  0.0456
 7004SOL    HW132474   2.302   3.385   6.904  2.6682  1.4786 -1.5502
 7004SOL    HW232475   2.370   3.462   7.011 -0.1959  0.4297 -2.0936
 7005SOL     OW32476   3.668   0.519   5.106  0.2757  0.1263  0.0643
 7005SOL    HW132477   3.761   0.521   5.132  0.8303  2.6051 -2.1231
 7005SOL    HW232478   3.669   0.437   5.055  0.9828  0.6168 -0.7156
 7006SOL     OW32479   2.172   0.968   1.891  0.0945 -0.2460  0.3139
 7006SOL    HW132480   2.239   0.956   1.959  1.5606 -0.2630 -1.1259
 7006SOL    HW232481   2.230   0.967   1.815 -0.1544 -0.6209  0.1318
 7007SOL     OW32482   0.861   0.974   2.435  0.0915  0.8708  0.3337
 7007SOL    HW132483   0.862   0.911   2.363 -0.4883  1.9434 -0.6099
 7007SOL    HW232484   0.796   1.038   2.405  0.3311  1.4646  1.0748
 7008SOL     OW32485   3.225   2.158  15.390 -0.1544  0.1330  0.1697
 7008SOL    HW132486   3.190   2.243  15.419 -1.1729 -0.1693 -0.1754
 7008SOL    HW232487   3.149   2.128  15.341  0.2807  1.1195 -1.1117
 7009SOL     OW32488   0.006   4.134   5.484  0.4038  0.3717 -0.4929
 7009SOL    HW132489   4.663   4.072   5.452  2.2266 -0.3220 -2.8177
 7009SOL    HW232490   0.072   4.080   5.528  1.1319  1.3013 -0.4494
 7010SOL     OW32491   4.591   1.706   3.794  0.0431  0.1978  0.1177
 7010SOL    HW132492   4.637   1.748   3.721 -0.7806  3.3322  1.3706
 7010SOL    HW232493   4.641   1.625   3.802 -0.8384 -0.5404 -1.7309
 7011SOL     OW32494   0.653   2.432   8.262 -0.5962 -0.2470 -0.0681
 7011SOL    HW132495   0.668   2.446   8.355 -1.2499 -4.0700  0.6199
 7011SOL    HW232496   0.632   2.339   8.262 -1.4364 -0.0429  3.0512
 7012SOL     OW32497   3.302   2.055  10.195 -0.2907 -0.0900 -0.3831
 7012SOL    HW132498   3.346   2.097  10.121  3.2524 -0.7997  1.3160
 7012SOL    HW232499   3.305   1.963  10.170 -0.3717 -0.5643  1.3810
 7013SOL     OW32500   3.637   4.372   5.453 -0.2106  0.3707 -0.0080
 7013SOL    HW132501   3.677   4.296   5.411 -1.9790 -0.0364 -0.9796
 7013SOL    HW232502   3.649   4.436   5.383 -0.3985  1.0278  0.5604
 7014SOL     OW32503   1.197   4.342   6.922 -0.2792 -0.3001  0.0689
 7014SOL    HW132504   1.131   4.293   6.972 -1.1680 -1.2154 -1.9756
 7014SOL    HW232505   1.262   4.272   6.921  1.7217  1.5801 -0.7348
 7015SOL     OW32506   2.933   2.029   5.530  0.1181 -0.0447  0.3711
 7015SOL    HW132507   2.858   2.064   5.482 -0.6246  0.3933  1.8384
 7015SOL    HW232508   2.992   2.104   5.539  1.4485 -0.9312 -1.1618
 7016SOL     OW32509   2.840   1.045   8.364 -0.0492 -0.6652  0.0016
 7016SOL    HW132510   2.777   0.995   8.416 -2.3417 -0.4798 -2.6087
 7016SOL    HW232511   2.916   0.996   8.397  0.2067 -0.9986 -1.0840
 7017SOL     OW32512   4.381   3.246   2.468  0.2427  0.3502 -0.2155
 7017SOL    HW132513   4.419   3.321   2.422 -0.0168 -0.4342 -1.6952
 7017SOL    HW232514   4.349   3.193   2.395  0.1419  0.8225 -0.5130
 7018SOL     OW32515   0.862   2.850  15.734 -0.3875  0.0852  0.4036
 7018SOL    HW132516   0.890   2.773  15.782 -0.5876 -0.6616 -0.6777
 7018SOL    HW232517   0.768   2.852  15.752  0.1601  0.3510  3.1985
 7019SOL     OW32518   3.925   2.595  12.137  0.2460  0.6942  0.0517
 7019SOL    HW132519   3.960   2.525  12.082  0.0131 -0.1912  1.0338
 7019SOL    HW232520   4.008   2.636  12.159 -0.3729  2.6198 -1.2179
 7020SOL     OW32521   0.820   3.086   8.455 -0.2161 -0.2235 -0.1525
 7020SOL    HW132522   0.892   3.039   8.495 -0.4389 -0.6159 -0.2193
 7020SOL    HW232523   0.772   3.008   8.426  0.2329 -0.4535 -0.2629
 7021SOL     OW32524   3.714   2.419   4.727  0.4321  0.0203  1.0889
 7021SOL    HW132525   3.731   2.342   4.672 -0.5170  0.4452  0.1934
 7021SOL    HW232526   3.722   2.491   4.664  0.0840 -1.1770 -0.3362
 7022SOL     OW32527   3.202   0.917   6.992  0.4477 -0.2643  0.5842
 7022SOL    HW132528   3.212   0.972   6.914 -2.6186 -0.9319 -0.2830
 7022SOL    HW232529   3.188   0.985   7.058 -0.0955 -0.1185  0.3161
 7023SOL     OW32530   1.183   2.585  12.868 -0.4203  0.0079  0.3904
 7023SOL    HW132531   1.217   2.614  12.953  1.2672  1.6243 -0.8406
 7023SOL    HW232532   1.179   2.490  12.884 -1.6604  0.2523  1.4646
 7024SOL     OW32533   4.374   0.188   8.621 -0.0299 -0.6261 -0.8734
 7024SOL    HW132534   4.423   0.124   8.569  0.7951 -0.3664 -0.4114
 7024SOL    HW232535   4.361   0.257   8.556 -1.0211 -1.3114 -1.3953
 7025SOL     OW32536   1.492   2.494   2.847  0.3538 -0.3252 -0.1015
 7025SOL    HW132537   1.564   2.431   2.849 -0.1529 -0.9401 -1.0968
 7025SOL    HW232538   1.463   2.478   2.757 -0.6432  1.1420 -0.0359
 7026SOL     OW32539   3.898   4.114   8.015  0.5561 -0.2667 -0.0170
 7026SOL    HW132540   3.949   4.065   7.950 -0.8107 -3.3173  1.2139
 7026SOL    HW232541   3.827   4.150   7.962 -1.3243 -0.4938  2.3611
 7027SOL     OW32542   0.945   3.864   6.958  0.4320 -0.5739  0.0279
 7027SOL    HW132543   0.969   3.773   6.945 -1.3688 -0.6544 -2.8084
 7027SOL    HW232544   0.858   3.864   6.997 -0.5563 -0.4668 -2.1881
 7028SOL     OW32545   4.303   3.720   8.369 -0.0135  0.1293  0.9572
 7028SOL    HW132546   4.388   3.701   8.408  0.1904 -1.0997 -0.0592
 7028SOL    HW232547   4.236   3.659   8.402 -0.0779  1.8908  4.1340
 7029SOL     OW32548   3.318   3.277   5.134  0.2888 -0.0419  0.4270
 7029SOL    HW132549   3.309   3.206   5.198  2.1797 -1.6418 -1.1013
 7029SOL    HW232550   3.405   3.258   5.099 -0.3445  0.5221 -1.4525
 7030SOL     OW32551   2.805   1.394   6.506  0.0689  0.4098  0.0771
 7030SOL    HW132552   2.779   1.351   6.425 -0.3597 -0.5699  0.7398
 7030SOL    HW232553   2.720   1.407   6.548 -0.6705  1.3867 -1.6986
 7031SOL     OW32554   4.382   0.803   7.063  0.7359 -0.2508 -0.8380
 7031SOL    HW132555   4.370   0.738   7.132 -0.2743 -1.7202 -2.3674
 7031SOL    HW232556   4.325   0.767   6.994 -1.6171  2.5216 -0.3463
 7032SOL     OW32557   1.350   2.584   0.373 -0.3515 -0.2023 -0.1261
 7032SOL    HW132558   1.441   2.601   0.348  0.1154 -0.6321  1.3529
 7032SOL    HW232559   1.341   2.638   0.452  1.0783 -0.1781  0.0069
 7033SOL     OW32560   0.028   1.504   3.169  0.4800  0.3287  0.9860
 7033SOL    HW132561   0.039   1.487   3.076 -0.6386 -0.6955  1.0460
 7033SOL    HW232562   4.669   1.457   3.179 -0.1800  0.6977 -2.9753
 7034SOL     OW32563   1.858   2.590   5.817 -0.0568 -0.1115  0.0935
 7034SOL    HW132564   1.893   2.512   5.774  2.2762  0.1870  1.4493
 7034SOL    HW232565   1.772   2.558   5.843 -0.4545  1.1497  0.3210
 7035SOL     OW32566   0.254   3.355   8.470  0.3245 -0.0419 -0.5187
 7035SOL    HW132567   0.290   3.266   8.481 -0.7608 -0.4182 -0.0148
 7035SOL    HW232568   0.311   3.404   8.530 -0.1333  0.7961 -0.7725
 7036SOL     OW32569   3.116   0.093   0.005 -0.1507  0.2452 -0.2075
 7036SOL    HW132570   3.062   0.047  17.636  1.1540  1.3331 -2.1237
 7036SOL    HW232571   3.046   0.118   0.066  1.6566  2.9031  0.7786
 7037SOL     OW32572   1.137   2.777   6.773  0.0139  0.0470  0.2584
 7037SOL    HW132573   1.151   2.833   6.696  1.5023  0.2987  0.7126
 7037SOL    HW232574   1.158   2.832   6.848 -1.4522 -0.9463  1.4046
 7038SOL     OW32575   2.211   4.032  15.896 -0.1071  0.7473 -0.4104
 7038SOL    HW132576   2.170   4.019  15.981  0.5919  0.7193 -0.0759
 7038SOL    HW232577   2.257   4.116  15.900  1.0348  0.1121 -0.3325
 7039SOL     OW32578   2.456   0.998   8.175 -0.0782 -0.2958  0.2199
 7039SOL    HW132579   2.425   1.019   8.087  0.9996 -0.2439 -0.1521
 7039SOL    HW232580   2.545   1.033   8.170  0.0349 -0.6570 -0.3626
 7040SOL     OW32581   1.964   2.428  13.563  0.7286 -0.0905  0.3107
 7040SOL    HW132582   2.049   2.446  13.604 -0.0199  2.0240  0.9451
 7040SOL    HW232583   1.979   2.344  13.521 -3.6335 -0.3420 -0.6912
 7041SOL     OW32584   4.555   4.550  13.025  0.0930  0.4330  0.5608
 7041SOL    HW132585   4.467   4.580  13.049 -0.7957 -0.8548 -1.1349
 7041SOL    HW232586   4.610   4.628  13.033  0.0979  0.5821 -0.9135
 7042SOL     OW32587   2.233   4.221   8.640 -0.0085  0.2583  0.0964
 7042SOL    HW132588   2.234   4.235   8.735 -0.7681  0.9772  0.0001
 7042SOL    HW232589   2.249   4.127   8.636 -0.2368  0.1772  0.9542
 7043SOL     OW32590   4.395   4.112   3.002 -0.6817 -1.1957  0.6639
 7043SOL    HW132591   4.309   4.097   2.964  0.3457 -2.3484 -1.2004
 7043SOL    HW232592   4.415   4.184   2.943  1.3167 -3.0572 -0.9435
 7044SOL     OW32593   2.975   1.835   2.531  0.3496 -0.4317  0.3501
 7044SOL    HW132594   2.888   1.822   2.569 -0.7173  0.5408 -1.7170
 7044SOL    HW232595   3.003   1.917   2.571 -0.6981 -0.3900  0.9943
 7045SOL     OW32596   1.290   3.800  11.655  0.3582  0.6776 -0.0559
 7045SOL    HW132597   1.195   3.789  11.648 -0.2803  3.2331  4.8567
 7045SOL    HW232598   1.308   3.856  11.578 -1.9265  1.2444 -0.1813
 7046SOL     OW32599   0.838   3.626  17.420 -0.2087 -0.3076  0.7369
 7046SOL    HW132600   0.886   3.543  17.415  2.2624  1.1261  0.9142
 7046SOL    HW232601   0.820   3.618  17.513  2.2032 -0.3196  1.1807
 7047SOL     OW32602   0.271   4.436   4.819 -0.1002 -0.1176  0.4942
 7047SOL    HW132603   0.356   4.480   4.811 -1.0332  1.3474 -1.2969
 7047SOL    HW232604   0.282   4.367   4.884  2.2678 -0.5035 -0.3215
 7048SOL     OW32605   0.541   0.210  11.193  0.6172  0.1473  0.3749
 7048SOL    HW132606   0.563   0.121  11.218 -0.5104 -0.3666 -0.4627
 7048SOL    HW232607   0.619   0.261  11.214  0.8905 -0.2356  0.2776
 7049SOL     OW32608   4.298   3.795   0.683  0.2955 -0.6528 -0.4813
 7049SOL    HW132609   4.322   3.728   0.747  1.5513  0.6684  0.4006
 7049SOL    HW232610   4.204   3.779   0.694  0.2103 -0.7687 -1.3409
 7050SOL     OW32611   0.950   2.112   8.021  0.4431  0.4214  0.5439
 7050SOL    HW132612   0.984   2.201   8.010  1.0368 -0.0203 -1.1474
 7050SOL    HW232613   0.871   2.127   7.969  1.2167 -1.5329 -1.1687
 7051SOL     OW32614   0.782   2.904   4.825  0.7725  0.6030  0.2553
 7051SOL    HW132615   0.710   2.862   4.872  1.2043 -0.9506 -0.4794
 7051SOL    HW232616   0.743   2.991   4.816  1.3693  1.1048  2.5846
 7052SOL     OW32617   3.585   2.061   4.370  0.2487  0.4465  0.6515
 7052SOL    HW132618   3.501   2.018   4.355 -0.0492  2.1549 -2.6200
 7052SOL    HW232619   3.632   2.044   4.289 -0.5614  1.5592 -0.0454
 7053SOL     OW32620   3.632   3.038   6.357  0.3837 -0.1392  0.2448
 7053SOL    HW132621   3.577   3.041   6.435 -0.0057  0.6482 -0.0610
 7053SOL    HW232622   3.686   2.961   6.377  0.0652 -0.7953 -1.4223
 7054SOL     OW32623   0.835   2.449   4.721  0.5624 -0.2679 -0.0961
 7054SOL    HW132624   0.889   2.472   4.645  1.1414 -1.5921 -0.0912
 7054SOL    HW232625   0.856   2.517   4.784  1.1211 -1.3174  0.8447
 7055SOL     OW32626   3.024   1.910   6.105 -0.2859  0.3156 -0.0810
 7055SOL    HW132627   3.107   1.926   6.060  0.8161 -3.7994  0.4867
 7055SOL    HW232628   3.020   1.993   6.153 -2.5880  1.2794 -1.9422
 7056SOL     OW32629   3.356   1.140   5.912  0.2517 -0.1731 -0.2260
 7056SOL    HW132630   3.327   1.080   5.844 -1.1395 -0.2729  0.4492
 7056SOL    HW232631   3.450   1.124   5.909  0.2086 -0.5479  0.3538
 7057SOL     OW32632   2.106   2.283   6.385 -0.9176  0.3924 -0.2465
 7057SOL    HW132633   2.071   2.299   6.473  0.0329 -0.1906  0.2324
 7057SOL    HW232634   2.161   2.361   6.376 -0.0418  0.0314  1.9643
 7058SOL     OW32635   0.748   0.318   4.212  0.0324 -0.6756 -0.4363
 7058SOL    HW132636   0.769   0.244   4.154  0.8725 -2.4123  2.1004
 7058SOL    HW232637   0.831   0.350   4.246  0.1707  0.1731 -1.5708
 7059SOL     OW32638   3.321   1.161   7.214  0.0676  0.2830  0.3213
 7059SOL    HW132639   3.230   1.190   7.218 -0.3148 -0.5232 -2.7438
 7059SOL    HW232640   3.351   1.179   7.303 -0.6307 -0.5444  0.7270
 7060SOL     OW32641   2.657   1.952  15.192  0.6658 -0.0156  0.0375
 7060SOL    HW132642   2.692   1.990  15.272  0.2374 -0.9656  0.6647
 7060SOL    HW232643   2.733   1.953  15.133 -0.4453  1.1891 -1.4052
 7061SOL     OW32644   1.809   2.779  10.688 -0.0952 -0.3091 -0.4128
 7061SOL    HW132645   1.797   2.792  10.593 -1.1789 -1.6663 -0.4724
 7061SOL    HW232646   1.903   2.792  10.682 -0.3186  1.5010  0.2266
 7062SOL     OW32647   1.063   1.754  13.434 -0.2930 -0.0122 -0.1880
 7062SOL    HW132648   1.073   1.824  13.499 -0.8303 -0.8850  0.8358
 7062SOL    HW232649   1.048   1.801  13.352 -0.6064 -0.1187 -0.1925
 7063SOL     OW32650   2.362   3.024   7.296 -0.5974  0.2869 -0.3308
 7063SOL    HW132651   2.413   3.102   7.272  3.3238 -2.7198 -1.7751
 7063SOL    HW232652   2.398   3.017   7.385 -1.1105  2.0563  0.0278
 7064SOL     OW32653   2.416   0.028   9.112  0.1309  0.1118  0.4536
 7064SOL    HW132654   2.468   0.029   9.031 -0.3940  0.3559  0.1247
 7064SOL    HW232655   2.348   0.090   9.086  1.0100  1.8866  2.3684
 7065SOL     OW32656   0.262   3.816  15.598  0.7104 -0.3955  0.1718
 7065SOL    HW132657   0.202   3.848  15.531  0.8611 -0.1051  0.1736
 7065SOL    HW232658   0.200   3.790  15.666 -0.2406 -2.0229 -1.3336
 7066SOL     OW32659   3.403   1.066   2.865  0.1043 -0.5416 -0.0056
 7066SOL    HW132660   3.358   0.995   2.818  2.5722 -1.4750 -0.9760
 7066SOL    HW232661   3.437   1.013   2.937 -1.2279 -1.4515 -0.0460
 7067SOL     OW32662   3.035   1.654  11.124 -0.2903 -1.0084  0.0340
 7067SOL    HW132663   2.981   1.686  11.196 -0.1046 -0.0504 -0.2508
 7067SOL    HW232664   3.124   1.645  11.159  0.9352 -0.1536 -2.8198
 7068SOL     OW32665   2.363   0.960   9.783 -0.0712  0.1558  0.3212
 7068SOL    HW132666   2.382   1.011   9.704  0.1360 -1.6325 -0.7896
 7068SOL    HW232667   2.418   1.004   9.848  1.5885 -1.4367 -0.0071
 7069SOL     OW32668   2.711   3.173  17.559  0.3096  0.1264 -0.2514
 7069SOL    HW132669   2.738   3.115  17.630  1.2628 -2.3991 -2.7006
 7069SOL    HW232670   2.695   3.109  17.490  0.7066  0.6667 -0.8499
 7070SOL     OW32671   4.652   2.156   3.590  0.2961 -0.4731 -0.4724
 7070SOL    HW132672   4.590   2.094   3.552 -1.4165  0.7967  0.2611
 7070SOL    HW232673   0.003   2.128   3.535 -1.1513 -0.3970 -2.4571
 7071SOL     OW32674   3.274   3.718   2.839 -0.2165 -0.0836  0.1202
 7071SOL    HW132675   3.335   3.697   2.768 -0.5124 -0.4965 -0.0086
 7071SOL    HW232676   3.199   3.755   2.793  0.0644 -0.4100 -0.6002
 7072SOL     OW32677   3.089   3.856   7.359  0.1114  0.4244  0.1281
 7072SOL    HW132678   3.167   3.803   7.376 -0.0131 -0.5410 -2.2476
 7072SOL    HW232679   3.083   3.914   7.434 -0.9080  0.3337  0.1184
 7073SOL     OW32680   3.584   0.871   0.756 -0.3068 -0.4059 -0.2152
 7073SOL    HW132681   3.650   0.804   0.737  1.8134  1.4422  0.6974
 7073SOL    HW232682   3.534   0.862   0.675  0.0800  0.9629 -0.6009
 7074SOL     OW32683   0.827   3.091   6.011  0.3175  0.0685 -0.1191
 7074SOL    HW132684   0.739   3.080   5.975  0.8443  0.9923 -1.6660
 7074SOL    HW232685   0.841   3.186   6.020 -1.8185  0.4425 -0.8767
 7075SOL     OW32686   4.400   2.702   0.160 -0.2131  0.0673  0.0911
 7075SOL    HW132687   4.322   2.731   0.208 -0.3603 -2.1916  1.2333
 7075SOL    HW232688   4.362   2.667   0.080  1.0236  0.3694 -0.6239
 7076SOL     OW32689   1.632   3.838  15.258  0.5114 -0.9511 -0.1609
 7076SOL    HW132690   1.550   3.887  15.271 -0.1404 -2.1631  0.3217
 7076SOL    HW232691   1.622   3.749  15.293  1.6600 -1.1271 -0.3031
 7077SOL     OW32692   1.625   3.783   5.056 -0.2287 -0.1577 -0.0330
 7077SOL    HW132693   1.628   3.866   5.103  1.3102  0.3719 -1.0652
 7077SOL    HW232694   1.552   3.742   5.102  0.3167 -0.4729  0.5387
 7078SOL     OW32695   0.879   4.362  15.201 -0.8582 -0.7128  0.0977
 7078SOL    HW132696   0.857   4.295  15.266 -0.8063 -1.3957 -0.5910
 7078SOL    HW232697   0.828   4.335  15.125 -0.6155 -0.1591 -0.2672
 7079SOL     OW32698   1.977   2.627   5.145  0.8319 -0.5079  0.3851
 7079SOL    HW132699   1.936   2.681   5.078  0.0732 -1.9805 -0.3430
 7079SOL    HW232700   1.920   2.624   5.221  0.0417 -0.6319 -0.2114
 7080SOL     OW32701   3.713   2.103   8.446 -0.0425 -0.3012 -0.1395
 7080SOL    HW132702   3.738   2.023   8.399 -0.9214  0.1592 -1.3912
 7080SOL    HW232703   3.653   2.076   8.515  1.1038 -2.6110 -0.0168
 7081SOL     OW32704   4.552   1.754  13.899 -0.1031 -0.3882  0.1144
 7081SOL    HW132705   4.614   1.710  13.957 -1.4015 -1.7982  0.4609
 7081SOL    HW232706   4.558   1.848  13.915  0.9559 -0.1645 -1.7514
 7082SOL     OW32707   2.710   2.864   5.672  0.0237 -0.1122 -0.2513
 7082SOL    HW132708   2.701   2.811   5.593  1.0604  0.2656 -0.6129
 7082SOL    HW232709   2.647   2.934   5.655 -1.1734 -0.8554  1.0252
 7083SOL     OW32710   0.687   0.674  11.210 -0.0408 -0.3701  0.3354
 7083SOL    HW132711   0.757   0.678  11.144  0.7114  0.0814  1.1621
 7083SOL    HW232712   0.611   0.634  11.169  1.8902 -4.1348  0.4227
 7084SOL     OW32713   3.594   0.331   7.293 -0.3896  0.5747  0.2001
 7084SOL    HW132714   3.520   0.378   7.332 -0.6363  0.7260 -0.4334
 7084SOL    HW232715   3.573   0.240   7.313  2.2119  0.1949  1.2019
 7085SOL     OW32716   0.817   1.576   1.059  0.1520 -0.3654  0.0339
 7085SOL    HW132717   0.770   1.540   0.983  0.4109 -1.8014  0.5573
 7085SOL    HW232718   0.899   1.600   1.015  0.3433 -0.0352  0.5797
 7086SOL     OW32719   1.172   3.393   1.194 -0.0981 -0.2449  0.4260
 7086SOL    HW132720   1.175   3.322   1.130  0.7863 -0.4955  0.7463
 7086SOL    HW232721   1.115   3.365   1.266 -1.2079 -0.2104 -0.4420
 7087SOL     OW32722   4.647   3.324   6.192  0.0002  0.6148  0.9008
 7087SOL    HW132723   4.719   3.262   6.204 -0.8975 -0.3158  1.4875
 7087SOL    HW232724   4.673   3.380   6.265 -1.4884  1.8046  0.5178
 7088SOL     OW32725   1.913   1.009  14.182 -0.1671 -0.5830  0.8255
 7088SOL    HW132726   1.831   0.982  14.222 -1.0929  2.7579  1.1939
 7088SOL    HW232727   1.961   1.020  14.265  0.0498  0.9839  0.4937
 7089SOL     OW32728   2.267   2.271   2.221  0.4247 -0.2123 -0.4139
 7089SOL    HW132729   2.323   2.332   2.174 -1.2149 -0.4637 -2.6692
 7089SOL    HW232730   2.182   2.315   2.222  0.1419 -0.8100  3.1173
 7090SOL     OW32731   1.277   0.837   4.579 -0.1938  0.0732 -0.0751
 7090SOL    HW132732   1.343   0.879   4.635 -0.6377  0.1578  0.3954
 7090SOL    HW232733   1.280   0.746   4.608 -1.3828  0.3073  0.8192
 7091SOL     OW32734   2.714   1.468   8.061 -0.1120  0.0549 -0.1515
 7091SOL    HW132735   2.691   1.544   8.115  0.5422 -0.2894  0.6267
 7091SOL    HW232736   2.636   1.413   8.066  0.6306 -1.0767 -1.0140
 7092SOL     OW32737   3.319   1.893   4.320 -0.4386 -0.2637 -0.3178
 7092SOL    HW132738   3.264   1.952   4.372 -0.2224 -0.6416  0.3385
 7092SOL    HW232739   3.344   1.833   4.390 -1.2721 -0.6275 -0.3336
 7093SOL     OW32740   3.744   4.190   1.022  0.0284  0.0178 -0.1052
 7093SOL    HW132741   3.688   4.135   0.967  1.4810 -0.8956 -0.6718
 7093SOL    HW232742   3.750   4.132   1.099 -0.1435  1.1168  0.7403
 7094SOL     OW32743   0.527   4.079   4.859 -0.1247  0.7587  0.1936
 7094SOL    HW132744   0.521   4.085   4.954 -1.1573  0.1289  0.1571
 7094SOL    HW232745   0.433   4.090   4.843 -0.2065 -0.3393 -0.0711
 7095SOL     OW32746   2.243   1.148   7.389 -0.0190 -0.2167  0.4023
 7095SOL    HW132747   2.187   1.076   7.361  1.0269 -0.5150 -0.9546
 7095SOL    HW232748   2.327   1.105   7.408  0.1204 -0.7941 -1.4619
 7096SOL     OW32749   3.371   2.343   4.597 -0.1228  0.3513  0.2018
 7096SOL    HW132750   3.425   2.410   4.555 -2.0586  1.3533 -0.6995
 7096SOL    HW232751   3.435   2.297   4.652  0.3408  0.7092 -0.0387
 7097SOL     OW32752   2.269   3.201   0.998 -0.5993  0.5088 -0.0337
 7097SOL    HW132753   2.273   3.294   0.978  2.1347 -0.1375 -2.5073
 7097SOL    HW232754   2.192   3.176   0.948 -1.1160  0.0425  1.0048
 7098SOL     OW32755   1.127   3.004   7.693  0.1125 -0.2667 -0.3111
 7098SOL    HW132756   1.147   2.984   7.601  0.7819 -0.8337 -0.0414
 7098SOL    HW232757   1.188   2.941   7.731  0.4237  0.3943  0.2954
 7099SOL     OW32758   2.324   4.381  10.692 -0.3344  0.1333  0.0549
 7099SOL    HW132759   2.409   4.408  10.656  0.4330  0.6912  2.3028
 7099SOL    HW232760   2.353   4.303  10.739 -2.5703 -0.8579 -0.2528
 7100SOL     OW32761   1.852   2.167  13.203  0.4745 -0.2345 -0.0064
 7100SOL    HW132762   1.773   2.193  13.249  1.4914  0.8780  1.1088
 7100SOL    HW232763   1.909   2.163  13.280 -0.6524 -2.6902  0.6980
 7101SOL     OW32764   4.222   1.987  13.391  0.6186  0.2768  0.0251
 7101SOL    HW132765   4.148   1.930  13.414  1.9052 -1.6911 -0.7429
 7101SOL    HW232766   4.222   2.050  13.463  1.3930 -0.4523  0.6681
 7102SOL     OW32767   2.762   3.675  14.917  0.1893 -0.3879  0.2390
 7102SOL    HW132768   2.854   3.678  14.889  0.1936 -2.3303  0.0157
 7102SOL    HW232769   2.756   3.722  15.000  1.6818 -0.1866  0.2423
 7103SOL     OW32770   2.880   2.564   0.024 -0.1848 -0.4333 -0.2879
 7103SOL    HW132771   2.787   2.561   0.047  0.2526  0.7030  1.5931
 7103SOL    HW232772   2.885   2.478  17.675  0.2280 -1.5875  2.0714
 7104SOL     OW32773   1.977   0.007   7.572  0.6403  0.7289  0.0193
 7104SOL    HW132774   2.004   4.672   7.501 -1.2667 -0.6110  0.3956
 7104SOL    HW232775   1.970   4.668   7.644  1.8878  1.2605  0.5914
 7105SOL     OW32776   2.146   2.273   4.000  0.5996 -0.8271 -0.5673
 7105SOL    HW132777   2.179   2.357   4.033  0.4911 -0.0461 -2.4890
 7105SOL    HW232778   2.180   2.272   3.911  0.6982  0.4624 -0.5425
 7106SOL     OW32779   0.725   3.114   8.710  0.3773  0.1901  0.7670
 7106SOL    HW132780   0.778   3.113   8.631 -4.2478 -0.8705 -2.3048
 7106SOL    HW232781   0.644   3.139   8.665  3.1131  0.4194 -4.0005
 7107SOL     OW32782   3.485   3.810  12.291  0.4357  0.3628 -0.1325
 7107SOL    HW132783   3.540   3.756  12.348  0.2661 -0.1754 -0.4783
 7107SOL    HW232784   3.506   3.900  12.315 -0.1722  0.2195  0.9821
 7108SOL     OW32785   0.597   2.202   3.802 -0.1377 -0.3022 -0.4538
 7108SOL    HW132786   0.506   2.179   3.785 -0.7678  0.8704  1.3108
 7108SOL    HW232787   0.617   2.133   3.865  2.0103 -0.4788 -1.3437
 7109SOL     OW32788   1.864   0.144   4.100 -0.4708 -0.6222  0.5751
 7109SOL    HW132789   1.933   0.199   4.063 -0.4946 -0.2567  1.0744
 7109SOL    HW232790   1.887   0.148   4.193  1.0217  3.8557 -0.0023
 7110SOL     OW32791   0.154   3.393  15.678  0.0239  0.3771 -0.4868
 7110SOL    HW132792   0.165   3.341  15.599 -0.1643 -1.1014  0.4733
 7110SOL    HW232793   0.244   3.424  15.687  0.5303 -1.6528  1.2685
 7111SOL     OW32794   0.538   2.514   5.275  0.5345  0.2631 -0.9816
 7111SOL    HW132795   0.516   2.422   5.290  0.6880  0.6563  1.7934
 7111SOL    HW232796   0.622   2.528   5.320 -1.6534  3.6233  2.0512
 7112SOL     OW32797   4.297   0.741   1.267 -0.5096  0.0433  0.5023
 7112SOL    HW132798   4.310   0.818   1.211  0.2356 -0.8244 -0.5054
 7112SOL    HW232799   4.290   0.785   1.352  1.2737  1.4582 -0.0758
 7113SOL     OW32800   3.800   1.125   5.899  0.5560 -0.7893 -0.0561
 7113SOL    HW132801   3.758   1.190   5.842  3.8029  0.0124 -1.5210
 7113SOL    HW232802   3.875   1.180   5.925 -0.8823  0.5472  1.2835
 7114SOL     OW32803   0.348   0.420   4.994  0.0063  0.2774  0.5048
 7114SOL    HW132804   0.258   0.403   5.020  0.5127 -1.0675  1.3513
 7114SOL    HW232805   0.370   0.344   4.941  0.5937 -0.5653  1.9570
 7115SOL     OW32806   4.596   3.884   5.649  0.0509  0.4799  1.3035
 7115SOL    HW132807   4.685   3.884   5.615  0.0887  2.0848  1.3768
 7115SOL    HW232808   4.604   3.826   5.725 -1.7345 -1.2793  0.1553
 7116SOL     OW32809   3.270   3.934   4.385  0.0459  0.2781  0.7187
 7116SOL    HW132810   3.330   3.900   4.452  0.2083  0.6567  0.7669
 7116SOL    HW232811   3.192   3.889   4.416  0.3645  0.0620  1.1956
 7117SOL     OW32812   0.330   3.737   8.050 -0.4628 -0.0600 -0.4052
 7117SOL    HW132813   0.401   3.741   8.113 -2.2837  0.5954  1.6012
 7117SOL    HW232814   0.284   3.659   8.082  2.0053 -1.8407 -1.1562
 7118SOL     OW32815   4.579   2.795   0.442 -0.2195  0.2965 -0.1411
 7118SOL    HW132816   4.660   2.840   0.465  0.4336 -0.9892  0.1026
 7118SOL    HW232817   4.542   2.790   0.530 -0.6595  1.0676 -0.2865
 7119SOL     OW32818   3.985   0.037  15.634 -0.1477  0.4597  0.1280
 7119SOL    HW132819   4.072   0.003  15.656  0.5557  1.3363 -1.2853
 7119SOL    HW232820   3.932   0.011  15.709 -0.1836  0.6840  0.1801
 7120SOL     OW32821   3.354   3.172   9.278  0.0758 -0.2969  0.1504
 7120SOL    HW132822   3.420   3.228   9.237 -0.9311  0.0763 -0.9493
 7120SOL    HW232823   3.267   3.205   9.256  0.1326 -1.5543 -1.9038
 7121SOL     OW32824   3.797   1.119   7.934  0.5903 -0.0839  0.3212
 7121SOL    HW132825   3.749   1.064   7.996 -0.2190  0.5594  0.2583
 7121SOL    HW232826   3.770   1.210   7.947 -1.8777 -1.2138  3.1376
 7122SOL     OW32827   0.611   3.671   1.445 -0.0249 -0.0785  0.0986
 7122SOL    HW132828   0.568   3.716   1.373 -0.9973 -0.0237  0.7122
 7122SOL    HW232829   0.572   3.584   1.430  0.6996 -0.2600 -0.7084
 7123SOL     OW32830   0.783   0.763   5.359  0.3323  0.5258  0.2750
 7123SOL    HW132831   0.819   0.747   5.272 -1.5366  0.6807 -0.5269
 7123SOL    HW232832   0.785   0.859   5.363 -1.3502  0.6500 -1.7893
 7124SOL     OW32833   2.680   2.119   7.084 -0.5083  0.0758 -0.0720
 7124SOL    HW132834   2.708   2.185   7.149  0.5815 -0.5539  0.0823
 7124SOL    HW232835   2.590   2.148   7.067 -0.3705 -0.3374 -1.4848
 7125SOL     OW32836   1.636   0.807  14.520  0.0724 -0.1227 -0.7849
 7125SOL    HW132837   1.609   0.888  14.564 -0.1611  1.1627 -3.3310
 7125SOL    HW232838   1.574   0.750  14.566  0.5883 -0.0926 -0.0529
 7126SOL     OW32839   0.357   3.574   2.881  0.8296  0.9098 -0.2480
 7126SOL    HW132840   0.355   3.483   2.912  0.9202  1.3003  0.8759
 7126SOL    HW232841   0.373   3.567   2.786 -2.2157  2.3611 -0.8875
 7127SOL     OW32842   3.265   1.593   7.794  0.0468  0.0840 -0.6741
 7127SOL    HW132843   3.338   1.600   7.733  0.2519 -1.0636 -0.5537
 7127SOL    HW232844   3.308   1.606   7.879 -0.8725  0.4986 -0.2641
 7128SOL     OW32845   0.318   3.219   1.768 -0.0334  0.4778 -0.1956
 7128SOL    HW132846   0.297   3.309   1.792  1.0437  1.1321 -1.6413
 7128SOL    HW232847   0.227   3.190   1.767  0.2893 -0.5548 -0.7206
 7129SOL     OW32848   1.647   3.849   5.775 -0.3023  0.5092  0.3646
 7129SOL    HW132849   1.574   3.879   5.829  0.0368  0.5096  0.8264
 7129SOL    HW232850   1.721   3.833   5.833 -0.1820 -0.7828 -0.1504
 7130SOL     OW32851   3.592   1.221   4.637 -0.0309  0.2925 -0.2069
 7130SOL    HW132852   3.599   1.294   4.575 -1.3990  1.2832  0.8060
 7130SOL    HW232853   3.686   1.205   4.650 -0.1896 -0.4260  0.0196
 7131SOL     OW32854   0.412   3.137   7.669  0.5289  0.2190  0.0051
 7131SOL    HW132855   0.494   3.114   7.626  0.2961 -0.3241 -0.1487
 7131SOL    HW232856   0.447   3.134   7.758 -0.4046 -0.7432  0.3333
 7132SOL     OW32857   1.613   1.807   8.351 -0.7006  0.7027  0.0609
 7132SOL    HW132858   1.650   1.720   8.366 -2.3588 -0.5505 -3.1382
 7132SOL    HW232859   1.669   1.862   8.407 -0.3852 -0.2081  0.6357
 7133SOL     OW32860   0.178   3.757   5.793  0.0247 -0.8929  0.0195
 7133SOL    HW132861   0.240   3.692   5.828  1.8525  0.6693 -0.3399
 7133SOL    HW232862   0.211   3.769   5.704  0.0457 -0.0477  0.1381
 7134SOL     OW32863   2.550   4.364   6.346  0.9842 -0.1190  0.1869
 7134SOL    HW132864   2.496   4.287   6.362  0.8811 -0.4591 -1.8363
 7134SOL    HW232865   2.633   4.322   6.327  0.8719 -1.7373  3.2869
 7135SOL     OW32866   0.458   2.465   2.835 -0.1736 -0.0904 -0.3566
 7135SOL    HW132867   0.427   2.550   2.802  1.7331  1.2324  1.2694
 7135SOL    HW232868   0.378   2.433   2.877 -0.3648  0.2883 -0.4291
 7136SOL     OW32869   4.453   2.239   7.695  0.0650 -0.0622 -0.8233
 7136SOL    HW132870   4.542   2.269   7.680 -1.0156  3.6823  0.1716
 7136SOL    HW232871   4.429   2.307   7.757 -1.5454  1.3200 -2.9263
 7137SOL     OW32872   4.528   4.517  10.219 -0.3515  0.3806  0.1370
 7137SOL    HW132873   4.586   4.593  10.214  1.6816 -1.0945  1.3371
 7137SOL    HW232874   4.545   4.482  10.132 -0.8339 -2.2733  1.1148
 7138SOL     OW32875   3.272   2.618   1.545  0.5348  0.4800  0.3216
 7138SOL    HW132876   3.332   2.691   1.534 -1.7986  2.2582 -0.7092
 7138SOL    HW232877   3.322   2.560   1.603 -0.9991  0.3337  1.4911
 7139SOL     OW32878   3.798   2.630   4.102 -0.2791 -0.1005 -0.3743
 7139SOL    HW132879   3.783   2.575   4.025  1.0512 -0.6684 -0.2256
 7139SOL    HW232880   3.824   2.704   4.046 -1.4080 -1.4648 -2.7042
 7140SOL     OW32881   0.614   1.128  13.212  0.3423  0.0273 -0.0390
 7140SOL    HW132882   0.664   1.089  13.283 -2.6384 -1.0013  1.5136
 7140SOL    HW232883   0.533   1.144  13.261 -1.5203 -1.7739 -2.5631
 7141SOL     OW32884   0.451   2.169   2.428  0.4956  0.3253  0.0893
 7141SOL    HW132885   0.510   2.195   2.499 -1.7470  2.8750  1.0429
 7141SOL    HW232886   0.505   2.111   2.375  0.0399  0.3117 -0.3533
 7142SOL     OW32887   3.338   1.449   7.457  0.5958 -0.1333  0.4074
 7142SOL    HW132888   3.308   1.478   7.371 -2.3451 -0.0472  1.4699
 7142SOL    HW232889   3.288   1.507   7.515  0.7902 -1.4456  1.8956
 7143SOL     OW32890   4.605   0.745   6.234  0.4984 -0.8873 -0.1262
 7143SOL    HW132891   4.562   0.660   6.239  0.2251 -0.7130  0.4856
 7143SOL    HW232892   4.693   0.708   6.223  0.8834  0.1461 -0.4905
 7144SOL     OW32893   3.331   2.650   7.198 -0.0157 -0.0246  0.6643
 7144SOL    HW132894   3.417   2.630   7.235  0.6712  1.5255 -0.0606
 7144SOL    HW232895   3.305   2.737   7.227 -0.7053  1.1851 -3.5400
 7145SOL     OW32896   0.808   4.165   6.069  0.0789 -0.2320 -0.6985
 7145SOL    HW132897   0.773   4.253   6.086  1.8588  0.4580 -0.6354
 7145SOL    HW232898   0.900   4.188   6.082 -0.2156 -1.1663  3.1300
 7146SOL     OW32899   4.256   4.244   2.370  0.0320  0.2977  0.0029
 7146SOL    HW132900   4.176   4.194   2.352  0.9464 -1.1589 -0.0783
 7146SOL    HW232901   4.306   4.181   2.422 -0.8966 -2.0200 -1.8547
 7147SOL     OW32902   3.498   0.677  12.118  0.3778  0.0623  0.0230
 7147SOL    HW132903   3.407   0.694  12.144  0.3926  1.1676 -0.6207
 7147SOL    HW232904   3.513   0.741  12.048  1.0891 -1.1618 -0.9439
 7148SOL     OW32905   2.623   4.506   9.466 -0.0532  0.0197 -0.2704
 7148SOL    HW132906   2.678   4.584   9.476  1.0202 -0.9954  1.7855
 7148SOL    HW232907   2.537   4.547   9.456 -0.3994 -0.5147  0.4616
 7149SOL     OW32908   4.073   1.125   4.949  0.2381 -0.2302  0.0793
 7149SOL    HW132909   4.090   1.108   4.856 -0.8582  1.2159 -0.3804
 7149SOL    HW232910   4.038   1.213   4.960  0.7776  0.1687 -1.4309
 7150SOL     OW32911   1.830   3.417   5.789  0.0512  0.0091 -0.5764
 7150SOL    HW132912   1.777   3.414   5.869  0.1266 -0.7774 -0.5610
 7150SOL    HW232913   1.795   3.494   5.744  0.1521  0.2972 -0.1698
 7151SOL     OW32914   2.391   3.784   6.933 -0.2410 -0.0262 -0.2496
 7151SOL    HW132915   2.337   3.856   6.965  0.6195  0.7889 -0.6527
 7151SOL    HW232916   2.381   3.783   6.838 -1.9870 -0.0294 -0.0817
 7152SOL     OW32917   2.114   2.119   4.245  0.0024 -0.5037 -0.3979
 7152SOL    HW132918   2.065   2.158   4.317 -1.7948 -2.7859 -0.3887
 7152SOL    HW232919   2.119   2.195   4.188 -2.1612  1.0566  1.4505
 7153SOL     OW32920   0.526   0.051  16.193 -0.5818  0.2838 -0.5689
 7153SOL    HW132921   0.439   0.076  16.223  0.1200  0.2399  1.5472
 7153SOL    HW232922   0.502   0.043  16.101  0.4727 -1.6092 -0.6817
 7154SOL     OW32923   3.467   3.852   4.545 -0.7278 -0.3981 -0.0955
 7154SOL    HW132924   3.508   3.779   4.500 -0.5054  0.4362 -1.2272
 7154SOL    HW232925   3.416   3.809   4.614  0.5744 -0.7757  0.6325
 7155SOL     OW32926   4.572   2.469   6.662 -0.2456  0.6439 -0.5728
 7155SOL    HW132927   4.604   2.391   6.616 -0.4917  0.7380 -0.9074
 7155SOL    HW232928   4.650   2.504   6.705 -0.8388  0.5799  0.5571
 7156SOL     OW32929   4.159   1.846   8.803 -0.6930  0.2718 -0.0958
 7156SOL    HW132930   4.071   1.843   8.840 -1.6445  1.1212 -2.2905
 7156SOL    HW232931   4.204   1.770   8.841 -0.3389 -0.0811 -1.2232
 7157SOL     OW32932   1.410   0.520   8.085  0.3856  0.1854 -0.3407
 7157SOL    HW132933   1.409   0.460   8.159  1.1306 -1.0298 -1.3110
 7157SOL    HW232934   1.357   0.594   8.116 -1.7684 -0.7300 -1.8273
 7158SOL     OW32935   2.861   1.755  11.348  0.0810 -0.5103  0.0725
 7158SOL    HW132936   2.799   1.790  11.284  0.2503 -0.1371  0.1108
 7158SOL    HW232937   2.843   1.809  11.425  0.2232 -0.6486  0.2035
 7159SOL     OW32938   1.559   0.044   1.679 -0.4470 -0.0365 -0.1735
 7159SOL    HW132939   1.540   0.137   1.693  0.2669  0.2552 -1.1474
 7159SOL    HW232940   1.476   0.002   1.655 -1.2287  2.3783 -1.6951
 7160SOL     OW32941   3.274   0.851   9.197  0.0022  0.1396 -0.3642
 7160SOL    HW132942   3.309   0.830   9.111  2.3962 -0.4813  0.7637
 7160SOL    HW232943   3.187   0.884   9.174 -1.0506 -0.4226  2.7360
 7161SOL     OW32944   2.133   2.775   4.330  0.2952  0.1089 -0.4996
 7161SOL    HW132945   2.081   2.847   4.294  2.1089  1.3378 -0.6617
 7161SOL    HW232946   2.069   2.745   4.396  0.4557 -1.7819 -1.2179
 7162SOL     OW32947   4.360   1.830  16.684  0.0902  0.1268 -0.7712
 7162SOL    HW132948   4.405   1.766  16.741 -0.3289  0.9780  0.5280
 7162SOL    HW232949   4.301   1.775  16.634 -0.9562  1.0363 -0.5431
 7163SOL     OW32950   2.449   2.969   4.960  0.2555  0.9430  0.3883
 7163SOL    HW132951   2.501   2.912   5.018  0.9151 -0.6363 -1.7727
 7163SOL    HW232952   2.396   3.030   5.011 -1.7559 -0.4555 -0.0565
 7164SOL     OW32953   2.119   1.006  13.059  0.1131 -0.1217  0.1414
 7164SOL    HW132954   2.181   1.078  13.071 -0.0652  0.2005 -0.9312
 7164SOL    HW232955   2.115   0.961  13.144  0.2454 -0.7177 -0.1732
 7165SOL     OW32956   2.640   0.541  15.938 -0.2492 -0.7050  0.2535
 7165SOL    HW132957   2.582   0.492  15.881 -0.9132  1.2085 -0.7283
 7165SOL    HW232958   2.661   0.618  15.885 -0.5944 -0.8451 -0.0789
 7166SOL     OW32959   1.075   0.220  13.789 -0.4218 -0.7492 -0.2462
 7166SOL    HW132960   1.160   0.189  13.821 -0.4031 -1.7401 -1.2954
 7166SOL    HW232961   1.032   0.141  13.758 -0.6482 -0.0592 -1.6610
 7167SOL     OW32962   0.844   1.788   4.580  0.5058  0.4848 -0.0852
 7167SOL    HW132963   0.784   1.859   4.557 -0.3613  0.4103  2.0358
 7167SOL    HW232964   0.805   1.718   4.528  0.4259  0.2031  0.3634
 7168SOL     OW32965   1.700   4.573   1.772 -0.3461 -0.3539 -0.3426
 7168SOL    HW132966   1.769   4.638   1.788 -0.7013 -0.0390 -0.0797
 7168SOL    HW232967   1.629   4.634   1.749 -0.2595 -0.2219 -0.2637
 7169SOL     OW32968   2.015   4.285   3.247  0.1680 -0.2750  0.5163
 7169SOL    HW132969   2.003   4.368   3.201  1.9394 -0.1751  0.2283
 7169SOL    HW232970   1.986   4.227   3.176 -1.1323 -1.1660  1.7708
 7170SOL     OW32971   1.022   0.704   8.240 -0.4362  0.1009  0.6623
 7170SOL    HW132972   0.969   0.705   8.319 -1.1580 -0.3496  0.1791
 7170SOL    HW232973   1.073   0.623   8.251  1.3376  1.1998  0.5574
 7171SOL     OW32974   0.677   0.720   2.380  0.1737  0.5510 -0.1388
 7171SOL    HW132975   0.600   0.770   2.407 -2.8553 -4.4521  0.5806
 7171SOL    HW232976   0.675   0.737   2.286 -0.8616 -3.0983 -0.7947
 7172SOL     OW32977   3.093   3.925  13.455 -0.9663 -0.0381  0.0646
 7172SOL    HW132978   3.104   3.878  13.538 -2.1078 -1.2235 -0.4513
 7172SOL    HW232979   3.024   3.987  13.474 -0.7999 -0.0097  0.5922
 7173SOL     OW32980   0.091   2.214   4.896 -0.2489  0.5055 -0.2072
 7173SOL    HW132981   0.031   2.248   4.962  0.1669 -0.4860  0.6880
 7173SOL    HW232982   0.080   2.278   4.826 -1.4250 -0.6749 -1.0755
 7174SOL     OW32983   3.545   3.745   0.137  0.0461 -0.0977  0.2968
 7174SOL    HW132984   3.471   3.792   0.175  0.3124 -0.7835  1.6739
 7174SOL    HW232985   3.578   3.794   0.062  0.6533  0.9216  1.2453
 7175SOL     OW32986   0.118   3.137   4.832 -0.1760  0.1623  0.3164
 7175SOL    HW132987   0.101   3.157   4.740 -0.2223  2.5248  0.8324
 7175SOL    HW232988   0.093   3.047   4.851  0.6436 -0.1122  0.0782
 7176SOL     OW32989   1.696   1.391   6.473 -0.4028  0.6340 -0.0796
 7176SOL    HW132990   1.710   1.360   6.383 -0.8940 -0.0904  0.0966
 7176SOL    HW232991   1.717   1.484   6.463  2.9244 -0.1846 -0.7320
 7177SOL     OW32992   0.834   2.743   2.632 -0.3629 -0.6123  0.0831
 7177SOL    HW132993   0.759   2.707   2.680  0.1523 -0.4672  0.9927
 7177SOL    HW232994   0.850   2.672   2.569 -0.7067 -0.1788 -0.4952
 7178SOL     OW32995   4.559   0.314   3.838  0.2360  0.3412 -0.0586
 7178SOL    HW132996   4.651   0.341   3.839  0.0655  0.9545 -0.5571
 7178SOL    HW232997   4.559   0.222   3.813  2.0533  0.3758 -0.1613
 7179SOL     OW32998   1.940   1.576   8.010 -0.0832  0.2628 -0.1994
 7179SOL    HW132999   2.026   1.578   8.052 -0.5096 -1.3454  0.7457
 7179SOL    HW233000   1.922   1.484   8.027  0.6158  0.2404  0.4367
 7180SOL     OW33001   1.772   1.131   0.871 -0.6107 -0.3615  0.0169
 7180SOL    HW133002   1.846   1.190   0.886 -0.0975 -1.0458  0.2046
 7180SOL    HW233003   1.811   1.045   0.890  0.0840 -0.6194 -2.6650
 7181SOL     OW33004   2.053   2.219   8.131 -0.2528 -0.3919  0.0225
 7181SOL    HW133005   2.077   2.212   8.223  1.1727 -0.0956 -0.3372
 7181SOL    HW233006   1.976   2.161   8.130 -1.0141  0.6531 -2.3670
 7182SOL     OW33007   2.747   0.338   9.737 -0.0072  0.5565 -0.4909
 7182SOL    HW133008   2.751   0.377   9.824  1.9363 -1.0664  0.1506
 7182SOL    HW233009   2.823   0.280   9.748  0.2397  0.5615 -2.2055
 7183SOL     OW33010   1.458   2.545   3.872 -0.3626  0.3447 -0.5790
 7183SOL    HW133011   1.415   2.630   3.881 -0.5557  0.2371 -0.4826
 7183SOL    HW233012   1.398   2.497   3.814 -1.4663  1.1586 -0.0997
 7184SOL     OW33013   0.223   2.336   6.640 -0.4131 -0.2167 -0.0354
 7184SOL    HW133014   0.223   2.290   6.724  0.4572  2.4875  1.4415
 7184SOL    HW233015   0.132   2.322   6.612 -0.3603 -2.0183  0.6686
 7185SOL     OW33016   1.900   2.931   6.160 -0.1538 -0.0918  0.3587
 7185SOL    HW133017   1.903   3.027   6.160 -1.2340 -0.0465  2.9613
 7185SOL    HW233018   1.921   2.911   6.069 -2.4935 -1.2297  0.0897
 7186SOL     OW33019   0.764   4.619   4.239 -0.7381 -0.0751 -0.3280
 7186SOL    HW133020   0.688   4.602   4.184 -1.7303 -1.0872  1.3677
 7186SOL    HW233021   0.729   4.575   4.317  2.1540  0.4479  1.2983
 7187SOL     OW33022   1.823   3.275  16.173  0.0626 -0.5651 -0.3138
 7187SOL    HW133023   1.798   3.255  16.083 -2.6983  1.0840  0.0934
 7187SOL    HW233024   1.754   3.238  16.228  0.2840 -1.8887 -0.9226
 7188SOL     OW33025   0.620   1.797  11.268 -0.0784  0.3844 -0.4600
 7188SOL    HW133026   0.604   1.874  11.213 -0.4978  0.3132 -0.4361
 7188SOL    HW233027   0.573   1.824  11.347  0.4477  1.7707 -0.6283
 7189SOL     OW33028   3.957   1.226   2.750 -0.3508 -0.3142 -0.3530
 7189SOL    HW133029   3.919   1.311   2.772  0.2033  0.0196 -0.6826
 7189SOL    HW233030   3.990   1.195   2.835 -0.6049  2.7343  0.8436
 7190SOL     OW33031   3.757   0.919   6.088 -0.3281  0.1365 -0.2508
 7190SOL    HW133032   3.758   0.968   6.005 -2.6592 -0.6984 -0.7675
 7190SOL    HW233033   3.820   0.975   6.133  2.4794 -1.3855 -2.2706
 7191SOL     OW33034   1.831   3.841   2.397 -0.1894 -0.0273  0.0300
 7191SOL    HW133035   1.865   3.835   2.486 -1.3294  1.8631  0.5875
 7191SOL    HW233036   1.900   3.895   2.358 -0.4455  1.4450  1.6325
 7192SOL     OW33037   1.755   0.197   9.468  0.0554 -0.3745 -0.1799
 7192SOL    HW133038   1.826   0.146   9.504  0.8797 -0.6485 -2.1943
 7192SOL    HW233039   1.809   0.246   9.406 -0.8451 -0.4313 -1.0285
 7193SOL     OW33040   2.321   3.799   3.892  0.0304  0.0410  0.9262
 7193SOL    HW133041   2.348   3.855   3.965 -1.1749 -0.9337  2.1169
 7193SOL    HW233042   2.230   3.827   3.903  0.5188  1.4156  1.5117
 7194SOL     OW33043   3.017   4.595   3.199  0.2562 -0.0915  0.5516
 7194SOL    HW133044   3.035   4.594   3.105  1.6345 -1.4453  0.8334
 7194SOL    HW233045   3.091   4.547   3.236  0.3944  1.2717  2.0778
 7195SOL     OW33046   0.578   3.506   6.360  0.7365  0.4705 -0.3364
 7195SOL    HW133047   0.656   3.552   6.328  1.8660  0.0137  1.7846
 7195SOL    HW233048   0.540   3.573   6.418 -1.3172 -0.6539 -0.3801
 7196SOL     OW33049   2.407   1.642   4.683 -0.4453  0.4808 -0.2216
 7196SOL    HW133050   2.384   1.711   4.621  0.3827  0.5010 -0.5006
 7196SOL    HW233051   2.341   1.574   4.666 -0.3456  0.5735 -0.9715
 7197SOL     OW33052   3.286   2.034  11.096  0.0103  0.5536  0.2979
 7197SOL    HW133053   3.199   2.027  11.135 -0.7596 -0.3587 -1.5686
 7197SOL    HW233054   3.308   1.941  11.090  1.7265  1.0747 -1.5479
 7198SOL     OW33055   1.457   3.425  15.977  0.7980 -0.3221 -0.0931
 7198SOL    HW133056   1.525   3.394  15.918  0.5452 -0.1282 -0.4920
 7198SOL    HW233057   1.385   3.366  15.956 -1.4691  1.9232  1.2714
 7199SOL     OW33058   2.557   3.801  13.710 -0.6239 -0.1601 -0.6851
 7199SOL    HW133059   2.604   3.880  13.736  2.5177 -1.4593 -2.4798
 7199SOL    HW233060   2.471   3.838  13.688 -0.9558 -0.0623  0.7504
 7200SOL     OW33061   2.237   4.304  16.213 -0.3226 -0.1062 -0.3798
 7200SOL    HW133062   2.322   4.297  16.169  0.1652 -1.3791  0.7656
 7200SOL    HW233063   2.254   4.371  16.279 -1.4769 -1.6445  1.4815
 7201SOL     OW33064   3.818   2.927   9.565  0.3481  0.2191 -0.5121
 7201SOL    HW133065   3.859   2.870   9.631  0.7693 -1.6455 -2.4062
 7201SOL    HW233066   3.815   3.009   9.615 -0.8929  2.0707 -3.6913
 7202SOL     OW33067   3.400   0.870   3.488  0.0378  0.6612  0.1704
 7202SOL    HW133068   3.371   0.906   3.404  1.5387 -1.6085 -1.3203
 7202SOL    HW233069   3.471   0.932   3.505 -1.4989  1.9918  1.7356
 7203SOL     OW33070   4.217   3.389  14.688  0.4729 -0.4211 -0.2663
 7203SOL    HW133071   4.239   3.473  14.649 -1.9025  0.5736  0.5225
 7203SOL    HW233072   4.300   3.344  14.674  0.0245 -1.1081 -0.6861
 7204SOL     OW33073   1.906   2.318   2.615 -0.0559  0.1921 -0.3253
 7204SOL    HW133074   1.921   2.285   2.526  0.7539  2.2099 -0.9276
 7204SOL    HW233075   1.998   2.326   2.641 -0.6757  0.4660  1.8192
 7205SOL     OW33076   1.326   2.604  17.351 -0.1736  0.7998  0.1181
 7205SOL    HW133077   1.320   2.534  17.415  1.6575  1.2454  0.7774
 7205SOL    HW233078   1.412   2.640  17.372  0.4595 -0.2730 -0.5616
 7206SOL     OW33079   3.067   1.138  12.105 -0.1025  0.1612  0.2732
 7206SOL    HW133080   3.157   1.122  12.135  0.1099  0.8231 -0.0230
 7206SOL    HW233081   3.021   1.054  12.102  0.6459 -0.2356 -0.2609
 7207SOL     OW33082   4.342   0.736   9.363 -0.6596 -0.2950  0.4834
 7207SOL    HW133083   4.299   0.652   9.376  2.8402 -2.3580 -1.3515
 7207SOL    HW233084   4.281   0.788   9.415 -1.9376 -2.2015  0.8466
 7208SOL     OW33085   3.019   4.543   8.447 -0.2140  0.2564  0.3210
 7208SOL    HW133086   3.097   4.493   8.471 -1.0708  0.1503  2.9433
 7208SOL    HW233087   3.046   4.559   8.357 -0.5040 -0.8413  0.0364
 7209SOL     OW33088   3.096   0.796   7.929 -0.5489  0.2263 -0.0513
 7209SOL    HW133089   3.141   0.880   7.935  1.5863 -0.9067 -0.4788
 7209SOL    HW233090   3.014   0.815   7.883 -0.6464  2.0270  0.8313
 7210SOL     OW33091   1.370   0.933   2.434 -0.0949 -0.0555  0.4907
 7210SOL    HW133092   1.344   0.845   2.463 -1.8993  0.6967  1.1311
 7210SOL    HW233093   1.287   0.980   2.437 -0.6741 -0.9336 -1.3318
 7211SOL     OW33094   3.430   0.584  13.789 -0.1020  0.0585  0.6260
 7211SOL    HW133095   3.410   0.626  13.873 -0.2031 -0.1484  0.7053
 7211SOL    HW233096   3.345   0.545  13.766  1.7137 -1.9209 -2.6387
 7212SOL     OW33097   3.331   0.399  12.983 -0.0777 -0.6201  0.7387
 7212SOL    HW133098   3.336   0.304  12.973 -1.5369 -0.7645  1.4186
 7212SOL    HW233099   3.424   0.418  12.997 -0.3960  1.6225 -0.1578
 7213SOL     OW33100   0.496   3.089   2.006 -0.3168 -0.2838  1.0373
 7213SOL    HW133101   0.566   3.154   2.002 -0.9333  0.4362  1.7175
 7213SOL    HW233102   0.511   3.040   1.926  2.5038  1.5289  0.4742
 7214SOL     OW33103   4.629   2.215   9.351  0.3239  0.1929 -0.4195
 7214SOL    HW133104   4.703   2.185   9.404 -0.6562 -1.7540 -0.1068
 7214SOL    HW233105   4.553   2.209   9.410  0.6070 -1.4344 -0.1996
 7215SOL     OW33106   3.591   3.116  13.634 -0.3215  0.0772 -0.2194
 7215SOL    HW133107   3.555   3.072  13.711  2.2040 -0.0863  0.8546
 7215SOL    HW233108   3.568   3.208  13.647 -0.1953 -0.0349  0.7800
 7216SOL     OW33109   4.153   2.507   3.242 -0.0350 -0.2241  0.0186
 7216SOL    HW133110   4.236   2.460   3.232 -1.0252 -1.9238 -0.1730
 7216SOL    HW233111   4.102   2.485   3.165  0.8233 -2.7083  0.1543
 7217SOL     OW33112   2.034   2.107   5.880 -0.2357 -0.3127  0.4907
 7217SOL    HW133113   2.012   2.046   5.810  0.1564  0.0594  0.0432
 7217SOL    HW233114   2.117   2.070   5.908  0.4525  0.3685 -0.6513
 7218SOL     OW33115   3.565   4.299  13.594 -0.3016  0.0344  0.2504
 7218SOL    HW133116   3.584   4.383  13.636 -2.8511  0.5814  0.2887
 7218SOL    HW233117   3.592   4.313  13.503 -1.4887  1.3951  0.1123
 7219SOL     OW33118   2.694   0.616   4.257  0.0017  0.3116 -0.4237
 7219SOL    HW133119   2.757   0.650   4.192 -0.9497  0.3891 -1.3058
 7219SOL    HW233120   2.725   0.526   4.263 -0.5179  0.2125  0.7075
 7220SOL     OW33121   0.298   0.351   1.545  0.2103  0.3806 -0.2047
 7220SOL    HW133122   0.366   0.286   1.526 -0.6038 -0.2226 -1.0397
 7220SOL    HW233123   0.270   0.367   1.455 -0.2018 -0.8121 -0.2928
 7221SOL     OW33124   3.131   1.268   6.888 -0.2069 -0.6413 -0.3851
 7221SOL    HW133125   3.069   1.196   6.874 -0.7481  0.1782 -2.1198
 7221SOL    HW233126   3.072   1.333   6.850 -0.5814 -0.8357 -0.1417
 7222SOL     OW33127   0.159   1.118  16.973 -0.4143 -0.0503 -0.1269
 7222SOL    HW133128   0.237   1.139  17.024 -1.0468 -2.2650  1.7585
 7222SOL    HW233129   0.181   1.143  16.883  0.2415  0.6050  0.2197
 7223SOL     OW33130   4.016   0.895   8.986 -0.3777  0.2030  0.1730
 7223SOL    HW133131   3.935   0.844   8.985 -1.0645  1.2935  0.3801
 7223SOL    HW233132   4.078   0.823   8.976 -2.2586 -1.0483 -2.3097
 7224SOL     OW33133   3.661   0.552   6.681  0.2555  0.1663 -0.0138
 7224SOL    HW133134   3.699   0.464   6.669  0.3903 -0.3147  3.8573
 7224SOL    HW233135   3.582   0.546   6.628  0.6385 -1.7256 -0.3892
 7225SOL     OW33136   3.034   4.529  10.057 -0.4968  0.0233  0.0825
 7225SOL    HW133137   3.126   4.523  10.082 -0.2719  1.1807 -0.5044
 7225SOL    HW233138   2.999   4.554  10.143 -1.3896  0.3517 -0.3824
 7226SOL     OW33139   3.443   1.873   6.223 -0.5333 -0.4122  0.2180
 7226SOL    HW133140   3.507   1.803   6.215 -2.5079 -1.9300 -2.4215
 7226SOL    HW233141   3.448   1.870   6.318 -1.1536 -3.1226  0.1846
 7227SOL     OW33142   2.158   0.054   5.615  0.3962 -0.4864 -0.1896
 7227SOL    HW133143   2.151   4.717   5.690  3.4718  1.8151  1.9490
 7227SOL    HW233144   2.150   4.712   5.546 -0.4808  0.3329 -0.8684
 7228SOL     OW33145   0.886   1.228  13.102  0.8835  0.2436  0.5260
 7228SOL    HW133146   0.875   1.273  13.018 -0.5912 -1.6146 -0.2668
 7228SOL    HW233147   0.810   1.171  13.101  0.8400  0.3149 -0.6889
 7229SOL     OW33148   4.614   4.026  14.277 -0.1022 -0.0414 -0.0408
 7229SOL    HW133149   4.618   4.047  14.184 -2.3082  0.0953 -0.0978
 7229SOL    HW233150   4.572   3.940  14.283 -1.0641  0.4540  0.3234
 7230SOL     OW33151   2.463   4.721   9.586  0.3200  0.0062  0.2530
 7230SOL    HW133152   2.509   0.047   9.517  1.1422 -0.5952  0.3685
 7230SOL    HW233153   2.456   0.075   9.643  2.7139 -0.5981  1.3805
 7231SOL     OW33154   3.277   3.159   3.477 -0.1728  0.7121 -0.4259
 7231SOL    HW133155   3.249   3.104   3.405  0.2978 -0.4205  0.2595
 7231SOL    HW233156   3.324   3.227   3.428  0.9029 -1.1590 -2.0086
 7232SOL     OW33157   3.264   3.226   6.916  0.4925 -0.0749  0.4765
 7232SOL    HW133158   3.269   3.322   6.923  0.3984 -0.0063 -0.4291
 7232SOL    HW233159   3.187   3.206   6.968 -0.0265 -0.5757 -0.4913
 7233SOL     OW33160   3.493   1.429   3.617 -0.1786 -0.0508 -0.1578
 7233SOL    HW133161   3.465   1.521   3.616 -0.4520 -0.1372 -0.4120
 7233SOL    HW233162   3.459   1.397   3.533 -1.2379 -1.1784  0.6913
 7234SOL     OW33163   2.397   4.685   4.264 -0.2784 -0.0265  0.0907
 7234SOL    HW133164   2.356   4.611   4.218 -1.2417  0.3095  0.4109
 7234SOL    HW233165   2.458   4.639   4.320 -2.3617  0.8045  3.0300
 7235SOL     OW33166   0.784   4.112   3.868 -0.0228  0.7527  0.0483
 7235SOL    HW133167   0.816   4.067   3.790  1.3358  1.2373  0.3378
 7235SOL    HW233168   0.721   4.043   3.890 -0.5332  0.7955 -1.2785
 7236SOL     OW33169   2.917   4.579  10.314  0.0446 -0.2636 -0.0265
 7236SOL    HW133170   2.946   4.531  10.391 -0.8196  2.1496  1.8409
 7236SOL    HW233171   2.825   4.553  10.310 -0.1211  0.2707  0.3162
 7237SOL     OW33172   0.145   3.583   4.281  0.3502 -0.2689 -0.8446
 7237SOL    HW133173   0.062   3.542   4.255 -0.2749 -0.7614  1.9403
 7237SOL    HW233174   0.164   3.533   4.360  0.4488  1.4205  0.2050
 7238SOL     OW33175   2.556   2.987   0.404  0.2511  0.1266 -0.5012
 7238SOL    HW133176   2.475   3.018   0.364  0.1274  0.3151 -0.1058
 7238SOL    HW233177   2.530   2.913   0.458  0.9316  0.3973  0.2043
 7239SOL     OW33178   3.973   2.251  13.266 -0.7037  0.7546 -0.4345
 7239SOL    HW133179   3.898   2.203  13.303 -0.4248  0.3411 -0.4089
 7239SOL    HW233180   4.024   2.273  13.344 -0.1984 -1.0364 -0.2696
 7240SOL     OW33181   2.560   1.935   5.298 -0.7634 -0.3036  0.1421
 7240SOL    HW133182   2.523   2.009   5.345 -1.6878 -1.5642  1.4253
 7240SOL    HW233183   2.572   1.970   5.210  0.4938  2.2507  1.3466
 7241SOL     OW33184   1.667   2.996  15.783  0.2354 -0.0272  0.2772
 7241SOL    HW133185   1.575   3.015  15.763  0.7157  0.1196 -1.8375
 7241SOL    HW233186   1.683   2.936  15.710 -2.6159  0.2145 -0.5462
 7242SOL     OW33187   0.813   2.276   7.482  0.4508 -0.0915 -0.8030
 7242SOL    HW133188   0.732   2.327   7.479  0.9196  0.7039  0.2034
 7242SOL    HW233189   0.794   2.199   7.536 -0.5352 -1.1441 -2.6532
 7243SOL     OW33190   4.043   4.446   2.499  0.8513  0.1640 -0.2798
 7243SOL    HW133191   3.980   4.455   2.427  1.4721  3.1700 -0.4088
 7243SOL    HW233192   4.110   4.391   2.457 -0.3284 -2.0865  0.7502
 7244SOL     OW33193   2.651   2.459   0.989 -0.4841 -0.5026  0.8147
 7244SOL    HW133194   2.562   2.425   0.991 -0.4461 -0.6475 -0.2140
 7244SOL    HW233195   2.682   2.438   0.901  1.2301  0.9095  1.0805
 7245SOL     OW33196   2.211   1.670  12.332  0.1313  0.1678 -0.4589
 7245SOL    HW133197   2.134   1.696  12.281  1.5119 -1.2320 -3.2826
 7245SOL    HW233198   2.241   1.754  12.365 -0.7924 -0.6596  2.5168
 7246SOL     OW33199   0.166   2.314  16.677 -0.7625 -0.5119 -0.0810
 7246SOL    HW133200   0.191   2.401  16.648  1.8946 -1.1696  0.2334
 7246SOL    HW233201   0.125   2.329  16.762 -0.0718  1.2774 -0.0796
 7247SOL     OW33202   1.541   3.610  11.742  0.5161  0.4343  0.2509
 7247SOL    HW133203   1.611   3.669  11.714  1.6994 -1.9155 -1.6970
 7247SOL    HW233204   1.479   3.677  11.771  0.3215  1.2089 -1.9592
 7248SOL     OW33205   4.086   4.305   1.128  0.3601 -0.1697  0.0703
 7248SOL    HW133206   4.016   4.370   1.127  0.5664  0.0432 -0.2449
 7248SOL    HW233207   4.099   4.287   1.035  0.3480 -3.6578  0.7626
 7249SOL     OW33208   2.613   2.093   2.244 -0.3212 -0.6046  0.2303
 7249SOL    HW133209   2.681   2.087   2.311  0.0814  0.9235 -0.0590
 7249SOL    HW233210   2.620   2.182   2.211  3.3460 -1.4427 -1.2185
 7250SOL     OW33211   2.644   0.591  15.600 -0.0615 -0.0442 -0.2553
 7250SOL    HW133212   2.656   0.649  15.676  0.1805 -0.9002  0.3562
 7250SOL    HW233213   2.559   0.604  15.558 -0.1622 -1.1543 -0.4003
 7251SOL     OW33214   2.951   0.184   4.060 -0.0694  0.0643 -0.5735
 7251SOL    HW133215   3.042   0.161   4.076 -0.8424 -2.3721  0.3978
 7251SOL    HW233216   2.954   0.257   3.998  0.7277 -0.1440 -0.7848
 7252SOL     OW33217   0.820   3.011   2.699 -0.1126  0.3749 -0.1320
 7252SOL    HW133218   0.847   3.069   2.627  0.8332 -0.5696 -0.5399
 7252SOL    HW233219   0.799   2.926   2.661  0.4735 -0.1112  0.6409
 7253SOL     OW33220   1.793   2.656   7.125 -0.1718  0.2565  0.0558
 7253SOL    HW133221   1.810   2.739   7.169 -0.3645 -0.7895  2.1272
 7253SOL    HW233222   1.697   2.655   7.125 -0.1755  0.3578  1.1025
 7254SOL     OW33223   1.929   2.846   2.466 -0.4522  0.0774 -0.1560
 7254SOL    HW133224   1.869   2.920   2.450 -1.6901 -0.7392  0.7627
 7254SOL    HW233225   1.886   2.770   2.428  1.0344  0.2628 -2.1977
 7255SOL     OW33226   0.263   1.067   6.603 -0.1788 -0.2020 -0.5749
 7255SOL    HW133227   0.201   1.129   6.641  1.5312  0.7473  0.6838
 7255SOL    HW233228   0.280   0.996   6.665 -4.0468 -2.3394 -1.9344
 7256SOL     OW33229   0.823   3.821   9.310 -0.3090  0.1206 -0.1729
 7256SOL    HW133230   0.754   3.829   9.376  0.5596  1.8478  0.5080
 7256SOL    HW233231   0.872   3.897   9.342  0.5062 -0.7002  0.5426
 7257SOL     OW33232   3.791   4.704   5.435  0.4784  0.1184 -0.4782
 7257SOL    HW133233   3.809   0.025   5.352 -3.5937 -1.9233 -2.4636
 7257SOL    HW233234   3.846   0.031   5.494  0.3260 -1.0424  0.6414
 7258SOL     OW33235   4.387   1.410  16.524 -0.7508 -0.3643 -0.4284
 7258SOL    HW133236   4.317   1.476  16.519 -0.4798  0.0730  1.2871
 7258SOL    HW233237   4.465   1.462  16.505  0.8862 -1.8564  2.2234
 7259SOL     OW33238   0.676   0.387  16.351  0.3477 -0.8899  0.1244
 7259SOL    HW133239   0.724   0.443  16.290 -0.7862 -0.5122 -0.4080
 7259SOL    HW233240   0.753   0.332  16.366 -0.9595 -2.8207 -0.2739
 7260SOL     OW33241   4.705   3.966   8.568  0.4687 -0.0248  0.3070
 7260SOL    HW133242   0.055   3.985   8.627  0.6940  1.0106 -0.2984
 7260SOL    HW233243   4.690   4.056   8.539 -1.2447  0.5153  2.8456
 7261SOL     OW33244   3.087   0.468  12.123  0.7024  0.5837 -0.6588
 7261SOL    HW133245   3.117   0.447  12.211  0.2558 -1.2428 -0.9511
 7261SOL    HW233246   3.008   0.521  12.139  1.2076  0.9235  0.7060
 7262SOL     OW33247   0.479   4.065   1.360 -0.4242  0.4028  0.0691
 7262SOL    HW133248   0.410   4.029   1.416 -1.5408  0.5617 -1.1988
 7262SOL    HW233249   0.503   3.989   1.307 -0.6010  0.8979 -0.7268
 7263SOL     OW33250   0.206   2.463  10.542 -0.0133 -0.0552  0.4227
 7263SOL    HW133251   0.283   2.515  10.520  0.5143 -1.3874 -0.8707
 7263SOL    HW233252   0.142   2.531  10.564  0.4713 -0.0940  1.9724
 7264SOL     OW33253   4.119   4.474   3.724  0.0789  0.3013  0.5730
 7264SOL    HW133254   4.143   4.469   3.631 -0.0310 -0.0525  0.5636
 7264SOL    HW233255   4.025   4.458   3.716  0.4621 -0.3764 -2.8745
 7265SOL     OW33256   2.895   3.579  16.874  0.3829  0.0421  0.2016
 7265SOL    HW133257   2.803   3.597  16.858  0.5481 -0.6308 -1.5503
 7265SOL    HW233258   2.947   3.651  16.839  0.5928  0.5146  1.4886
 7266SOL     OW33259   4.668   2.258   8.006 -0.0281  0.5408 -0.1249
 7266SOL    HW133260   4.620   2.192   8.055  0.2468  0.1621 -0.3600
 7266SOL    HW233261   0.010   2.199   7.966 -0.5527  0.5231 -0.9406
 7267SOL     OW33262   4.242   1.227   9.472  0.4445 -0.2427  0.0056
 7267SOL    HW133263   4.313   1.291   9.485 -1.5302  1.7685  0.9018
 7267SOL    HW233264   4.191   1.233   9.553  0.8014 -1.8157  0.3331
 7268SOL     OW33265   3.044   3.850   5.389  0.7005 -0.7850  0.0152
 7268SOL    HW133266   3.030   3.822   5.479 -1.1620  0.3743  0.0760
 7268SOL    HW233267   3.034   3.767   5.343 -0.9920 -0.5319 -0.0820
 7269SOL     OW33268   3.671   1.727   6.262  0.4847 -0.4312 -0.4981
 7269SOL    HW133269   3.731   1.752   6.191 -1.4302  0.3411 -1.8253
 7269SOL    HW233270   3.736   1.711   6.330 -1.5789 -1.4975  1.2089
 7270SOL     OW33271   1.048   4.343  16.077 -0.2952 -0.3244 -0.7332
 7270SOL    HW133272   1.133   4.337  16.034  0.1857  1.3240 -0.0064
 7270SOL    HW233273   1.009   4.260  16.049  2.6087 -1.7580 -0.5427
 7271SOL     OW33274   4.194   0.725   6.883  0.0245  0.0894  0.3002
 7271SOL    HW133275   4.161   0.664   6.818  0.5969 -0.3379  0.4024
 7271SOL    HW233276   4.120   0.716   6.943 -0.8727  1.2228 -0.6594
 7272SOL     OW33277   0.556   3.177   7.919  0.3613  0.0769 -0.1303
 7272SOL    HW133278   0.560   3.265   7.958  0.7712 -0.4780  1.0782
 7272SOL    HW233279   0.597   3.126   7.989  4.1922  2.1651 -0.8337
 7273SOL     OW33280   1.506   1.022   8.116 -0.4230 -0.1117  0.2040
 7273SOL    HW133281   1.525   1.076   8.192 -0.0716  0.9049 -0.6067
 7273SOL    HW233282   1.579   0.960   8.110 -1.1082 -0.7940 -1.1561
 7274SOL     OW33283   2.954   3.501   7.525  0.0098 -0.1086  0.1845
 7274SOL    HW133284   2.904   3.420   7.527  2.2894 -1.4922  1.9471
 7274SOL    HW233285   2.913   3.551   7.596 -0.1626 -2.3922  1.7047
 7275SOL     OW33286   0.997   1.144   7.620 -0.7575 -0.2545  0.1096
 7275SOL    HW133287   0.939   1.148   7.544  0.7392 -1.3918 -1.1041
 7275SOL    HW233288   1.034   1.057   7.603  1.6918  1.0029 -1.1163
 7276SOL     OW33289   2.978   0.643   5.632  1.1561 -0.7845  0.0704
 7276SOL    HW133290   2.981   0.557   5.674 -2.5452 -0.8083  0.3167
 7276SOL    HW233291   2.883   0.651   5.621  1.2622 -0.4495 -0.5807
 7277SOL     OW33292   3.698   1.467   4.496  0.1904  0.4667 -0.5585
 7277SOL    HW133293   3.626   1.521   4.463  2.1266  1.5667 -2.9752
 7277SOL    HW233294   3.754   1.471   4.419 -1.4257  0.9880 -1.7196
 7278SOL     OW33295   3.129   2.744   5.871  0.1153  0.5144 -0.0629
 7278SOL    HW133296   3.042   2.704   5.867  0.3949 -0.2253  1.1369
 7278SOL    HW233297   3.118   2.787   5.786  1.2527  2.4074  0.7646
 7279SOL     OW33298   4.519   0.190   0.434 -0.0350 -0.1598  0.2984
 7279SOL    HW133299   4.577   0.265   0.414  0.4532 -0.9126 -1.1373
 7279SOL    HW233300   4.454   0.172   0.367 -1.3237  0.1957  1.4606
 7280SOL     OW33301   3.070   0.757   0.802 -0.1788 -0.4676  0.2668
 7280SOL    HW133302   3.054   0.665   0.825  1.4935 -0.8054  0.0423
 7280SOL    HW233303   3.054   0.749   0.708  0.8586 -0.9151  0.1251
 7281SOL     OW33304   1.798   0.919   2.536 -0.2905  0.3360  0.1346
 7281SOL    HW133305   1.880   0.955   2.501  0.5492 -0.6741  1.0441
 7281SOL    HW233306   1.760   0.909   2.449 -0.5365  0.9271  0.1773
 7282SOL     OW33307   4.116   3.833  11.315  0.0688  0.7195 -0.2990
 7282SOL    HW133308   4.106   3.787  11.232 -1.0262  1.3891 -0.5388
 7282SOL    HW233309   4.059   3.778  11.369  2.4409 -1.5533 -0.0768
 7283SOL     OW33310   1.143   3.334   6.962 -0.2434  0.3417 -0.1694
 7283SOL    HW133311   1.075   3.277   6.926 -0.8481  0.7297  0.3565
 7283SOL    HW233312   1.099   3.349   7.045 -0.6285 -0.4210 -0.2365
 7284SOL     OW33313   3.745   4.680   8.819  0.1405 -0.1744  0.1554
 7284SOL    HW133314   3.784   0.020   8.880  2.5225 -1.8861  0.4023
 7284SOL    HW233315   3.676   4.646   8.876 -1.6134 -0.6256 -2.2259
 7285SOL     OW33316   1.917   2.955   9.653 -0.1441  0.4184  0.2283
 7285SOL    HW133317   1.952   2.898   9.722 -1.4929  2.4529  2.5839
 7285SOL    HW233318   1.906   2.895   9.579  0.7654  0.3474  0.1613
 7286SOL     OW33319   2.944   4.677   8.660 -0.2867 -0.0511 -0.1662
 7286SOL    HW133320   2.973   4.613   8.596 -0.6825  0.4630 -0.8671
 7286SOL    HW233321   2.888   4.622   8.715  1.7623 -1.2777  0.6561
 7287SOL     OW33322   2.167   2.940   7.891 -0.3044 -0.6525 -0.0799
 7287SOL    HW133323   2.158   2.845   7.882 -0.8877 -0.6825  0.9239
 7287SOL    HW233324   2.078   2.966   7.912 -0.2774  0.8417 -1.7790
 7288SOL     OW33325   2.432   0.158  16.781  0.3518  0.5448  0.5093
 7288SOL    HW133326   2.466   0.239  16.742  2.3768 -1.0882 -1.0998
 7288SOL    HW233327   2.354   0.143  16.729  0.0245  3.6949  0.0993
 7289SOL     OW33328   1.618   4.419  10.480 -0.3212 -0.5884  0.0653
 7289SOL    HW133329   1.659   4.336  10.456  1.0495  0.3893 -1.0110
 7289SOL    HW233330   1.640   4.479  10.408  1.1076 -0.0456  0.9531
 7290SOL     OW33331   0.525   2.093   7.749  0.4054 -0.2845  0.0449
 7290SOL    HW133332   0.478   2.026   7.799 -0.5354  0.7515  0.5627
 7290SOL    HW233333   0.464   2.167   7.744  0.1791 -0.3016  2.2646
 7291SOL     OW33334   0.844   4.308   3.693 -0.5786  0.3862 -0.2226
 7291SOL    HW133335   0.847   4.262   3.777  0.0789  0.2857 -0.3040
 7291SOL    HW233336   0.872   4.397   3.717 -0.6289  0.3941 -0.1935
 7292SOL     OW33337   0.985   4.404   8.679  0.2097  0.5379 -0.1836
 7292SOL    HW133338   1.059   4.376   8.624 -0.3283  1.2852 -1.2780
 7292SOL    HW233339   1.019   4.399   8.769  1.5815 -0.6274 -0.7702
 7293SOL     OW33340   2.975   3.468   4.524 -0.5940 -0.3713 -0.6477
 7293SOL    HW133341   2.909   3.524   4.482  1.1901 -0.2818 -3.3666
 7293SOL    HW233342   2.930   3.400   4.573 -0.6719 -0.7889 -1.3036
 7294SOL     OW33343   2.575   2.132   6.695  0.1107  0.5072 -0.6293
 7294SOL    HW133344   2.637   2.205   6.692 -0.9698  1.4270 -0.8996
 7294SOL    HW233345   2.499   2.180   6.729 -0.8104 -1.0544 -0.4745
 7295SOL     OW33346   2.013   3.278   6.920 -0.0350  0.2392 -0.0663
 7295SOL    HW133347   2.069   3.352   6.898 -0.7346  0.3030 -1.6395
 7295SOL    HW233348   2.025   3.279   7.015  1.3022 -0.7472 -0.2388
 7296SOL     OW33349   4.353   3.034  14.558 -0.5047  0.7163  0.2763
 7296SOL    HW133350   4.323   2.944  14.562 -0.2493  0.6910  1.5197
 7296SOL    HW233351   4.295   3.069  14.625 -1.2660  0.9949 -0.5248
 7297SOL     OW33352   0.064   2.555  13.309 -0.3985 -0.1268  0.6945
 7297SOL    HW133353   0.117   2.613  13.255 -1.8456  0.9454  0.4167
 7297SOL    HW233354   0.052   2.472  13.262 -1.0386 -0.9353  2.2505
 7298SOL     OW33355   3.330   3.145   7.886 -0.7254  0.2243  0.4794
 7298SOL    HW133356   3.351   3.131   7.794 -1.7941  1.5790  0.0403
 7298SOL    HW233357   3.383   3.078   7.929 -0.7254 -0.7512 -1.0315
 7299SOL     OW33358   3.963   0.930   5.131 -0.2486  0.0362 -0.7637
 7299SOL    HW133359   3.994   1.014   5.095 -0.3698  0.0858 -0.7526
 7299SOL    HW233360   4.006   0.876   5.065 -1.9754 -1.2737 -0.8024
 7300SOL     OW33361   2.770   0.509   9.971 -0.4394  0.1166  0.8035
 7300SOL    HW133362   2.797   0.598   9.995  2.8491 -0.6559 -0.0595
 7300SOL    HW233363   2.831   0.454  10.018 -1.2563 -0.9223  0.6461
 7301SOL     OW33364   2.325   2.847   6.501  0.2075  0.0974 -0.9897
 7301SOL    HW133365   2.271   2.843   6.422 -2.0980 -0.0813  0.5956
 7301SOL    HW233366   2.397   2.788   6.479  1.0135  0.8465 -0.3157
 7302SOL     OW33367   3.583   3.768  10.886 -0.3351  0.2049 -0.2935
 7302SOL    HW133368   3.667   3.796  10.849  0.4509  0.7727  1.9153
 7302SOL    HW233369   3.612   3.767  10.978  0.6699  1.4656 -0.5914
 7303SOL     OW33370   0.560   0.863   4.538 -0.0319  0.6066  0.2105
 7303SOL    HW133371   0.610   0.894   4.463 -2.8290  1.5961 -1.2659
 7303SOL    HW233372   0.480   0.911   4.516 -1.3049 -1.7085 -0.2140
 7304SOL     OW33373   2.502   0.655   1.748  0.1631  0.1391 -0.7264
 7304SOL    HW133374   2.490   0.633   1.656  0.3676  0.7264 -0.8895
 7304SOL    HW233375   2.528   0.571   1.786 -0.9169  0.2439  0.2640
 7305SOL     OW33376   2.091   4.063   3.414  0.3164 -0.0306  0.5388
 7305SOL    HW133377   2.127   4.018   3.337 -0.0184 -1.5397  1.2743
 7305SOL    HW233378   2.038   4.129   3.369  0.4166 -1.7170 -2.1221
 7306SOL     OW33379   1.380   0.572   4.645  0.0176 -0.0195  0.2378
 7306SOL    HW133380   1.444   0.586   4.715 -0.6933  0.7255  0.7376
 7306SOL    HW233381   1.381   0.477   4.629 -0.2244 -0.1029  0.7285
 7307SOL     OW33382   3.467   3.500   2.211  0.2002  0.2839 -0.4225
 7307SOL    HW133383   3.373   3.480   2.210 -0.0385  1.3826  0.0089
 7307SOL    HW233384   3.502   3.420   2.174  2.4474  1.9027 -1.7852
 7308SOL     OW33385   2.474   2.531   3.024 -0.6563 -0.7805  0.0082
 7308SOL    HW133386   2.510   2.518   3.111 -0.1858 -1.2217 -0.2523
 7308SOL    HW233387   2.502   2.622   3.017  1.5762 -1.5150 -0.5079
 7309SOL     OW33388   3.935   1.236  14.913  0.2332  0.3835  0.0138
 7309SOL    HW133389   3.897   1.224  14.826 -0.3517 -3.7288  0.8396
 7309SOL    HW233390   3.925   1.149  14.951  1.4273  0.2874  0.1111
 7310SOL     OW33391   0.247   3.151  15.851  0.0408 -0.1231  0.3210
 7310SOL    HW133392   0.168   3.107  15.883 -0.0230 -0.6677 -0.5785
 7310SOL    HW233393   0.241   3.239  15.887 -1.5040  0.1879 -0.6486
 7311SOL     OW33394   2.814   4.212   6.828 -0.6036 -0.3178 -0.3349
 7311SOL    HW133395   2.852   4.132   6.865  2.0938  1.7138  1.2127
 7311SOL    HW233396   2.727   4.204   6.866 -1.0011 -0.4493 -1.2614
 7312SOL     OW33397   2.352   3.489  16.572 -0.5418 -0.0142  0.4108
 7312SOL    HW133398   2.265   3.527  16.586 -1.4453 -2.1604  0.6665
 7312SOL    HW233399   2.405   3.554  16.526 -0.9581  0.1081  0.0975
 7313SOL     OW33400   0.225   1.817   8.106 -0.2079  0.3721  0.1160
 7313SOL    HW133401   0.132   1.838   8.112 -0.4523 -0.8685  0.5925
 7313SOL    HW233402   0.228   1.727   8.076  2.7314  0.5754 -0.2820
 7314SOL     OW33403   4.145   0.274   6.370 -0.8832 -0.3693  0.4053
 7314SOL    HW133404   4.052   0.288   6.387 -1.0015 -1.8640  0.9837
 7314SOL    HW233405   4.148   0.184   6.337 -0.8819 -0.2264  0.0137
 7315SOL     OW33406   3.108   1.682  17.002  0.0406 -0.6481  0.1538
 7315SOL    HW133407   3.144   1.601  17.036 -0.4794 -0.9757 -0.0675
 7315SOL    HW233408   3.131   1.747  17.068 -1.4586  0.8347 -0.7512
 7316SOL     OW33409   3.612   0.797   7.882 -0.1422  0.1232 -0.0703
 7316SOL    HW133410   3.614   0.863   7.951  3.1653 -1.6851  1.5696
 7316SOL    HW233411   3.674   0.821   7.813 -0.0160 -0.7709 -0.2706
 7317SOL     OW33412   4.169   0.549  12.549 -0.3252  0.4767  0.5300
 7317SOL    HW133413   4.258   0.568  12.578  0.3822  0.7403 -1.8492
 7317SOL    HW233414   4.109   0.615  12.585 -1.7071 -0.0069 -0.8838
 7318SOL     OW33415   1.049   3.319  10.983 -0.5084 -0.2263  0.1848
 7318SOL    HW133416   1.074   3.347  11.071 -0.2691 -1.1661  0.4183
 7318SOL    HW233417   1.132   3.306  10.938 -1.5248 -0.0646 -1.7036
 7319SOL     OW33418   3.280   1.304   8.161  0.2152  0.3225 -0.0499
 7319SOL    HW133419   3.323   1.240   8.218 -3.2102  0.6287  2.9226
 7319SOL    HW233420   3.219   1.341   8.225 -1.7137  0.2328 -1.8498
 7320SOL     OW33421   1.920   1.094   2.277  0.3500 -0.2540 -0.1366
 7320SOL    HW133422   1.941   1.092   2.184  2.2630  1.1831  0.2705
 7320SOL    HW233423   1.906   1.184   2.306  1.6651 -0.9260  2.5521
 7321SOL     OW33424   0.160   3.787  11.009  0.6072 -0.3734 -0.2064
 7321SOL    HW133425   0.090   3.724  11.026 -0.2820 -0.1280 -3.0260
 7321SOL    HW233426   0.125   3.829  10.930 -0.2795 -0.1855  0.2812
 7322SOL     OW33427   3.265   2.366  14.252 -0.3875  0.0092  0.3228
 7322SOL    HW133428   3.313   2.307  14.195  1.7296  0.8422  1.1948
 7322SOL    HW233429   3.236   2.427  14.184 -3.0792 -1.0794  0.5107
 7323SOL     OW33430   1.038   4.427  13.689 -0.0323  0.2238 -0.0583
 7323SOL    HW133431   1.057   4.521  13.687 -1.5112  0.5179  0.5859
 7323SOL    HW233432   0.947   4.438  13.715 -0.4795 -1.5331 -0.8568
 7324SOL     OW33433   0.346   2.662   5.402  0.5266  0.1602  0.6469
 7324SOL    HW133434   0.397   2.630   5.327 -1.5050 -6.0813  1.9664
 7324SOL    HW233435   0.353   2.581   5.452 -1.2256 -0.8584 -0.7855
 7325SOL     OW33436   3.889   4.713  11.353  0.2535 -0.3561  0.2576
 7325SOL    HW133437   3.981   0.014  11.367 -0.0171  0.1246  1.1781
 7325SOL    HW233438   3.894   4.617  11.357  0.5386 -0.3453  0.1787
 7326SOL     OW33439   4.314   3.193  16.815  0.1053 -0.4012 -0.2128
 7326SOL    HW133440   4.273   3.123  16.865 -0.9065 -0.2601 -0.8495
 7326SOL    HW233441   4.346   3.140  16.741  0.9497 -0.1802 -0.0010
 7327SOL     OW33442   3.578   4.258   4.543  0.0265 -0.3068 -0.1612
 7327SOL    HW133443   3.523   4.331   4.571  1.1196 -0.1090  1.5065
 7327SOL    HW233444   3.663   4.301   4.530 -0.3697  0.2500 -0.9185
 7328SOL     OW33445   0.802   2.721   6.173  0.6943 -0.7907  0.1213
 7328SOL    HW133446   0.745   2.699   6.100  1.6131 -2.3110 -0.1290
 7328SOL    HW233447   0.825   2.629   6.188  0.5958 -0.6235  1.3044
 7329SOL     OW33448   0.623   1.147   2.316 -0.0671 -0.0581  0.0410
 7329SOL    HW133449   0.624   1.188   2.229 -1.6320 -1.0967 -0.4600
 7329SOL    HW233450   0.539   1.188   2.337  0.0716 -0.5159  1.4917
 7330SOL     OW33451   2.644   0.862   7.033  0.5760  0.0404  0.0604
 7330SOL    HW133452   2.672   0.937   7.084 -0.1863  0.2828  0.1313
 7330SOL    HW233453   2.614   0.801   7.100  0.1794 -0.8551 -0.9254
 7331SOL     OW33454   2.208   2.717   5.918  0.6483 -0.3907 -0.3216
 7331SOL    HW133455   2.218   2.625   5.897  0.1037 -0.3156 -0.9018
 7331SOL    HW233456   2.279   2.725   5.982 -1.9148  1.7564  2.2876
 7332SOL     OW33457   2.703   1.054   3.231  0.4124  0.4926 -0.2930
 7332SOL    HW133458   2.774   0.990   3.222  0.5807  0.7235 -0.5685
 7332SOL    HW233459   2.629   1.000   3.260  1.1678 -0.0503  0.6164
 7333SOL     OW33460   3.727   3.447   3.849  0.1678  0.0738 -0.1884
 7333SOL    HW133461   3.817   3.435   3.879  0.2180  0.8514 -0.0391
 7333SOL    HW233462   3.735   3.536   3.816  1.3915 -0.1276 -0.4634
 7334SOL     OW33463   0.434   0.238  14.182  0.1491 -0.3191 -0.0407
 7334SOL    HW133464   0.379   0.316  14.195  1.7498  1.0473 -1.5374
 7334SOL    HW233465   0.520   0.263  14.214 -0.3177  0.3713  0.6885
 7335SOL     OW33466   2.098   3.396  16.499 -0.1653  0.2492 -0.0053
 7335SOL    HW133467   2.056   3.317  16.534  2.7596 -0.7600  1.1789
 7335SOL    HW233468   2.071   3.405  16.408 -1.5767 -0.9962  0.2857
 7336SOL     OW33469   4.394   1.362  13.054  0.2865 -0.6029 -0.6933
 7336SOL    HW133470   4.455   1.392  12.986 -0.1940 -0.9295 -1.2682
 7336SOL    HW233471   4.396   1.267  13.061 -1.9549 -0.7199 -1.5693
 7337SOL     OW33472   0.012   1.055   7.006 -0.0104 -0.2449 -0.3349
 7337SOL    HW133473   0.026   0.961   6.999 -0.9897 -0.6375  2.9713
 7337SOL    HW233474   4.641   1.056   6.988 -0.1765 -1.2344  0.4823
 7338SOL     OW33475   4.115   2.321   5.254  0.2176 -0.0577  0.2357
 7338SOL    HW133476   4.189   2.260   5.253  0.0525 -0.2775  1.8487
 7338SOL    HW233477   4.075   2.289   5.173 -0.3779  1.4086 -0.0316
 7339SOL     OW33478   4.079   4.045   4.456  0.5720 -0.0704  0.1336
 7339SOL    HW133479   4.066   4.124   4.404  1.5419 -1.5361 -2.3261
 7339SOL    HW233480   4.110   3.982   4.391  0.3455  0.1926 -0.2330
 7340SOL     OW33481   4.571   0.262  14.732 -0.6410 -0.1543  0.3274
 7340SOL    HW133482   4.549   0.186  14.786  0.0985 -1.8206 -1.7102
 7340SOL    HW233483   4.580   0.338  14.789 -2.3516  0.3368 -0.0477
 7341SOL     OW33484   3.421   3.680   4.003  0.3822 -0.0300  0.7084
 7341SOL    HW133485   3.346   3.696   3.946  1.6178  2.2327 -0.2756
 7341SOL    HW233486   3.423   3.586   4.020  0.2830 -0.2509 -0.5073
 7342SOL     OW33487   3.551   4.246   9.866  0.1677 -0.0067 -0.1915
 7342SOL    HW133488   3.630   4.236   9.920  0.2650  1.3436 -0.0868
 7342SOL    HW233489   3.520   4.155   9.868  1.3056 -0.3899  0.2125
 7343SOL     OW33490   4.440   4.404  15.660 -0.2296 -0.0063  0.0577
 7343SOL    HW133491   4.393   4.403  15.743 -1.1753  0.1906 -0.4865
 7343SOL    HW233492   4.418   4.312  15.646  0.7165 -0.0300 -1.2487
 7344SOL     OW33493   4.703   3.586   3.874 -0.5091  0.1702  0.9822
 7344SOL    HW133494   4.659   3.526   3.933 -1.6835  0.1302  0.0784
 7344SOL    HW233495   4.627   3.629   3.834  1.1402  1.0796 -1.1930
 7345SOL     OW33496   2.197   4.252  17.669 -0.4668 -0.3542  0.1990
 7345SOL    HW133497   2.198   4.347  17.678 -0.1813 -0.4500  1.2283
 7345SOL    HW233498   2.170   4.228   0.064  2.8394  0.8042  1.5063
 7346SOL     OW33499   3.562   0.725   2.139  0.3854 -0.2465 -0.3940
 7346SOL    HW133500   3.602   0.733   2.052 -1.3625 -1.0210 -1.2568
 7346SOL    HW233501   3.470   0.720   2.114  0.6778 -3.5575 -0.7817
 7347SOL     OW33502   2.599   3.578   7.762 -0.3182 -0.3839 -0.1927
 7347SOL    HW133503   2.524   3.612   7.811 -0.4834  0.3616 -0.9752
 7347SOL    HW233504   2.556   3.545   7.683 -0.9943 -1.2358  0.5191
 7348SOL     OW33505   4.530   3.400   8.644 -0.0404  0.7790 -0.4943
 7348SOL    HW133506   4.593   3.433   8.580  1.4933 -2.8416 -0.8542
 7348SOL    HW233507   4.569   3.406   8.731 -0.1615  1.6264 -0.4975
 7349SOL     OW33508   0.317   2.493   7.274 -0.3892 -0.1265 -0.6342
 7349SOL    HW133509   0.303   2.457   7.187 -0.1512 -1.5645 -0.0809
 7349SOL    HW233510   0.235   2.537   7.296 -0.4850 -1.1611  1.0712
 7350SOL     OW33511   2.512   2.567   8.151 -0.0911  0.2009 -0.4359
 7350SOL    HW133512   2.437   2.624   8.133 -0.3251 -0.2462 -0.8825
 7350SOL    HW233513   2.474   2.488   8.189  0.3698 -0.7641 -1.9559
 7351SOL     OW33514   1.493   2.852   8.987 -0.2886 -0.2569 -0.5573
 7351SOL    HW133515   1.563   2.795   9.019 -1.0475 -0.9633 -0.1508
 7351SOL    HW233516   1.495   2.915   9.059 -0.7713  0.1978 -0.9458
 7352SOL     OW33517   4.323   2.723   2.108  0.2485  0.0895 -0.1800
 7352SOL    HW133518   4.304   2.637   2.147 -1.0201  0.7002  0.5443
 7352SOL    HW233519   4.350   2.775   2.184  1.2851  0.2377 -0.6512
 7353SOL     OW33520   3.812   2.268   1.193 -0.1823 -0.1899  0.4684
 7353SOL    HW133521   3.725   2.307   1.185 -0.5017 -1.3058 -1.6491
 7353SOL    HW233522   3.846   2.324   1.263 -0.6304  1.7613 -0.8753
 7354SOL     OW33523   4.105   0.578   3.039 -0.3220 -0.0779  0.2262
 7354SOL    HW133524   4.151   0.547   3.116  1.9321 -0.7532 -1.3821
 7354SOL    HW233525   4.177   0.560   2.978 -1.7541 -1.4264 -1.0451
 7355SOL     OW33526   0.556   3.502  12.680  0.5697 -0.2497 -0.0797
 7355SOL    HW133527   0.634   3.447  12.689  0.8669  0.0177 -1.0008
 7355SOL    HW233528   0.589   3.590  12.698  0.2324 -0.0311 -0.5323
 7356SOL     OW33529   2.390   4.035   7.658 -0.0676  0.3324  0.0168
 7356SOL    HW133530   2.335   3.964   7.691 -0.5847  1.5364  1.7851
 7356SOL    HW233531   2.441   3.969   7.612  2.7295  1.6354  1.2645
 7357SOL     OW33532   1.169   2.268   4.035  0.1767 -0.5910  0.1042
 7357SOL    HW133533   1.264   2.269   4.043  0.1576  0.3447  0.2020
 7357SOL    HW233534   1.171   2.230   3.947 -0.4611  0.8790 -0.5383
 7358SOL     OW33535   3.270   4.226   1.598 -0.1911 -0.4324  0.4302
 7358SOL    HW133536   3.248   4.212   1.506  1.9104 -1.8870  0.1465
 7358SOL    HW233537   3.248   4.317   1.617 -1.0990 -0.9327  1.7647
 7359SOL     OW33538   3.986   2.566   6.102  0.2247 -0.1639 -0.3842
 7359SOL    HW133539   4.017   2.502   6.039 -1.2982 -0.0769 -1.2181
 7359SOL    HW233540   4.029   2.646   6.072  0.0879  0.3663  0.8349
 7360SOL     OW33541   3.404   3.142   4.041 -0.2491 -0.4531 -0.2396
 7360SOL    HW133542   3.385   3.111   3.952  2.5037  0.3791 -1.1071
 7360SOL    HW233543   3.467   3.078   4.075 -1.5542 -1.4425  0.3188
 7361SOL     OW33544   1.416   1.372   2.618  0.7861 -0.1787  0.3676
 7361SOL    HW133545   1.331   1.401   2.650  0.0945  1.4820 -2.9496
 7361SOL    HW233546   1.468   1.421   2.681 -0.5087 -0.6225  1.7831
 7362SOL     OW33547   3.004   3.798  14.076  0.2322  0.5554 -0.3699
 7362SOL    HW133548   2.921   3.769  14.037 -1.1093  0.7022  2.4237
 7362SOL    HW233549   2.987   3.892  14.082  1.2164  0.6695  0.6098
 7363SOL     OW33550   3.489   3.560   6.562 -0.1510 -0.4988 -0.0137
 7363SOL    HW133551   3.502   3.504   6.638  2.5476 -2.0687 -1.6229
 7363SOL    HW233552   3.566   3.545   6.507  0.1883 -2.0897  0.9016
 7364SOL     OW33553   3.071   2.886   7.455  0.0931  0.2932 -1.0364
 7364SOL    HW133554   2.985   2.919   7.479 -0.5733 -0.2999 -2.6481
 7364SOL    HW233555   3.103   2.848   7.537 -1.4963  2.1993  0.4563
 7365SOL     OW33556   1.841   2.464   7.289  0.3407  0.4029  0.1255
 7365SOL    HW133557   1.935   2.481   7.279  0.4235  0.6231  1.3087
 7365SOL    HW233558   1.811   2.513   7.212  1.0945 -1.0398 -1.0815
 7366SOL     OW33559   1.936   1.922   2.885  0.7108  0.1399 -0.5674
 7366SOL    HW133560   1.975   1.908   2.971  0.3762  0.1757 -0.4076
 7366SOL    HW233561   2.019   1.908   2.839  1.9528 -2.9291  2.6754
 7367SOL     OW33562   1.260   2.498   2.411  0.3387  0.1071 -0.4395
 7367SOL    HW133563   1.267   2.565   2.479  0.2114 -0.8047  0.4674
 7367SOL    HW233564   1.166   2.511   2.402  0.4262  0.6341 -0.5895
 7368SOL     OW33565   1.806   4.521  14.219  0.3027 -0.0377  0.2143
 7368SOL    HW133566   1.717   4.486  14.210  0.0643  0.5722  0.2186
 7368SOL    HW233567   1.802   4.584  14.147 -3.4085  0.2867  0.6997
 7369SOL     OW33568   1.695   2.723   2.636  0.2791  0.6875  0.3670
 7369SOL    HW133569   1.658   2.636   2.622 -0.5921  0.9872  0.8062
 7369SOL    HW233570   1.623   2.770   2.594  0.7153  1.8391  0.8949
 7370SOL     OW33571   4.160   1.090   2.569  0.3364  0.3127 -0.2165
 7370SOL    HW133572   4.102   1.054   2.501  1.5618 -3.0802  0.5294
 7370SOL    HW233573   4.087   1.112   2.627  1.5001 -0.2791  1.4691
 7371SOL     OW33574   4.475   4.192   7.717  0.0574 -0.4978  0.0956
 7371SOL    HW133575   4.449   4.130   7.786  0.5479 -0.0347  0.7000
 7371SOL    HW233576   4.552   4.239   7.748 -0.6268  1.8270 -1.7627
 7372SOL     OW33577   0.908   2.863   5.073  0.3004 -0.0424 -0.6535
 7372SOL    HW133578   0.842   2.820   5.128  0.3916 -0.1341 -0.6160
 7372SOL    HW233579   0.876   2.861   4.983  1.0974 -1.1320 -0.9192
 7373SOL     OW33580   4.410   1.239   8.021 -0.6227  0.1361  0.2216
 7373SOL    HW133581   4.418   1.222   8.115 -0.8372 -2.6317 -0.2501
 7373SOL    HW233582   4.488   1.291   8.004 -0.5932  0.2167  0.6002
 7374SOL     OW33583   3.805   4.583   0.609  0.1995 -0.4928  0.0687
 7374SOL    HW133584   3.741   4.570   0.680 -0.4940  0.2804 -0.4069
 7374SOL    HW233585   3.768   4.654   0.556 -1.1212 -1.5272 -0.3860
 7375SOL     OW33586   0.441   3.258  13.603 -0.2097  0.8469 -0.0750
 7375SOL    HW133587   0.469   3.341  13.642  0.2776  1.4560 -1.7037
 7375SOL    HW233588   0.521   3.226  13.559  0.1769  2.7380 -0.7325
 7376SOL     OW33589   2.921   0.983   6.386 -0.3731  0.0904  0.2552
 7376SOL    HW133590   2.933   1.042   6.461 -0.1726  1.8031 -1.1077
 7376SOL    HW233591   2.985   1.030   6.333  1.4847 -1.5088  1.0652
 7377SOL     OW33592   1.782   3.593   7.336  0.4669 -0.1239  0.0830
 7377SOL    HW133593   1.794   3.634   7.250 -0.8601  1.5102  0.6884
 7377SOL    HW233594   1.717   3.525   7.318 -1.0045  1.2044  0.4064
 7378SOL     OW33595   2.571   1.593   3.980 -0.4429  0.5671 -0.6356
 7378SOL    HW133596   2.635   1.554   3.920  0.3621 -0.1962  0.7187
 7378SOL    HW233597   2.630   1.640   4.040 -1.9608  0.1566  1.1848
 7379SOL     OW33598   4.107   0.574   6.672  0.0568  0.4113 -0.0070
 7379SOL    HW133599   4.013   0.563   6.661 -0.0185  2.1001 -1.0583
 7379SOL    HW233600   4.136   0.489   6.640  0.0651  0.3458  0.1735
 7380SOL     OW33601   3.870   0.968  16.869  0.0628 -0.0984  0.0811
 7380SOL    HW133602   3.776   0.974  16.885  0.3517  4.3531  0.2972
 7380SOL    HW233603   3.884   0.875  16.885  0.4986 -0.3627 -1.8275
 7381SOL     OW33604   4.229   0.094   5.515  0.1036  0.2277  0.2656
 7381SOL    HW133605   4.289   0.163   5.487 -2.0077  0.9987 -2.3227
 7381SOL    HW233606   4.252   0.088   5.608 -1.5701  1.0881  0.7288
 7382SOL     OW33607   1.339   3.175   8.827  0.4150 -0.1366 -0.4553
 7382SOL    HW133608   1.320   3.087   8.793 -0.3223 -1.0253  2.2573
 7382SOL    HW233609   1.330   3.149   8.919  1.6700 -0.3680 -0.3994
 7383SOL     OW33610   1.824   0.623   4.767 -0.0852 -0.0452  0.1815
 7383SOL    HW133611   1.880   0.550   4.740 -1.3154 -0.2301 -1.8330
 7383SOL    HW233612   1.820   0.680   4.690 -0.8675  1.1215  1.0734
 7384SOL     OW33613   4.205   3.613   2.332  0.5980  0.2359 -0.1846
 7384SOL    HW133614   4.190   3.591   2.240  0.1294  0.9127 -0.2752
 7384SOL    HW233615   4.135   3.678   2.343  1.0850  0.4960  1.3459
 7385SOL     OW33616   0.901   0.333  14.012  0.1444  0.3589  0.1424
 7385SOL    HW133617   0.891   0.282  13.931 -0.9667  1.2205 -0.2592
 7385SOL    HW233618   0.994   0.352  14.010 -0.1306  1.7347  0.3657
 7386SOL     OW33619   1.313   4.581   1.571  0.0445  0.4981  0.3433
 7386SOL    HW133620   1.242   4.589   1.634 -1.5458 -1.4822 -1.1825
 7386SOL    HW233621   1.367   4.506   1.598  2.3176  1.6537 -1.0097
 7387SOL     OW33622   3.522   2.421   0.710  0.6980  0.0938 -0.3076
 7387SOL    HW133623   3.589   2.433   0.641 -1.2861 -0.8438 -2.3930
 7387SOL    HW233624   3.523   2.326   0.716 -0.8963  0.1578  0.8754
 7388SOL     OW33625   1.581   1.903   2.235 -0.6117  0.3686  0.1974
 7388SOL    HW133626   1.655   1.862   2.279  0.2938 -0.5147 -2.1663
 7388SOL    HW233627   1.636   1.962   2.185  0.9018 -1.4769 -0.2901
 7389SOL     OW33628   0.338   0.716  10.304  0.2820 -0.0817 -0.5208
 7389SOL    HW133629   0.391   0.756  10.373 -0.1427  0.4485 -0.5044
 7389SOL    HW233630   0.369   0.774  10.234 -0.2520  2.7169  1.5359
 7390SOL     OW33631   2.188   1.216   6.498 -0.2757 -0.1705  0.1474
 7390SOL    HW133632   2.186   1.275   6.573  1.0560 -0.1573  0.1806
 7390SOL    HW233633   2.250   1.148   6.524  1.2766  0.8774 -0.8251
 7391SOL     OW33634   1.817   2.578   7.555  0.1667 -0.8995 -0.5700
 7391SOL    HW133635   1.805   2.551   7.464 -0.8645 -0.4751 -0.5674
 7391SOL    HW233636   1.743   2.636   7.574 -0.2633 -2.4565  2.5444
 7392SOL     OW33637   0.892   3.651   7.145 -0.3470 -0.0050  0.5963
 7392SOL    HW133638   0.830   3.595   7.097 -0.0951  0.0948  0.1550
 7392SOL    HW233639   0.838   3.704   7.203 -1.3123  1.4946 -1.6747
 7393SOL     OW33640   4.095   0.746   5.972  0.1669  0.4433 -0.1924
 7393SOL    HW133641   4.022   0.690   6.000 -0.8942  1.8364 -0.1735
 7393SOL    HW233642   4.050   0.806   5.913  0.0735 -1.8498 -2.4728
 7394SOL     OW33643   1.803   2.565  15.657  0.3323  0.3474 -0.3306
 7394SOL    HW133644   1.882   2.585  15.706  1.2711 -1.1602 -1.2123
 7394SOL    HW233645   1.769   2.652  15.638  0.5613  0.2555 -1.1661
 7395SOL     OW33646   2.209   3.116  14.364  0.7824  0.4176 -0.3585
 7395SOL    HW133647   2.200   3.200  14.320  1.4937  0.2087 -0.9036
 7395SOL    HW233648   2.236   3.150  14.448 -2.4652  1.2401  0.3587
 7396SOL     OW33649   2.573   4.481  10.091 -0.1441 -0.2893 -0.0034
 7396SOL    HW133650   2.598   4.446  10.005  3.1775  1.3081  0.3004
 7396SOL    HW233651   2.521   4.555  10.059  0.7812 -1.0686 -3.3349
 7397SOL     OW33652   3.410   2.384   6.046 -0.4124 -0.3808 -0.7779
 7397SOL    HW133653   3.502   2.408   6.056 -0.5482 -0.4936  0.7640
 7397SOL    HW233654   3.393   2.315   6.110  0.2826  0.3227  0.1702
 7398SOL     OW33655   2.848   4.543   8.883  0.1013  0.0803  0.1463
 7398SOL    HW133656   2.828   4.604   8.954  1.3397  1.0781 -0.3844
 7398SOL    HW233657   2.769   4.489   8.892  1.4428 -2.0467 -0.7977
 7399SOL     OW33658   3.963   1.775   2.919  0.0216  0.3484  0.2842
 7399SOL    HW133659   4.027   1.730   2.974  0.2377  0.1416 -0.1314
 7399SOL    HW233660   3.878   1.738   2.942 -0.4404  0.8416 -0.6213
 7400SOL     OW33661   4.619   4.150   0.846 -0.1454  0.7003  0.0222
 7400SOL    HW133662   4.684   4.220   0.854  0.8702 -0.4218  1.5768
 7400SOL    HW233663   4.621   4.137   0.751 -2.2560 -0.9713  0.1964
 7401SOL     OW33664   0.797   0.730   3.273  0.0070 -0.5313 -0.1914
 7401SOL    HW133665   0.754   0.704   3.354  1.0506  0.1183  0.5829
 7401SOL    HW233666   0.723   0.758   3.219  0.9001  1.0008 -0.6284
 7402SOL     OW33667   1.740   2.022  13.006 -0.6338 -0.0642 -0.0300
 7402SOL    HW133668   1.665   1.998  13.060  0.2906  1.2925  1.9101
 7402SOL    HW233669   1.795   2.057  13.077  1.4457 -0.2463 -1.5557
 7403SOL     OW33670   4.668   0.860  12.639  0.1837 -0.0709  0.6882
 7403SOL    HW133671   4.660   0.769  12.670  0.4242 -0.2532  0.2273
 7403SOL    HW233672   4.611   0.858  12.562 -0.0314  0.7109  0.8363
 7404SOL     OW33673   2.440   4.010   8.906 -0.1832  0.2497  0.1401
 7404SOL    HW133674   2.397   4.056   8.979  0.2180  2.7959 -1.2263
 7404SOL    HW233675   2.378   3.941   8.881 -1.5454  1.4368  0.1994
 7405SOL     OW33676   2.042   4.296   4.621 -0.1168 -0.6153  0.0787
 7405SOL    HW133677   1.986   4.228   4.584  0.6627 -0.6812 -0.9678
 7405SOL    HW233678   1.985   4.372   4.606  1.1292 -0.0124 -1.5960
 7406SOL     OW33679   2.550   0.550   8.229  0.0170  0.3252  0.9020
 7406SOL    HW133680   2.643   0.560   8.209  0.1692  0.5779  1.7287
 7406SOL    HW233681   2.544   0.598   8.312  3.4143  1.3554  0.5392
 7407SOL     OW33682   3.263   3.841   6.718  0.1062  0.1711  0.8486
 7407SOL    HW133683   3.242   3.893   6.795  0.5518  0.7306  0.5951
 7407SOL    HW233684   3.284   3.755   6.754  0.0479  0.1245  0.7723
 7408SOL     OW33685   3.685   2.973   1.028  0.0466 -0.5146  0.4320
 7408SOL    HW133686   3.604   2.942   0.987  0.1640 -1.3642  0.8431
 7408SOL    HW233687   3.748   2.949   0.961 -0.8187 -2.3273  0.2833
 7409SOL     OW33688   4.066   4.036   7.810 -0.1851  0.3868 -0.3107
 7409SOL    HW133689   4.122   4.109   7.786  0.0112  0.4456  0.3384
 7409SOL    HW233690   4.101   3.965   7.755 -0.5877 -1.0467  1.2776
 7410SOL     OW33691   1.539   0.993   1.222 -0.2845 -0.1803 -0.8428
 7410SOL    HW133692   1.547   1.081   1.185 -2.4054  1.0919  1.7732
 7410SOL    HW233693   1.600   0.939   1.172 -0.4274 -0.7912 -0.3584
 7411SOL     OW33694   3.344   3.430   2.696 -0.0585 -0.2300 -0.5412
 7411SOL    HW133695   3.312   3.406   2.783 -1.4407 -1.6439 -1.4323
 7411SOL    HW233696   3.356   3.341   2.663 -0.1814  0.1789 -1.6591
 7412SOL     OW33697   4.693   1.115   6.393 -0.3778 -0.7042 -0.0530
 7412SOL    HW133698   0.016   1.169   6.458 -1.4319  0.0124  0.1010
 7412SOL    HW233699   4.682   1.031   6.438  0.1302 -0.8664 -0.2345
 7413SOL     OW33700   3.562   0.335   4.668  0.1700  0.2558 -0.2610
 7413SOL    HW133701   3.475   0.372   4.684 -0.4582 -0.3633 -2.1626
 7413SOL    HW233702   3.583   0.364   4.579  1.7952  0.0357  0.0522
 7414SOL     OW33703   3.129   4.140   8.339 -0.0995 -0.6360 -0.2161
 7414SOL    HW133704   3.055   4.142   8.279  0.1934 -0.8428 -0.5827
 7414SOL    HW233705   3.150   4.049   8.318  0.2832 -1.0264  1.8213
 7415SOL     OW33706   1.365   1.194  13.737  0.1393 -0.4446 -0.0523
 7415SOL    HW133707   1.329   1.283  13.735  0.9699 -0.1093 -0.2695
 7415SOL    HW233708   1.405   1.178  13.652  2.1369  1.5694  0.4793
 7416SOL     OW33709   0.731   3.995   6.736 -0.0333  0.3782  0.5035
 7416SOL    HW133710   0.764   4.079   6.705 -0.2312  0.2900  0.0559
 7416SOL    HW233711   0.815   3.968   6.773 -0.8501 -0.0942  2.0141
 7417SOL     OW33712   4.624   3.081   5.987 -0.1206  0.1990  0.3045
 7417SOL    HW133713   4.608   2.992   5.956  0.7752 -0.1362  0.7894
 7417SOL    HW233714   4.689   3.064   6.055  0.1293 -1.9611 -0.4802
 7418SOL     OW33715   0.152   2.403  11.616 -0.0531 -0.3853  0.6673
 7418SOL    HW133716   0.167   2.339  11.687  1.4241  0.6182  1.2763
 7418SOL    HW233717   0.234   2.449  11.598 -1.1801  1.9502  1.5302
 7419SOL     OW33718   1.331   3.102  11.059 -0.4532  0.4611  0.2501
 7419SOL    HW133719   1.245   3.093  11.098  0.2018  0.5205  1.7003
 7419SOL    HW233720   1.368   3.036  11.117 -0.7844 -1.7590 -2.0686
 7420SOL     OW33721   2.328   4.107   9.768  0.0968  0.1594 -0.1825
 7420SOL    HW133722   2.327   4.202   9.756  0.4565  0.2892  0.8615
 7420SOL    HW233723   2.408   4.101   9.819  0.9436  1.5686 -1.3415
 7421SOL     OW33724   1.786   0.962   3.407 -0.0392 -0.0694 -0.2088
 7421SOL    HW133725   1.867   0.964   3.458  0.4827  2.8602 -1.1139
 7421SOL    HW233726   1.805   0.877   3.367 -0.0633 -0.2673  0.2008
 7422SOL     OW33727   2.042   1.702   2.595 -0.3588 -0.8160  0.6814
 7422SOL    HW133728   2.079   1.762   2.531 -0.8628 -1.4371 -0.1979
 7422SOL    HW233729   2.091   1.738   2.669  0.6332 -0.1479 -0.3115
 7423SOL     OW33730   3.973   2.211   4.468  0.1684  0.0667  0.0257
 7423SOL    HW133731   3.965   2.203   4.373 -0.5727 -0.0646  0.0979
 7423SOL    HW233732   4.027   2.289   4.479  1.1654 -0.6210 -0.0434
 7424SOL     OW33733   0.890   1.180   8.239  0.2902 -0.6363 -0.3152
 7424SOL    HW133734   0.916   1.272   8.242 -0.5524 -0.3248 -2.8948
 7424SOL    HW233735   0.973   1.134   8.255  0.4732 -0.4087 -0.6193
 7425SOL     OW33736   0.641   2.722   8.845 -0.1498 -0.0153  0.5713
 7425SOL    HW133737   0.593   2.639   8.847 -0.8306  0.3710  0.0403
 7425SOL    HW233738   0.699   2.690   8.775 -0.2910  0.1694  0.3723
 7426SOL     OW33739   2.517   0.911  15.371 -0.2029  0.3021 -0.2197
 7426SOL    HW133740   2.520   1.006  15.361  2.1216  0.1867 -0.4425
 7426SOL    HW233741   2.562   0.898  15.454 -0.6846 -1.3726 -0.2159
 7427SOL     OW33742   2.920   1.701  14.487 -0.3242 -0.0022 -0.9053
 7427SOL    HW133743   2.893   1.609  14.479 -0.3896 -0.2700  2.4866
 7427SOL    HW233744   2.844   1.747  14.452 -0.0965 -0.3906 -1.9103
 7428SOL     OW33745   0.458   0.624   1.892 -0.3732 -0.2082 -0.6165
 7428SOL    HW133746   0.489   0.566   1.823  0.1858 -0.0560 -0.4926
 7428SOL    HW233747   0.394   0.682   1.851 -0.0219 -0.6004 -1.7161
 7429SOL     OW33748   4.085   0.731  16.545 -0.7652  0.1417  0.3178
 7429SOL    HW133749   4.141   0.774  16.609 -0.0275  0.4565 -0.5486
 7429SOL    HW233750   4.044   0.660  16.594  1.9500 -0.0097  2.3751
 7430SOL     OW33751   1.461   2.424  13.828 -0.3717 -0.4782 -0.0306
 7430SOL    HW133752   1.460   2.335  13.861  0.2542 -0.5893 -0.3179
 7430SOL    HW233753   1.547   2.453  13.858  0.6547 -1.2008 -2.2865
 7431SOL     OW33754   0.370   2.194   3.446  0.3427 -0.4787  0.3397
 7431SOL    HW133755   0.338   2.221   3.532  0.8944 -0.5759  0.5768
 7431SOL    HW233756   0.464   2.210   3.456  0.5328 -1.5088  0.2516
 7432SOL     OW33757   0.425   1.371  15.883 -0.7740  0.5021  0.3483
 7432SOL    HW133758   0.329   1.368  15.882 -0.8098  1.3167  1.5599
 7432SOL    HW233759   0.434   1.277  15.896 -0.1045  0.3069 -1.4975
 7433SOL     OW33760   3.574   4.276   8.884 -0.6437 -0.1416  0.2874
 7433SOL    HW133761   3.486   4.253   8.914 -0.3328 -0.3133  1.0612
 7433SOL    HW233762   3.623   4.223   8.947 -0.6287  0.4042  0.7384
 7434SOL     OW33763   1.945   4.316   3.636  0.4122  0.0121 -0.3271
 7434SOL    HW133764   2.005   4.286   3.568  0.2986  2.4354 -1.4821
 7434SOL    HW233765   1.911   4.390   3.586 -1.4670 -2.7181 -3.0409
 7435SOL     OW33766   4.538   2.075  15.251  0.3474  0.5338 -0.1711
 7435SOL    HW133767   4.592   2.051  15.175 -0.0097  0.1307 -0.2958
 7435SOL    HW233768   4.580   2.019  15.316 -1.7074 -0.3765  0.3529
 7436SOL     OW33769   0.471   2.710  17.663  0.1600  0.4998  0.3234
 7436SOL    HW133770   0.431   2.625  17.682 -0.4654  0.6828 -0.1657
 7436SOL    HW233771   0.555   2.683  17.628  0.1037  0.0342  0.5452
 7437SOL     OW33772   1.852   1.353   8.092 -0.0897 -0.4065  0.2455
 7437SOL    HW133773   1.763   1.342   8.059 -0.3642  1.6595  0.3248
 7437SOL    HW233774   1.837   1.393   8.177  0.1552  0.2143 -0.0027
 7438SOL     OW33775   0.038   2.011   4.050 -0.3493  0.1417 -0.8114
 7438SOL    HW133776   0.104   1.957   4.008 -0.8127  0.3513 -1.8131
 7438SOL    HW233777   0.029   2.085   3.989  2.0665 -0.4847 -1.9313
 7439SOL     OW33778   3.567   3.125   7.235 -0.2512  0.0458 -0.2110
 7439SOL    HW133779   3.570   3.053   7.298 -0.7919 -1.8922 -2.3937
 7439SOL    HW233780   3.515   3.195   7.273 -0.7992 -0.7919  0.5808
 7440SOL     OW33781   2.485   2.023   3.954 -0.0497  0.5421  0.1211
 7440SOL    HW133782   2.486   2.118   3.963 -0.0001  0.3464  2.0235
 7440SOL    HW233783   2.413   2.013   3.891  2.0192 -1.4725 -1.9362
 7441SOL     OW33784   0.368   0.967  15.151 -0.2158  0.2605 -0.5770
 7441SOL    HW133785   0.443   0.917  15.121 -0.1250  0.7910 -1.2639
 7441SOL    HW233786   0.418   1.049  15.149 -1.0402  0.7822  0.3340
 7442SOL     OW33787   1.138   3.604   6.856 -0.4317  0.3051  0.8465
 7442SOL    HW133788   1.227   3.632   6.875 -0.4323  1.0898 -0.3051
 7442SOL    HW233789   1.131   3.520   6.903 -2.4195 -0.6297 -1.1095
 7443SOL     OW33790   3.665   0.388  13.489 -0.1383 -0.2271 -0.3921
 7443SOL    HW133791   3.584   0.413  13.445  1.0382  1.0613 -1.8378
 7443SOL    HW233792   3.661   0.294  13.469 -2.7396 -0.5005  1.4278
 7444SOL     OW33793   2.923   2.645  14.401 -0.6692 -0.4874 -0.1605
 7444SOL    HW133794   2.900   2.563  14.446 -0.0933  0.8227  2.5139
 7444SOL    HW233795   2.842   2.696  14.408  1.6601  3.0651  1.0856
 7445SOL     OW33796   1.715   0.506   5.602 -0.2472 -0.5076 -0.8207
 7445SOL    HW133797   1.782   0.572   5.588  0.8330 -1.7728 -1.5896
 7445SOL    HW233798   1.740   0.484   5.692  0.3714  0.3146 -0.7914
 7446SOL     OW33799   0.971   4.309   4.804  0.2574  0.3255 -0.2046
 7446SOL    HW133800   0.916   4.244   4.848  2.5393 -1.8777 -0.5723
 7446SOL    HW233801   0.912   4.383   4.816  0.4176  0.2686  0.9287
 7447SOL     OW33802   0.520   0.339   6.248  0.2890 -0.4155 -0.4688
 7447SOL    HW133803   0.466   0.271   6.207 -0.4056  0.2757 -0.7130
 7447SOL    HW233804   0.609   0.316   6.223  0.6845  0.9275 -0.3101
 7448SOL     OW33805   1.154   2.878   0.421  0.1714 -0.4788 -0.2153
 7448SOL    HW133806   1.142   2.817   0.494  1.5729 -0.0493  0.3699
 7448SOL    HW233807   1.146   2.829   0.340  1.2527  0.6179 -0.9754
 7449SOL     OW33808   0.263   2.255   7.439  0.0611  0.2773 -0.0376
 7449SOL    HW133809   0.169   2.265   7.453  0.1727  0.2436  0.7484
 7449SOL    HW233810   0.290   2.328   7.384  0.0061 -0.3906 -0.9529
 7450SOL     OW33811   1.209   2.710   6.427  0.2538  0.4295  0.3887
 7450SOL    HW133812   1.254   2.706   6.343  2.3032  1.1173  1.4551
 7450SOL    HW233813   1.246   2.791   6.460  0.4341  0.4878  0.0341
 7451SOL     OW33814   2.544   0.336  11.995  0.6924 -0.1641  0.2471
 7451SOL    HW133815   2.536   0.241  12.005  1.6828 -0.3118 -0.2721
 7451SOL    HW233816   2.549   0.344  11.899 -3.6728 -0.3090 -0.0105
 7452SOL     OW33817   4.230   3.078   8.349 -0.0733  0.2351  0.3527
 7452SOL    HW133818   4.268   3.085   8.436 -0.7960  3.9041  0.3491
 7452SOL    HW233819   4.137   3.079   8.370 -0.0818 -1.0741  0.3911
 7453SOL     OW33820   3.088   0.335   4.844 -0.3303  0.2286 -0.4033
 7453SOL    HW133821   3.084   0.414   4.898  3.0706  0.1093  0.0368
 7453SOL    HW233822   3.019   0.361   4.782 -1.0967 -0.6265  0.0788
 7454SOL     OW33823   1.597   1.192  14.370  0.4247 -0.1825 -0.1904
 7454SOL    HW133824   1.524   1.184  14.309 -0.7237 -1.8200  1.4192
 7454SOL    HW233825   1.647   1.115  14.340 -1.8623 -2.0994  0.9654
 7455SOL     OW33826   1.920   0.475   4.074  0.3502  0.1068 -0.1952
 7455SOL    HW133827   2.001   0.425   4.078  0.7973  0.7821 -0.8286
 7455SOL    HW233828   1.929   0.505   3.984 -0.5569  1.3325  0.1221
 7456SOL     OW33829   3.810   2.104   0.222  0.2204  0.4322  0.0702
 7456SOL    HW133830   3.831   2.038   0.156 -0.0938 -0.1188  0.5187
 7456SOL    HW233831   3.714   2.104   0.229  0.1195  0.1780 -1.3748
 7457SOL     OW33832   3.793   3.208   7.103  0.1810  0.0374 -0.3997
 7457SOL    HW133833   3.705   3.187   7.134  0.8586  0.0742  1.5624
 7457SOL    HW233834   3.802   3.153   7.026  4.1598 -2.0905  1.5636
 7458SOL     OW33835   4.414   3.181   2.145  0.0906 -0.1311 -0.5185
 7458SOL    HW133836   4.337   3.126   2.149  1.0571 -1.4534 -0.0166
 7458SOL    HW233837   4.390   3.256   2.090  1.4972  1.0775  0.4975
 7459SOL     OW33838   4.636   2.955   1.869  0.3229 -0.1833  0.7186
 7459SOL    HW133839   4.711   2.901   1.894  1.3469  0.9023 -0.0472
 7459SOL    HW233840   4.670   3.035   1.829  1.9247 -1.3083 -0.1479
 7460SOL     OW33841   0.175   1.855   0.841  0.9862  0.1092 -0.1941
 7460SOL    HW133842   0.218   1.857   0.755  1.2044  1.7372 -0.0543
 7460SOL    HW233843   0.231   1.921   0.881  0.4699  1.9151 -2.4453
 7461SOL     OW33844   1.947   0.877   8.548  1.4640 -0.4126 -0.2052
 7461SOL    HW133845   1.962   0.971   8.545  3.5689 -0.7288  0.6710
 7461SOL    HW233846   2.000   0.861   8.626  0.2292 -0.8219  0.5529
 7462SOL     OW33847   0.969   3.969   5.367  0.1643  0.0035  0.3130
 7462SOL    HW133848   1.019   3.990   5.288  0.5355  0.1323  0.5754
 7462SOL    HW233849   1.019   3.912   5.425  2.0300  0.4715 -0.8258
 7463SOL     OW33850   4.679   1.222  12.497  0.8385 -0.2007 -0.5644
 7463SOL    HW133851   4.698   1.315  12.509  0.4519 -0.6069  2.9884
 7463SOL    HW233852   0.030   1.172  12.532 -0.1744 -1.9172 -0.8708
 7464SOL     OW33853   3.595   3.251   5.517  0.1828 -0.3154 -0.0587
 7464SOL    HW133854   3.617   3.314   5.448 -0.3801  0.2203  0.2430
 7464SOL    HW233855   3.574   3.307   5.591 -0.1848 -0.0394 -0.3721
 7465SOL     OW33856   4.204   2.826   6.993  0.1470 -0.1143 -0.0155
 7465SOL    HW133857   4.181   2.780   6.912 -0.6783  1.3106 -0.5839
 7465SOL    HW233858   4.122   2.872   7.008  0.3707  1.0717 -2.3289
 7466SOL     OW33859   0.160   4.055   7.991 -0.1060  0.3345 -0.2537
 7466SOL    HW133860   0.200   4.005   8.063 -1.5005 -0.9192 -0.3551
 7466SOL    HW233861   0.101   4.117   8.032 -0.5874 -1.7552  2.2477
 7467SOL     OW33862   2.513   3.553   1.629  0.5439  1.1544 -0.0835
 7467SOL    HW133863   2.461   3.623   1.666  0.2589 -1.6539  4.8344
 7467SOL    HW233864   2.468   3.516   1.552 -0.7587  0.8213  0.8491
 7468SOL     OW33865   1.991   4.646   8.448  0.2775  0.1942 -0.8588
 7468SOL    HW133866   2.048   4.650   8.371  2.2600 -3.1994  0.3896
 7468SOL    HW233867   2.038   4.575   8.492  1.0760 -0.1811 -2.2990
 7469SOL     OW33868   3.252   1.130  13.952 -0.0820 -0.6254  0.1161
 7469SOL    HW133869   3.270   1.183  14.030  2.4014  0.5819 -1.2613
 7469SOL    HW233870   3.181   1.073  13.981  0.2212 -1.8872 -1.5766
 7470SOL     OW33871   0.509   0.684   3.147  0.0268  0.1683  0.2824
 7470SOL    HW133872   0.508   0.602   3.195 -1.3335  0.5174  0.8603
 7470SOL    HW233873   0.486   0.747   3.215 -1.7466  1.1294 -1.1847
 7471SOL     OW33874   3.175   3.623  17.183  0.0708 -0.0739 -0.3322
 7471SOL    HW133875   3.193   3.539  17.224  0.5556 -1.2793 -2.9662
 7471SOL    HW233876   3.174   3.682  17.258  0.6939 -1.2341  0.5771
 7472SOL     OW33877   2.251   2.826   3.060 -0.7880  0.6364 -0.2784
 7472SOL    HW133878   2.189   2.829   3.132  0.8363  1.5515  1.1001
 7472SOL    HW233879   2.332   2.850   3.106 -1.6129 -0.3826  1.6829
 7473SOL     OW33880   0.322   4.277  14.240 -0.3351  0.2337  0.5398
 7473SOL    HW133881   0.276   4.336  14.180 -0.0309 -0.9192 -0.7985
 7473SOL    HW233882   0.275   4.197  14.218  1.1398 -0.3844 -0.3180
 7474SOL     OW33883   2.930   0.793   8.179 -0.2319  0.3105 -0.3428
 7474SOL    HW133884   2.905   0.706   8.208  0.5185 -0.2323 -1.3242
 7474SOL    HW233885   3.025   0.791   8.166  0.4120 -1.0142  4.9765
 7475SOL     OW33886   2.072   2.549   7.630  0.2207  0.0243  0.3598
 7475SOL    HW133887   2.039   2.467   7.591  2.1414 -0.7209  0.2819
 7475SOL    HW233888   2.014   2.610   7.584  0.5617 -0.7364 -1.1052
 7476SOL     OW33889   3.445   1.457   6.369 -0.0071 -0.5100 -0.0810
 7476SOL    HW133890   3.411   1.519   6.433  0.8366 -0.6036  0.4623
 7476SOL    HW233891   3.431   1.374   6.415 -0.6351 -0.2760  0.1494
 7477SOL     OW33892   4.268   1.138  15.224 -0.0283 -0.1922 -0.4933
 7477SOL    HW133893   4.195   1.159  15.283 -1.6613  0.4420 -2.7150
 7477SOL    HW233894   4.252   1.196  15.150  1.2165  0.5937 -0.1324
 7478SOL     OW33895   0.327   1.270  13.002  0.5139 -0.5198 -0.0672
 7478SOL    HW133896   0.244   1.227  12.981  0.5251 -0.4101 -0.3394
 7478SOL    HW233897   0.382   1.221  12.940  0.2665 -0.5546 -0.2604
 7479SOL     OW33898   4.073   3.901  17.656 -1.0303 -0.3924 -0.2135
 7479SOL    HW133899   4.107   3.982  17.618 -1.1407  0.6321  1.9158
 7479SOL    HW233900   4.122   3.893   0.043  0.2290 -1.7672 -1.1086
 7480SOL     OW33901   3.459   2.051   1.685  0.4537  0.1298 -0.7299
 7480SOL    HW133902   3.426   2.131   1.726 -0.1476 -1.0787  1.1156
 7480SOL    HW233903   3.530   2.026   1.745  0.9778  2.7827 -0.2468
 7481SOL     OW33904   3.718   3.523  17.647 -0.3568  0.4919 -0.1186
 7481SOL    HW133905   3.761   3.533  17.562 -0.0783 -0.3512 -0.0754
 7481SOL    HW233906   3.636   3.478  17.624  0.3107 -0.1402 -1.2429
 7482SOL     OW33907   0.334   2.242   3.722 -0.0102 -0.0233 -0.2673
 7482SOL    HW133908   0.327   2.336   3.706 -0.2593  0.1149  0.6436
 7482SOL    HW233909   0.246   2.219   3.753  0.3410 -0.6961  0.2372
 7483SOL     OW33910   1.257   3.737   4.558  0.2603 -0.0710  0.1279
 7483SOL    HW133911   1.247   3.670   4.626  0.6017 -1.0342 -0.7605
 7483SOL    HW233912   1.165   3.733   4.532 -0.4563  2.0279  2.4094
 7484SOL     OW33913   2.857   4.223   5.558  0.3355 -0.0155  0.5415
 7484SOL    HW133914   2.916   4.296   5.579  0.5552 -0.1872  0.5141
 7484SOL    HW233915   2.852   4.246   5.465 -1.6515 -0.3002  0.5941
 7485SOL     OW33916   0.684   3.117   9.381 -0.5862  0.2163  0.2863
 7485SOL    HW133917   0.753   3.170   9.341 -0.6617 -0.1054 -0.2626
 7485SOL    HW233918   0.613   3.179   9.363 -0.1745  0.6494  0.1525
 7486SOL     OW33919   4.232   1.665   7.354 -0.2806  0.1559  0.4775
 7486SOL    HW133920   4.243   1.618   7.437 -1.5048 -0.7760  0.1121
 7486SOL    HW233921   4.142   1.642   7.331 -0.7484  1.4798  0.9864
 7487SOL     OW33922   2.541   2.896   4.706  0.0186 -0.4835 -0.2024
 7487SOL    HW133923   2.504   2.948   4.776  0.2427 -0.5194 -0.0585
 7487SOL    HW233924   2.625   2.856   4.727 -1.1452 -1.8805  1.7909
 7488SOL     OW33925   2.470   1.465   7.762 -0.3283  0.0306 -0.4129
 7488SOL    HW133926   2.391   1.449   7.813 -0.2271  1.3715  0.1590
 7488SOL    HW233927   2.475   1.390   7.702 -0.1906 -1.3880  1.3812
 7489SOL     OW33928   1.371   0.071   4.778 -0.4287  0.1928  0.5202
 7489SOL    HW133929   1.413   4.708   4.772 -1.4457 -0.3045  0.4290
 7489SOL    HW233930   1.278   0.052   4.791 -0.3974 -0.3459 -0.0710
 7490SOL     OW33931   3.255   1.567   1.796  0.3853 -0.0235  0.4126
 7490SOL    HW133932   3.304   1.613   1.728 -1.4059  1.8207  0.3311
 7490SOL    HW233933   3.308   1.587   1.874  0.7590 -0.7081  0.3272
 7491SOL     OW33934   3.125   0.128   5.027 -0.0279  0.5341 -0.1717
 7491SOL    HW133935   3.123   0.202   4.966  2.1821  0.8997  0.1952
 7491SOL    HW233936   3.041   0.136   5.072  0.3790 -0.0822  0.6872
 7492SOL     OW33937   1.508   2.040   8.584  0.0882 -0.1578  0.1382
 7492SOL    HW133938   1.503   1.985   8.662  3.6161  1.7121  1.6966
 7492SOL    HW233939   1.594   2.010   8.556  1.0267  1.1335  1.6451
 7493SOL     OW33940   4.514   3.708  12.721 -0.5455  0.2540 -0.1252
 7493SOL    HW133941   4.606   3.685  12.705 -0.6136 -0.9050  1.1477
 7493SOL    HW233942   4.518   3.781  12.783 -0.6402 -0.0429  0.2315
 7494SOL     OW33943   0.150   2.667  13.077 -0.3540 -0.4466  0.2262
 7494SOL    HW133944   0.171   2.576  13.056 -0.2597 -0.7328  1.5852
 7494SOL    HW233945   0.106   2.689  12.994 -0.2083 -0.0548  0.2559
 7495SOL     OW33946   4.200   0.411   8.698  0.3867 -0.1093 -0.1354
 7495SOL    HW133947   4.265   0.340   8.706 -0.8861 -1.2388  0.2002
 7495SOL    HW233948   4.113   0.372   8.688  0.2239  0.0076  0.8252
 7496SOL     OW33949   3.356   1.655  11.628  0.1528  0.1558 -0.0086
 7496SOL    HW133950   3.433   1.609  11.594 -0.4287 -1.0623  0.3665
 7496SOL    HW233951   3.290   1.586  11.623  1.0345 -0.6277 -0.7393
 7497SOL     OW33952   4.591   4.175   2.560 -0.0725  0.0460 -0.1444
 7497SOL    HW133953   4.651   4.248   2.575 -1.5851  1.3582 -0.5716
 7497SOL    HW233954   4.613   4.130   2.478  0.2837  0.4720 -0.2859
 7498SOL     OW33955   2.663   3.449  15.054  0.5936  0.1583  0.3728
 7498SOL    HW133956   2.648   3.509  15.127 -2.0057  1.3954 -1.1936
 7498SOL    HW233957   2.692   3.517  14.993 -1.0108  1.0848  0.6580
 7499SOL     OW33958   2.725   2.552   4.028 -0.0233  0.0104 -0.5449
 7499SOL    HW133959   2.659   2.599   3.977 -1.0226  0.4346  1.1157
 7499SOL    HW233960   2.710   2.573   4.120  1.5845 -2.8503  0.3673
 7500SOL     OW33961   2.277   2.577   9.029 -0.2958  0.0736 -0.2520
 7500SOL    HW133962   2.270   2.543   8.940  1.7834  0.6311 -0.6399
 7500SOL    HW233963   2.207   2.642   9.023  1.5779  2.0767 -0.5411
 7501SOL     OW33964   0.062   0.621  11.863 -0.0539  0.6923  0.0612
 7501SOL    HW133965   0.130   0.685  11.882  1.3507 -0.5398 -0.8863
 7501SOL    HW233966   0.026   0.667  11.787  0.2761  0.6506 -0.1181
 7502SOL     OW33967   1.897   0.682   3.008 -0.2023  0.3666  0.4765
 7502SOL    HW133968   1.826   0.740   2.981 -0.5842  0.0168  0.7492
 7502SOL    HW233969   1.873   0.601   2.964  2.3621  0.4104 -1.0474
 7503SOL     OW33970   4.716   4.254  16.549 -0.1390 -0.1952  0.0092
 7503SOL    HW133971   0.061   4.241  16.483  1.6617  2.1354  1.3943
 7503SOL    HW233972   4.647   4.204  16.506  0.4465 -4.0507  3.5340
 7504SOL     OW33973   2.410   4.552   8.669 -0.0693  0.8302 -0.3994
 7504SOL    HW133974   2.473   4.563   8.598  1.7034 -1.6734  0.7632
 7504SOL    HW233975   2.446   4.473   8.711 -0.6745 -0.3853 -2.1515
 7505SOL     OW33976   2.919   2.021   7.000  0.4339  0.2010  0.2366
 7505SOL    HW133977   2.956   1.990   7.083 -0.1536 -0.7050  0.1508
 7505SOL    HW233978   2.850   2.079   7.033  0.1288  0.9494 -1.7115
 7506SOL     OW33979   1.338   1.243   0.230 -0.1699  0.3662 -0.9690
 7506SOL    HW133980   1.394   1.319   0.213  2.1408 -1.5724 -1.8387
 7506SOL    HW233981   1.254   1.283   0.206 -0.8981 -0.1997  0.6417
 7507SOL     OW33982   0.860   0.429   7.402 -0.5516  0.0635 -0.4847
 7507SOL    HW133983   0.952   0.403   7.397 -0.4712  0.8173 -2.7541
 7507SOL    HW233984   0.853   0.504   7.343 -1.9504  0.3844  0.0999
 7508SOL     OW33985   0.069   1.473  12.535  0.1579  0.0348  0.3608
 7508SOL    HW133986   0.076   1.535  12.462  0.6001 -1.7264 -1.0723
 7508SOL    HW233987   0.031   1.520  12.609 -0.5221  0.8117 -0.4845
 7509SOL     OW33988   0.577   1.683   5.908 -0.4323  0.2616  0.0788
 7509SOL    HW133989   0.585   1.616   5.976  1.4193  0.1077 -0.2986
 7509SOL    HW233990   0.522   1.640   5.842 -0.8070 -0.5073  0.8853
 7510SOL     OW33991   3.641   0.537  11.582  0.6903  0.5653  0.3145
 7510SOL    HW133992   3.675   0.568  11.666 -0.4062  2.4236  0.0728
 7510SOL    HW233993   3.644   0.615  11.526 -0.9642 -0.0497 -0.6195
 7511SOL     OW33994   0.493   3.413  16.355 -0.3351  0.1469 -0.0089
 7511SOL    HW133995   0.464   3.482  16.296 -0.0619  0.3164  0.0568
 7511SOL    HW233996   0.408   3.370  16.365 -0.1590 -0.1127  0.3690
 7512SOL     OW33997   1.579   3.702  12.091 -0.6475 -0.6728 -0.0486
 7512SOL    HW133998   1.647   3.689  12.024 -1.7193 -2.3669 -0.7968
 7512SOL    HW233999   1.505   3.729  12.036 -0.0768  1.7593  0.3902
 7513SOL     OW34000   3.139   3.735   0.967  0.1067 -0.2589 -0.1269
 7513SOL    HW134001   3.163   3.828   0.962 -1.5053  0.1074 -0.8588
 7513SOL    HW234002   3.148   3.713   0.874 -0.6893  0.6329 -0.4182
 7514SOL     OW34003   4.300   2.641   8.737  0.5319  0.1812  0.1484
 7514SOL    HW134004   4.358   2.637   8.813  1.7694 -0.1283 -0.8109
 7514SOL    HW234005   4.358   2.692   8.682  0.4907  0.0962  0.0276
 7515SOL     OW34006   2.067   3.126   3.297  0.2498 -0.0276 -0.0617
 7515SOL    HW134007   2.116   3.208   3.293 -1.9015  1.3045  0.9552
 7515SOL    HW234008   1.988   3.174   3.320 -0.1167  0.3762 -2.1536
 7516SOL     OW34009   2.122   2.066   8.929  0.5520  0.4606  0.3610
 7516SOL    HW134010   2.185   2.137   8.918  0.1438  1.1244  2.2049
 7516SOL    HW234011   2.158   2.026   9.008  0.0202 -0.7493 -0.0010
 7517SOL     OW34012   4.179   0.787   4.209 -0.2363  0.2810  0.2875
 7517SOL    HW134013   4.237   0.712   4.193  0.5825  0.6875  1.3680
 7517SOL    HW234014   4.180   0.793   4.304  0.4290 -0.6843  0.3502
 7518SOL     OW34015   3.025   1.580  11.483  0.2296  0.1620 -0.4975
 7518SOL    HW134016   2.968   1.648  11.446  0.0979 -0.3696 -1.2858
 7518SOL    HW234017   2.970   1.502  11.493  0.6978 -0.1238 -0.1902
 7519SOL     OW34018   0.716   3.351   2.645  0.0744  0.0572 -0.0060
 7519SOL    HW134019   0.686   3.441   2.653 -0.7520 -0.1618 -0.6235
 7519SOL    HW234020   0.805   3.362   2.677  0.3086 -0.4286 -0.4888
 7520SOL     OW34021   4.096   0.216  12.589 -0.1428 -0.3984  0.6428
 7520SOL    HW134022   4.148   0.228  12.510 -0.3455  1.2247  0.7401
 7520SOL    HW234023   4.082   0.122  12.600 -2.1446 -0.0890  0.6340
 7521SOL     OW34024   3.709   2.005  11.563 -0.2112 -0.1982 -0.4632
 7521SOL    HW134025   3.639   2.004  11.629  0.2974  0.5461  0.0896
 7521SOL    HW234026   3.651   1.987  11.489  0.9918 -2.4411 -0.8539
 7522SOL     OW34027   4.152   1.731  10.841  0.0863  0.2919 -0.3369
 7522SOL    HW134028   4.112   1.788  10.906  0.2629  2.5866 -2.2314
 7522SOL    HW234029   4.162   1.792  10.767  0.3110  0.0371 -0.5193
 7523SOL     OW34030   2.432   0.451  15.781 -0.7113  0.5414  0.4682
 7523SOL    HW134031   2.366   0.400  15.829 -0.3481 -0.3701 -0.0184
 7523SOL    HW234032   2.375   0.486  15.713 -1.8971  1.0107  1.7075
 7524SOL     OW34033   0.265   3.015   8.956 -0.1309  0.1354  0.2743
 7524SOL    HW134034   0.350   2.974   8.969 -0.0505  0.4166  0.6467
 7524SOL    HW234035   0.273   3.082   9.025  0.9938  1.5889 -1.2768
 7525SOL     OW34036   3.757   4.015   8.432  0.2698 -0.2401  0.1321
 7525SOL    HW134037   3.825   3.981   8.489 -0.4696 -1.2579  0.4032
 7525SOL    HW234038   3.723   4.086   8.486 -0.0771 -0.3106  0.0140
 7526SOL     OW34039   3.903   2.957   7.371 -0.0681  0.4654  0.0254
 7526SOL    HW134040   3.841   2.943   7.299  1.0930 -0.9973 -0.6809
 7526SOL    HW234041   3.963   2.883   7.374 -2.0969 -1.2551 -1.5078
 7527SOL     OW34042   3.644   3.846   1.692  0.1382  0.0566  0.4535
 7527SOL    HW134043   3.693   3.848   1.775  2.3455  0.3723 -0.8465
 7527SOL    HW234044   3.711   3.799   1.642 -0.5614 -2.7745  2.1503
 7528SOL     OW34045   0.629   1.124   1.036 -0.5564 -0.2535  0.5336
 7528SOL    HW134046   0.533   1.119   1.029 -0.4396  1.2682 -1.8683
 7528SOL    HW234047   0.646   1.217   1.051 -0.9852 -0.0403 -0.3084
 7529SOL     OW34048   0.929   4.062  10.454 -0.1064 -0.1514  0.0048
 7529SOL    HW134049   0.924   4.150  10.491  1.5435 -0.0159 -0.1114
 7529SOL    HW234050   0.843   4.024  10.475 -1.3196  0.9877 -2.8019
 7530SOL     OW34051   3.103   4.297   5.130  0.0536  0.3922 -0.4931
 7530SOL    HW134052   3.195   4.274   5.143  0.2725  1.2819 -0.4726
 7530SOL    HW234053   3.106   4.393   5.140  1.2306  0.1686  1.3184
 7531SOL     OW34054   3.411   2.264   6.803  0.0667 -0.2493  0.5719
 7531SOL    HW134055   3.348   2.272   6.731 -0.0955 -1.3375  0.5956
 7531SOL    HW234056   3.403   2.352   6.839  0.2371  0.0254 -0.0567
 7532SOL     OW34057   2.529   1.339   6.618  0.5043 -0.2672 -0.2218
 7532SOL    HW134058   2.441   1.305   6.636  1.0474 -2.4033 -1.5776
 7532SOL    HW234059   2.516   1.340   6.523 -0.6601 -0.6662 -0.0744
 7533SOL     OW34060   2.199   0.562   4.422  0.6746 -0.4648  0.1776
 7533SOL    HW134061   2.244   0.645   4.406  1.7387 -1.3680 -1.5841
 7533SOL    HW234062   2.110   0.592   4.404  0.0347 -1.7000  1.3071
 7534SOL     OW34063   1.441   4.208   3.040 -0.5122 -0.1940  0.4860
 7534SOL    HW134064   1.440   4.213   2.944  1.0962 -0.0119  0.4785
 7534SOL    HW234065   1.347   4.218   3.055 -0.5582 -1.3895  0.9588
 7535SOL     OW34066   1.280   0.282   5.329  0.5582  0.3208  0.0101
 7535SOL    HW134067   1.335   0.246   5.398  1.4200  1.4280 -0.1069
 7535SOL    HW234068   1.326   0.279   5.245  1.6555  0.2238  0.6172
 7536SOL     OW34069   0.889   1.538  13.278 -0.5479 -0.1508 -0.4942
 7536SOL    HW134070   0.864   1.587  13.200  0.6476  2.1832  0.5835
 7536SOL    HW234071   0.804   1.493  13.280 -0.1199 -0.9717 -0.7259
 7537SOL     OW34072   1.484   3.324   4.461  0.4750 -0.6612  0.3505
 7537SOL    HW134073   1.499   3.398   4.519  2.2573  0.1211 -1.1035
 7537SOL    HW234074   1.546   3.261   4.498 -0.4924 -1.7572  0.0833
 7538SOL     OW34075   2.817   3.873  11.320  0.6743 -0.5833 -0.4540
 7538SOL    HW134076   2.795   3.833  11.405  0.9423 -0.8431 -0.5090
 7538SOL    HW234077   2.905   3.906  11.338  0.2297 -0.0832  0.8540
 7539SOL     OW34078   0.604   1.282   5.530 -0.0961 -0.3526 -0.0431
 7539SOL    HW134079   0.519   1.255   5.496 -0.5911  1.5889 -0.3390
 7539SOL    HW234080   0.666   1.235   5.474 -1.5934 -2.2566 -0.1106
 7540SOL     OW34081   3.542   3.123   5.996  0.3713 -0.6243  0.1448
 7540SOL    HW134082   3.463   3.073   5.977  0.4369 -1.1280  1.1987
 7540SOL    HW234083   3.505   3.211   5.990  2.5648  0.3714  1.4404
 7541SOL     OW34084   2.192   3.068   0.507  0.0441 -0.3439 -0.4012
 7541SOL    HW134085   2.234   3.076   0.421  0.0828 -0.5595 -0.4020
 7541SOL    HW234086   2.174   2.974   0.500  2.5704 -0.7842 -0.8602
 7542SOL     OW34087   2.612   4.252   9.701  0.0325  0.7410  0.6586
 7542SOL    HW134088   2.634   4.190   9.770 -4.1399 -2.1954 -0.5987
 7542SOL    HW234089   2.616   4.334   9.751  0.2082  1.4363 -0.4994
 7543SOL     OW34090   2.779   3.648   3.155 -0.3022  0.6056  0.1224
 7543SOL    HW134091   2.828   3.730   3.166  0.0671  0.2561  1.0312
 7543SOL    HW234092   2.855   3.604   3.118  0.2603  0.7151  1.1707
 7544SOL     OW34093   4.599   2.822   2.496  0.1749  0.1789 -0.1164
 7544SOL    HW134094   4.595   2.807   2.590  2.2710 -2.1771 -0.4086
 7544SOL    HW234095   4.693   2.838   2.486  0.1188 -0.3069 -1.4563
 7545SOL     OW34096   0.321   3.594  14.637 -0.0236 -0.5756 -0.5374
 7545SOL    HW134097   0.288   3.538  14.707  0.4349  0.4780  0.5150
 7545SOL    HW234098   0.267   3.566  14.563  1.5360  0.7622 -2.1936
 7546SOL     OW34099   2.075   3.111   5.840  1.2389  0.1987 -0.0949
 7546SOL    HW134100   2.106   3.195   5.805  2.4582  0.5125  1.7354
 7546SOL    HW234101   2.154   3.058   5.831  0.4504 -1.1234  0.7388
 7547SOL     OW34102   4.655   4.098   9.283 -0.2684  0.4296 -0.5971
 7547SOL    HW134103   4.560   4.099   9.268 -0.0748  1.4033 -1.7131
 7547SOL    HW234104   4.677   4.022   9.229 -0.0854  0.5232 -0.6528
 7548SOL     OW34105   3.235   2.710  17.008  0.5033  0.0773 -0.4281
 7548SOL    HW134106   3.157   2.764  16.990  1.7407  1.8207 -0.5318
 7548SOL    HW234107   3.280   2.727  16.925 -0.4049 -1.9503 -1.3386
 7549SOL     OW34108   4.031   2.646  15.713 -0.4317  0.1579  0.1362
 7549SOL    HW134109   4.114   2.693  15.704  0.3906 -1.4775 -0.9182
 7549SOL    HW234110   4.045   2.566  15.661 -0.1170  0.8738 -0.8781
 7550SOL     OW34111   3.593   3.251   8.053 -0.1911 -0.1881  0.6755
 7550SOL    HW134112   3.546   3.332   8.036  0.2963 -0.0754 -0.1287
 7550SOL    HW234113   3.593   3.219   7.963 -1.3222  1.8195 -0.0356
 7551SOL     OW34114   0.138   1.374   1.831  0.5389 -0.3548 -0.5613
 7551SOL    HW134115   0.129   1.297   1.887 -0.2969  1.7920  2.2426
 7551SOL    HW234116   0.220   1.414   1.859 -0.2567 -0.8695  2.5047
 7552SOL     OW34117   4.656   1.429   4.698 -0.2375  0.0300  0.2773
 7552SOL    HW134118   4.642   1.361   4.764  4.9199 -0.2878  1.0511
 7552SOL    HW234119   4.604   1.500   4.736  0.2413  0.6623 -0.2487
 7553SOL     OW34120   2.521   1.160  15.634 -0.7221 -0.2814  0.9034
 7553SOL    HW134121   2.508   1.208  15.717  0.3423 -2.0276  2.0775
 7553SOL    HW234122   2.452   1.198  15.580 -1.9790 -2.4512  1.0100
 7554SOL     OW34123   2.271   2.952   9.623  0.2986  0.5299 -0.3260
 7554SOL    HW134124   2.217   2.916   9.552 -0.9409  0.0647  0.8541
 7554SOL    HW234125   2.304   3.035   9.587 -1.5862  2.0434  1.3768
 7555SOL     OW34126   1.317   0.838   0.077 -0.2708 -0.4331  0.4576
 7555SOL    HW134127   1.345   0.879   0.159 -0.2940 -0.6542  0.5762
 7555SOL    HW234128   1.227   0.870   0.072 -0.5378 -1.4375 -1.0936
 7556SOL     OW34129   2.232   3.928   8.620  0.1801 -0.3114  0.0349
 7556SOL    HW134130   2.164   3.864   8.643 -0.7795  0.8226  0.3746
 7556SOL    HW234131   2.305   3.894   8.671  1.7281 -1.4807 -2.9762
 7557SOL     OW34132   0.570   4.171   2.705 -0.5429  0.2499 -0.5847
 7557SOL    HW134133   0.496   4.120   2.739  0.3973  1.1769  2.8346
 7557SOL    HW234134   0.575   4.252   2.756  1.3058  0.1210 -0.5831
 7558SOL     OW34135   3.721   0.295   2.356 -0.1614 -0.0584  0.4595
 7558SOL    HW134136   3.684   0.333   2.276 -1.0987 -0.7973  0.5335
 7558SOL    HW234137   3.814   0.312   2.342  0.2775 -1.9819  0.9546
 7559SOL     OW34138   2.844   2.681   5.852  0.0106 -0.3072 -0.2862
 7559SOL    HW134139   2.805   2.623   5.787 -0.9612  1.5353 -1.3270
 7559SOL    HW234140   2.827   2.760   5.802  2.5719  0.6448  0.3480
 7560SOL     OW34141   2.264   0.788  17.378 -0.2040  0.2251 -0.4555
 7560SOL    HW134142   2.223   0.814  17.459 -1.1352  2.2879 -1.5993
 7560SOL    HW234143   2.348   0.830  17.396 -1.8585  1.8435  3.2662
 7561SOL     OW34144   3.355   1.789   4.622  0.0757 -0.8347  0.3779
 7561SOL    HW134145   3.370   1.701   4.656  1.5231 -0.1793  1.4361
 7561SOL    HW234146   3.442   1.826   4.635  0.8506 -3.4942  2.8616
 7562SOL     OW34147   3.821   3.208  14.377 -0.0634  0.4742  0.1197
 7562SOL    HW134148   3.871   3.201  14.296 -0.1950  0.1867  0.0624
 7562SOL    HW234149   3.847   3.293  14.413  2.0629  0.2293 -0.8462
 7563SOL     OW34150   1.163   2.966   5.925 -0.4379 -0.3477 -0.4629
 7563SOL    HW134151   1.087   2.917   5.895 -1.0089 -0.9323  1.9525
 7563SOL    HW234152   1.135   3.046   5.881 -0.1655  0.2520  0.4673
 7564SOL     OW34153   3.545   1.683   8.661 -0.0101 -0.2254 -0.0506
 7564SOL    HW134154   3.575   1.651   8.576 -0.6345  0.5612 -0.5653
 7564SOL    HW234155   3.519   1.607   8.713 -2.5346  0.3686 -0.4473
 7565SOL     OW34156   3.730   0.465   3.789 -0.3144  0.8387 -0.0788
 7565SOL    HW134157   3.686   0.389   3.752  0.1508  0.1196  0.8187
 7565SOL    HW234158   3.765   0.422   3.868 -0.1604  1.7362  0.3350
 7566SOL     OW34159   2.697   4.315   3.665 -0.9367 -0.0736  0.4544
 7566SOL    HW134160   2.607   4.314   3.634 -0.6807 -2.1742 -0.2386
 7566SOL    HW234161   2.688   4.272   3.750  0.1588 -0.8643  0.1675
 7567SOL     OW34162   2.080   4.569   5.435 -0.7279 -0.1626  0.2336
 7567SOL    HW134163   2.086   4.476   5.456 -0.3661 -0.4925 -1.3283
 7567SOL    HW234164   2.122   4.570   5.349 -0.7914 -1.1606  0.1944
 7568SOL     OW34165   1.083   2.403  11.271  0.4696 -0.1809  0.9974
 7568SOL    HW134166   1.029   2.419  11.193  0.7150  0.2416  0.9127
 7568SOL    HW234167   1.120   2.316  11.251  1.1695  0.1151  1.0015
 7569SOL     OW34168   0.938   1.876  15.007  0.0404  0.1592  0.1507
 7569SOL    HW134169   0.862   1.921  15.045 -1.3134  0.0430 -2.4243
 7569SOL    HW234170   1.005   1.939  15.034 -0.6313  0.8888  0.1211
 7570SOL     OW34171   4.678   1.117  15.741  0.2820 -0.4829 -0.0498
 7570SOL    HW134172   4.690   1.079  15.828  1.2533 -0.2802 -0.0884
 7570SOL    HW234173   4.645   1.044  15.689 -0.5614 -0.5840  0.6516
 7571SOL     OW34174   4.453   0.200   6.162 -0.5725 -0.3677  0.4512
 7571SOL    HW134175   4.478   0.193   6.254  1.4507  1.2590  0.0288
 7571SOL    HW234176   4.461   0.107   6.141 -2.5241 -0.1272 -1.3168
 7572SOL     OW34177   4.556   3.897   0.945  0.3043  0.7788 -0.6347
 7572SOL    HW134178   4.628   3.835   0.951  0.9605  1.5545 -0.3863
 7572SOL    HW234179   4.595   3.975   0.904  1.2369  0.5584 -0.1780
 7573SOL     OW34180   0.419   1.074   7.284 -0.3753 -0.0706  0.3919
 7573SOL    HW134181   0.369   1.067   7.202  1.3710  0.1286 -0.6909
 7573SOL    HW234182   0.397   1.160   7.321 -0.4933 -0.7226  1.8197
 7574SOL     OW34183   4.095   3.888  15.422 -0.1049  0.0609 -0.4835
 7574SOL    HW134184   4.160   3.823  15.394  1.5597  1.6937 -0.4679
 7574SOL    HW234185   4.121   3.973  15.385 -1.2657  0.8704  0.5479
 7575SOL     OW34186   4.258   2.773  15.149 -0.3893  0.0473 -0.3684
 7575SOL    HW134187   4.267   2.818  15.065  0.1337  1.7542  0.6052
 7575SOL    HW234188   4.237   2.685  15.119 -1.9701 -0.2352  1.5699
 7576SOL     OW34189   4.575   1.419   7.889 -0.1355 -0.0704 -0.0527
 7576SOL    HW134190   4.564   1.467   7.807 -1.8966 -3.9045 -2.0579
 7576SOL    HW234191   4.591   1.332   7.853  0.2984  0.9796 -2.3605
 7577SOL     OW34192   0.020   1.811   3.590  0.1039  0.4730 -0.6150
 7577SOL    HW134193   0.023   1.870   3.515 -1.4042 -0.2686 -1.2656
 7577SOL    HW234194   0.110   1.794   3.618 -0.0937 -0.0646 -0.3082
 7578SOL     OW34195   0.267   3.641   3.928 -0.3865  0.0690  0.6116
 7578SOL    HW134196   0.175   3.615   3.925 -0.7580  1.3455  1.1056
 7578SOL    HW234197   0.297   3.562   3.882 -0.4410  0.8676 -0.7834
 7579SOL     OW34198   4.389   1.675   2.545 -0.1003  0.4042  0.2639
 7579SOL    HW134199   4.481   1.697   2.526  0.4348 -1.3197  0.8376
 7579SOL    HW234200   4.353   1.749   2.592  2.0806  0.4433  1.8917
 7580SOL     OW34201   1.697   2.229   2.356  0.3311  0.4122 -0.4777
 7580SOL    HW134202   1.708   2.250   2.263 -1.1588 -0.1272 -0.7666
 7580SOL    HW234203   1.602   2.240   2.360  0.0365 -0.9347 -3.3945
 7581SOL     OW34204   0.604   2.804  15.773 -0.0193  0.1323 -0.5805
 7581SOL    HW134205   0.533   2.862  15.749 -0.0474  0.9098  1.4113
 7581SOL    HW234206   0.560   2.723  15.748 -0.7891 -0.0106  1.2667
 7582SOL     OW34207   2.084   2.690   7.861 -1.1759  0.2035 -0.1395
 7582SOL    HW134208   2.092   2.660   7.771  1.0019 -0.0622  0.1419
 7582SOL    HW234209   1.999   2.650   7.878 -1.6834  0.8691 -1.1025
 7583SOL     OW34210   0.500   2.893  16.843 -0.0743  0.2065  0.2852
 7583SOL    HW134211   0.471   2.833  16.775  0.4238  0.3648 -0.0671
 7583SOL    HW234212   0.463   2.978  16.820  1.2418  0.8580  0.5857
 7584SOL     OW34213   2.193   2.293   0.124  0.3435  0.3011 -0.2953
 7584SOL    HW134214   2.142   2.331   0.053 -0.6404  0.2081  0.3658
 7584SOL    HW234215   2.125   2.236   0.160  1.0988 -1.1148 -1.1235
 7585SOL     OW34216   0.274   1.907   3.954 -0.0027  0.2678 -0.4114
 7585SOL    HW134217   0.242   1.881   3.868 -1.7421 -0.9852  0.6213
 7585SOL    HW234218   0.330   1.830   3.970 -1.5746 -0.3300  2.0674
 7586SOL     OW34219   1.092   3.622   0.725 -0.5318  0.5767 -0.2032
 7586SOL    HW134220   1.102   3.541   0.775 -0.5451  0.1651 -0.8759
 7586SOL    HW234221   1.161   3.606   0.661  1.9611  1.4207  2.2781
 7587SOL     OW34222   4.103   3.129   4.122  0.0512 -0.1235 -0.3724
 7587SOL    HW134223   4.023   3.090   4.155 -0.5713  2.3770  1.1020
 7587SOL    HW234224   4.105   3.189   4.196  3.6019  1.1881 -1.5216
 7588SOL     OW34225   2.232   0.588   3.783  0.5909  1.1355  0.3794
 7588SOL    HW134226   2.314   0.538   3.781 -0.7139 -0.8989 -1.8447
 7588SOL    HW234227   2.247   0.649   3.711 -0.0044  2.2017  1.1595
 7589SOL     OW34228   0.098   1.275  14.420 -0.3618  0.5112 -0.6092
 7589SOL    HW134229   0.190   1.297  14.406 -0.3623 -0.3463 -2.0067
 7589SOL    HW234230   0.110   1.180  14.421  3.7121  1.0343 -0.8016
 7590SOL     OW34231   2.612   0.165   6.111  0.2500  0.2325  0.8971
 7590SOL    HW134232   2.542   0.212   6.156  0.2423  1.1648 -0.0849
 7590SOL    HW234233   2.692   0.217   6.118 -0.6127  1.9138 -1.5611
 7591SOL     OW34234   4.382   0.187   4.026  0.2566  0.1344  0.5468
 7591SOL    HW134235   4.436   0.257   3.988  1.6086 -2.0604 -1.6108
 7591SOL    HW234236   4.432   0.136   4.089  0.2414  0.4327  0.7991
 7592SOL     OW34237   3.272   3.030  14.606  0.6789  0.1452  0.0598
 7592SOL    HW134238   3.207   2.984  14.658 -0.7400  0.0477 -1.8272
 7592SOL    HW234239   3.237   3.119  14.601  0.6758  0.3300  3.5403
 7593SOL     OW34240   1.269   2.282  11.571 -0.2428 -0.0978  0.3256
 7593SOL    HW134241   1.313   2.274  11.486  0.2501 -1.4986  0.7102
 7593SOL    HW234242   1.335   2.226  11.613 -1.5437 -2.0250 -0.1778
 7594SOL     OW34243   3.208   2.734  12.497  0.4160 -0.3414 -0.2798
 7594SOL    HW134244   3.156   2.795  12.445 -1.3003 -0.5496  1.1738
 7594SOL    HW234245   3.283   2.725  12.438 -1.2507 -1.5137 -2.2329
 7595SOL     OW34246   1.710   4.681   0.855  0.1134  0.0475  0.2088
 7595SOL    HW134247   1.700   0.002   0.940 -0.2556 -0.7554  0.5813
 7595SOL    HW234248   1.627   4.709   0.815 -0.5856 -0.6335  1.1587
 7596SOL     OW34249   0.250   0.945   4.541  0.3425 -0.0131 -0.1314
 7596SOL    HW134250   0.191   0.886   4.588  0.7217  0.4813  0.9576
 7596SOL    HW234251   0.213   1.031   4.558  0.3041  0.0975 -0.7923
 7597SOL     OW34252   0.513   0.343  12.313 -0.3645  0.3468 -0.1057
 7597SOL    HW134253   0.444   0.324  12.251  1.0695  1.1845 -1.9665
 7597SOL    HW234254   0.584   0.320  12.253  0.5229  0.3647  0.9182
 7598SOL     OW34255   2.380   1.307   5.554  0.2208  0.1579 -0.1596
 7598SOL    HW134256   2.324   1.364   5.501 -2.0417 -0.9363  1.0431
 7598SOL    HW234257   2.314   1.261   5.605  0.0158 -0.8387 -1.3098
 7599SOL     OW34258   2.916   0.529   0.410 -0.7408  0.4239  0.5901
 7599SOL    HW134259   2.901   0.487   0.495  1.8391 -1.2673  0.2137
 7599SOL    HW234260   2.832   0.508   0.369 -0.1387  0.3365 -0.5838
 7600SOL     OW34261   2.894   0.824   1.003  0.0369 -0.0120 -0.0606
 7600SOL    HW134262   2.943   0.790   0.928  0.2299 -2.1200  1.0081
 7600SOL    HW234263   2.871   0.909   0.965 -1.9705 -0.9057 -0.8914
 7601SOL     OW34264   3.400   3.325   3.293 -0.6191  0.1515 -0.5839
 7601SOL    HW134265   3.370   3.326   3.202  0.1477  0.4789 -0.8283
 7601SOL    HW234266   3.479   3.379   3.293 -0.8097  0.4295 -1.6280
 7602SOL     OW34267   4.392   4.132   9.325  0.2380  0.0372 -0.6297
 7602SOL    HW134268   4.343   4.052   9.307 -0.1681 -0.2413  1.6492
 7602SOL    HW234269   4.352   4.195   9.265  1.5509  2.1665  0.7149
 7603SOL     OW34270   3.147   2.906   9.910 -0.0196  0.1593 -0.3162
 7603SOL    HW134271   3.051   2.906   9.906 -0.0247 -1.4186 -0.1881
 7603SOL    HW234272   3.158   2.969   9.839  0.8928  2.6417  2.0428
 7604SOL     OW34273   2.702   4.023   8.802  0.1904 -0.2870 -0.1636
 7604SOL    HW134274   2.619   3.988   8.835  1.7536 -3.3331  0.5376
 7604SOL    HW234275   2.738   4.075   8.874 -1.8297  0.8137  0.0300
 7605SOL     OW34276   0.515   2.582   4.694 -0.2468  0.3249 -0.1088
 7605SOL    HW134277   0.546   2.508   4.746  1.2687  1.0953  0.1148
 7605SOL    HW234278   0.587   2.602   4.633  0.0449 -0.7147 -0.1032
 7606SOL     OW34279   2.604   3.282   4.670 -0.4992 -0.1807 -0.5222
 7606SOL    HW134280   2.654   3.220   4.724 -0.3519  0.5267  0.1490
 7606SOL    HW234281   2.557   3.225   4.609 -1.3314 -1.6269  1.4738
 7607SOL     OW34282   4.118   3.413   3.264  0.0345  0.0198  0.0857
 7607SOL    HW134283   4.194   3.410   3.205 -1.8809  2.5100 -2.5185
 7607SOL    HW234284   4.074   3.488   3.224  1.3614  2.2071  2.7378
 7608SOL     OW34285   3.678   3.237  11.454  0.0621 -0.1005 -0.6326
 7608SOL    HW134286   3.764   3.261  11.489 -0.6088  1.6690 -0.1951
 7608SOL    HW234287   3.697   3.173  11.385  0.2788 -0.0491 -0.6206
 7609SOL     OW34288   1.712   4.115   7.982 -0.0879 -0.3752 -0.6432
 7609SOL    HW134289   1.702   4.035   7.930  1.7625 -1.1706  0.2305
 7609SOL    HW234290   1.806   4.129   7.972  0.2863 -1.4980  1.2367
 7610SOL     OW34291   0.587   0.375   0.018  0.4241  0.0300  0.2240
 7610SOL    HW134292   0.585   0.459   0.062 -1.9649  0.3324 -0.4248
 7610SOL    HW234293   0.500   0.381  17.671  1.1978  0.9741 -1.2893
 7611SOL     OW34294   0.330   4.667  10.199  0.1041 -0.4931  0.2852
 7611SOL    HW134295   0.363   0.029  10.168 -2.3248  0.8770  1.3723
 7611SOL    HW234296   0.291   4.702  10.280 -0.5110  1.1660 -0.7108
 7612SOL     OW34297   1.316   4.685  10.107  0.2276  0.7617 -0.3987
 7612SOL    HW134298   1.302   4.686  10.012 -0.8095 -0.4560 -0.2601
 7612SOL    HW234299   1.359   0.046  10.122 -1.5825  1.2889  1.8582
 7613SOL     OW34300   3.166   2.167   5.425 -0.3756  0.0766 -0.3666
 7613SOL    HW134301   3.204   2.200   5.506  0.8188 -0.8327 -0.5556
 7613SOL    HW234302   3.203   2.229   5.362 -0.4095  0.0952 -0.3684
 7614SOL     OW34303   2.615   3.976   8.425 -0.3937  0.3323  0.2873
 7614SOL    HW134304   2.640   4.064   8.452 -2.0876  0.9568 -0.1650
 7614SOL    HW234305   2.520   3.980   8.413 -0.1616  2.6236 -0.7384
 7615SOL     OW34306   4.646   4.058   1.976  0.0508  0.1553  0.5403
 7615SOL    HW134307   4.676   3.984   2.029  2.3348 -0.2139 -1.2634
 7615SOL    HW234308   4.714   4.059   1.908 -0.2458  0.7367  0.2585
 7616SOL     OW34309   3.897   0.748   8.056 -0.2304  0.0117 -0.0990
 7616SOL    HW134310   3.946   0.777   7.979 -1.3749  1.1355 -0.4224
 7616SOL    HW234311   3.965   0.724   8.118 -0.3990 -2.5669 -0.9217
 7617SOL     OW34312   3.333   0.992   2.154  0.1207  0.3200  0.1228
 7617SOL    HW134313   3.406   1.051   2.136  0.6258  0.3284  2.1966
 7617SOL    HW234314   3.257   1.050   2.142 -1.0581 -1.1352  0.6004
 7618SOL     OW34315   2.621   1.584   5.841  0.3826 -0.1029  0.2694
 7618SOL    HW134316   2.531   1.613   5.857  0.5815 -0.4893  2.0915
 7618SOL    HW234317   2.668   1.644   5.899  1.2774 -0.3164 -0.2364
 7619SOL     OW34318   1.138   3.645   8.192 -0.5051  0.3159  0.2931
 7619SOL    HW134319   1.144   3.593   8.272  1.8661 -0.3454 -0.3006
 7619SOL    HW234320   1.050   3.680   8.201 -0.8528 -0.3916 -0.3473
 7620SOL     OW34321   3.814   1.708  17.312 -0.1290  0.6377 -0.1970
 7620SOL    HW134322   3.805   1.780  17.250  1.4696  0.9238 -0.1138
 7620SOL    HW234323   3.886   1.740  17.367  0.5363  1.6389 -1.6456
 7621SOL     OW34324   3.589   4.031   0.870  0.4073  0.1557  0.7887
 7621SOL    HW134325   3.670   4.006   0.824 -0.0826 -0.1173  0.0777
 7621SOL    HW234326   3.557   3.944   0.892 -0.4287  1.0974  3.3451
 7622SOL     OW34327   2.329   4.251   5.900  0.0504  0.3511 -0.0667
 7622SOL    HW134328   2.380   4.186   5.852  1.1161 -0.1389  1.7784
 7622SOL    HW234329   2.315   4.325   5.840 -0.4330 -0.0216 -0.4224
 7623SOL     OW34330   4.119   0.182   3.087  0.2283  0.1919 -0.0977
 7623SOL    HW134331   4.108   0.087   3.080 -0.0638  0.2441 -0.3475
 7623SOL    HW234332   4.048   0.218   3.035  0.1680 -1.1634 -0.9488
 7624SOL     OW34333   0.939   4.526   1.652 -0.0688 -0.7169 -0.0214
 7624SOL    HW134334   0.879   4.526   1.726  0.9947  0.8849  0.8369
 7624SOL    HW234335   1.012   4.469   1.678  1.8453  1.5625 -0.3767
 7625SOL     OW34336   1.064   0.855   9.127  0.2375 -0.1989 -0.0971
 7625SOL    HW134337   1.115   0.776   9.147 -0.3899  0.2963  3.4228
 7625SOL    HW234338   1.031   0.881   9.212  0.8572  2.0379 -0.5394
 7626SOL     OW34339   0.119   4.088   1.812 -0.3404 -0.3560  0.0878
 7626SOL    HW134340   0.118   3.992   1.803 -0.5317 -0.5502  2.2112
 7626SOL    HW234341   0.169   4.122   1.738  0.6361 -0.4303  0.7157
 7627SOL     OW34342   3.719   4.236   4.801 -0.2823  0.9150 -0.1750
 7627SOL    HW134343   3.641   4.290   4.812 -0.9879 -0.4440  1.5935
 7627SOL    HW234344   3.684   4.162   4.751 -1.1952  0.2324  1.4643
 7628SOL     OW34345   4.002   3.256   8.067  0.0959  0.3597 -0.9256
 7628SOL    HW134346   3.982   3.230   7.977 -1.7950 -1.1579 -0.0693
 7628SOL    HW234347   4.094   3.231   8.075 -0.1292 -0.2011 -0.1081
 7629SOL     OW34348   1.214   4.194  10.175  0.0019 -0.4852 -0.2772
 7629SOL    HW134349   1.234   4.219  10.265 -1.4859 -2.8240  0.7271
 7629SOL    HW234350   1.253   4.106  10.183 -0.2245 -0.6206 -0.6414
 7630SOL     OW34351   4.603   0.205   2.324 -0.0720 -0.0617 -0.1986
 7630SOL    HW134352   4.612   0.119   2.365  1.1934 -0.1840 -0.7406
 7630SOL    HW234353   4.571   0.184   2.236 -1.1545 -1.4023  0.4993
 7631SOL     OW34354   4.130   2.508  16.131  0.2261  0.3751 -0.2675
 7631SOL    HW134355   4.180   2.589  16.135  1.6862 -0.7009  2.8121
 7631SOL    HW234356   4.050   2.538  16.089 -0.2444 -1.1474 -0.4471
 7632SOL     OW34357   4.269   4.105   0.680  0.2820  0.5532  0.1145
 7632SOL    HW134358   4.248   4.088   0.589  1.4778 -2.3423  0.3976
 7632SOL    HW234359   4.314   4.027   0.711 -2.0630 -0.5144  0.8546
 7633SOL     OW34360   0.152   3.851   5.108  0.5741  0.1823 -0.3405
 7633SOL    HW134361   0.072   3.807   5.136  1.0503 -1.3181 -1.3548
 7633SOL    HW234362   0.125   3.864   5.017 -0.3321  0.8597  0.0212
 7634SOL     OW34363   2.333   2.234  16.031  0.0652  0.0320 -0.1702
 7634SOL    HW134364   2.299   2.301  16.090 -0.3465 -0.6990  0.4254
 7634SOL    HW234365   2.299   2.247  15.942  1.4873  1.6345 -0.4835
 7635SOL     OW34366   0.018   3.415  14.999  0.0397  0.0222  0.5080
 7635SOL    HW134367   4.675   3.446  14.937 -0.2255 -0.0559  0.7514
 7635SOL    HW234368   0.067   3.496  15.005  0.4544 -0.2178  0.3880
 7636SOL     OW34369   0.503   2.913  10.363  0.1130  0.2317 -0.2533
 7636SOL    HW134370   0.494   2.824  10.328 -1.7140  0.0129  0.7851
 7636SOL    HW234371   0.436   2.912  10.431  0.8928 -2.7337  0.5102
 7637SOL     OW34372   3.008   0.450   0.778  0.0653  0.1794  0.5753
 7637SOL    HW134373   2.930   0.464   0.724 -0.8874  0.3732  2.0129
 7637SOL    HW234374   2.970   0.378   0.829  0.1906  0.7250  1.4384
 7638SOL     OW34375   1.852   4.243   5.368  0.1494  0.1847  0.0797
 7638SOL    HW134376   1.863   4.189   5.446 -1.1128 -2.0017 -1.2492
 7638SOL    HW234377   1.778   4.300   5.385  0.4682  0.4054  0.7408
 7639SOL     OW34378   4.534   4.545   0.838 -0.2219  0.4438 -0.2305
 7639SOL    HW134379   4.531   4.623   0.782 -0.7234 -2.1935 -3.9185
 7639SOL    HW234380   4.467   4.494   0.792  1.0414 -3.7262  2.5831
 7640SOL     OW34381   3.816   4.083  12.994 -0.0643  0.4127 -0.1722
 7640SOL    HW134382   3.815   4.065  13.088  2.3728 -1.5661 -0.5325
 7640SOL    HW234383   3.897   4.042  12.965 -0.6860 -0.7479 -0.2640
 7641SOL     OW34384   1.098   4.163  13.916 -0.6074 -0.1567  0.9087
 7641SOL    HW134385   1.125   4.095  13.977 -0.8037 -0.1303  1.0245
 7641SOL    HW234386   1.003   4.160  13.925 -0.5375 -0.9434  1.4028
 7642SOL     OW34387   0.822   0.762   7.390  0.1286  0.0369  0.3774
 7642SOL    HW134388   0.914   0.735   7.386  0.6689  2.3538 -2.8179
 7642SOL    HW234389   0.803   0.772   7.297  1.0310 -0.7696  0.1002
 7643SOL     OW34390   4.273   4.177   4.817 -0.3021 -0.2665  0.2403
 7643SOL    HW134391   4.328   4.187   4.739  0.8374  1.7075  1.2855
 7643SOL    HW234392   4.220   4.257   4.825  0.8845  0.5366  0.1540
 7644SOL     OW34393   1.747   4.685  15.304  0.5689  0.3995  0.4227
 7644SOL    HW134394   1.714   4.629  15.374  1.5056  2.2714  2.3485
 7644SOL    HW234395   1.755   0.049  15.344  0.3956  0.6352 -0.0506
 7645SOL     OW34396   2.877   3.898   7.881 -0.0284 -0.4098  0.2801
 7645SOL    HW134397   2.869   3.943   7.796  0.3601  0.6907  0.8219
 7645SOL    HW234398   2.789   3.910   7.914  0.4957  2.4230  0.6707
 7646SOL     OW34399   3.885   2.997  16.855 -0.0253  0.2094 -0.3057
 7646SOL    HW134400   3.867   2.930  16.789 -1.0438 -0.8619  1.0456
 7646SOL    HW234401   3.828   3.067  16.824  0.2314  0.8639  0.6990
 7647SOL     OW34402   2.332   0.119   6.332  0.4354 -0.1856  0.3737
 7647SOL    HW134403   2.347   0.052   6.266 -0.1463  0.3662 -0.3163
 7647SOL    HW234404   2.360   0.201   6.293 -0.6804 -0.4021 -0.8843
 7648SOL     OW34405   2.615   0.032   3.890  0.3135 -0.5013  0.1159
 7648SOL    HW134406   2.675   4.681   3.890  0.0925 -0.6823 -0.3256
 7648SOL    HW234407   2.680   0.102   3.893 -1.5607  1.3340 -2.5047
 7649SOL     OW34408   0.270   3.898  12.275 -0.7243  0.4550  0.0965
 7649SOL    HW134409   0.325   3.919  12.351  1.9043 -0.4587 -1.5846
 7649SOL    HW234410   0.288   3.975  12.221  1.7025 -1.2285 -1.4250
 7650SOL     OW34411   1.981   1.716   1.822  0.2241 -0.3552 -0.0229
 7650SOL    HW134412   1.924   1.680   1.890 -0.2440 -0.7473 -0.6271
 7650SOL    HW234413   1.923   1.747   1.753 -2.1194 -0.2529  1.9865
 7651SOL     OW34414   2.792   0.784   1.253  0.8908 -0.1923  0.6223
 7651SOL    HW134415   2.703   0.778   1.219  1.7329  1.3528 -1.8955
 7651SOL    HW234416   2.845   0.809   1.177  1.7156 -1.5960  0.7322
 7652SOL     OW34417   3.587   2.668   3.219 -0.3818 -0.5672 -0.0927
 7652SOL    HW134418   3.549   2.687   3.133  0.3886 -1.0739 -0.5477
 7652SOL    HW234419   3.515   2.689   3.279 -1.6504  0.2162 -1.9038
 7653SOL     OW34420   0.469   2.486   3.959  0.0892 -0.1635 -0.7188
 7653SOL    HW134421   0.386   2.534   3.961  0.4115  0.2994  1.4690
 7653SOL    HW234422   0.437   2.395   3.962 -0.7895  0.2433  1.9972
 7654SOL     OW34423   0.536   3.328   4.291  0.1660 -0.5253  0.0971
 7654SOL    HW134424   0.478   3.346   4.217 -1.1855  0.8979  1.5086
 7654SOL    HW234425   0.475   3.314   4.364  1.6629  1.0143  1.6421
 7655SOL     OW34426   3.711   0.432   7.049 -0.2366  0.3546  0.0178
 7655SOL    HW134427   3.748   0.344   7.038  1.6329  0.9404  1.6899
 7655SOL    HW234428   3.670   0.427   7.136 -0.8601 -1.3319 -0.3643
 7656SOL     OW34429   3.039   2.868   5.420 -0.5540 -0.0033 -0.8789
 7656SOL    HW134430   3.014   2.904   5.335  0.6037 -0.7852 -1.5472
 7656SOL    HW234431   2.998   2.782   5.409  0.0840 -0.5010  0.6557
 7657SOL     OW34432   3.553   3.382   5.762 -0.1692 -0.0521 -0.1073
 7657SOL    HW134433   3.627   3.426   5.805  1.3916 -1.8433 -0.9317
 7657SOL    HW234434   3.496   3.457   5.750  0.2768  0.1771 -0.7795
 7658SOL     OW34435   1.957   2.824   5.887  0.1271  0.1639 -0.4251
 7658SOL    HW134436   2.048   2.805   5.906 -0.7245 -1.2263  2.3092
 7658SOL    HW234437   1.923   2.735   5.873  2.6254 -0.5722 -1.6926
 7659SOL     OW34438   3.548   1.985  11.352 -0.3256 -1.0821 -0.0038
 7659SOL    HW134439   3.466   2.032  11.370  0.4344 -0.3971  1.6589
 7659SOL    HW234440   3.521   1.909  11.300  2.0196 -0.0177 -2.7693
 7660SOL     OW34441   1.926   4.636  10.532  0.1622  0.4774 -0.6746
 7660SOL    HW134442   1.970   4.578  10.594  3.2146  1.1181 -2.2557
 7660SOL    HW234443   1.966   4.720  10.554  1.8595 -0.3419 -0.6264
 7661SOL     OW34444   1.011   4.048   5.113  0.0582  0.1695 -0.8004
 7661SOL    HW134445   1.079   4.115   5.099  0.3558  0.0619  0.1484
 7661SOL    HW234446   0.962   4.057   5.032 -2.0562 -0.1869  0.4491
 7662SOL     OW34447   4.607   2.488  13.515  0.4855 -0.4801  0.5790
 7662SOL    HW134448   4.512   2.482  13.507  0.6614 -1.0575 -0.9275
 7662SOL    HW234449   4.632   2.495  13.423  0.1320  2.3346  0.6872
 7663SOL     OW34450   1.763   2.283  10.672  0.0172 -0.1831  0.6962
 7663SOL    HW134451   1.697   2.317  10.612 -0.6457 -2.2587  0.2346
 7663SOL    HW234452   1.788   2.368  10.709 -0.5636 -0.7669  2.3983
 7664SOL     OW34453   1.903   1.282   3.504  0.3560  0.3314 -0.2292
 7664SOL    HW134454   1.930   1.342   3.574 -0.9724  1.9573 -1.1191
 7664SOL    HW234455   1.988   1.265   3.464  1.3206 -0.0376  1.9550
 7665SOL     OW34456   2.745   1.082  17.462  0.8025 -0.4554 -0.3780
 7665SOL    HW134457   2.831   1.088  17.505  1.7144 -1.0438 -2.1268
 7665SOL    HW234458   2.728   0.991  17.484 -0.8621  0.1350  0.7867
 7666SOL     OW34459   2.557   3.832   4.326  0.3286  0.0076 -1.0582
 7666SOL    HW134460   2.463   3.829   4.338  0.6999 -0.8989  1.5087
 7666SOL    HW234461   2.590   3.902   4.381 -0.8164  0.5854 -1.1167
 7667SOL     OW34462   1.651   0.439  14.472 -0.1648  0.0475 -0.3102
 7667SOL    HW134463   1.660   0.453  14.567  2.5085  3.0544 -1.0196
 7667SOL    HW234464   1.699   0.513  14.435  0.2500 -1.5257 -2.8606
 7668SOL     OW34465   2.170   3.482   0.930  0.3155  0.3069  0.7982
 7668SOL    HW134466   2.219   3.563   0.915  1.0269 -0.2927 -0.1345
 7668SOL    HW234467   2.083   3.506   0.960 -0.3245 -0.9783 -0.0114
 7669SOL     OW34468   1.726   3.998   6.634 -0.1101 -0.2922  0.0951
 7669SOL    HW134469   1.740   4.015   6.727  1.8512 -1.1843 -0.0435
 7669SOL    HW234470   1.647   3.947   6.654  2.8741 -4.3988  1.3351
 7670SOL     OW34471   2.929   0.788   2.743  0.3231 -0.5035 -0.2287
 7670SOL    HW134472   2.846   0.776   2.697  0.9689 -0.5778 -1.3702
 7670SOL    HW234473   2.994   0.739   2.693  0.8706 -0.2902  0.2679
 7671SOL     OW34474   4.188   2.539   8.125  0.2061  0.2949 -0.3421
 7671SOL    HW134475   4.258   2.538   8.191 -0.1166  2.2117  0.0204
 7671SOL    HW234476   4.119   2.591   8.165 -1.5985 -1.9656 -0.4815
 7672SOL     OW34477   2.820   0.058   4.651  0.2860  0.0998 -0.0233
 7672SOL    HW134478   2.872   0.087   4.576  0.0411  0.1114 -0.1864
 7672SOL    HW234479   2.775   0.138   4.679 -1.6424 -1.7400  2.1431
 7673SOL     OW34480   1.444   0.549  14.087  0.5277  0.3186 -0.6854
 7673SOL    HW134481   1.408   0.494  14.018 -2.7231 -1.6259  2.5664
 7673SOL    HW234482   1.454   0.484  14.157 -0.2466  0.4399 -0.4612
 7674SOL     OW34483   2.299   0.817   8.587  0.0966 -0.3096 -0.3426
 7674SOL    HW134484   2.339   0.731   8.576 -0.6287 -0.5441 -1.1802
 7674SOL    HW234485   2.282   0.828   8.493  1.4582  1.3681 -0.3855
 7675SOL     OW34486   3.052   4.266   7.637  0.2214 -0.4704  0.3353
 7675SOL    HW134487   3.068   4.259   7.732  0.2808  1.9711  0.5057
 7675SOL    HW234488   3.140   4.240   7.608  0.1689 -2.5796  2.0375
 7676SOL     OW34489   0.728   0.849  12.673  0.2143  0.0942 -0.1655
 7676SOL    HW134490   0.710   0.890  12.758 -2.2384  2.0863 -1.6641
 7676SOL    HW234491   0.715   0.920  12.611 -0.0941 -1.0165 -1.3638
 7677SOL     OW34492   1.506   2.943   9.231  0.4817  0.2441 -0.4236
 7677SOL    HW134493   1.470   2.925   9.318  1.4410  0.1392 -0.0552
 7677SOL    HW234494   1.593   2.910   9.252 -0.4164 -1.3122  0.7952
 7678SOL     OW34495   2.512   1.290   7.080  0.1049  0.0537  0.3086
 7678SOL    HW134496   2.504   1.369   7.134  1.5599 -0.2884  1.0089
 7678SOL    HW234497   2.425   1.284   7.039 -0.0886  0.5246  0.6422
 7679SOL     OW34498   1.873   0.525   5.949  0.2170  0.0517 -0.8682
 7679SOL    HW134499   1.803   0.499   6.009  0.4717  1.8326  0.2346
 7679SOL    HW234500   1.881   0.453   5.888  3.4862  0.2171 -0.6288
 7680SOL     OW34501   4.402   2.913  17.585 -0.5879 -0.2333 -0.1098
 7680SOL    HW134502   4.424   3.006  17.577 -2.0510  0.0083 -1.3054
 7680SOL    HW234503   4.315   2.909  17.547  0.2345 -0.2560 -1.9620
 7681SOL     OW34504   2.567   3.537   9.486 -0.1372  0.0672  0.7869
 7681SOL    HW134505   2.610   3.590   9.420 -0.5399 -2.0723 -1.2173
 7681SOL    HW234506   2.639   3.478   9.510 -0.0938 -0.6147 -1.0568
 7682SOL     OW34507   2.416   1.103   9.531 -0.6511  0.5737  0.1892
 7682SOL    HW134508   2.396   1.144   9.446  0.5704 -3.3127 -1.9972
 7682SOL    HW234509   2.442   1.179   9.583  0.2071  0.1838  0.3232
 7683SOL     OW34510   3.906   1.821   5.978  0.3924  0.0104 -0.7052
 7683SOL    HW134511   3.994   1.850   5.998  0.6997 -1.3548 -0.0429
 7683SOL    HW234512   3.871   1.910   5.978 -1.5038 -0.7360 -0.7911
 7684SOL     OW34513   3.900   3.782   6.320  0.5244  0.2131 -0.4016
 7684SOL    HW134514   3.837   3.796   6.392  0.3359 -0.4087 -0.4503
 7684SOL    HW234515   3.981   3.813   6.360  1.1520  0.7960 -2.1754
 7685SOL     OW34516   0.764   4.304   0.974  0.6073  0.1233  0.3002
 7685SOL    HW134517   0.843   4.278   0.928  0.3434  0.1998 -0.1884
 7685SOL    HW234518   0.695   4.266   0.919  1.9730  0.7150 -1.7783
 7686SOL     OW34519   3.791   4.676   3.759 -0.4217 -0.5606 -0.2579
 7686SOL    HW134520   3.845   0.020   3.800 -1.3045 -0.1050  0.1541
 7686SOL    HW234521   3.769   4.720   3.677  1.0551  0.8206  0.0983
 7687SOL     OW34522   2.713   3.936   3.669 -0.2939  0.3158 -0.6990
 7687SOL    HW134523   2.787   3.980   3.712 -0.2598 -0.0926 -0.3370
 7687SOL    HW234524   2.652   3.911   3.739 -0.5224  0.5705 -0.8082
 7688SOL     OW34525   2.883   2.851  12.629 -0.2220  0.2695 -0.5447
 7688SOL    HW134526   2.866   2.795  12.705  1.5761  0.5174  0.0462
 7688SOL    HW234527   2.971   2.881  12.652 -0.9355  2.4437 -0.5849
 7689SOL     OW34528   1.408   4.361   7.719 -0.1677 -0.6339 -0.2179
 7689SOL    HW134529   1.438   4.392   7.634 -0.6810  1.4117  0.3360
 7689SOL    HW234530   1.476   4.402   7.773 -0.8782  0.9029 -0.4859
 7690SOL     OW34531   4.506   4.294  14.082 -0.5578  0.1568 -0.8441
 7690SOL    HW134532   4.528   4.219  14.027  1.4788 -0.9492  1.4606
 7690SOL    HW234533   4.467   4.350  14.016 -0.1225  1.8600  0.3403
 7691SOL     OW34534   1.653   3.549  16.125  0.0933 -0.5168  0.2410
 7691SOL    HW134535   1.589   3.504  16.071  0.2290  0.0308 -0.3775
 7691SOL    HW234536   1.631   3.510  16.209 -1.0860  1.4127  0.8224
 7692SOL     OW34537   3.386   4.580   6.459 -0.1343  0.7624 -0.6366
 7692SOL    HW134538   3.405   4.537   6.375 -0.2791 -1.3618  0.4071
 7692SOL    HW234539   3.453   4.646   6.474  0.2187  0.4565 -0.8843
 7693SOL     OW34540   4.700   0.256  17.428  0.0168  0.1040 -0.1377
 7693SOL    HW134541   4.670   0.343  17.453  0.2306  0.4117 -0.9501
 7693SOL    HW234542   4.629   0.233  17.369  0.1818  1.7239 -0.9708
 7694SOL     OW34543   1.824   0.268  12.085  0.7290 -0.2129  0.1574
 7694SOL    HW134544   1.828   0.232  12.174 -1.5197  2.3916  1.3154
 7694SOL    HW234545   1.796   0.192  12.034 -1.6029  0.1182  0.9834
 7695SOL     OW34546   1.918   1.287   7.638 -0.9137 -0.2099 -0.3866
 7695SOL    HW134547   1.881   1.375   7.631 -1.1716 -0.2410  0.6118
 7695SOL    HW234548   1.947   1.268   7.549  0.3616 -1.2868  0.2589
 7696SOL     OW34549   4.569   0.402   7.793 -0.0169 -0.7499 -0.4474
 7696SOL    HW134550   4.501   0.451   7.841  0.8226 -0.4290  0.4075
 7696SOL    HW234551   4.612   0.350   7.861  2.0695  1.1595 -0.3152
 7697SOL     OW34552   2.910   1.768   6.355 -0.2650 -0.4981  0.8407
 7697SOL    HW134553   2.823   1.808   6.352  0.2598  0.6483  0.8837
 7697SOL    HW234554   2.954   1.831   6.298 -1.6579  1.8365  2.3638
 7698SOL     OW34555   3.728   4.317   8.207  0.2525  0.8634 -0.4867
 7698SOL    HW134556   3.821   4.295   8.217  0.2268 -0.0509 -2.3861
 7698SOL    HW234557   3.696   4.229   8.187  3.4584 -0.8253  1.6878
 7699SOL     OW34558   2.024   2.559   8.259 -0.5361  0.1888  0.1989
 7699SOL    HW134559   1.972   2.638   8.242 -1.4719 -1.2899 -3.8125
 7699SOL    HW234560   1.973   2.510   8.323 -0.1316 -0.3910  0.0769
 7700SOL     OW34561   3.626   2.751  11.297  0.3796 -0.0139 -0.2689
 7700SOL    HW134562   3.659   2.661  11.293 -1.0807 -0.4785 -1.7850
 7700SOL    HW234563   3.564   2.746  11.369 -1.7574 -0.9494 -2.1846
 7701SOL     OW34564   3.857   2.190   8.828 -0.1444 -0.1013  0.0351
 7701SOL    HW134565   3.764   2.214   8.827 -0.9076 -3.1668 -0.6318
 7701SOL    HW234566   3.872   2.168   8.920  0.9494  3.8053  0.8139
 7702SOL     OW34567   1.508   4.149   4.392  0.0194  0.5821 -0.2246
 7702SOL    HW134568   1.567   4.081   4.359 -2.9011 -0.9346 -2.3445
 7702SOL    HW234569   1.463   4.089   4.452 -0.4062  0.5626 -0.5621
 7703SOL     OW34570   3.690   4.429  11.969 -0.5225 -0.0969 -0.1623
 7703SOL    HW134571   3.594   4.440  11.967 -0.5000  0.2995  1.3422
 7703SOL    HW234572   3.703   4.519  11.939 -0.1761 -0.0107  0.2580
 7704SOL     OW34573   2.746   0.749  12.022  0.0354  0.0954 -0.2220
 7704SOL    HW134574   2.794   0.818  12.067 -0.0283 -0.0533  0.0705
 7704SOL    HW234575   2.723   0.792  11.940 -2.7368 -0.3210  0.3368
 7705SOL     OW34576   0.653   1.824   5.513 -0.5502 -0.5139  0.0040
 7705SOL    HW134577   0.658   1.745   5.566 -0.8870 -2.1562 -2.4018
 7705SOL    HW234578   0.745   1.833   5.490 -0.6587 -1.8029 -0.9394
 7706SOL     OW34579   0.388   1.623   8.577 -0.3872 -0.4365  0.2750
 7706SOL    HW134580   0.411   1.634   8.485 -0.2752  0.0580  0.3590
 7706SOL    HW234581   0.329   1.698   8.585 -1.1075 -1.0697  0.8247
 7707SOL     OW34582   0.223   0.129  13.368  0.2327  0.4764 -0.2432
 7707SOL    HW134583   0.250   0.072  13.440 -0.7718  1.2461  0.7500
 7707SOL    HW234584   0.282   0.204  13.377 -0.4462  0.8316  1.3627
 7708SOL     OW34585   1.505   1.259   7.131  0.2135 -0.4687 -0.5601
 7708SOL    HW134586   1.472   1.349   7.138 -1.0842 -1.2507  3.1432
 7708SOL    HW234587   1.518   1.265   7.036  0.2631  1.9499 -0.4212
 7709SOL     OW34588   0.916   1.821   3.399 -0.0073 -0.1518 -0.4065
 7709SOL    HW134589   0.854   1.859   3.461  1.0429  2.1697 -0.7806
 7709SOL    HW234590   0.993   1.799   3.451 -0.9495  2.0189  1.9300
 7710SOL     OW34591   1.970   0.025   9.177 -0.2318 -0.1152  0.4948
 7710SOL    HW134592   2.005   4.662   9.155 -1.4262 -0.5057  0.1133
 7710SOL    HW234593   1.937   0.009   9.266 -0.7770  1.6442  0.6082
 7711SOL     OW34594   4.454   2.862   8.620 -0.2512 -0.3228 -0.0992
 7711SOL    HW134595   4.482   2.889   8.707 -0.5087 -2.2850  0.5821
 7711SOL    HW234596   4.423   2.951   8.599  1.0103  0.2294  0.3936
 7712SOL     OW34597   0.643   0.377   8.739  0.0840 -0.5095  0.1338
 7712SOL    HW134598   0.698   0.455   8.739 -1.6859  0.7448  0.5630
 7712SOL    HW234599   0.709   0.317   8.773  0.9595  0.5121  0.2472
 7713SOL     OW34600   3.507   3.498   1.210 -0.2794  0.2172 -0.5988
 7713SOL    HW134601   3.564   3.438   1.258 -0.6820 -0.6719 -1.2203
 7713SOL    HW234602   3.418   3.464   1.222  0.0412 -0.6630 -0.7087
 7714SOL     OW34603   1.104   2.457   6.490 -0.0213 -0.2391 -0.1224
 7714SOL    HW134604   1.168   2.528   6.489  0.1364 -0.3707  0.7422
 7714SOL    HW234605   1.143   2.392   6.431  0.5073 -0.0114 -0.0137
 7715SOL     OW34606   4.641   2.739   3.174 -0.3745  0.8546  0.1564
 7715SOL    HW134607   0.012   2.734   3.160 -0.8056 -0.4415 -2.3500
 7715SOL    HW234608   4.630   2.789   3.255 -2.2168  0.1113  0.3810
 7716SOL     OW34609   2.954   3.962   6.146  0.6203 -0.0970  0.0445
 7716SOL    HW134610   3.038   3.920   6.162  0.5309  1.1830  3.8502
 7716SOL    HW234611   2.910   3.950   6.231  0.1766  1.0107 -0.0273
 7717SOL     OW34612   3.538   2.586   7.342  0.7560 -0.0855 -0.1957
 7717SOL    HW134613   3.610   2.589   7.405  0.0262  0.2054  0.6149
 7717SOL    HW234614   3.511   2.494   7.339 -2.1503  0.7323  1.2768
 7718SOL     OW34615   4.046   2.225   3.707 -0.3491 -0.2104  0.0019
 7718SOL    HW134616   4.109   2.216   3.635  0.3021 -2.9880  0.9082
 7718SOL    HW234617   4.067   2.151   3.763 -1.7261 -0.0331  0.7577
 7719SOL     OW34618   2.393   1.059   6.157  0.3203  0.1660  0.0959
 7719SOL    HW134619   2.420   1.108   6.079  0.7601 -1.2123 -0.6180
 7719SOL    HW234620   2.308   1.029   6.126  1.2181  0.7832 -2.9141
 7720SOL     OW34621   3.718   0.880   0.341  0.1761  0.1048 -0.1174
 7720SOL    HW134622   3.687   0.904   0.253 -1.3156 -3.1518 -0.4740
 7720SOL    HW234623   3.804   0.844   0.318  1.2339  2.8529 -0.4715
 7721SOL     OW34624   0.394   1.153  13.802  0.3126 -0.0028  0.4490
 7721SOL    HW134625   0.469   1.107  13.839 -0.7281 -2.8379 -0.9446
 7721SOL    HW234626   0.317   1.098  13.819  0.2486 -0.4363 -1.2097
 7722SOL     OW34627   1.974   3.331   7.740  0.7136  0.2985  0.0596
 7722SOL    HW134628   1.933   3.416   7.721 -4.2222 -1.8330  1.0101
 7722SOL    HW234629   1.930   3.279   7.673  1.4739  1.6374 -1.4699
 7723SOL     OW34630   2.586   1.910  15.530 -0.1385  0.3960 -0.4449
 7723SOL    HW134631   2.637   1.983  15.495  1.2219  0.5135  1.8241
 7723SOL    HW234632   2.497   1.942  15.513 -0.9487 -0.1800  2.6627
 7724SOL     OW34633   2.790   3.453   9.596 -0.1095 -0.2184  0.1665
 7724SOL    HW134634   2.815   3.380   9.652 -0.1457  1.8949  2.9475
 7724SOL    HW234635   2.872   3.478   9.554 -0.8896  1.0090 -0.6397
 7725SOL     OW34636   3.410   2.218   4.003 -0.6939  0.4152  0.4192
 7725SOL    HW134637   3.324   2.260   4.008 -1.4706 -1.0259 -0.9636
 7725SOL    HW234638   3.385   2.132   3.970  0.7341  0.0847  0.2075
 7726SOL     OW34639   2.723   2.853   3.913  0.1981 -0.5102 -0.5234
 7726SOL    HW134640   2.745   2.856   4.006 -0.5090 -0.9457 -0.3407
 7726SOL    HW234641   2.629   2.869   3.917  0.4801  0.5686  1.7429
 7727SOL     OW34642   2.414   1.828   8.447  0.5205 -0.5812 -0.3285
 7727SOL    HW134643   2.413   1.743   8.490  2.1920 -0.2461  0.3719
 7727SOL    HW234644   2.506   1.855   8.446  0.2033  0.5307 -0.5058
 7728SOL     OW34645   3.185   3.344   8.628  0.1513  0.1103 -0.0633
 7728SOL    HW134646   3.168   3.413   8.692 -2.3229 -0.3262 -0.2746
 7728SOL    HW234647   3.215   3.390   8.550 -0.9116  2.1253  0.7405
 7729SOL     OW34648   1.744   0.206   7.103 -0.2830 -0.2181  0.0314
 7729SOL    HW134649   1.715   0.249   7.022 -1.3433 -1.3804 -0.2109
 7729SOL    HW234650   1.665   0.159   7.130 -0.9059  0.0182 -1.3885
 7730SOL     OW34651   3.985   1.327   3.242  0.0497  0.2210 -0.4547
 7730SOL    HW134652   3.968   1.313   3.335 -0.3267 -0.2142 -0.5845
 7730SOL    HW234653   4.076   1.297   3.241  0.5281  1.6142  1.3588
 7731SOL     OW34654   2.959   1.387  12.800 -0.7932 -0.0418  0.5408
 7731SOL    HW134655   3.012   1.461  12.771 -1.9800  0.1767 -1.0936
 7731SOL    HW234656   2.873   1.425  12.778  0.4646  1.2804 -2.0371
 7732SOL     OW34657   1.793   1.239  13.498  0.3411  0.2837 -0.2356
 7732SOL    HW134658   1.870   1.182  13.487 -1.1884 -1.7173 -0.4923
 7732SOL    HW234659   1.722   1.178  13.480  0.3754 -0.3206  1.6695
 7733SOL     OW34660   1.582   2.024  14.969  0.2806 -0.1632 -0.2780
 7733SOL    HW134661   1.490   2.051  14.963  0.2570  0.1366  1.5250
 7733SOL    HW234662   1.580   1.971  14.890  0.2521  0.6400 -0.8176
 7734SOL     OW34663   4.539   1.404  14.251  0.0645 -0.3131 -0.2037
 7734SOL    HW134664   4.475   1.473  14.269 -0.1987 -0.1716 -1.6832
 7734SOL    HW234665   4.536   1.395  14.155  0.6942  1.5731 -0.4034
 7735SOL     OW34666   2.336   4.390   9.824 -0.4651  0.0246  0.0877
 7735SOL    HW134667   2.282   4.376   9.901 -0.8363  0.7010 -0.0506
 7735SOL    HW234668   2.333   4.485   9.815 -0.7255 -0.1192 -1.3844
 7736SOL     OW34669   1.190   2.543   5.425 -0.4926 -1.0586 -0.0049
 7736SOL    HW134670   1.120   2.479   5.408 -2.3008  1.1244 -0.7342
 7736SOL    HW234671   1.144   2.621   5.396  1.0465  0.0634  0.6076
 7737SOL     OW34672   0.267   2.955  17.566 -0.1868 -0.5263  0.1524
 7737SOL    HW134673   0.180   2.995  17.570 -0.2245 -0.7530  1.6235
 7737SOL    HW234674   0.276   2.912  17.482 -1.3679 -0.4679 -0.0058
 7738SOL     OW34675   2.951   3.366   3.120 -0.5287 -0.1318 -0.8400
 7738SOL    HW134676   2.860   3.372   3.150 -0.7755 -1.8244 -1.2600
 7738SOL    HW234677   2.991   3.310   3.186 -2.4803 -0.8903 -0.2704
 7739SOL     OW34678   2.526   0.396  11.379 -0.3491  0.2476 -0.0521
 7739SOL    HW134679   2.571   0.345  11.311  2.7511  3.0915 -0.1203
 7739SOL    HW234680   2.602   0.430  11.428  1.0820 -1.2125 -1.2442
 7740SOL     OW34681   4.666   3.352   8.176  0.0351  0.3855 -0.1599
 7740SOL    HW134682   4.584   3.305   8.164  0.0129  1.1064 -2.7710
 7740SOL    HW234683   0.011   3.287   8.158 -0.0604  0.0651  0.6037
 7741SOL     OW34684   1.105   2.596   3.836 -0.3062  0.0530  0.0085
 7741SOL    HW134685   1.109   2.685   3.871 -0.5761  0.9371 -2.2348
 7741SOL    HW234686   1.027   2.603   3.782 -0.7419  0.8560  0.7492
 7742SOL     OW34687   2.639   0.535  17.135 -0.0333  0.4745 -0.2562
 7742SOL    HW134688   2.641   0.473  17.208  1.2784 -0.4909 -1.1104
 7742SOL    HW234689   2.651   0.470  17.066 -2.9039 -0.9625  0.5966
 7743SOL     OW34690   2.238   2.581   5.031  0.0481 -0.4100 -0.2182
 7743SOL    HW134691   2.275   2.648   5.088  0.6846  0.5612 -1.7999
 7743SOL    HW234692   2.149   2.570   5.067 -1.1059  1.4224 -2.5330
 7744SOL     OW34693   2.161   0.205   4.918 -0.1223 -0.0055  0.4247
 7744SOL    HW134694   2.197   0.138   4.860 -0.5222 -0.8522  1.1593
 7744SOL    HW234695   2.067   0.188   4.920 -0.4301  1.6356  0.1932
 7745SOL     OW34696   4.474   4.714   4.644 -0.7846 -0.4352  0.0601
 7745SOL    HW134697   4.472   0.029   4.732 -0.4908 -0.5076  0.0966
 7745SOL    HW234698   4.566   4.693   4.627 -0.5823  1.7019 -1.5135
 7746SOL     OW34699   4.110   0.636   8.226  0.5237  0.2302 -0.1089
 7746SOL    HW134700   4.106   0.560   8.284 -0.3863 -0.6409 -1.3384
 7746SOL    HW234701   4.201   0.630   8.197  1.3047  1.3837  2.0354
 7747SOL     OW34702   1.100   1.999   4.211 -0.1451 -0.5022  0.2187
 7747SOL    HW134703   1.161   1.936   4.172  0.2884 -1.3600  2.2753
 7747SOL    HW234704   1.111   2.074   4.152  2.0376 -0.5812  0.5400
 7748SOL     OW34705   2.090   0.855   2.899 -0.1952  0.4453  0.4869
 7748SOL    HW134706   2.027   0.922   2.872 -2.1322 -1.2752  0.6743
 7748SOL    HW234707   2.024   0.789   2.923 -0.7563  0.6765 -0.4056
 7749SOL     OW34708   2.554   0.110   5.839 -0.2644 -0.0202 -0.0028
 7749SOL    HW134709   2.588   0.141   5.923 -1.1090  1.1069 -0.0797
 7749SOL    HW234710   2.515   0.034   5.883  0.9050  0.0935  1.2374
 7750SOL     OW34711   4.167   4.657   7.134 -0.1476 -0.0342  0.1085
 7750SOL    HW134712   4.200   4.596   7.068  0.0188 -1.0535  1.1412
 7750SOL    HW234713   4.181   4.607   7.214  1.8656  0.9931  0.3793
 7751SOL     OW34714   0.692   2.301   8.785  0.1017 -0.5307 -0.7387
 7751SOL    HW134715   0.783   2.279   8.764  0.3426 -1.0102  0.7729
 7751SOL    HW234716   0.655   2.214   8.794 -1.2904  0.0936 -0.3860
 7752SOL     OW34717   1.100   3.203   0.680 -0.6653  0.3649 -0.1412
 7752SOL    HW134718   1.127   3.178   0.591 -2.0503 -0.1053 -0.4289
 7752SOL    HW234719   1.007   3.181   0.673 -0.8692  1.0850  0.3653
 7753SOL     OW34720   3.204   3.072   8.633  0.2512  0.4687 -0.1314
 7753SOL    HW134721   3.287   3.066   8.585 -0.6903 -1.8260 -1.4300
 7753SOL    HW234722   3.198   3.167   8.624  1.2345  0.5728  0.3030
 7754SOL     OW34723   2.863   0.347   3.574  0.4215  0.4885 -0.1410
 7754SOL    HW134724   2.911   0.265   3.570  1.7377  1.2809 -0.6714
 7754SOL    HW234725   2.937   0.398   3.606  1.0028 -0.2968 -0.2395
 7755SOL     OW34726   2.732   3.845   5.168 -0.0535  0.5769 -0.2396
 7755SOL    HW134727   2.824   3.866   5.152  0.1508  2.4462  3.4497
 7755SOL    HW234728   2.700   3.932   5.192 -2.0257 -0.0166 -0.7001
 7756SOL     OW34729   0.599   1.704  15.285 -0.2435 -0.4588  0.2017
 7756SOL    HW134730   0.548   1.754  15.222  0.6998  1.6207  1.0966
 7756SOL    HW234731   0.683   1.697  15.239 -0.0235  1.9545  0.2358
 7757SOL     OW34732   3.295   1.922  11.662 -0.2309  0.1439 -0.3840
 7757SOL    HW134733   3.315   1.830  11.648 -0.1145  0.2734 -1.0464
 7757SOL    HW234734   3.215   1.905  11.712  0.8161  0.2007  1.3416
 7758SOL     OW34735   4.379   0.862  10.188 -0.1503 -0.4605 -0.1569
 7758SOL    HW134736   4.336   0.925  10.131 -1.4736 -0.2972  1.0391
 7758SOL    HW234737   4.331   0.872  10.270  1.7097  1.3836  0.6993
 7759SOL     OW34738   1.419   3.723  15.802  0.2028  0.5951 -0.6618
 7759SOL    HW134739   1.465   3.795  15.846  1.4672 -1.7024  1.7450
 7759SOL    HW234740   1.399   3.774  15.723  1.9143 -1.2155 -2.2704
 7760SOL     OW34741   2.387   0.613   6.528  0.3662  0.2750  0.4183
 7760SOL    HW134742   2.378   0.707   6.510 -1.8588  0.3742  2.1050
 7760SOL    HW234743   2.296   0.590   6.544  0.0638  0.7257 -0.6368
 7761SOL     OW34744   1.262   1.419  16.567  0.3036 -0.3174  0.1155
 7761SOL    HW134745   1.182   1.378  16.533 -0.3980  2.3607 -1.4250
 7761SOL    HW234746   1.250   1.398  16.659 -2.7669 -2.5154 -0.7870
 7762SOL     OW34747   2.337   0.834   1.663 -0.4013 -0.2181  0.2054
 7762SOL    HW134748   2.395   0.906   1.637 -1.2645  0.3405 -0.1514
 7762SOL    HW234749   2.401   0.772   1.699  0.9115 -0.4438 -2.4888
 7763SOL     OW34750   2.469   3.504   2.809 -0.3336 -0.4688 -0.3783
 7763SOL    HW134751   2.422   3.527   2.729  1.7956 -0.2159 -1.5823
 7763SOL    HW234752   2.559   3.535   2.794 -0.9418  0.5411 -1.8995
 7764SOL     OW34753   1.516   0.301   7.519 -0.2812 -0.0692 -0.3752
 7764SOL    HW134754   1.429   0.295   7.480 -0.6735  1.4795  0.2521
 7764SOL    HW234755   1.514   0.228   7.581  1.7104 -0.2578 -0.5481
 7765SOL     OW34756   4.134   4.368  16.944 -0.2465  0.7845 -0.2622
 7765SOL    HW134757   4.215   4.363  16.894 -1.9218  3.7698 -3.3329
 7765SOL    HW234758   4.103   4.458  16.930 -0.8220  0.6573  0.1777
 7766SOL     OW34759   0.860   0.081   7.220 -0.2381  0.0044 -0.0208
 7766SOL    HW134760   0.787   0.141   7.209 -1.0571 -0.8688  0.5669
 7766SOL    HW234761   0.844   0.039   7.305  1.3407 -2.1157 -0.7669
 7767SOL     OW34762   4.229   3.235   3.448  0.1830  0.0623  0.0429
 7767SOL    HW134763   4.198   3.309   3.395 -1.3677 -0.5946  0.0477
 7767SOL    HW234764   4.240   3.274   3.535  1.0155 -0.9954  0.4013
 7768SOL     OW34765   0.599   2.555   6.027 -0.5068  0.6209 -0.6817
 7768SOL    HW134766   0.554   2.475   6.051  1.8727  0.2507  2.5627
 7768SOL    HW234767   0.642   2.516   5.951 -1.7012  0.4591 -1.2646
 7769SOL     OW34768   3.983   3.115   8.458  0.1297 -0.6466  0.7400
 7769SOL    HW134769   3.927   3.166   8.400  1.5075 -0.9051 -0.8458
 7769SOL    HW234770   3.975   3.172   8.534  1.6268  1.4405 -0.6580
 7770SOL     OW34771   0.097   1.439   6.468  0.0441  0.1177 -0.5574
 7770SOL    HW134772   0.052   1.507   6.518  0.4519  0.2616 -0.3877
 7770SOL    HW234773   0.083   1.458   6.375 -0.8474 -0.4948 -0.5468
 7771SOL     OW34774   4.494   4.466   7.172 -0.1642 -0.4166  0.2161
 7771SOL    HW134775   4.544   4.534   7.126 -1.4925  0.5475  0.1936
 7771SOL    HW234776   4.519   4.492   7.260 -0.6419  0.2225  0.1621
 7772SOL     OW34777   4.665   1.486  14.601 -0.0723 -0.1527 -0.2590
 7772SOL    HW134778   4.637   1.460  14.689  0.3490 -0.7627 -0.2972
 7772SOL    HW234779   4.665   1.581  14.602 -0.1606 -0.1305 -1.7956
 7773SOL     OW34780   1.217   2.826   1.875 -0.3650  0.0219 -0.1942
 7773SOL    HW134781   1.205   2.745   1.925  2.3097 -0.5908 -0.5555
 7773SOL    HW234782   1.247   2.796   1.789 -0.0295  0.4620 -0.2323
 7774SOL     OW34783   4.284   4.270   4.298  0.7745 -0.3752 -0.2252
 7774SOL    HW134784   4.340   4.345   4.280 -0.3305  0.5756  0.2970
 7774SOL    HW234785   4.355   4.206   4.297  0.5837 -0.5549 -3.4446
 7775SOL     OW34786   3.469   1.461   5.797 -0.5708  0.0064  0.1890
 7775SOL    HW134787   3.419   1.418   5.867  1.0121 -2.0917  0.0644
 7775SOL    HW234788   3.491   1.540   5.845  0.3885 -0.6094  0.7799
 7776SOL     OW34789   3.351   1.699   8.415  0.4841 -0.1781 -0.5143
 7776SOL    HW134790   3.341   1.790   8.385 -0.0242  0.7114  2.3782
 7776SOL    HW234791   3.382   1.703   8.505 -1.8739  1.4742  0.2360
 7777SOL     OW34792   1.898   0.051  11.830 -0.4410  0.0236  0.2035
 7777SOL    HW134793   1.982   0.021  11.795 -1.5004 -0.2536 -2.1173
 7777SOL    HW234794   1.885   0.135  11.787 -1.7134 -0.7414 -0.9220
 7778SOL     OW34795   0.057   3.043   2.803 -0.3134 -0.4744  0.0378
 7778SOL    HW134796   0.056   2.989   2.724 -1.1874 -0.3032 -0.0668
 7778SOL    HW234797   4.712   3.108   2.785 -2.6247 -3.2314 -1.2324
 7779SOL     OW34798   4.542   1.453   5.559 -0.0847  0.1313  0.1790
 7779SOL    HW134799   4.614   1.515   5.555  0.2961 -0.1988  1.8747
 7779SOL    HW234800   4.540   1.435   5.465  1.8875 -1.2493  0.4092
 7780SOL     OW34801   0.568   1.105  17.287 -0.6497  0.1499  0.3443
 7780SOL    HW134802   0.654   1.136  17.315 -0.3411 -0.9941  0.6480
 7780SOL    HW234803   0.531   1.091  17.375 -1.0796  1.1363  0.3232
 7781SOL     OW34804   3.176   2.302   8.218 -0.7002 -0.5116  0.0365
 7781SOL    HW134805   3.155   2.336   8.305  0.8849  0.8310 -0.1188
 7781SOL    HW234806   3.269   2.285   8.222 -0.4125  1.1444  0.5517
 7782SOL     OW34807   2.107   2.570   7.100 -0.2272  0.1756 -0.2786
 7782SOL    HW134808   2.143   2.655   7.127 -0.3675  0.6477 -1.6073
 7782SOL    HW234809   2.016   2.589   7.081 -0.6197  1.3960  2.8373
 7783SOL     OW34810   0.345   3.705  16.982  0.0351  0.3207 -0.4688
 7783SOL    HW134811   0.406   3.740  16.916  1.2271  1.5109  1.2611
 7783SOL    HW234812   0.372   3.613  16.980  0.3086  0.3844  0.1480
 7784SOL     OW34813   0.625   3.316   0.149 -0.3923  0.2180  0.7654
 7784SOL    HW134814   0.712   3.354   0.140 -0.6349  1.4469  3.8296
 7784SOL    HW234815   0.593   3.369   0.222  0.7793  0.4695  1.0936
 7785SOL     OW34816   3.803   2.594   4.550 -0.0416 -0.2749 -0.0911
 7785SOL    HW134817   3.849   2.664   4.596 -1.1277  0.5015 -0.1616
 7785SOL    HW234818   3.762   2.647   4.481  2.0644 -1.9910 -2.6215
 7786SOL     OW34819   3.487   3.142   4.663  0.2311 -0.2946 -0.1531
 7786SOL    HW134820   3.532   3.205   4.720 -1.2608  1.1610 -0.5954
 7786SOL    HW234821   3.409   3.135   4.718 -0.1937 -0.4199 -0.7814
 7787SOL     OW34822   2.633   3.310  14.417  0.6922  0.0574 -0.0566
 7787SOL    HW134823   2.728   3.305  14.412  0.5708 -0.8565 -1.3757
 7787SOL    HW234824   2.612   3.404  14.418  0.1986 -0.0322 -1.7641
 7788SOL     OW34825   1.615   0.083   0.172  0.0393  0.1560  0.1910
 7788SOL    HW134826   1.562   0.049   0.245 -0.7811  0.1748 -0.3858
 7788SOL    HW234827   1.564   0.159   0.144 -2.4923 -1.5413  0.1488
 7789SOL     OW34828   1.720   0.035  14.448  0.4360 -0.1992  0.4049
 7789SOL    HW134829   1.782   0.087  14.498 -0.1454 -1.3376  2.2833
 7789SOL    HW234830   1.710   4.677  14.498 -1.0797 -0.0395  0.3614
 7790SOL     OW34831   2.963   2.557   4.699  0.2372 -0.1710 -0.7939
 7790SOL    HW134832   3.038   2.530   4.752 -1.2644 -0.0707  1.4018
 7790SOL    HW234833   2.923   2.473   4.677 -1.6288  0.2618  0.8975
 7791SOL     OW34834   0.200   2.840   5.238  0.6265  0.4906  0.2715
 7791SOL    HW134835   0.246   2.808   5.316  0.4718  0.2868  0.2788
 7791SOL    HW234836   0.214   2.766   5.180  0.8765  0.0820  0.8494
 7792SOL     OW34837   3.293   1.290   2.310  0.0031  0.6232 -0.6709
 7792SOL    HW134838   3.284   1.215   2.368 -1.3839 -0.9330 -2.8747
 7792SOL    HW234839   3.254   1.257   2.228  1.8285  1.7960 -2.0136
 7793SOL     OW34840   1.659   1.772  11.261 -0.3706  0.1851 -0.4287
 7793SOL    HW134841   1.732   1.768  11.199 -0.2765 -1.6857 -0.1732
 7793SOL    HW234842   1.630   1.684  11.238  0.3164  0.0154 -0.6325
 7794SOL     OW34843   0.087   0.650   2.028  0.1401  0.1888 -0.5093
 7794SOL    HW134844   4.722   0.673   1.999  0.6831  1.4489 -1.1663
 7794SOL    HW234845   0.133   0.608   1.955 -0.3161  0.1120 -0.7547
 7795SOL     OW34846   0.603   4.061   3.100  0.2060  0.3413 -0.3279
 7795SOL    HW134847   0.562   3.974   3.108  1.1900 -0.1476 -0.5705
 7795SOL    HW234848   0.641   4.052   3.013  0.5129  1.1411 -0.2707
 7796SOL     OW34849   3.527   1.230  10.188  0.0602 -0.3217 -0.3911
 7796SOL    HW134850   3.501   1.211  10.098 -2.4245  1.4294 -0.0280
 7796SOL    HW234851   3.475   1.309  10.201  0.5186  0.0825 -1.0250
 7797SOL     OW34852   3.318   3.801   0.279 -0.1232 -0.1413  0.3367
 7797SOL    HW134853   3.289   3.726   0.228  0.8037 -0.9806  1.0518
 7797SOL    HW234854   3.241   3.858   0.286  1.2844  1.7432  0.5935
 7798SOL     OW34855   3.036   3.993  11.872 -0.0250  0.1169 -0.0647
 7798SOL    HW134856   3.106   3.952  11.922  0.6152  2.9809  1.3990
 7798SOL    HW234857   2.971   4.008  11.940 -1.3920 -2.8945 -0.6836
 7799SOL     OW34858   4.183   3.275   1.620  0.3964  0.2011  0.3824
 7799SOL    HW134859   4.142   3.200   1.577 -1.1278  1.2098  0.0306
 7799SOL    HW234860   4.271   3.248   1.644  0.3721 -0.5531 -0.3991
 7800SOL     OW34861   2.354   2.203   9.002 -0.0996 -0.4125 -0.6960
 7800SOL    HW134862   2.350   2.248   9.086  1.2153  0.4123 -1.0721
 7800SOL    HW234863   2.422   2.143   9.033  0.9228  0.2629 -1.6276
 7801SOL     OW34864   2.293   0.022   4.780 -0.1394  0.5522  0.0593
 7801SOL    HW134865   2.261   4.719   4.694 -1.3326 -0.8045  0.9207
 7801SOL    HW234866   2.387   0.005   4.773 -0.5769 -1.9067  0.3791
 7802SOL     OW34867   4.444   3.085   7.530 -0.1009 -0.3752 -0.8700
 7802SOL    HW134868   4.390   3.143   7.476  3.2683  3.2518 -0.3687
 7802SOL    HW234869   4.532   3.119   7.510  0.3468 -1.5797 -0.9743
 7803SOL     OW34870   1.980   0.989  13.633 -0.3085  0.3871  0.2932
 7803SOL    HW134871   2.045   1.031  13.690  0.5719  0.4339 -0.7338
 7803SOL    HW234872   2.008   1.021  13.548 -1.2721  1.1458  0.2777
 7804SOL     OW34873   0.776   2.263   5.366 -0.7351  0.5271  0.3755
 7804SOL    HW134874   0.700   2.245   5.310  0.3165 -3.6142  0.2344
 7804SOL    HW234875   0.750   2.219   5.448 -1.6769 -1.9552 -1.2490
 7805SOL     OW34876   1.214   0.580   5.117  0.3170  0.2070 -0.6055
 7805SOL    HW134877   1.241   0.560   5.206 -1.4802 -1.5622 -0.4468
 7805SOL    HW234878   1.198   0.675   5.119  0.5034  0.2332 -0.4141
 7806SOL     OW34879   4.290   0.863   4.785  0.2915  0.0666  0.1439
 7806SOL    HW134880   4.354   0.893   4.850  0.1325  4.7103 -1.8295
 7806SOL    HW234881   4.210   0.884   4.834  0.7938 -0.2425  1.0928
 7807SOL     OW34882   0.369   1.707   2.705  0.3166  0.0327  0.2991
 7807SOL    HW134883   0.284   1.752   2.706  0.6576  0.6451  1.3028
 7807SOL    HW234884   0.363   1.665   2.619 -0.8457  0.9670 -0.0839
 7808SOL     OW34885   2.123   1.823   6.125 -0.2510  0.2640  0.0239
 7808SOL    HW134886   2.113   1.887   6.195 -0.5467  0.5845 -0.3118
 7808SOL    HW234887   2.038   1.828   6.080 -1.1244 -0.9942  1.5526
 7809SOL     OW34888   2.543   3.062   8.447  0.1415 -0.8966 -0.1301
 7809SOL    HW134889   2.620   3.037   8.396  0.2335 -1.9256  0.5058
 7809SOL    HW234890   2.531   2.979   8.494  0.9547 -0.7627  0.3275
 7810SOL     OW34891   0.101   1.875   4.291 -0.3548  0.0707  0.2020
 7810SOL    HW134892   0.132   1.851   4.204  0.2182 -0.2627  0.4998
 7810SOL    HW234893   0.181   1.908   4.330 -0.4134 -2.2716  2.3450
 7811SOL     OW34894   4.721   3.795   7.567 -0.3352 -0.1887 -0.3218
 7811SOL    HW134895   4.716   3.890   7.578 -2.9435 -0.3683  0.0508
 7811SOL    HW234896   4.682   3.770   7.651  0.7529 -2.5553 -0.5319
 7812SOL     OW34897   1.496   0.049   7.634  0.5168  0.2710 -0.0526
 7812SOL    HW134898   1.577   0.029   7.683  0.7814 -0.0215 -0.6052
 7812SOL    HW234899   1.531   0.018   7.550 -1.2960  2.5417 -1.6266
 7813SOL     OW34900   1.767   3.019   5.321 -0.2882  0.6118  0.5241
 7813SOL    HW134901   1.732   2.977   5.241 -1.3584  0.7001  0.9406
 7813SOL    HW234902   1.836   3.067   5.276  1.5177 -0.1630  2.4774
 7814SOL     OW34903   2.530   2.428   6.558  0.2205  0.4511 -0.6777
 7814SOL    HW134904   2.459   2.460   6.501 -1.1871  1.0914  1.4294
 7814SOL    HW234905   2.520   2.478   6.639  2.8130 -1.4543  0.7959
 7815SOL     OW34906   2.085   0.152   7.245  0.3224  0.2151 -0.2609
 7815SOL    HW134907   2.068   0.239   7.208 -3.5779 -1.4256 -2.3044
 7815SOL    HW234908   2.096   0.183   7.335 -2.5196  1.8568 -0.4705
 7816SOL     OW34909   1.122   0.113   6.472 -0.3945  0.4634  0.3416
 7816SOL    HW134910   1.109   0.129   6.378  3.1478 -1.1900 -0.4464
 7816SOL    HW234911   1.172   0.032   6.465 -0.0816  0.6855  0.0103
 7817SOL     OW34912   1.240   0.693   1.539 -0.9858 -0.3917  0.3150
 7817SOL    HW134913   1.255   0.787   1.550  3.6338 -0.7817 -2.7682
 7817SOL    HW234914   1.217   0.704   1.447  1.6046  0.1093 -0.2799
 7818SOL     OW34915   3.449   1.300   7.926  0.0116 -0.2351  0.2670
 7818SOL    HW134916   3.381   1.302   7.859 -0.0035 -0.9002  0.2685
 7818SOL    HW234917   3.394   1.312   8.004 -0.6527  0.5954 -0.3195
 7819SOL     OW34918   4.323   1.266   1.119  0.5840  0.0665  0.1469
 7819SOL    HW134919   4.376   1.304   1.049 -0.1869  2.8644  1.0625
 7819SOL    HW234920   4.334   1.332   1.187 -1.3589  0.2827  0.2369
 7820SOL     OW34921   1.273   3.218   3.555  0.7017  0.1540  0.3923
 7820SOL    HW134922   1.292   3.251   3.467  0.6204  0.2839  0.4245
 7820SOL    HW234923   1.178   3.207   3.547  0.6579  1.2567 -0.7275
 7821SOL     OW34924   4.587   2.395   3.173 -0.3203  0.0246  0.3336
 7821SOL    HW134925   4.610   2.451   3.098 -1.2052  0.5258  0.4274
 7821SOL    HW234926   4.642   2.423   3.246 -0.8451  1.3724  0.2196
 7822SOL     OW34927   0.401   2.617  15.865 -0.8609 -0.4811  0.4704
 7822SOL    HW134928   0.390   2.630  15.770  2.8181 -0.4169  0.0470
 7822SOL    HW234929   0.369   2.528  15.877 -1.1034 -0.2522  1.4808
 7823SOL     OW34930   1.687   2.391  11.344  0.0344 -0.6461 -0.0642
 7823SOL    HW134931   1.750   2.349  11.403  1.8892  1.2004 -0.7138
 7823SOL    HW234932   1.720   2.367  11.257 -1.0723 -0.4188 -0.5443
 7824SOL     OW34933   4.305   0.276  12.410  0.7199 -0.3580 -0.7759
 7824SOL    HW134934   4.364   0.310  12.343  1.9379 -1.2493 -0.1555
 7824SOL    HW234935   4.337   0.310  12.493  1.0045 -0.4015 -0.8690
 7825SOL     OW34936   1.465   2.233  10.048 -0.4320 -0.2827  0.0880
 7825SOL    HW134937   1.472   2.152   9.998  0.1386  0.9969 -1.8847
 7825SOL    HW234938   1.371   2.252  10.046 -1.1025 -3.3144  1.5755
 7826SOL     OW34939   3.118   3.995   7.898 -0.2332 -0.4071  0.1024
 7826SOL    HW134940   3.187   3.938   7.933 -1.0979 -2.6395 -1.7996
 7826SOL    HW234941   3.037   3.947   7.920 -0.3573 -0.2883 -0.0971
 7827SOL     OW34942   1.981   2.973  17.283  0.3496  0.0942  0.2825
 7827SOL    HW134943   1.993   2.920  17.204  1.3045  0.7358 -0.0057
 7827SOL    HW234944   2.040   3.044  17.257  0.4717 -0.4395 -0.8981
 7828SOL     OW34945   0.048   2.959   7.694 -0.5425  0.0882  0.7888
 7828SOL    HW134946   0.080   3.009   7.618 -0.0564 -1.3811  0.0383
 7828SOL    HW234947   0.016   3.025   7.755  0.4186 -0.4473  1.8564
 7829SOL     OW34948   2.833   2.115   2.721  0.5762  0.2515  0.8817
 7829SOL    HW134949   2.761   2.179   2.723 -0.1275 -0.4442 -3.6771
 7829SOL    HW234950   2.845   2.100   2.815 -1.2502  0.8295  1.2151
 7830SOL     OW34951   0.968   3.795   8.380 -0.7409 -0.4107 -0.3344
 7830SOL    HW134952   0.913   3.813   8.304 -0.8082  0.0441 -0.1802
 7830SOL    HW234953   1.038   3.860   8.370 -0.3379 -0.9087 -0.7800
 7831SOL     OW34954   4.339   3.347   3.712  0.0642 -0.1511 -0.5495
 7831SOL    HW134955   4.317   3.428   3.666 -2.3124 -1.1920 -1.2050
 7831SOL    HW234956   4.435   3.351   3.711 -0.0047  0.7143 -2.9919
 7832SOL     OW34957   4.362   3.953  13.716  0.6702 -0.2474 -0.0725
 7832SOL    HW134958   4.282   3.943  13.664 -0.8829 -0.5712  2.4278
 7832SOL    HW234959   4.373   3.873  13.766  0.2025 -1.1347 -1.3843
 7833SOL     OW34960   2.022   3.935   5.344 -0.1978  0.5574 -0.1337
 7833SOL    HW134961   2.012   3.849   5.303  1.5400  0.1239  0.3607
 7833SOL    HW234962   2.083   3.910   5.413 -0.3735 -2.8278 -1.1958
 7834SOL     OW34963   0.368   1.518   5.732 -0.1126  0.1492  0.1338
 7834SOL    HW134964   0.447   1.511   5.679 -0.5216 -2.1510 -0.1591
 7834SOL    HW234965   0.326   1.598   5.701  1.9457  0.3896 -2.0573
 7835SOL     OW34966   0.094   4.198   6.353  0.0560  0.3759  0.0429
 7835SOL    HW134967   0.059   4.137   6.288  0.0283  1.0071 -0.5327
 7835SOL    HW234968   0.036   4.270   6.330 -0.1092  1.5050  3.8836
 7836SOL     OW34969   0.737   0.569   9.519 -0.2147 -0.2362 -0.1249
 7836SOL    HW134970   0.714   0.509   9.448  4.5708 -1.6420 -0.5295
 7836SOL    HW234971   0.828   0.553   9.545 -0.6322 -1.0003  0.8522
 7837SOL     OW34972   1.536   2.732  17.497 -0.1727 -0.0082  0.3973
 7837SOL    HW134973   1.608   2.794  17.506 -0.5737  0.5508 -0.3230
 7837SOL    HW234974   1.474   2.743  17.569 -1.0285 -0.7826 -0.2156
 7838SOL     OW34975   4.619   3.465   7.427 -0.3439  0.6448  0.0570
 7838SOL    HW134976   4.620   3.407   7.350  1.6078 -0.0178  0.5817
 7838SOL    HW234977   4.708   3.453   7.458  0.8625  1.8713 -2.9229
 7839SOL     OW34978   1.329   3.636   0.076 -0.0025  0.4262  0.0367
 7839SOL    HW134979   1.313   3.645  17.676  1.0839  3.5539  0.1521
 7839SOL    HW234980   1.280   3.555   0.086  0.6788 -0.1737 -1.6684
 7840SOL     OW34981   0.717   0.998   2.667  0.3499 -0.5966  0.3454
 7840SOL    HW134982   0.796   0.992   2.614  2.0614  0.3200  2.7743
 7840SOL    HW234983   0.766   0.990   2.749 -0.7368 -1.6442  0.8852
 7841SOL     OW34984   1.068   4.564  14.076 -0.2521 -0.4026  0.9929
 7841SOL    HW134985   0.996   4.504  14.095 -1.9294  1.0473 -0.7131
 7841SOL    HW234986   1.018   4.644  14.058 -0.2702 -0.7249 -0.4162
 7842SOL     OW34987   3.532   1.183   4.297 -0.3302 -0.7258  0.2650
 7842SOL    HW134988   3.574   1.253   4.346 -2.1965  1.2543 -0.9577
 7842SOL    HW234989   3.438   1.199   4.311 -0.0825 -0.0897  1.1833
 7843SOL     OW34990   1.345   3.039   6.902  0.1552 -0.1143 -0.1418
 7843SOL    HW134991   1.415   3.090   6.942 -0.4341 -0.0472  0.8004
 7843SOL    HW234992   1.387   3.002   6.825  0.8209  2.5464 -1.0638
 7844SOL     OW34993   2.322   2.494   6.371 -0.0523 -0.1743  0.0971
 7844SOL    HW134994   2.370   2.577   6.369 -0.3864  0.0070 -0.7608
 7844SOL    HW234995   2.315   2.477   6.277  0.3385 -0.9950  0.2250
 7845SOL     OW34996   3.468   1.158   5.111 -0.2738 -0.0888 -0.3196
 7845SOL    HW134997   3.562   1.152   5.096 -0.1413  1.5470 -0.1377
 7845SOL    HW234998   3.432   1.142   5.024 -2.4062 -1.0505  0.7259
 7846SOL     OW34999   3.749   0.409   7.520 -0.4867  0.2558 -0.0220
 7846SOL    HW135000   3.723   0.373   7.435  1.3883  2.0755 -1.3594
 7846SOL    HW235001   3.727   0.498   7.494 -0.9339  1.2598  3.8416
 7847SOL     OW35002   0.642   1.098   1.365  0.2935 -0.0798  0.3979
 7847SOL    HW135003   0.715   1.132   1.417 -0.3376  0.5948  0.8500
 7847SOL    HW235004   0.671   1.115   1.275  0.9131 -1.0202  0.4236
 7848SOL     OW35005   2.492   1.920  14.625  0.2161 -0.5069  0.6339
 7848SOL    HW135006   2.430   1.992  14.611  0.5981 -0.1725  0.6588
 7848SOL    HW235007   2.459   1.884  14.708 -0.2536  0.5306  0.8977
 7849SOL     OW35008   3.901   2.928   4.245  0.0992  0.3670 -0.0404
 7849SOL    HW135009   3.974   2.906   4.304  0.9405  0.5640 -1.0116
 7849SOL    HW235010   3.836   2.860   4.260  0.2830  0.4298  1.0734
 7850SOL     OW35011   1.793   4.582  10.283  0.7254 -0.5787  0.7616
 7850SOL    HW135012   1.839   4.572  10.366  1.1986  1.1094  0.7161
 7850SOL    HW235013   1.835   4.657  10.239 -2.0940 -0.7592 -2.2959
 7851SOL     OW35014   0.100   1.720   2.787 -0.2518 -0.3152  0.7738
 7851SOL    HW135015   0.076   1.680   2.703 -0.5400 -2.1740  1.7430
 7851SOL    HW235016   0.016   1.725   2.833 -0.2175  0.3802  0.7538
 7852SOL     OW35017   0.103   3.667   9.912  0.4215 -0.3847  0.1441
 7852SOL    HW135018   0.184   3.627   9.879  0.7696  0.7447 -0.3894
 7852SOL    HW235019   0.067   3.602   9.972 -0.5821 -0.0685 -0.1178
 7853SOL     OW35020   0.776   1.760  14.788  0.1640 -0.0876 -0.1209
 7853SOL    HW135021   0.798   1.755  14.695 -1.0198 -0.4062 -0.3868
 7853SOL    HW235022   0.853   1.787  14.837 -1.5467 -0.1638  2.6072
 7854SOL     OW35023   3.183   3.550   2.262 -0.1267 -0.1938  0.0123
 7854SOL    HW135024   3.161   3.643   2.268 -0.8684 -0.1657 -3.1773
 7854SOL    HW235025   3.161   3.530   2.171  0.3553 -0.0588 -0.1371
 7855SOL     OW35026   3.545   1.759   1.910  0.0065  0.1056  0.8296
 7855SOL    HW135027   3.595   1.833   1.875 -0.0366  0.3322  1.2547
 7855SOL    HW235028   3.461   1.801   1.930 -1.3633 -2.3235  0.1703
 7856SOL     OW35029   3.179   4.551   2.699 -0.3109  0.1025  0.0557
 7856SOL    HW135030   3.186   4.515   2.611 -2.2725  0.2316 -0.1449
 7856SOL    HW235031   3.230   4.631   2.682 -0.5844  0.2595 -0.0393
 7857SOL     OW35032   3.221   2.367   9.875 -0.5116 -0.4261  0.8662
 7857SOL    HW135033   3.262   2.311   9.941  0.5361  0.1583  0.7120
 7857SOL    HW235034   3.265   2.449   9.897  0.1512 -0.4798 -0.2150
 7858SOL     OW35035   3.118   0.891  17.554  0.2882  0.2833  0.2994
 7858SOL    HW135036   3.137   0.822  17.617 -1.8123 -0.3455  0.2379
 7858SOL    HW235037   3.089   0.844  17.476  2.5453 -1.8542  0.7723
 7859SOL     OW35038   3.610   1.959   7.242 -0.2237  0.1223 -0.3085
 7859SOL    HW135039   3.593   2.052   7.255 -1.0723  0.1185 -1.3419
 7859SOL    HW235040   3.705   1.958   7.232 -0.1057  0.1848  0.8291
 7860SOL     OW35041   2.357   2.203  11.252  1.0524  0.3605  0.3053
 7860SOL    HW135042   2.271   2.216  11.212  0.8364  0.5984  0.8582
 7860SOL    HW235043   2.407   2.222  11.172  0.2463  2.6392  0.3438
 7861SOL     OW35044   4.697   0.460   8.251  1.0513 -0.2159 -0.1096
 7861SOL    HW135045   4.629   0.504   8.200  0.0039 -0.9775  0.6277
 7861SOL    HW235046   0.055   0.456   8.200  1.0301  1.8490 -0.3195
 7862SOL     OW35047   0.202   2.630   3.910 -0.4375 -0.1372  0.9028
 7862SOL    HW135048   0.164   2.634   3.997 -0.7960  2.0549  0.6524
 7862SOL    HW235049   0.146   2.567   3.863 -1.8369  1.9240 -0.2398
 7863SOL     OW35050   3.295   3.564   0.149 -0.2252 -0.2307  0.1907
 7863SOL    HW135051   3.340   3.479   0.148  1.6229  0.7755 -0.9910
 7863SOL    HW235052   3.344   3.605   0.078  0.6696 -0.7716  0.4912
 7864SOL     OW35053   4.598   1.366   5.215  0.3755 -0.2490 -0.0569
 7864SOL    HW135054   4.566   1.285   5.255  1.4811 -0.4724  0.3840
 7864SOL    HW235055   4.625   1.328   5.131  1.0722 -1.4050  0.6919
 7865SOL     OW35056   0.256   2.192   3.185  0.3266  0.8180  0.5074
 7865SOL    HW135057   0.303   2.180   3.268 -1.4483 -2.7222  0.9773
 7865SOL    HW235058   0.319   2.191   3.113 -0.2199  1.0949  0.0233
 7866SOL     OW35059   4.046   3.725   1.921  0.3052 -0.2204  0.5850
 7866SOL    HW135060   4.126   3.720   1.974  1.3284 -0.3411 -0.9712
 7866SOL    HW235061   4.038   3.633   1.894 -1.8240  0.6577 -1.7407
 7867SOL     OW35062   1.895   0.200   0.260  0.5044  0.4161  0.4417
 7867SOL    HW135063   1.839   0.127   0.237 -0.3719  0.4753  2.4026
 7867SOL    HW235064   1.916   0.226   0.170  3.4162  2.1310  1.5706
 7868SOL     OW35065   1.503   2.822   6.453  0.1453 -0.2399  0.4626
 7868SOL    HW135066   1.579   2.800   6.400  0.5959  0.2727  0.8892
 7868SOL    HW235067   1.509   2.917   6.439 -0.0828 -0.4540 -1.0657
 7869SOL     OW35068   3.704   4.185   7.768  0.0395  0.0262 -0.2363
 7869SOL    HW135069   3.661   4.126   7.706 -0.1856 -1.2854  1.1815
 7869SOL    HW235070   3.656   4.158   7.846  0.7019 -0.1567  0.1051
 7870SOL     OW35071   0.238   4.232  12.371  0.5849 -0.3475 -0.0924
 7870SOL    HW135072   0.288   4.232  12.290  2.9643 -0.0901  1.3674
 7870SOL    HW235073   0.283   4.161  12.417 -0.9776 -1.6566 -0.6282
 7871SOL     OW35074   2.870   1.016   3.739  0.3830 -0.0370  0.4637
 7871SOL    HW135075   2.817   1.090   3.767  1.0280 -0.7749  3.6542
 7871SOL    HW235076   2.866   1.031   3.645  0.4943 -1.6954  0.2012
 7872SOL     OW35077   3.172   1.399   3.847  0.5768 -0.0411  0.1269
 7872SOL    HW135078   3.136   1.386   3.934  0.7489 -0.0558  0.1954
 7872SOL    HW235079   3.156   1.309   3.818  0.7912 -0.1504  0.3542
 7873SOL     OW35080   2.033   0.386   8.217  0.0550 -0.1697 -0.3256
 7873SOL    HW135081   2.106   0.339   8.256 -0.4824 -1.0055 -0.3109
 7873SOL    HW235082   2.062   0.477   8.207 -0.8766  0.1207 -0.4232
 7874SOL     OW35083   1.999   2.329   2.158 -0.1298  0.0854 -0.2190
 7874SOL    HW135084   1.997   2.273   2.081 -4.4667 -0.4476  0.2627
 7874SOL    HW235085   1.929   2.388   2.128  0.0227  0.2329 -0.2836
 7875SOL     OW35086   4.649   1.343   0.743 -0.1280  0.8959  0.2180
 7875SOL    HW135087   4.579   1.292   0.783  0.5896 -1.6365 -1.7483
 7875SOL    HW235088   4.630   1.322   0.651  0.1983  0.7827  0.1742
 7876SOL     OW35089   1.720   3.440  12.450 -0.3343  0.1646  0.3346
 7876SOL    HW135090   1.740   3.533  12.466  1.6476 -0.2353  0.1973
 7876SOL    HW235091   1.779   3.414  12.380  0.0407  0.2941  0.6046
 7877SOL     OW35092   3.991   4.350   5.229  0.1586 -0.7568  0.3007
 7877SOL    HW135093   3.955   4.320   5.145  1.1295  1.8133 -1.0015
 7877SOL    HW235094   4.035   4.433   5.216  0.5040 -0.7448  1.5427
 7878SOL     OW35095   3.908   0.129   0.864  0.2663  0.6440  0.3119
 7878SOL    HW135096   3.820   0.162   0.844  0.8179 -0.0965 -3.4398
 7878SOL    HW235097   3.956   0.212   0.861  1.1300  0.1418  0.4681
 7879SOL     OW35098   0.017   2.356   7.448 -0.7116  0.7158  0.0879
 7879SOL    HW135099   4.685   2.404   7.510 -0.5957 -0.5847  1.2055
 7879SOL    HW235100   4.688   2.362   7.368 -1.8585  0.6745  0.8323
 7880SOL     OW35101   3.223   3.390   5.817 -0.7412 -0.5495 -0.2127
 7880SOL    HW135102   3.219   3.421   5.908 -0.1531 -0.3826 -0.2399
 7880SOL    HW235103   3.272   3.460   5.774 -0.9302 -0.5493 -0.4245
 7881SOL     OW35104   3.998   3.781   3.184  0.1232 -0.0775  0.0166
 7881SOL    HW135105   4.004   3.709   3.122  1.3390 -0.5312  0.6886
 7881SOL    HW235106   3.915   3.825   3.161  1.0143  1.6284  0.0565
 7882SOL     OW35107   2.960   1.571   8.261  0.1438 -1.0992 -0.6558
 7882SOL    HW135108   2.967   1.667   8.257 -2.4336 -0.8913 -0.4237
 7882SOL    HW235109   3.041   1.546   8.305 -1.1618 -2.2334  1.0809
 7883SOL     OW35110   1.090   0.973   8.274 -0.4387 -0.2034 -0.4368
 7883SOL    HW135111   1.047   0.941   8.195 -0.6089 -1.4093  0.1499
 7883SOL    HW235112   1.106   0.894   8.326  0.0135  0.4127  0.3614
 7884SOL     OW35113   0.892   3.877   7.439 -0.7345  0.5027 -0.1932
 7884SOL    HW135114   0.928   3.919   7.517  2.2775 -0.8956 -0.8384
 7884SOL    HW235115   0.962   3.883   7.374  0.0574 -1.8301  0.4387
 7885SOL     OW35116   0.294   0.387   2.723 -0.4763  0.6203  0.2084
 7885SOL    HW135117   0.324   0.412   2.810  0.5261 -0.5218  0.1918
 7885SOL    HW235118   0.207   0.427   2.718 -0.8351 -0.2345 -0.3171
 7886SOL     OW35119   1.627   3.448   6.998  0.5096  0.3103  0.3436
 7886SOL    HW135120   1.689   3.378   6.977  1.5339  0.6211  2.3380
 7886SOL    HW235121   1.561   3.392   7.039  0.2842 -0.2807 -0.8326
 7887SOL     OW35122   2.025   3.126  14.659  0.2430 -0.0304  0.5270
 7887SOL    HW135123   2.012   3.188  14.730  1.8647  2.5353 -1.4059
 7887SOL    HW235124   2.120   3.115  14.663  0.5014  0.7142 -3.0850
 7888SOL     OW35125   1.944   3.532   1.065  0.1438  0.1946 -0.0305
 7888SOL    HW135126   1.916   3.446   1.096  0.7080 -0.0511 -0.1971
 7888SOL    HW235127   1.895   3.590   1.123 -1.8975 -1.4825 -0.0934
 7889SOL     OW35128   2.484   3.790   9.584 -0.0525  0.0790  0.2833
 7889SOL    HW135129   2.493   3.734   9.507 -0.2855  2.0606 -1.1831
 7889SOL    HW235130   2.415   3.849   9.555  0.3542  1.0290  1.2412
 7890SOL     OW35131   2.929   1.514   2.131  0.2669  0.0667 -0.2290
 7890SOL    HW135132   3.019   1.535   2.156 -0.3903  1.6716  0.8050
 7890SOL    HW235133   2.883   1.570   2.194  1.0761  2.0623 -1.4052
 7891SOL     OW35134   0.556   1.720  12.321 -0.0701  0.1046  0.1714
 7891SOL    HW135135   0.485   1.779  12.348 -0.1397 -0.6949  1.7146
 7891SOL    HW235136   0.504   1.678  12.253 -0.8614  2.6209 -0.7708
 7892SOL     OW35137   2.527   1.599   2.786  0.2938 -0.1772 -0.2076
 7892SOL    HW135138   2.439   1.574   2.814  0.6256 -2.2426 -1.0407
 7892SOL    HW235139   2.559   1.639   2.867 -0.4950  1.1173 -0.5328
 7893SOL     OW35140   3.499   4.147   7.964  0.1085  0.3289 -0.6127
 7893SOL    HW135141   3.457   4.177   8.044  2.1011  0.3924  0.4085
 7893SOL    HW235142   3.470   4.056   7.965 -0.8607  0.6352 -1.4484
 7894SOL     OW35143   4.331   2.876   5.474  0.0544 -0.5263  0.1942
 7894SOL    HW135144   4.281   2.958   5.473 -0.6435 -0.9580 -0.4598
 7894SOL    HW235145   4.414   2.913   5.505 -0.4043 -0.6894  1.5940
 7895SOL     OW35146   4.366   2.491   5.033  0.4539 -0.1874  0.1912
 7895SOL    HW135147   4.286   2.441   5.020  0.1231  1.1432 -2.8658
 7895SOL    HW235148   4.361   2.507   5.127  1.3744  0.4726  0.1296
 7896SOL     OW35149   2.048   2.357   1.329 -0.2517  0.1642 -0.2363
 7896SOL    HW135150   1.981   2.414   1.368  0.3490 -1.4110  3.0449
 7896SOL    HW235151   2.035   2.278   1.381  0.6133  0.0554 -0.1866
 7897SOL     OW35152   3.140   3.282   7.389  0.0091  0.1076 -0.0902
 7897SOL    HW135153   3.055   3.282   7.344  1.6531 -1.4135 -3.1975
 7897SOL    HW235154   3.106   3.257   7.475 -1.6767 -0.9374 -1.0697
 7898SOL     OW35155   0.967   0.840   1.645  0.3446  0.1486 -0.2376
 7898SOL    HW135156   1.056   0.868   1.625  0.6508  1.9833  3.6649
 7898SOL    HW235157   0.934   0.834   1.555  0.1346 -0.9096 -0.0991
 7899SOL     OW35158   2.043   0.893   8.060  0.4691 -0.2855 -0.9179
 7899SOL    HW135159   2.072   0.854   7.977 -3.1288 -0.7282 -1.9553
 7899SOL    HW235160   1.950   0.871   8.059  0.0182  1.5170  1.6192
 7900SOL     OW35161   2.529   1.516  10.795  0.0280 -0.0248  0.0019
 7900SOL    HW135162   2.463   1.457  10.758  0.0375 -1.3034  2.0033
 7900SOL    HW235163   2.590   1.442  10.784  0.3421  0.3002 -0.4419
 7901SOL     OW35164   0.060   0.791   7.038  0.6669  0.2726 -0.1290
 7901SOL    HW135165   0.002   0.818   7.109  0.9865  0.8135 -0.0813
 7901SOL    HW235166   4.719   0.731   6.998  0.4530  0.5277 -0.1726
 7902SOL     OW35167   2.936   2.808   2.029  0.5478 -0.3025 -0.7457
 7902SOL    HW135168   2.843   2.818   2.045  0.5238 -1.1626 -0.3281
 7902SOL    HW235169   2.935   2.815   1.934  2.2025 -0.9031 -0.8213
 7903SOL     OW35170   2.254   1.385   6.701 -0.7367  0.0495  0.2595
 7903SOL    HW135171   2.199   1.463   6.708 -1.3072 -0.0212 -3.4123
 7903SOL    HW235172   2.243   1.347   6.788 -0.4569 -0.2494  0.1624
 7904SOL     OW35173   3.894   0.967  14.523  0.0636  0.2369  0.2729
 7904SOL    HW135174   3.818   0.940  14.472  0.6783 -0.3020 -0.3519
 7904SOL    HW235175   3.934   0.884  14.548 -1.1550 -1.3063 -2.9155
 7905SOL     OW35176   4.158   2.658   1.691 -0.5111  0.4310 -0.0161
 7905SOL    HW135177   4.076   2.608   1.701  0.8304 -1.4504  1.4878
 7905SOL    HW235178   4.153   2.698   1.778  2.5202 -0.3635  0.5137
 7906SOL     OW35179   0.025   0.894   9.032 -0.1292 -0.3966  0.1848
 7906SOL    HW135180   0.004   0.954   9.103  1.4124  1.3697 -0.8312
 7906SOL    HW235181   0.112   0.866   9.061  0.2520  0.0083 -0.5625
 7907SOL     OW35182   2.236   0.344   2.625 -0.0546  0.4701  0.1438
 7907SOL    HW135183   2.197   0.378   2.545  0.7564  2.0310  0.4125
 7907SOL    HW235184   2.296   0.274   2.597 -0.3400 -0.3156  1.4947
 7908SOL     OW35185   3.318   4.572   4.959 -0.3163 -0.3343  1.0931
 7908SOL    HW135186   3.227   4.589   4.985 -0.5504  0.5834 -0.3061
 7908SOL    HW235187   3.345   4.529   5.040  0.2780 -0.3864  0.8632
 7909SOL     OW35188   3.755   4.144   3.194  0.3483 -0.4299  0.0935
 7909SOL    HW135189   3.746   4.229   3.149 -0.3843  0.2101  1.4506
 7909SOL    HW235190   3.770   4.165   3.286  1.2224  0.4720 -0.2486
 7910SOL     OW35191   3.833   1.499  13.800  0.0088  0.3521 -0.0849
 7910SOL    HW135192   3.929   1.504  13.795 -0.0035  0.6750 -0.0126
 7910SOL    HW235193   3.821   1.407  13.823 -0.1716  0.6339  0.9718
 7911SOL     OW35194   2.179   3.014   6.987  0.1242 -0.1452  0.0308
 7911SOL    HW135195   2.212   2.989   6.901  0.2200  1.9711 -0.5631
 7911SOL    HW235196   2.135   3.097   6.966  0.4502  0.4764  1.7538
 7912SOL     OW35197   3.134   2.750  14.562 -0.0510  0.5885 -0.3795
 7912SOL    HW135198   3.137   2.744  14.467  0.9473  2.1062 -0.4438
 7912SOL    HW235199   3.057   2.695  14.572 -0.1613  0.5478 -1.4462
 7913SOL     OW35200   0.348   3.946   1.022  0.0272 -0.0662 -0.4045
 7913SOL    HW135201   0.402   4.024   1.037  1.6722 -0.8900 -2.0779
 7913SOL    HW235202   0.258   3.978   1.024 -0.7639 -2.3016 -0.9053
 7914SOL     OW35203   4.139   3.834  15.101 -0.1138 -0.1668 -0.4745
 7914SOL    HW135204   4.053   3.793  15.091  0.1868 -1.3679  1.7044
 7914SOL    HW235205   4.189   3.764  15.143 -0.9631  0.4399  1.5878
 7915SOL     OW35206   3.805   3.709   0.368  0.2507  0.3822 -0.1919
 7915SOL    HW135207   3.789   3.797   0.401  0.0203  0.1788  0.2486
 7915SOL    HW235208   3.759   3.651   0.429  0.2742 -0.1736 -0.7029
 7916SOL     OW35209   1.604   2.747   3.267  0.1594 -0.0155 -0.2432
 7916SOL    HW135210   1.642   2.681   3.325 -1.1348 -0.6256 -0.0847
 7916SOL    HW235211   1.586   2.699   3.186 -0.6564 -2.0873  1.1505
 7917SOL     OW35212   0.946   4.383   8.357 -0.2873  0.0967  0.0608
 7917SOL    HW135213   0.924   4.461   8.408  0.9834  1.0638 -0.8923
 7917SOL    HW235214   0.894   4.309   8.389  0.1474  0.4970  1.6983
 7918SOL     OW35215   2.138   4.650   5.872 -0.2996 -0.0414 -0.3695
 7918SOL    HW135216   2.082   4.573   5.869  1.6918 -1.3671 -2.7642
 7918SOL    HW235217   2.084   4.696   5.937  1.5088 -0.2781  1.3105
 7919SOL     OW35218   3.336   2.713   9.048  0.3555  0.0276  0.0082
 7919SOL    HW135219   3.294   2.799   9.051 -0.6260 -0.4932  1.6403
 7919SOL    HW235220   3.428   2.730   9.065  0.1011  1.2446  0.2049
 7920SOL     OW35221   1.709   0.002   7.791  0.6132  0.4627  0.2288
 7920SOL    HW135222   1.786   4.671   7.810 -0.3596 -0.8399  0.4817
 7920SOL    HW235223   1.749   0.088   7.801 -0.5532  0.9733  0.4179
 7921SOL     OW35224   3.711   3.060   3.797 -0.4793 -0.2963 -0.5036
 7921SOL    HW135225   3.662   3.079   3.877  1.1122 -0.5797  0.5368
 7921SOL    HW235226   3.798   3.096   3.814 -0.5863  0.0386 -0.6695
 7922SOL     OW35227   3.224   2.969   1.204 -0.2977  0.4476 -0.4982
 7922SOL    HW135228   3.172   3.036   1.161  0.6284 -0.4141 -2.9700
 7922SOL    HW235229   3.163   2.895   1.208  0.3068  0.0326  1.4745
 7923SOL     OW35230   1.620   1.162   4.581 -0.2685 -0.0412 -0.1437
 7923SOL    HW135231   1.569   1.083   4.596  0.3951 -0.6228 -0.9137
 7923SOL    HW235232   1.566   1.222   4.632 -0.3532  0.8813 -1.3051
 7924SOL     OW35233   4.166   1.983   7.849  0.5685  0.3494 -0.2709
 7924SOL    HW135234   4.195   2.027   7.769  1.2279 -2.1722 -1.4373
 7924SOL    HW235235   4.097   2.042   7.879 -1.3624 -1.8062 -0.3916
 7925SOL     OW35236   2.574   3.068   6.632 -0.3454 -0.4102 -0.3518
 7925SOL    HW135237   2.509   3.105   6.572 -0.1408 -0.1315 -0.3992
 7925SOL    HW235238   2.653   3.071   6.578 -0.3163 -2.6890 -0.4350
 7926SOL     OW35239   2.677   0.962   0.251 -0.0876  0.4581 -0.1150
 7926SOL    HW135240   2.621   0.962   0.173  2.0400  0.4917 -1.6364
 7926SOL    HW235241   2.617   1.015   0.304 -0.6768 -1.0751  0.7555
 7927SOL     OW35242   3.510   3.121  13.974 -0.0203  0.7997  0.0704
 7927SOL    HW135243   3.507   3.037  13.928 -1.4162  1.1056 -0.4026
 7927SOL    HW235244   3.516   3.098  14.067 -0.2549 -0.6898 -0.2823
 7928SOL     OW35245   4.264   0.199  15.695  0.3971  0.4064 -0.0865
 7928SOL    HW135246   4.278   0.222  15.603 -0.5261  3.2538  0.4633
 7928SOL    HW235247   4.346   0.153  15.709  0.9212  0.9052 -1.4407
 7929SOL     OW35248   2.040   1.718   3.892  0.3444 -0.1441  0.3546
 7929SOL    HW135249   2.028   1.777   3.966 -0.6591  0.1206 -0.0167
 7929SOL    HW235250   2.134   1.705   3.890 -0.0179 -2.5408 -0.7533
 7930SOL     OW35251   3.704   2.942   6.108 -0.9083  0.4440  0.1692
 7930SOL    HW135252   3.643   3.006   6.073 -0.1289  0.7395 -0.6655
 7930SOL    HW235253   3.690   2.961   6.200 -0.3697  1.0804  0.1233
 7931SOL     OW35254   2.951   1.262   6.031 -0.7026  0.2427  0.1805
 7931SOL    HW135255   2.860   1.287   6.016 -0.9468 -0.5469  0.3463
 7931SOL    HW235256   2.987   1.350   6.043  1.4535 -0.2152 -2.8935
 7932SOL     OW35257   0.077   4.123  15.159  0.2356 -0.2826  0.6174
 7932SOL    HW135258   0.047   4.210  15.132  1.1349  0.3097  1.5388
 7932SOL    HW235259   0.049   4.075  15.081 -1.1848  0.7652  0.4669
 7933SOL     OW35260   0.335   2.244   8.726 -0.0747 -0.4951  0.1424
 7933SOL    HW135261   0.299   2.288   8.803 -0.9067  0.4458 -0.7824
 7933SOL    HW235262   0.299   2.297   8.655 -1.2480 -1.0157  0.3455
 7934SOL     OW35263   1.147   1.744   3.167  0.2807  0.1549  0.2096
 7934SOL    HW135264   1.096   1.721   3.245  1.2269 -0.8687  0.5392
 7934SOL    HW235265   1.076   1.761   3.106 -0.9222 -0.9355  1.3111
 7935SOL     OW35266   4.004   4.159   0.472  0.1243 -0.0286  0.1287
 7935SOL    HW135267   4.023   4.249   0.495 -2.4088  0.6767 -0.5513
 7935SOL    HW235268   3.910   4.168   0.456 -0.0942 -0.1329  1.3696
 7936SOL     OW35269   2.010   3.790   8.746  0.2513 -0.1935  0.2531
 7936SOL    HW135270   1.946   3.735   8.791  2.3164 -0.4704  2.7747
 7936SOL    HW235271   1.960   3.862   8.707  1.3331 -0.3278 -1.3842
 7937SOL     OW35272   0.850   0.611   7.725  0.0688  0.0622  0.5784
 7937SOL    HW135273   0.884   0.583   7.810 -1.1342  0.0790  1.0695
 7937SOL    HW235274   0.903   0.688   7.706 -1.1790  0.7329 -0.1551
 7938SOL     OW35275   1.458   3.602   6.792 -0.4193 -0.1974  0.2930
 7938SOL    HW135276   1.401   3.531   6.763  0.8691 -1.2181  0.2176
 7938SOL    HW235277   1.510   3.559   6.861 -0.9397  0.8784  1.3578
 7939SOL     OW35278   2.348   0.061   8.830  0.3433  0.3081 -0.1553
 7939SOL    HW135279   2.418   0.098   8.777  1.6406 -2.2982 -0.2889
 7939SOL    HW235280   2.342   4.696   8.792 -0.1389 -0.1164  0.8968
 7940SOL     OW35281   1.261   4.144   7.726 -0.0019 -0.4492  0.2374
 7940SOL    HW135282   1.297   4.232   7.722  1.5657 -1.1231 -0.5355
 7940SOL    HW235283   1.328   4.099   7.674 -1.7852 -0.5504 -1.9805
 7941SOL     OW35284   2.044   0.622   3.388  0.5297 -0.1900  0.3541
 7941SOL    HW135285   2.090   0.680   3.328 -1.0781  1.9756  1.2513
 7941SOL    HW235286   1.953   0.646   3.373  0.7113 -0.8677 -1.8322
 7942SOL     OW35287   1.063   3.425   7.206  0.8149 -0.2688 -0.2694
 7942SOL    HW135288   1.042   3.518   7.219  0.7012  0.0195 -2.5266
 7942SOL    HW235289   0.995   3.388   7.262  0.0575 -0.0730 -1.0676
 7943SOL     OW35290   3.963   3.410   2.401  0.0306  0.4603 -0.0684
 7943SOL    HW135291   4.018   3.356   2.459 -0.0479  0.6402  0.1761
 7943SOL    HW235292   4.014   3.491   2.393  2.5255 -0.9053  1.8750
 7944SOL     OW35293   2.407   0.468   9.178 -0.3172 -0.1075  0.0787
 7944SOL    HW135294   2.406   0.562   9.198 -1.1468  0.0368 -0.6779
 7944SOL    HW235295   2.350   0.459   9.102 -0.4680  0.9114  0.0668
 7945SOL     OW35296   2.330   3.581  15.668  0.5588 -0.5649 -0.3404
 7945SOL    HW135297   2.355   3.575  15.575 -0.9502 -0.6568 -0.7327
 7945SOL    HW235298   2.302   3.490  15.676  0.5946 -0.5545 -0.0947
 7946SOL     OW35299   3.012   3.167   4.263 -0.0824  0.5587 -0.5668
 7946SOL    HW135300   2.941   3.229   4.246 -0.3819  0.7687  1.4718
 7946SOL    HW235301   3.088   3.225   4.266  1.6571 -1.7216 -0.2040
 7947SOL     OW35302   1.779   3.242   7.139 -0.1335  0.0178  0.3981
 7947SOL    HW135303   1.852   3.303   7.134  0.5070 -0.7275  0.6512
 7947SOL    HW235304   1.715   3.294   7.188  2.0125  2.3603  0.6669
 7948SOL     OW35305   0.368   0.405   2.038 -0.4220  0.1782  0.1001
 7948SOL    HW135306   0.451   0.371   2.003  0.0361 -0.7798  2.0875
 7948SOL    HW235307   0.385   0.490   1.997 -2.3455  0.6746  0.3245
 7949SOL     OW35308   0.006   2.049   6.785  0.1144 -0.1415  0.2804
 7949SOL    HW135309   0.027   2.086   6.871  0.8088  2.7877 -1.1397
 7949SOL    HW235310   4.695   1.963   6.810  0.0525 -0.3927 -0.6690
 7950SOL     OW35311   4.050   3.517   6.491  0.5597 -0.5258 -0.0573
 7950SOL    HW135312   4.104   3.524   6.413 -0.6316  1.0650 -0.7364
 7950SOL    HW235313   4.071   3.431   6.529 -0.9922 -0.3469  1.1971
 7951SOL     OW35314   0.691   3.039   1.535 -0.3531  0.9352 -0.3651
 7951SOL    HW135315   0.710   3.127   1.503  4.3603 -0.1219 -0.5367
 7951SOL    HW235316   0.607   3.013   1.496 -0.6344  1.7571 -0.3026
 7952SOL     OW35317   1.069   3.440   6.625 -0.0272  0.0990 -0.2892
 7952SOL    HW135318   1.153   3.400   6.648  0.6851  1.1480 -1.0933
 7952SOL    HW235319   1.069   3.519   6.679  1.1459 -1.5494  2.1312
 7953SOL     OW35320   1.845   3.330   2.045 -0.5745  0.1855  0.1701
 7953SOL    HW135321   1.846   3.295   1.956  0.5739  2.1962 -0.6048
 7953SOL    HW235322   1.804   3.416   2.037 -0.7414  0.0719 -0.1890
 7954SOL     OW35323   2.510   1.759  13.233  1.2892  0.6680 -0.1178
 7954SOL    HW135324   2.596   1.801  13.235  1.2636  0.7986 -1.3300
 7954SOL    HW235325   2.460   1.836  13.206  1.6284  0.1897 -2.1464
 7955SOL     OW35326   2.141   2.371  16.327 -0.1749 -0.0637  0.6563
 7955SOL    HW135327   2.236   2.386  16.326 -0.0771 -0.7049 -0.5687
 7955SOL    HW235328   2.120   2.327  16.409 -0.6061 -0.0786  0.5376
 7956SOL     OW35329   1.461   1.420   6.139 -0.3519 -0.5575 -0.0741
 7956SOL    HW135330   1.554   1.440   6.148  0.4504 -2.5340 -4.0711
 7956SOL    HW235331   1.414   1.483   6.194  0.5298 -0.1524  0.2097
 7957SOL     OW35332   0.470   3.287   9.363  0.4298  0.0244 -0.0132
 7957SOL    HW135333   0.495   3.353   9.299  0.2503  0.6313  0.5478
 7957SOL    HW235334   0.454   3.336   9.443  2.1927  1.7904 -0.7468
 7958SOL     OW35335   2.368   0.640   2.319  0.4929  0.0147  0.0608
 7958SOL    HW135336   2.333   0.658   2.406 -1.4575 -0.2780 -0.6683
 7958SOL    HW235337   2.389   0.547   2.313 -1.7123 -0.3012 -2.8389
 7959SOL     OW35338   3.687   0.744  16.607 -0.4268 -0.2424  0.0822
 7959SOL    HW135339   3.692   0.648  16.612 -0.2486 -0.1676  1.4180
 7959SOL    HW235340   3.724   0.787  16.685  0.6680  1.7296 -1.5374
 7960SOL     OW35341   4.242   4.556   6.347 -0.5269  0.1198  0.1879
 7960SOL    HW135342   4.279   4.558   6.435 -0.8338  0.6174  0.3063
 7960SOL    HW235343   4.178   4.486   6.361 -1.3021  0.5058 -1.4406
 7961SOL     OW35344   0.670   3.491  16.114 -0.1001  0.2080  0.0069
 7961SOL    HW135345   0.634   3.407  16.085  1.6541 -0.7510  0.6563
 7961SOL    HW235346   0.630   3.486  16.201  1.4715  0.9016  0.7675
 7962SOL     OW35347   0.894   2.048   6.850  0.7416 -0.5048  0.3494
 7962SOL    HW135348   0.949   2.080   6.921  2.1325 -2.1049 -0.0104
 7962SOL    HW235349   0.907   1.956   6.872  1.7545 -0.4114  0.1269
 7963SOL     OW35350   3.373   1.927   7.929  0.0599  0.4823 -0.1045
 7963SOL    HW135351   3.385   1.834   7.944  0.0478  0.7169  1.4166
 7963SOL    HW235352   3.278   1.921   7.935  0.0754 -1.0987 -1.5748
 7964SOL     OW35353   1.270   3.332   4.121  0.0110 -0.0576 -0.3228
 7964SOL    HW135354   1.242   3.360   4.208 -1.3415 -2.4456 -0.0083
 7964SOL    HW235355   1.199   3.369   4.069 -1.4602 -0.0259  1.6886
 7965SOL     OW35356   4.047   1.196  13.895  0.7053 -0.2494 -0.0092
 7965SOL    HW135357   4.007   1.249  13.964  0.0496 -0.0205 -0.5776
 7965SOL    HW235358   4.141   1.203  13.911  0.9740 -0.7169 -1.3668
 7966SOL     OW35359   4.016   1.197  15.347  0.0972 -0.1816  0.4258
 7966SOL    HW135360   3.992   1.118  15.396  0.1339 -0.7737 -0.5148
 7966SOL    HW235361   3.932   1.240  15.363 -0.4634 -1.4649  0.9559
 7967SOL     OW35362   3.756   4.203  13.857  0.0197  0.2418 -0.3328
 7967SOL    HW135363   3.679   4.238  13.812 -0.3710 -0.0979  0.0750
 7967SOL    HW235364   3.708   4.176  13.935 -0.8839 -1.5907 -1.5335
 7968SOL     OW35365   4.383   4.171  17.504 -0.5847  0.4422  0.2242
 7968SOL    HW135366   4.374   4.076  17.512 -2.7876  0.7052  0.7879
 7968SOL    HW235367   4.407   4.180  17.411 -0.9381  0.8264  0.1733
 7969SOL     OW35368   1.706   4.537   8.228 -0.2040  0.0709 -0.2369
 7969SOL    HW135369   1.616   4.502   8.223  0.7156 -2.3781  0.1847
 7969SOL    HW235370   1.697   4.627   8.260 -2.9727 -0.1602 -0.3738
 7970SOL     OW35371   2.569   3.224  17.163 -0.5260  0.2092 -0.1504
 7970SOL    HW135372   2.551   3.197  17.253 -0.3241 -0.8037 -0.4144
 7970SOL    HW235373   2.665   3.227  17.170 -0.6015  2.4772 -0.1286
 7971SOL     OW35374   1.656   2.465   6.229 -0.3587  0.2953  0.0178
 7971SOL    HW135375   1.731   2.410   6.207 -0.6477  0.5598 -1.6994
 7971SOL    HW235376   1.663   2.464   6.324 -0.3485 -1.3633  0.0113
 7972SOL     OW35377   2.131   4.058   9.007 -0.1608 -0.0083  0.3707
 7972SOL    HW135378   2.040   4.050   9.034 -0.0309 -0.7277  0.6072
 7972SOL    HW235379   2.161   3.968   8.997 -1.7347 -0.5511  0.6498
 7973SOL     OW35380   0.454   4.411   5.767 -0.2421 -0.1985 -0.4739
 7973SOL    HW135381   0.485   4.473   5.833 -1.9866 -0.4402  0.5746
 7973SOL    HW235382   0.515   4.337   5.776  1.4945  1.3630  0.6164
 7974SOL     OW35383   2.961   2.559   2.762  0.0561 -0.0741  0.8230
 7974SOL    HW135384   2.888   2.538   2.704  2.4076 -0.5634 -1.9698
 7974SOL    HW235385   2.933   2.521   2.845 -0.7399 -0.8970  0.1744
 7975SOL     OW35386   3.750   3.923   8.173  0.1441  0.0832  0.1999
 7975SOL    HW135387   3.769   3.965   8.258  2.3627 -1.9528  0.6983
 7975SOL    HW235388   3.798   3.987   8.121  0.3350 -0.3074 -0.1046
 7976SOL     OW35389   1.307   0.609   0.289  0.2919 -0.1790 -0.4970
 7976SOL    HW135390   1.381   0.604   0.349  0.3732  0.9273 -0.4996
 7976SOL    HW235391   1.312   0.701   0.262  1.0751 -1.0538 -3.3105
 7977SOL     OW35392   2.612   4.573   8.466  0.0230 -0.3721  0.0686
 7977SOL    HW135393   2.609   4.659   8.424  1.4214 -0.4582 -0.2101
 7977SOL    HW235394   2.584   4.524   8.389 -1.3037  1.2150 -0.4607
 7978SOL     OW35395   1.038   0.543   9.513 -0.0239  0.0714 -0.1103
 7978SOL    HW135396   1.087   0.572   9.590 -0.8025 -0.0860  0.4385
 7978SOL    HW235397   1.104   0.485   9.475  0.7303  0.9153 -0.0952
 7979SOL     OW35398   1.465   3.628  15.379 -0.3646  0.1964 -0.4964
 7979SOL    HW135399   1.474   3.573  15.457  1.3684  1.8524  0.4829
 7979SOL    HW235400   1.433   3.572  15.308  0.1403 -2.1558  1.1089
 7980SOL     OW35401   3.890   1.957  14.474 -0.2871  0.2701  0.4940
 7980SOL    HW135402   3.983   1.943  14.457 -0.6158 -1.5199  0.2104
 7980SOL    HW235403   3.882   2.052  14.462 -1.2183 -0.0366 -1.3579
 7981SOL     OW35404   3.782   2.002  12.656  0.0942 -0.1678  0.3237
 7981SOL    HW135405   3.867   2.046  12.659 -0.5363  1.0935 -0.4559
 7981SOL    HW235406   3.719   2.047  12.712 -0.8010 -0.8028 -0.1741
 7982SOL     OW35407   4.266   1.949   4.324  0.0036  0.2910 -0.2843
 7982SOL    HW135408   4.305   2.029   4.289 -1.2864  1.1365  0.2390
 7982SOL    HW235409   4.334   1.882   4.316  0.0332  0.2083  0.6690
 7983SOL     OW35410   2.061   3.814   3.916 -0.0845  0.1224  0.0282
 7983SOL    HW135411   2.064   3.720   3.898  0.9126  0.1882 -0.1730
 7983SOL    HW235412   1.969   3.836   3.906 -0.2289 -0.6685 -0.3721
 7984SOL     OW35413   1.808   2.353   6.911 -0.4105 -0.0747 -0.0614
 7984SOL    HW135414   1.811   2.447   6.930  0.9190  0.1875 -1.5719
 7984SOL    HW235415   1.750   2.321   6.981 -0.7297  0.1634 -0.2146
 7985SOL     OW35416   3.731   1.279  10.998 -0.2278 -0.1516  0.3846
 7985SOL    HW135417   3.700   1.368  10.979  0.4199 -0.0317 -0.1141
 7985SOL    HW235418   3.760   1.288  11.089 -2.7167 -1.5188  1.3146
 7986SOL     OW35419   0.333   0.211  12.129 -0.4211  0.4175 -0.1469
 7986SOL    HW135420   0.295   0.279  12.074  1.3271  1.2537 -0.3362
 7986SOL    HW235421   0.269   0.141  12.115 -1.1339  0.9562  0.4889
 7987SOL     OW35422   2.677   3.559   0.665 -0.1884 -0.2062  0.1047
 7987SOL    HW135423   2.726   3.550   0.584 -0.2131 -1.3456  0.2133
 7987SOL    HW235424   2.630   3.478   0.682 -0.5784  0.2517  1.2260
 7988SOL     OW35425   1.373   0.188   5.989  0.5362 -0.4962 -0.4733
 7988SOL    HW135426   1.370   0.192   5.894  0.3602  1.9668 -0.3668
 7988SOL    HW235427   1.412   0.275   6.003 -1.6104  0.8848 -3.1985
 7989SOL     OW35428   1.481   2.666   4.357  0.0803  0.4728 -0.0826
 7989SOL    HW135429   1.392   2.637   4.338  0.0755  0.2244  0.3057
 7989SOL    HW235430   1.527   2.623   4.285 -2.0393 -2.7017  0.4537
 7990SOL     OW35431   4.590   3.302   3.945 -0.4480  0.1104 -0.5075
 7990SOL    HW135432   4.603   3.212   3.913 -0.3117 -0.3073  0.7191
 7990SOL    HW235433   4.496   3.293   3.959 -0.2646 -0.5711  0.3319
 7991SOL     OW35434   1.839   3.586   5.014 -0.1691  0.1459  0.2052
 7991SOL    HW135435   1.784   3.664   5.023 -1.0219  0.1278 -4.7263
 7991SOL    HW235436   1.813   3.555   4.927  0.3371  0.4745 -0.0620
 7992SOL     OW35437   3.209   2.318   4.359 -0.2472  0.5771  0.3410
 7992SOL    HW135438   3.169   2.241   4.400  0.9714 -0.7148 -0.9265
 7992SOL    HW235439   3.274   2.342   4.425 -0.7122 -0.1109  1.0567
 7993SOL     OW35440   4.466   2.979   6.849 -0.2904  0.0299  0.0684
 7993SOL    HW135441   4.448   3.072   6.860 -0.1787  0.0507  0.0781
 7993SOL    HW235442   4.382   2.933   6.851 -0.4316  0.1966 -2.0976
 7994SOL     OW35443   1.113   0.988   7.115 -0.5676  0.4476 -0.1923
 7994SOL    HW135444   1.193   1.032   7.145  0.7298 -2.3877  0.4407
 7994SOL    HW235445   1.051   1.041   7.164 -1.4697 -1.3558  0.5996
 7995SOL     OW35446   1.435   2.579   1.995  0.1847 -0.5623  0.2219
 7995SOL    HW135447   1.439   2.627   2.078  1.6879 -1.5095  0.7065
 7995SOL    HW235448   1.341   2.574   1.977 -0.1589  1.3461  1.5291
 7996SOL     OW35449   0.845   1.756   5.849 -0.5111  0.1654 -0.2369
 7996SOL    HW135450   0.875   1.787   5.934  0.0224 -3.0551  0.7587
 7996SOL    HW235451   0.757   1.717   5.853  0.5828 -2.5852 -2.6463
 7997SOL     OW35452   3.931   0.426  11.958  0.0914  0.3771 -0.3164
 7997SOL    HW135453   3.892   0.340  11.939  2.8170 -0.5752 -1.5484
 7997SOL    HW235454   4.020   0.392  11.966 -0.8302 -1.8441  0.4952
 7998SOL     OW35455   3.288   0.238   6.590  0.1394  0.0526 -0.1677
 7998SOL    HW135456   3.300   0.217   6.497 -1.7541 -0.5119 -0.2810
 7998SOL    HW235457   3.197   0.209   6.594 -0.5359  1.7781 -2.7418
 7999SOL     OW35458   4.379   0.614   8.249 -0.0165 -0.0891  0.0805
 7999SOL    HW135459   4.376   0.595   8.343  1.4978 -0.6059  0.0165
 7999SOL    HW235460   4.462   0.660   8.243  0.1375 -0.5322 -1.1067
 8000SOL     OW35461   3.768   3.583   4.854  0.3322  0.4879 -0.4290
 8000SOL    HW135462   3.840   3.520   4.851 -0.3178 -0.3000  0.6268
 8000SOL    HW235463   3.804   3.663   4.815  1.4403  1.0356  1.7441
 8001SOL     OW35464   2.595   3.512   8.736 -0.2445 -0.3981 -0.2370
 8001SOL    HW135465   2.596   3.601   8.700 -2.6939  0.2636  1.3541
 8001SOL    HW235466   2.512   3.473   8.709  1.2777 -2.6492 -1.6877
 8002SOL     OW35467   3.092   4.511   4.315 -0.1116 -0.6056 -0.3129
 8002SOL    HW135468   3.064   4.420   4.314 -0.2963 -0.5428 -0.7812
 8002SOL    HW235469   3.047   4.546   4.238  1.1761  0.6094 -0.5042
 8003SOL     OW35470   2.325   1.778   6.763  0.1047  0.1594  0.4654
 8003SOL    HW135471   2.265   1.706   6.741 -0.4301  1.0420 -0.9941
 8003SOL    HW235472   2.275   1.822   6.832  0.2051  1.4531 -0.3011
 8004SOL     OW35473   4.523   0.792   7.729 -0.6023 -0.1135 -0.8300
 8004SOL    HW135474   4.491   0.878   7.758  1.5057  0.4081  0.0222
 8004SOL    HW235475   4.485   0.732   7.793  0.3388  1.4622  1.2426
 8005SOL     OW35476   4.540   2.804  12.036  0.0850 -0.1075 -0.3373
 8005SOL    HW135477   4.559   2.824  11.944 -2.3424  1.4498 -0.4984
 8005SOL    HW235478   4.448   2.829  12.037 -0.5976 -2.7370  0.1287
 8006SOL     OW35479   3.317   4.243   8.144 -0.0320  0.3545 -0.5587
 8006SOL    HW135480   3.313   4.336   8.166 -0.8329  1.0479 -3.6384
 8006SOL    HW235481   3.278   4.205   8.223 -1.7746  0.7150 -1.2601
 8007SOL     OW35482   0.164   2.785   0.450  0.1480  0.2562  0.2074
 8007SOL    HW135483   0.240   2.807   0.505  1.1676 -0.6603 -0.8348
 8007SOL    HW235484   0.175   2.690   0.441  0.4909  0.3526 -0.3495
 8008SOL     OW35485   1.496   3.957   6.325  0.0378  0.5671 -0.7572
 8008SOL    HW135486   1.457   3.870   6.319  0.1414  0.2814  2.4924
 8008SOL    HW235487   1.586   3.931   6.304 -0.6952 -1.8995 -0.8104
 8009SOL     OW35488   3.397   3.946  10.963 -0.2112  0.1597 -0.1512
 8009SOL    HW135489   3.393   3.945  11.058 -0.4511 -1.2763 -0.1649
 8009SOL    HW235490   3.466   3.882  10.945 -1.0011 -1.1854  1.6112
 8010SOL     OW35491   3.154   0.648   8.437  0.2954 -0.1990  0.2610
 8010SOL    HW135492   3.231   0.591   8.438  0.3514 -0.0410  3.1695
 8010SOL    HW235493   3.092   0.577   8.419 -0.4480  0.8383 -1.2634
 8011SOL     OW35494   4.437   1.991   5.487  0.1689 -0.7892  0.0372
 8011SOL    HW135495   4.342   1.992   5.489  0.2816  1.5619  4.5593
 8011SOL    HW235496   4.456   1.918   5.428  0.2010 -0.8020  0.0635
 8012SOL     OW35497   4.646   4.405   4.541  0.3176  0.2091  0.0759
 8012SOL    HW135498   0.009   4.441   4.519  1.0688 -1.2017  0.7493
 8012SOL    HW235499   4.622   4.440   4.628  1.1198  0.7087  0.1034
 8013SOL     OW35500   2.586   1.062  10.872 -0.3688  0.4472  0.0666
 8013SOL    HW135501   2.669   1.046  10.826 -1.0148  2.1629 -1.7248
 8013SOL    HW235502   2.527   0.999  10.830  0.4625  0.7454 -1.5785
 8014SOL     OW35503   3.598   0.213   5.309  0.4166 -0.2630 -0.4948
 8014SOL    HW135504   3.570   0.231   5.219  1.9174 -0.7528 -1.0572
 8014SOL    HW235505   3.691   0.197   5.299  0.7151  0.5623  0.8896
 8015SOL     OW35506   0.063   1.295  11.260 -0.0068  0.8874  0.9514
 8015SOL    HW135507   0.119   1.244  11.319 -0.1161 -0.3942 -0.0325
 8015SOL    HW235508   0.132   1.348  11.220  2.4201 -2.8806  0.1423
 8016SOL     OW35509   1.913   3.114  14.398  0.3058  0.0578 -0.5216
 8016SOL    HW135510   1.999   3.131  14.360  0.1595  1.4458 -0.1964
 8016SOL    HW235511   1.939   3.099  14.489  0.5103  1.1270 -0.4099
 8017SOL     OW35512   0.065   4.525   9.847 -0.6239 -0.0664 -0.0754
 8017SOL    HW135513   0.025   4.601   9.805 -1.0549  0.8398  1.9966
 8017SOL    HW235514   0.140   4.565   9.891  0.8185 -0.8075 -1.8752
 8018SOL     OW35515   0.081   4.329   2.606  0.6670 -0.1104  0.3470
 8018SOL    HW135516   0.055   4.411   2.649 -1.4423 -0.7498  0.2826
 8018SOL    HW235517   0.078   4.338   2.511 -3.0766 -1.4386  0.3497
 8019SOL     OW35518   3.241   3.747  12.324  0.3621  0.9576  0.1708
 8019SOL    HW135519   3.330   3.777  12.341  0.4768  0.1909  0.9238
 8019SOL    HW235520   3.258   3.654  12.307 -3.8172  0.1922 -0.0359
 8020SOL     OW35521   3.314   0.053   2.593 -0.0330  0.0100 -0.5707
 8020SOL    HW135522   3.351   0.039   2.505  0.9795  1.0436 -0.3097
 8020SOL    HW235523   3.270   0.137   2.590 -0.0436  0.0323  0.1557
 8021SOL     OW35524   3.571   3.999   7.604  0.2099  0.5370 -0.1379
 8021SOL    HW135525   3.563   3.905   7.590 -1.8278  0.4901  1.2554
 8021SOL    HW235526   3.481   4.025   7.585 -0.0021 -0.6209 -0.7489
 8022SOL     OW35527   3.683   0.121   0.233 -0.3460  0.0740 -0.5997
 8022SOL    HW135528   3.628   0.062   0.182 -0.1982  0.7322 -1.5218
 8022SOL    HW235529   3.767   0.115   0.188 -0.0133 -3.6517  0.5427
 8023SOL     OW35530   3.329   0.453   8.503 -0.0716 -0.9222 -0.3146
 8023SOL    HW135531   3.305   0.400   8.426 -0.5049 -0.6771 -0.3473
 8023SOL    HW235532   3.338   0.384   8.569 -0.0341 -1.1015 -0.5031
 8024SOL     OW35533   1.977   3.140  16.560  0.3000  0.0057  0.2550
 8024SOL    HW135534   2.046   3.122  16.624  1.3642  1.1781 -0.5760
 8024SOL    HW235535   1.981   3.054  16.518 -2.4991  0.2718 -0.5742
 8025SOL     OW35536   2.168   1.156   9.307 -0.2860 -0.2085  0.1390
 8025SOL    HW135537   2.244   1.131   9.255  0.2755 -0.5691  1.1283
 8025SOL    HW235538   2.088   1.147   9.254  1.1828 -2.1103 -1.7497
 8026SOL     OW35539   2.524   0.356   4.331  0.7690 -0.6560 -0.2397
 8026SOL    HW135540   2.602   0.317   4.291  2.4717  3.1106 -0.5338
 8026SOL    HW235541   2.573   0.406   4.396 -1.0367 -0.0052  0.6229
 8027SOL     OW35542   0.474   4.210   1.063 -0.1772 -0.4881  0.4322
 8027SOL    HW135543   0.427   4.280   1.018 -0.7220 -0.4742  1.0278
 8027SOL    HW235544   0.521   4.245   1.139  1.0486  1.1117 -1.0785
 8028SOL     OW35545   1.346   2.445   3.073 -0.5091 -0.1871 -0.2549
 8028SOL    HW135546   1.379   2.463   2.985 -1.0868  1.6203 -0.1029
 8028SOL    HW235547   1.262   2.490   3.065  0.4801  1.7413  0.1467
 8029SOL     OW35548   4.017   0.763   1.747  0.0541 -0.1988 -0.2845
 8029SOL    HW135549   4.038   0.686   1.801 -1.6796 -1.4625 -1.3922
 8029SOL    HW235550   4.022   0.832   1.813  0.3193 -1.3132  0.8691
 8030SOL     OW35551   0.203   2.245  13.109  0.2881  0.5137 -0.3416
 8030SOL    HW135552   0.284   2.198  13.130 -0.7110 -1.0128  0.0881
 8030SOL    HW235553   0.243   2.314  13.056  0.0637 -0.4867 -1.7976
 8031SOL     OW35554   2.337   3.369  11.940 -0.2372 -0.0441  0.3233
 8031SOL    HW135555   2.375   3.412  11.863 -0.2002 -1.1119 -0.2631
 8031SOL    HW235556   2.372   3.281  11.925  0.8907  0.1660  1.7333
 8032SOL     OW35557   1.748   1.964   6.628  0.0341  0.3759 -0.3781
 8032SOL    HW135558   1.699   1.938   6.551  0.6731 -1.1208 -0.2873
 8032SOL    HW235559   1.731   2.058   6.630 -1.1071  0.1566  0.1079
 8033SOL     OW35560   1.077   2.712   7.137 -0.9049  0.3059 -0.2127
 8033SOL    HW135561   1.011   2.671   7.080 -1.1929  1.3813 -0.6586
 8033SOL    HW235562   1.022   2.748   7.207 -0.1565  0.5301  0.2575
 8034SOL     OW35563   3.522   2.691   2.031  0.3488 -0.2863 -0.3599
 8034SOL    HW135564   3.461   2.741   2.085  1.9981  2.9546 -1.4247
 8034SOL    HW235565   3.595   2.753   2.026 -0.0354  0.0453 -2.0218
 8035SOL     OW35566   1.830   4.308  17.298 -0.4335 -0.3271 -0.1207
 8035SOL    HW135567   1.742   4.272  17.305 -1.7731  2.8194 -0.7547
 8035SOL    HW235568   1.858   4.279  17.385  0.0448 -0.4219 -0.3044
 8036SOL     OW35569   2.395   1.181  15.141 -0.2486  0.3717  0.1044
 8036SOL    HW135570   2.476   1.135  15.117  0.1083  1.0498 -0.0104
 8036SOL    HW235571   2.422   1.265  15.179 -1.9819  1.5687 -1.2807
 8037SOL     OW35572   0.140   4.318   1.414 -0.0777  0.1092 -0.0845
 8037SOL    HW135573   0.155   4.378   1.341  2.7091 -0.7648 -0.2398
 8037SOL    HW235574   0.047   4.297   1.406  0.3374 -1.1478 -1.5738
 8038SOL     OW35575   1.418   3.268   3.299  0.2611  0.5375 -0.3280
 8038SOL    HW135576   1.365   3.267   3.220  0.7418 -0.6966 -0.6463
 8038SOL    HW235577   1.470   3.187   3.294 -1.5121 -0.4523 -2.2561
 8039SOL     OW35578   0.818   2.921  17.424 -0.2686  0.1664 -0.2530
 8039SOL    HW135579   0.820   2.865  17.347  2.5580 -0.4253  0.2264
 8039SOL    HW235580   0.907   2.957  17.427  0.2105 -1.0093 -0.3100
 8040SOL     OW35581   4.363   1.693  17.586  0.4464  0.3588 -0.6556
 8040SOL    HW135582   4.394   1.776  17.549 -1.1431  1.4723  0.5090
 8040SOL    HW235583   4.446   1.651  17.608 -0.0658  0.0159  0.5790
 8041SOL     OW35584   1.360   1.182   7.916  0.9098 -0.6406 -0.3167
 8041SOL    HW135585   1.397   1.134   7.990 -1.1694  0.5615  1.5320
 8041SOL    HW235586   1.367   1.127   7.838 -1.9718 -0.7435 -0.5003
 8042SOL     OW35587   0.214   3.871  13.567 -0.2188 -0.2186  0.3309
 8042SOL    HW135588   0.226   3.881  13.662  0.2727  0.0644  0.2352
 8042SOL    HW235589   0.130   3.917  13.559 -0.4101 -0.4941  0.7317
 8043SOL     OW35590   0.527   0.103  12.479  0.4266 -0.3592  0.2533
 8043SOL    HW135591   0.514   0.176  12.418 -2.1692 -0.0179  1.2238
 8043SOL    HW235592   0.444   0.101  12.526 -0.7166  2.1077 -1.6322
 8044SOL     OW35593   3.523   1.384   2.919  0.2014  0.2208 -0.1232
 8044SOL    HW135594   3.612   1.384   2.883  0.8232  1.5976  1.4453
 8044SOL    HW235595   3.529   1.445   2.992  0.2929  0.7180 -0.5437
 8045SOL     OW35596   3.196   4.588   4.550  0.0613 -0.0873  0.4127
 8045SOL    HW135597   3.162   4.577   4.461  1.6893  0.1498 -0.2549
 8045SOL    HW235598   3.215   4.682   4.544 -0.8381 -0.0333 -1.6160
 8046SOL     OW35599   1.797   3.488   4.754 -0.7155  0.8624  0.1867
 8046SOL    HW135600   1.845   3.560   4.713  0.8578 -0.3150 -0.0753
 8046SOL    HW235601   1.849   3.408   4.742 -0.3800  0.9810  0.8367
 8047SOL     OW35602   1.181   3.984  17.088  0.2788 -0.5013 -0.2911
 8047SOL    HW135603   1.219   4.047  17.028  0.4035 -1.2064 -0.9440
 8047SOL    HW235604   1.137   4.043  17.149  0.6776  1.6696 -2.1208
 8048SOL     OW35605   0.512   1.050  12.927  0.5132  0.2861 -0.6124
 8048SOL    HW135606   0.608   1.050  12.917  0.9736 -2.9619  3.8607
 8048SOL    HW235607   0.515   1.039  13.022  1.5083  0.3737 -0.6328
 8049SOL     OW35608   4.545   4.124   9.871  0.2036 -0.4635 -0.3028
 8049SOL    HW135609   4.608   4.052   9.864 -0.3402 -0.9400 -0.2850
 8049SOL    HW235610   4.521   4.131   9.778 -3.1501 -0.7387  0.5381
 8050SOL     OW35611   3.803   2.805   3.902 -0.5408 -0.4599  1.1624
 8050SOL    HW135612   3.826   2.761   3.821  1.7163  0.7969  1.1213
 8050SOL    HW235613   3.778   2.890   3.866  2.4470 -0.5091 -0.9400
 8051SOL     OW35614   0.638   0.796   2.909  0.7405  0.0426  0.1868
 8051SOL    HW135615   0.612   0.807   3.001  1.4408 -0.0513  0.3932
 8051SOL    HW235616   0.556   0.817   2.865 -0.0595  2.2105  2.6840
 8052SOL     OW35617   0.944   1.261   7.875  0.2622  0.4150  0.0245
 8052SOL    HW135618   1.021   1.268   7.931  0.0935 -1.1787  0.4603
 8052SOL    HW235619   0.977   1.196   7.813  2.0730  1.0359  0.3411
 8053SOL     OW35620   4.700   4.104  11.934  0.2533  0.3499  0.1848
 8053SOL    HW135621   0.013   4.181  11.977  1.0497 -0.1021  0.3209
 8053SOL    HW235622   4.711   4.125  11.842 -1.0888  3.1253  0.6645
 8054SOL     OW35623   3.525   2.667   4.909 -0.0106  0.0390 -0.4439
 8054SOL    HW135624   3.609   2.704   4.936  1.9039 -3.2665 -1.9281
 8054SOL    HW235625   3.517   2.705   4.821  1.7848  0.5452 -0.3942
 8055SOL     OW35626   3.162   1.945   6.541 -0.4820 -0.3492  0.1258
 8055SOL    HW135627   3.150   1.852   6.523 -0.5605  0.1350 -2.3233
 8055SOL    HW235628   3.161   1.961   6.635  1.5704 -0.2270  0.1321
 8056SOL     OW35629   2.653   0.851   1.861  0.1825  0.1508  0.4248
 8056SOL    HW135630   2.617   0.937   1.882 -0.4265  0.3377 -1.4384
 8056SOL    HW235631   2.575   0.806   1.830  0.8574 -0.7980  0.1186
 8057SOL     OW35632   2.996   3.140  16.546 -0.2963 -0.0483  0.4799
 8057SOL    HW135633   2.927   3.193  16.585  0.0159  0.7619 -0.0738
 8057SOL    HW235634   2.969   3.130  16.455  1.4598  0.3891 -0.0813
 8058SOL     OW35635   0.852   1.402   2.420  0.0990  0.7620 -0.2946
 8058SOL    HW135636   0.945   1.381   2.424  0.2232  1.2198 -0.6585
 8058SOL    HW235637   0.813   1.334   2.474 -1.1545  1.7651  0.0791
 8059SOL     OW35638   1.479   0.324   2.181  0.1467  0.1363 -0.3136
 8059SOL    HW135639   1.437   0.327   2.094  0.5600  2.1719 -0.4380
 8059SOL    HW235640   1.464   0.418   2.192 -0.5947 -0.2861  2.3333
 8060SOL     OW35641   1.972   2.885   4.699 -0.8210 -0.2542  0.0309
 8060SOL    HW135642   1.939   2.855   4.615  0.1482 -1.7456  0.1870
 8060SOL    HW235643   2.047   2.931   4.661  0.7743 -0.5400  2.8023
 8061SOL     OW35644   0.478   3.890   5.822  0.0345 -0.1266 -0.0070
 8061SOL    HW135645   0.534   3.966   5.836 -0.0711  0.2551 -1.6434
 8061SOL    HW235646   0.431   3.905   5.904 -0.6923  0.6040 -0.5620
 8062SOL     OW35647   0.326   1.204   5.505 -0.0920 -0.2428 -0.3053
 8062SOL    HW135648   0.246   1.257   5.502  1.0522  1.4588 -0.5190
 8062SOL    HW235649   0.315   1.156   5.587 -0.9701 -2.0330 -1.4732
 8063SOL     OW35650   2.398   3.837   9.209 -0.0716  0.3912 -0.0643
 8063SOL    HW135651   2.487   3.802   9.199 -0.7440 -1.0805 -0.8634
 8063SOL    HW235652   2.416   3.931   9.202 -0.1460  0.4383  0.3834
 8064SOL     OW35653   3.476   1.768   2.325 -0.7146  0.0075  0.9553
 8064SOL    HW135654   3.382   1.752   2.319 -0.4376 -1.2506  0.1892
 8064SOL    HW235655   3.514   1.698   2.272  0.3407  2.0207 -0.9669
 8065SOL     OW35656   3.718   3.904   0.540 -0.2768  0.3088  0.4920
 8065SOL    HW135657   3.755   3.945   0.618 -2.0650 -1.8657  2.4922
 8065SOL    HW235658   3.676   3.979   0.497 -1.3298 -0.4546  0.1969
 8066SOL     OW35659   1.687   0.329  17.563  0.7311 -0.3580 -0.4855
 8066SOL    HW135660   1.606   0.318  17.612  2.1994 -0.0589  1.9585
 8066SOL    HW235661   1.652   0.371  17.484  2.4530  2.1337  0.0716
 8067SOL     OW35662   3.504   2.757   1.481 -0.1815  0.1429 -0.2013
 8067SOL    HW135663   3.583   2.756   1.427 -0.1813 -2.3303 -0.1360
 8067SOL    HW235664   3.477   2.846   1.460 -0.1117  0.0461 -0.6878
 8068SOL     OW35665   3.830   4.442   4.997 -0.5045 -0.1440 -0.0256
 8068SOL    HW135666   3.779   4.362   5.003 -0.3625 -0.3434 -1.6144
 8068SOL    HW235667   3.847   4.451   4.904  1.6708 -1.7968  0.2112
 8069SOL     OW35668   2.820   0.680   4.039 -0.3028 -0.4685  0.0386
 8069SOL    HW135669   2.874   0.684   3.960  1.7365  0.5915  1.5012
 8069SOL    HW235670   2.750   0.620   4.012 -0.9962  0.1827  0.4028
 8070SOL     OW35671   3.694   0.558   7.959  0.4107 -0.0945  0.2719
 8070SOL    HW135672   3.641   0.626   7.917 -0.5293 -1.3772 -0.6113
 8070SOL    HW235673   3.774   0.607   7.980 -0.1897  1.3529 -0.7792
 8071SOL     OW35674   1.136   1.479   6.622 -0.2653  0.6500 -0.5341
 8071SOL    HW135675   1.153   1.423   6.547  2.3333  0.4085  0.2345
 8071SOL    HW235676   1.098   1.414   6.681 -1.0901  2.2456  0.7231
 8072SOL     OW35677   3.313   3.718  10.479  1.0898 -0.0256  0.2580
 8072SOL    HW135678   3.297   3.625  10.459 -4.1125  0.7546  0.6600
 8072SOL    HW235679   3.395   3.716  10.431 -0.9850  0.3580 -3.3239
 8073SOL     OW35680   2.478   0.283   8.221 -0.3136  0.0056  0.1446
 8073SOL    HW135681   2.504   0.374   8.237  0.7694 -0.3547  0.3793
 8073SOL    HW235682   2.439   0.285   8.134 -3.7837 -0.0285  1.7084
 8074SOL     OW35683   0.864   4.486   7.136  0.4018  0.0762  0.6041
 8074SOL    HW135684   0.943   4.536   7.154  0.3133  0.5076 -0.2082
 8074SOL    HW235685   0.813   4.552   7.090  2.7936  1.1379 -0.5120
 8075SOL     OW35686   4.592   0.042   1.857 -0.2619 -0.1414  0.2193
 8075SOL    HW135687   4.598   4.671   1.839  0.8455 -0.2734  1.2714
 8075SOL    HW235688   4.545   0.076   1.781 -1.1668 -1.1801  0.3130
 8076SOL     OW35689   1.549   2.027   8.157 -0.6721 -0.8867 -0.0251
 8076SOL    HW135690   1.640   2.033   8.127 -1.0827 -1.4534 -1.3843
 8076SOL    HW235691   1.555   1.958   8.224 -3.3438 -1.0807  0.0270
 8077SOL     OW35692   3.071   0.313   2.216  0.3442  0.6262  0.1154
 8077SOL    HW135693   3.079   0.352   2.129  0.0661  0.5207  0.0441
 8077SOL    HW235694   3.030   0.388   2.257  0.5811  1.5682 -1.3677
 8078SOL     OW35695   3.698   1.271  13.183  0.2939 -0.5017 -0.1687
 8078SOL    HW135696   3.782   1.260  13.138 -1.7354 -1.2187 -3.7925
 8078SOL    HW235697   3.669   1.180  13.177  0.3950 -0.6303  1.2413
 8079SOL     OW35698   4.467   4.013   6.126 -0.4146  0.1310  0.4326
 8079SOL    HW135699   4.468   4.019   6.222  1.4109  1.0796  0.3580
 8079SOL    HW235700   4.549   4.048   6.092  0.3290 -2.6562 -0.6484
 8080SOL     OW35701   0.642   0.667   9.180  0.3072 -0.0203  0.0430
 8080SOL    HW135702   0.552   0.681   9.151 -0.1840  0.7283  1.9475
 8080SOL    HW235703   0.641   0.573   9.198 -2.6640 -0.2079 -1.1786
 8081SOL     OW35704   1.781   4.576   4.110  0.5334  0.3999  0.2996
 8081SOL    HW135705   1.795   4.635   4.184  2.4918  0.7566 -0.3454
 8081SOL    HW235706   1.866   4.572   4.066 -0.0049 -1.7389 -0.5884
 8082SOL     OW35707   0.530   0.947   5.470  0.0661 -0.5586  0.8469
 8082SOL    HW135708   0.448   0.972   5.513  1.1029 -0.9517  3.0396
 8082SOL    HW235709   0.499   0.878   5.413  2.9838 -1.6172  0.5444
 8083SOL     OW35710   2.692   0.796  17.247 -0.2046 -0.4721 -0.0061
 8083SOL    HW135711   2.641   0.850  17.187 -1.8390 -2.6277 -0.5313
 8083SOL    HW235712   2.664   0.708  17.220 -2.0789  0.1316 -0.0285
 8084SOL     OW35713   1.743   2.180  15.102  0.1292 -0.2463 -0.1323
 8084SOL    HW135714   1.677   2.121  15.064  1.2043 -2.3875  1.3235
 8084SOL    HW235715   1.750   2.235  15.023  0.8552  2.9115  2.1383
 8085SOL     OW35716   3.596   2.016   8.091 -0.0794  0.2936 -0.0816
 8085SOL    HW135717   3.522   1.981   8.040  0.5649  0.1287 -0.8907
 8085SOL    HW235718   3.640   2.067   8.024  1.2760  0.0274  0.6175
 8086SOL     OW35719   3.169   4.481   2.429  0.7641  0.2353  0.7503
 8086SOL    HW135720   3.084   4.467   2.389  1.1443 -2.6540  0.9415
 8086SOL    HW235721   3.237   4.486   2.362  0.7276 -0.9891  0.6191
 8087SOL     OW35722   4.410   3.098  14.948 -0.3262  0.2694 -0.3285
 8087SOL    HW135723   4.357   3.020  14.931  2.2847 -0.8637 -3.0881
 8087SOL    HW235724   4.344   3.147  14.997 -0.5771 -1.3003  0.8987
 8088SOL     OW35725   0.515   3.946   6.577 -0.2789  0.2623 -1.0821
 8088SOL    HW135726   0.577   3.991   6.633  0.4526 -0.4674 -1.2987
 8088SOL    HW235727   0.439   3.942   6.634  0.7864 -0.8378  0.2655
 8089SOL     OW35728   0.479   3.614   2.371 -0.1483 -0.0310 -0.0311
 8089SOL    HW135729   0.476   3.587   2.279 -1.0767 -0.0098 -0.0070
 8089SOL    HW235730   0.569   3.592   2.396 -0.9148 -0.9959  1.8887
 8090SOL     OW35731   2.554   4.194   4.824 -0.2445 -0.2215  0.1107
 8090SOL    HW135732   2.571   4.100   4.823 -2.8106 -0.6584 -2.6029
 8090SOL    HW235733   2.459   4.200   4.822 -0.2739 -0.6688  0.2171
 8091SOL     OW35734   0.613   2.834   5.160 -0.0161  0.7740 -0.3307
 8091SOL    HW135735   0.593   2.856   5.251  0.2256 -0.9212  0.1284
 8091SOL    HW235736   0.620   2.739   5.168 -2.8295  0.3206 -3.0445
 8092SOL     OW35737   0.682   0.515   5.445  0.2096 -0.1450  0.9359
 8092SOL    HW135738   0.697   0.493   5.353 -3.9517 -1.3965  0.5457
 8092SOL    HW235739   0.727   0.599   5.453 -0.6046  0.3834 -0.0513
 8093SOL     OW35740   2.246   3.876  11.257  0.0257 -0.1425  0.4056
 8093SOL    HW135741   2.163   3.898  11.215  0.6987  0.6076 -0.5314
 8093SOL    HW235742   2.283   3.959  11.290 -2.4802  1.2585 -0.3073
 8094SOL     OW35743   2.023   3.348   7.178 -0.2209 -0.5119 -0.0155
 8094SOL    HW135744   2.053   3.439   7.177 -1.0971 -0.2264 -1.0038
 8094SOL    HW235745   2.079   3.297   7.237  0.3131  0.5772  0.4089
 8095SOL     OW35746   4.415   2.849   7.677 -0.0158  0.0294 -0.2959
 8095SOL    HW135747   4.441   2.836   7.768  2.9309 -0.4731 -1.2010
 8095SOL    HW235748   4.431   2.939   7.649 -2.5399  0.1150 -1.4135
 8096SOL     OW35749   3.713   1.196   8.476  0.3373 -0.2967  0.0339
 8096SOL    HW135750   3.720   1.278   8.525  1.6936  0.7268 -1.8826
 8096SOL    HW235751   3.793   1.192   8.424  0.5245  3.3754  0.0140
 8097SOL     OW35752   0.625   2.458   3.450 -0.1396 -0.0087 -0.0536
 8097SOL    HW135753   0.542   2.481   3.493  0.0690  1.5169 -0.4507
 8097SOL    HW235754   0.691   2.488   3.512  0.4888 -0.2553 -0.5973
 8098SOL     OW35755   2.618   1.830   8.827  0.0408 -0.0087 -0.0720
 8098SOL    HW135756   2.525   1.809   8.839 -0.6432  2.8351 -0.2379
 8098SOL    HW235757   2.624   1.923   8.849 -0.8108 -0.0818  0.4775
 8099SOL     OW35758   1.156   4.220   8.294 -0.0732 -0.2013  0.4390
 8099SOL    HW135759   1.212   4.279   8.244 -1.9835  2.2896  1.2311
 8099SOL    HW235760   1.070   4.261   8.292 -0.7813 -1.6417  1.0855
 8100SOL     OW35761   2.152   4.702   3.197 -0.8263 -0.1291 -0.4192
 8100SOL    HW135762   2.234   0.017   3.229 -1.0064 -0.4479  0.4431
 8100SOL    HW235763   2.139   0.019   3.112  1.3571  1.5828  0.0517
 8101SOL     OW35764   3.920   4.279   1.856 -0.2959 -0.2732  0.8116
 8101SOL    HW135765   3.959   4.235   1.780  0.0636  0.4146  0.5867
 8101SOL    HW235766   3.844   4.321   1.815  0.5495  1.1970  0.7268
 8102SOL     OW35767   4.577   4.579   5.519  0.5796 -0.3231 -0.0941
 8102SOL    HW135768   4.498   4.575   5.573  0.1178 -0.7253 -0.8045
 8102SOL    HW235769   4.626   4.509   5.562 -0.9317 -1.3263 -0.0018
 8103SOL     OW35770   3.187   4.335   6.315 -0.0749 -0.2999  0.2275
 8103SOL    HW135771   3.205   4.419   6.272 -0.7472  0.4625  1.4565
 8103SOL    HW235772   3.183   4.282   6.235  1.6697 -0.8291  0.4781
 8104SOL     OW35773   0.702   1.606   2.568  0.3455  1.2576  0.7789
 8104SOL    HW135774   0.751   1.551   2.506  4.0132  2.4308  2.6280
 8104SOL    HW235775   0.627   1.553   2.593  0.5867  0.2899 -0.5209
 8105SOL     OW35776   3.774   0.547   1.039  0.7687  0.5504  0.0120
 8105SOL    HW135777   3.685   0.516   1.025  0.4364  0.5408  2.1917
 8105SOL    HW235778   3.756   0.606   1.112  0.9378 -1.6320  1.7833
 8106SOL     OW35779   2.856   2.245   0.535  0.1375 -0.1811 -0.1060
 8106SOL    HW135780   2.798   2.177   0.500  1.5557 -0.5961 -1.6244
 8106SOL    HW235781   2.931   2.192   0.562 -1.2134 -2.3849 -0.6822
 8107SOL     OW35782   1.349   2.787   5.538  0.1730  0.4398  0.4690
 8107SOL    HW135783   1.412   2.734   5.488 -0.3464  1.0327 -0.8269
 8107SOL    HW235784   1.317   2.713   5.590  0.3450  0.2682  0.3330
 8108SOL     OW35785   4.587   0.475  11.951  0.1610  0.2817  0.0252
 8108SOL    HW135786   4.651   0.534  11.911  0.7503 -0.9421 -0.8165
 8108SOL    HW235787   4.527   0.468  11.876  1.3766  2.3330 -1.1367
 8109SOL     OW35788   2.509   4.594  16.486 -0.4220  0.4555  0.0456
 8109SOL    HW135789   2.524   4.548  16.569  0.3585 -0.5877 -0.6611
 8109SOL    HW235790   2.544   4.681  16.502 -0.5866  0.0528  2.5960
 8110SOL     OW35791   0.279   1.644   3.002 -0.1369  0.0296  0.2688
 8110SOL    HW135792   0.206   1.651   2.941  0.3560  0.7126 -0.2511
 8110SOL    HW235793   0.351   1.665   2.943 -0.5468  0.0542 -0.2206
 8111SOL     OW35794   3.607   1.675   7.044  0.1380  0.3677 -0.1445
 8111SOL    HW135795   3.672   1.604   7.039  0.2068  0.3581  0.7747
 8111SOL    HW235796   3.527   1.625   7.057 -0.2401  0.8812 -0.5209
 8112SOL     OW35797   3.333   0.009  10.085 -0.1692  1.3322  0.6566
 8112SOL    HW135798   3.290   4.676  10.151  1.0674  0.4384  0.7015
 8112SOL    HW235799   3.426   0.011  10.107  0.2870  3.0802 -1.4094
 8113SOL     OW35800   0.618   4.592   2.622  0.4765  0.1476  0.2445
 8113SOL    HW135801   0.682   4.572   2.553  0.0654  1.5861 -0.5768
 8113SOL    HW235802   0.537   4.579   2.572  1.4467  1.0671 -1.6015
 8114SOL     OW35803   0.658   0.242   1.697 -0.6963  0.8154  0.6193
 8114SOL    HW135804   0.743   0.274   1.667 -0.4000  1.2911  1.9777
 8114SOL    HW235805   0.668   0.148   1.683 -1.0982  0.7202  0.9862
 8115SOL     OW35806   1.346   1.873   4.525 -0.2443  0.5435 -0.0896
 8115SOL    HW135807   1.405   1.825   4.467 -0.7381 -0.0799 -0.0707
 8115SOL    HW235808   1.282   1.803   4.534  0.5887 -0.0541  1.2478
 8116SOL     OW35809   0.487   4.256  11.364  1.3892  0.4130 -0.5774
 8116SOL    HW135810   0.513   4.173  11.405 -2.1670  0.2576  1.3500
 8116SOL    HW235811   0.392   4.243  11.361  1.4829 -0.8014  1.2802
 8117SOL     OW35812   1.145   4.208   4.477  0.1918 -0.1443  0.0192
 8117SOL    HW135813   1.208   4.148   4.517 -0.5882 -0.8866  0.1365
 8117SOL    HW235814   1.067   4.156   4.493  0.1878 -0.4981 -1.1471
 8118SOL     OW35815   0.208   0.678   4.361 -0.4920  0.4330  0.3905
 8118SOL    HW135816   0.239   0.698   4.449 -0.1382  1.3104  0.0632
 8118SOL    HW235817   0.249   0.751   4.314  0.5776 -1.1657 -1.1796
 8119SOL     OW35818   0.739   0.466   7.081  0.2114  0.1125  0.5140
 8119SOL    HW135819   0.690   0.523   7.022 -0.8308  0.3848  1.6276
 8119SOL    HW235820   0.828   0.467   7.046  0.7495  1.0078  1.9033
 8120SOL     OW35821   2.652   0.097   8.018  0.4839  0.1953  0.0848
 8120SOL    HW135822   2.655   0.039   7.941  1.1646  0.8953 -0.4285
 8120SOL    HW235823   2.682   0.177   7.974 -1.8538  0.9546 -0.1246
 8121SOL     OW35824   1.290   1.119  16.525  0.0626  0.1730 -0.5451
 8121SOL    HW135825   1.380   1.097  16.547 -0.2588  0.4775  1.0843
 8121SOL    HW235826   1.296   1.189  16.459 -2.1192 -1.1619 -2.1947
 8122SOL     OW35827   0.466   2.074   7.435  0.5345 -0.4331 -0.1117
 8122SOL    HW135828   0.382   2.118   7.446  0.6507  0.1014 -1.2772
 8122SOL    HW235829   0.492   2.112   7.350  0.8323 -0.7450 -0.1571
 8123SOL     OW35830   2.461   2.294  17.667 -0.2344  0.0607 -0.2619
 8123SOL    HW135831   2.431   2.362  17.607  0.7798  1.7606  1.1587
 8123SOL    HW235832   2.385   2.284   0.031  0.3198 -1.2519  0.2442
 8124SOL     OW35833   0.456   2.305   6.064 -0.2393 -0.7020  0.2736
 8124SOL    HW135834   0.533   2.259   6.097  0.5470 -0.8723 -1.8260
 8124SOL    HW235835   0.395   2.313   6.138  0.4649  0.4546  0.7336
 8125SOL     OW35836   4.623   0.653   5.180  0.3681 -0.0496 -0.8260
 8125SOL    HW135837   4.713   0.686   5.178  0.0683  0.8120  0.0479
 8125SOL    HW235838   4.624   0.606   5.264 -2.1546 -0.4468 -1.0177
 8126SOL     OW35839   4.237   0.456   7.590  0.3516  0.0822 -0.1423
 8126SOL    HW135840   4.252   0.533   7.535 -2.1991  0.3092 -0.5367
 8126SOL    HW235841   4.269   0.482   7.676 -1.0008  1.6386 -0.1037
 8127SOL     OW35842   4.713   3.734   1.257  0.1157 -0.2912 -0.1981
 8127SOL    HW135843   0.001   3.707   1.166  3.2112  0.0028  0.0913
 8127SOL    HW235844   4.686   3.825   1.245 -2.2166 -0.9516  0.0948
 8128SOL     OW35845   1.812   1.549   7.618  0.0425  0.2175  0.2493
 8128SOL    HW135846   1.742   1.577   7.677  1.1421  1.4404  0.9776
 8128SOL    HW235847   1.762   1.525   7.540  1.3991  1.2554 -0.9449
 8129SOL     OW35848   1.145   0.080   7.215  0.8208  0.6045  0.2292
 8129SOL    HW135849   1.051   0.081   7.198  0.9697  0.6574 -0.6032
 8129SOL    HW235850   1.169   4.715   7.185  0.7479  0.1192  1.6240
 8130SOL     OW35851   3.455   1.943   0.312  0.0142 -0.8161 -0.5329
 8130SOL    HW135852   3.485   1.876   0.374  3.1631 -1.8167 -3.1138
 8130SOL    HW235853   3.361   1.924   0.311 -0.1685  0.1826 -1.7355
 8131SOL     OW35854   4.297   2.355   0.098 -0.3225  0.0268 -0.2887
 8131SOL    HW135855   4.311   2.423   0.033  0.6363  1.4427  1.4022
 8131SOL    HW235856   4.377   2.371   0.148 -0.6589 -0.2051  0.3272
 8132SOL     OW35857   2.748   3.060  12.828  0.1463 -0.1406 -0.5585
 8132SOL    HW135858   2.774   2.975  12.793  2.6114 -0.1638  1.3190
 8132SOL    HW235859   2.799   3.116  12.770  1.5852 -1.2665 -0.4054
 8133SOL     OW35860   4.017   4.549  16.734  0.5016 -0.3723  0.1177
 8133SOL    HW135861   4.000   4.644  16.736  1.4437 -0.1797 -1.3873
 8133SOL    HW235862   4.082   4.545  16.665 -1.4656 -0.3873 -1.7283
 8134SOL     OW35863   0.193   1.151   7.620  0.4897  0.0346  0.4438
 8134SOL    HW135864   0.149   1.231   7.590  0.6800  1.0437  2.8346
 8134SOL    HW235865   0.281   1.185   7.637 -0.6690  1.7988  2.9248
 8135SOL     OW35866   3.444   2.860   9.942  0.3596 -0.4044 -0.9827
 8135SOL    HW135867   3.519   2.914   9.918  0.6047  0.1100  0.9116
 8135SOL    HW235868   3.381   2.871   9.871 -0.6923 -1.3011 -0.1764
 8136SOL     OW35869   2.945   4.506   6.705 -0.0590 -0.2314 -0.7790
 8136SOL    HW135870   2.943   4.421   6.661  1.6155 -1.3154  1.2634
 8136SOL    HW235871   3.024   4.550   6.673 -0.1863  1.1980  0.8965
 8137SOL     OW35872   2.053   0.938   3.510  0.4887 -0.5217  0.3297
 8137SOL    HW135873   2.111   0.862   3.498  0.0023 -0.5475 -1.9927
 8137SOL    HW235874   2.103   1.007   3.467  3.1396 -1.9217  1.1879
 8138SOL     OW35875   0.950   0.024   0.895 -0.0781  0.0443  0.0204
 8138SOL    HW135876   1.001   0.048   0.972 -0.4574 -1.1054  0.6228
 8138SOL    HW235877   0.860   0.012   0.927 -0.3674 -1.2809 -1.2860
 8139SOL     OW35878   2.906   1.715   9.326  0.2249  0.3914  0.3552
 8139SOL    HW135879   2.906   1.785   9.261 -0.7676  3.0894  3.2157
 8139SOL    HW235880   2.982   1.750   9.373 -1.7643  4.0866  0.8196
 8140SOL     OW35881   2.332   0.593   5.330  0.3550  0.1845 -0.1480
 8140SOL    HW135882   2.369   0.518   5.283  0.5056  0.2844 -0.1899
 8140SOL    HW235883   2.367   0.574   5.417 -0.7950  1.9584  0.7014
 8141SOL     OW35884   2.074   0.460   1.436 -0.2684 -0.0585 -0.4871
 8141SOL    HW135885   2.131   0.509   1.495  1.5167 -1.6638 -0.8870
 8141SOL    HW235886   2.136   0.446   1.365  0.3425  2.1758 -0.3832
 8142SOL     OW35887   0.775   2.560  12.850  0.0933  0.1623  0.5265
 8142SOL    HW135888   0.791   2.467  12.867  1.1737  0.3563  0.5762
 8142SOL    HW235889   0.840   2.575  12.781 -0.4190 -0.2734 -0.0495
 8143SOL     OW35890   2.889   4.635   2.676 -0.3562 -0.5880  0.7495
 8143SOL    HW135891   2.892   4.711   2.734  0.8821  0.0245 -0.1207
 8143SOL    HW235892   2.977   4.599   2.674  0.0106  0.4059 -1.4317
 8144SOL     OW35893   0.978   1.191  10.135  0.6094 -0.2111 -0.0343
 8144SOL    HW135894   1.003   1.262  10.194  0.2786  1.0087 -1.3516
 8144SOL    HW235895   0.892   1.225  10.110  0.8657 -0.0061 -0.6445
 8145SOL     OW35896   4.188   1.241   7.378 -0.3824  0.5833 -0.1986
 8145SOL    HW135897   4.176   1.239   7.472 -0.7029 -2.6035 -0.3251
 8145SOL    HW235898   4.100   1.210   7.359  0.6650 -0.9409 -2.6626
 8146SOL     OW35899   3.685   1.069   3.817 -0.5488  0.6567  0.2851
 8146SOL    HW135900   3.640   1.049   3.899 -2.4076 -1.1538 -1.1842
 8146SOL    HW235901   3.668   0.981   3.783 -0.5167  1.5251 -2.0104
 8147SOL     OW35902   0.796   4.319   6.941 -0.9941  0.2948  0.1801
 8147SOL    HW135903   0.816   4.374   7.017 -2.2638  0.2035  0.5840
 8147SOL    HW235904   0.772   4.244   6.995  1.0245 -0.2426  0.3174
 8148SOL     OW35905   1.989   3.184   0.614  0.1888 -0.1878  0.2536
 8148SOL    HW135906   2.059   3.150   0.558  1.8035  1.2805  1.3729
 8148SOL    HW235907   1.932   3.109   0.603  1.0766 -0.8486  0.1807
 8149SOL     OW35908   0.310   1.315   4.834  0.2473  0.4018 -0.5412
 8149SOL    HW135909   0.256   1.252   4.881  3.1646 -1.4076  0.4199
 8149SOL    HW235910   0.338   1.361   4.913  0.8689 -0.6893 -0.1362
 8150SOL     OW35911   4.165   1.812   8.286 -0.6631  0.7914  0.1858
 8150SOL    HW135912   4.252   1.850   8.297 -0.2478  0.5041 -2.0984
 8150SOL    HW235913   4.130   1.828   8.373 -1.7315  0.0381 -0.0974
 8151SOL     OW35914   3.145   1.358   6.525  0.4124  0.2690 -0.1062
 8151SOL    HW135915   3.131   1.453   6.523  0.3805  0.2583 -0.4096
 8151SOL    HW235916   3.233   1.357   6.562  0.3503  1.1382  0.0633
 8152SOL     OW35917   4.008   1.930  10.988  0.1408 -0.3917 -0.0072
 8152SOL    HW135918   4.027   2.018  10.953  1.3782 -0.5481  0.2719
 8152SOL    HW235919   3.914   1.920  10.970 -0.1460  0.2435  1.1599
 8153SOL     OW35920   0.315   0.431   7.216 -0.0161 -0.1951 -0.1161
 8153SOL    HW135921   0.283   0.490   7.148  1.5210  0.3332 -0.3629
 8153SOL    HW235922   0.380   0.481   7.265  0.1188  0.1365 -0.6398
 8154SOL     OW35923   1.531   2.103   7.873  0.1968  0.3953 -0.5877
 8154SOL    HW135924   1.582   2.134   7.947 -2.7145 -0.8721  1.9561
 8154SOL    HW235925   1.579   2.023   7.850  0.7773  0.2965  0.9946
 8155SOL     OW35926   0.040   3.290   3.440  0.4877  0.3468  0.0517
 8155SOL    HW135927   0.107   3.356   3.426 -0.7602  1.6134  0.0091
 8155SOL    HW235928   4.719   3.287   3.355  2.2842 -0.5184 -0.8419
 8156SOL     OW35929   0.807   3.243   1.843 -0.6876 -0.1541  0.3091
 8156SOL    HW135930   0.738   3.221   1.780  0.2511 -2.9975  0.3089
 8156SOL    HW235931   0.773   3.320   1.889  1.4291  1.0960 -0.2226
 8157SOL     OW35932   0.049   1.139   7.335 -0.1815 -0.1905 -0.0246
 8157SOL    HW135933   4.719   1.088   7.274  0.7744  0.0789 -1.0740
 8157SOL    HW235934   0.129   1.088   7.327 -0.9769 -1.4958  0.3094
 8158SOL     OW35935   0.231   0.239   7.784 -0.6832 -0.1263  0.4488
 8158SOL    HW135936   0.208   0.231   7.692 -2.5320 -4.3366  1.2839
 8158SOL    HW235937   0.291   0.311   7.766  0.7366 -0.3234  4.2361
 8159SOL     OW35938   4.495   0.437   6.786 -0.5098 -0.5761 -0.5457
 8159SOL    HW135939   4.451   0.371   6.839 -0.4434 -0.7402 -0.6936
 8159SOL    HW235940   4.417   0.476   6.747 -0.6993  1.7603  2.2017
 8160SOL     OW35941   0.218   0.802   3.069 -0.1738 -0.4875  0.1466
 8160SOL    HW135942   0.278   0.802   2.994 -0.6801  1.7653 -0.2419
 8160SOL    HW235943   0.231   0.891   3.101 -1.1546 -0.7638  1.3062
 8161SOL     OW35944   0.255   3.030   0.205  0.5601 -0.3067 -0.3054
 8161SOL    HW135945   0.172   3.004   0.245  1.6851 -0.5076  1.9287
 8161SOL    HW235946   0.259   3.122   0.230  0.3965 -0.9826  2.2910
 8162SOL     OW35947   1.678   0.728  13.406  0.4028 -0.0848 -0.2579
 8162SOL    HW135948   1.628   0.743  13.326 -1.3275  2.2032  1.2547
 8162SOL    HW235949   1.712   0.641  13.384 -0.3817 -0.6942  0.8995
 8163SOL     OW35950   2.157   3.027   1.796  0.1888  0.3732 -0.3694
 8163SOL    HW135951   2.099   2.956   1.824 -0.0083  0.7360  0.1507
 8163SOL    HW235952   2.235   2.971   1.795  0.0244  0.1381 -0.0065
 8164SOL     OW35953   4.324   1.866  12.032  0.6597  0.4697 -0.2312
 8164SOL    HW135954   4.260   1.836  12.097  0.5208  0.5970 -0.3075
 8164SOL    HW235955   4.347   1.792  11.977  0.7847  1.3408 -1.3374
 8165SOL     OW35956   0.444   2.198   8.066 -0.8273  0.4364  0.4429
 8165SOL    HW135957   0.445   2.280   8.016  0.4149  0.2113  0.0884
 8165SOL    HW235958   0.399   2.217   8.148 -0.7166 -0.3867  0.6959
 8166SOL     OW35959   3.761   0.713   7.484 -0.1157  0.1008  0.1250
 8166SOL    HW135960   3.715   0.730   7.402  1.6340  0.9603 -0.6779
 8166SOL    HW235961   3.850   0.719   7.449  0.1894  1.8390  1.2000
 8167SOL     OW35962   0.397   1.075  13.342  0.0809 -0.1041  0.4192
 8167SOL    HW135963   0.329   1.040  13.285  0.8717  0.9472 -1.1628
 8167SOL    HW235964   0.413   1.002  13.402 -2.3228 -1.6670 -0.8645
 8168SOL     OW35965   1.558   3.187   0.491  0.0088 -0.4308 -0.2950
 8168SOL    HW135966   1.545   3.094   0.473 -1.5920 -0.3253  0.3088
 8168SOL    HW235967   1.514   3.204   0.574  0.1869  1.1717 -0.5269
 8169SOL     OW35968   4.339   0.565   3.507  0.6895 -0.1366 -0.3988
 8169SOL    HW135969   4.269   0.622   3.536  1.0299 -0.4569  1.0697
 8169SOL    HW235970   4.347   0.577   3.413 -0.1238 -2.6041 -0.7949
 8170SOL     OW35971   2.839   0.948  10.730 -0.1435 -0.0121  0.2637
 8170SOL    HW135972   2.816   0.868  10.683 -1.4629  0.5367 -0.0216
 8170SOL    HW235973   2.934   0.958  10.719 -0.2138  0.9277  0.5228
 8171SOL     OW35974   0.747   0.353  11.265 -0.2591  0.3305  0.2916
 8171SOL    HW135975   0.733   0.377  11.356  2.9877  0.0790  0.8801
 8171SOL    HW235976   0.731   0.441  11.229  1.0226 -0.6886 -2.7795
 8172SOL     OW35977   1.513   3.074   6.354 -0.6838 -0.2367 -1.2757
 8172SOL    HW135978   1.587   3.127   6.323  1.5183 -1.8681  1.1960
 8172SOL    HW235979   1.455   3.069   6.278  1.4392  0.0198 -2.9298
 8173SOL     OW35980   4.137   3.421   9.244 -0.0230 -0.2213 -0.1223
 8173SOL    HW135981   4.199   3.402   9.315 -1.2238 -1.6294  0.5430
 8173SOL    HW235982   4.142   3.345   9.187 -0.7329 -0.7651  0.5454
 8174SOL     OW35983   0.528   4.583  16.401 -0.2854  0.1032 -0.4012
 8174SOL    HW135984   0.584   4.517  16.359 -0.6359  0.3779 -1.2822
 8174SOL    HW235985   0.531   4.648  16.331 -3.0190 -0.9348 -1.4753
 8175SOL     OW35986   0.315   1.349  13.412 -0.1409 -0.1519 -0.2760
 8175SOL    HW135987   0.334   1.256  13.404  0.0508 -0.0468 -1.0646
 8175SOL    HW235988   0.253   1.362  13.340 -1.0299 -0.5134  0.4258
 8176SOL     OW35989   2.672   1.828   0.168  0.2727  0.4882 -0.1769
 8176SOL    HW135990   2.688   1.918   0.195 -0.4785  0.5405  0.0917
 8176SOL    HW235991   2.748   1.783   0.205 -0.4167 -0.2591  0.3409
 8177SOL     OW35992   4.628   3.236   1.472  0.6186  0.1553  0.0519
 8177SOL    HW135993   4.630   3.226   1.377 -0.8557  5.0114 -0.4556
 8177SOL    HW235994   4.545   3.196   1.501  0.9630 -0.6998 -0.1327
 8178SOL     OW35995   3.674   2.487  11.426  0.6882 -0.6184  1.1483
 8178SOL    HW135996   3.658   2.421  11.359 -1.0188 -0.5194  1.4396
 8178SOL    HW235997   3.746   2.442  11.471  1.9025 -0.3331 -0.5109
 8179SOL     OW35998   1.336   0.353   2.480  0.0713  0.2528 -0.6448
 8179SOL    HW135999   1.252   0.315   2.455  0.0385  0.4241 -0.7973
 8179SOL    HW236000   1.341   0.431   2.425 -1.0017 -0.2706 -1.4730
 8180SOL     OW36001   3.178   1.843   3.237 -0.0874 -0.5116  0.1799
 8180SOL    HW136002   3.152   1.935   3.232  0.8272 -0.2341  0.6364
 8180SOL    HW236003   3.096   1.802   3.208 -1.0257  1.5172 -0.0502
 8181SOL     OW36004   2.485   0.862   3.234 -0.6559 -0.6648  0.3459
 8181SOL    HW136005   2.403   0.822   3.206 -2.1406  1.3618  1.8073
 8181SOL    HW236006   2.542   0.791   3.205 -1.0185 -1.4563  1.5644
 8182SOL     OW36007   0.579   3.913   7.592  0.3590  0.0532 -0.5279
 8182SOL    HW136008   0.579   3.836   7.649 -1.4624  0.6252  0.2581
 8182SOL    HW236009   0.495   3.954   7.613  0.1146  0.0625 -1.5347
 8183SOL     OW36010   0.028   3.206   5.472 -0.0494 -0.0043 -0.1954
 8183SOL    HW136011   0.093   3.159   5.420  0.6413  1.0252 -0.2534
 8183SOL    HW236012   0.091   3.254   5.526  0.4339 -3.1400  1.9680
 8184SOL     OW36013   0.988   1.599   5.302  0.2013  0.2634 -0.2030
 8184SOL    HW136014   0.964   1.519   5.256  2.1232 -1.9643  2.7180
 8184SOL    HW236015   0.975   1.660   5.229 -1.7546  0.3198  0.1951
 8185SOL     OW36016   0.456   1.480  10.936 -0.3036  0.0683 -0.1545
 8185SOL    HW136017   0.469   1.570  10.965  1.6164 -0.0985 -0.5247
 8185SOL    HW236018   0.395   1.482  10.862 -0.8734  0.1294  0.3221
 8186SOL     OW36019   2.531   3.393   5.754  0.1254 -0.1870 -0.5205
 8186SOL    HW136020   2.500   3.396   5.663  0.7462  0.2030 -0.7208
 8186SOL    HW236021   2.488   3.466   5.800 -0.6522 -1.0540  0.1137
 8187SOL     OW36022   1.564   3.616   4.543  0.0670 -0.4744 -0.0676
 8187SOL    HW136023   1.586   3.706   4.517  1.1359 -0.1906  1.8124
 8187SOL    HW236024   1.519   3.637   4.625  2.1225  0.6869  0.7505
 8188SOL     OW36025   3.315   0.715   0.658 -0.2220  0.3462  0.6966
 8188SOL    HW136026   3.228   0.748   0.635  0.1903  0.7482 -0.3041
 8188SOL    HW236027   3.315   0.628   0.617 -0.0001  0.1886  1.0270
 8189SOL     OW36028   0.715   1.068   8.069  0.0290  0.4102  0.0179
 8189SOL    HW136029   0.783   1.007   8.040 -1.6515 -2.1256  1.3990
 8189SOL    HW236030   0.761   1.128   8.127 -1.6875  1.3793  0.3742
 8190SOL     OW36031   1.990   3.291   1.784 -0.0684  0.3308 -0.1422
 8190SOL    HW136032   1.901   3.262   1.801 -0.5108  0.5646 -2.0804
 8190SOL    HW236033   2.039   3.209   1.787 -1.0728 -0.1778  2.2413
 8191SOL     OW36034   0.023   0.034   9.729  0.2463 -0.5840  0.6638
 8191SOL    HW136035   0.097   0.004   9.675  1.2981 -0.1256  1.8414
 8191SOL    HW236036   0.001   0.121   9.696  3.2649  0.0616  0.2732
 8192SOL     OW36037   0.885   0.700  11.471  0.4835  0.1711  0.2336
 8192SOL    HW136038   0.850   0.685  11.383  1.0651  1.4524 -0.2273
 8192SOL    HW236039   0.941   0.772  11.441 -1.1964  0.7489 -1.5110
 8193SOL     OW36040   0.413   3.153   6.148  0.3899  0.3758  0.0373
 8193SOL    HW136041   0.421   3.188   6.059  0.9970  0.3288  0.0699
 8193SOL    HW236042   0.469   3.076   6.140  0.1392  0.1562  0.4068
 8194SOL     OW36043   4.708   1.276   3.449  0.3519 -0.7582 -0.0888
 8194SOL    HW136044   0.007   1.369   3.461 -0.2086 -0.8098  1.2913
 8194SOL    HW236045   4.630   1.281   3.394 -0.9395  1.8624  1.9823
 8195SOL     OW36046   1.206   3.370   2.892 -0.3700 -0.2511 -0.1452
 8195SOL    HW136047   1.219   3.301   2.828  0.0550 -1.0935  0.8555
 8195SOL    HW236048   1.295   3.404   2.902 -0.5195  0.1919 -0.3031
 8196SOL     OW36049   0.045   4.401   6.031  0.1502  0.3076 -0.1616
 8196SOL    HW136050   0.117   4.362   5.981 -0.6523 -2.5546  0.9525
 8196SOL    HW236051   0.096   4.474   6.067 -1.9648  2.0128 -0.6295
 8197SOL     OW36052   2.587   3.772   2.244 -0.7129  0.1556  0.1569
 8197SOL    HW136053   2.668   3.770   2.295  0.7545  2.3958 -2.1150
 8197SOL    HW236054   2.529   3.832   2.291 -0.9648  0.2942 -0.3409
 8198SOL     OW36055   0.957   3.297   8.979  0.0688  0.6555 -0.0767
 8198SOL    HW136056   0.974   3.363   8.912  0.6210 -1.3903 -1.9368
 8198SOL    HW236057   0.911   3.229   8.930  0.0622 -0.2806  1.2298
 8199SOL     OW36058   3.125   2.741  11.190  0.2506  0.0034 -0.2911
 8199SOL    HW136059   3.140   2.811  11.254 -1.5756  1.7646 -1.8239
 8199SOL    HW236060   3.154   2.661  11.234  2.4414  0.0147 -1.7256
 8200SOL     OW36061   2.523   2.677   6.375 -0.3787  0.4247 -0.4733
 8200SOL    HW136062   2.586   2.608   6.354 -0.6919  0.0627 -0.2237
 8200SOL    HW236063   2.584   2.749   6.360  0.9708 -1.2089 -2.8029
 8201SOL     OW36064   3.414   1.106  14.912  0.0566  0.1716  0.2471
 8201SOL    HW136065   3.451   1.066  14.991 -2.3067 -1.0294  0.7636
 8201SOL    HW236066   3.478   1.170  14.880  0.0634  0.7446  1.3902
 8202SOL     OW36067   2.287   2.437   3.340 -0.8221 -0.3143 -0.3840
 8202SOL    HW136068   2.355   2.427   3.407 -1.9182  0.4614  0.8341
 8202SOL    HW236069   2.248   2.512   3.384 -0.4191 -0.4138  0.1470
 8203SOL     OW36070   3.605   2.025   2.624 -0.0081 -0.3969 -0.3286
 8203SOL    HW136071   3.550   2.062   2.692 -1.0355 -2.1594 -0.2047
 8203SOL    HW236072   3.552   2.035   2.545 -2.7304 -0.9442  1.4313
 8204SOL     OW36073   0.433   0.831   5.249  0.1015  0.2382 -0.3853
 8204SOL    HW136074   0.490   0.756   5.234  0.4209  0.2291  0.9308
 8204SOL    HW236075   0.439   0.871   5.162 -0.6442  1.7699  0.2500
 8205SOL     OW36076   4.303   3.687   5.522 -0.3867  0.3121  0.1981
 8205SOL    HW136077   4.253   3.606   5.513 -1.2537  0.6424  2.0107
 8205SOL    HW236078   4.277   3.741   5.447  1.4161  1.6843  0.5862
 8206SOL     OW36079   3.083   1.819   4.582 -0.4337  0.1502  0.3300
 8206SOL    HW136080   3.174   1.797   4.600  0.1031  2.7140  0.7673
 8206SOL    HW236081   3.058   1.850   4.670 -0.3398 -1.0366  0.7676
 8207SOL     OW36082   1.613   3.852   4.460 -0.2060  0.2315 -0.4408
 8207SOL    HW136083   1.696   3.850   4.508 -0.5136  0.6524  0.1045
 8207SOL    HW236084   1.640   3.919   4.397  3.7822 -1.8462 -0.9326
 8208SOL     OW36085   3.335   2.152  14.041  0.1076 -0.3589 -0.2416
 8208SOL    HW136086   3.384   2.128  13.963 -0.3679  1.0919 -0.9836
 8208SOL    HW236087   3.321   2.243  14.014 -3.1292 -0.1436  2.2002
 8209SOL     OW36088   1.558   3.388   2.528 -0.1179 -0.0946  0.4369
 8209SOL    HW136089   1.617   3.411   2.457 -2.4562 -2.2826 -2.1846
 8209SOL    HW236090   1.617   3.383   2.604  1.5943  1.3188 -0.8041
 8210SOL     OW36091   4.266   0.662  13.472  0.7110 -0.2734  0.7620
 8210SOL    HW136092   4.200   0.609  13.428  0.8740 -0.1165  0.3309
 8210SOL    HW236093   4.222   0.744  13.494 -1.0512 -1.4354  1.5701
 8211SOL     OW36094   2.317   1.725   3.941 -0.3886 -0.1459 -0.4906
 8211SOL    HW136095   2.398   1.696   3.981 -0.6180  0.5430  0.4654
 8211SOL    HW236096   2.341   1.810   3.904  2.0217 -1.3013 -1.5880
 8212SOL     OW36097   0.497   0.728   6.452  0.2779  0.6225 -0.3097
 8212SOL    HW136098   0.515   0.653   6.508  0.7531  1.0481  0.1120
 8212SOL    HW236099   0.415   0.751   6.495  0.5029  0.4981  0.1831
 8213SOL     OW36100   2.295   2.051  17.635 -0.5652  0.0217  0.4836
 8213SOL    HW136101   2.263   2.043   0.032  0.1058  0.2815  0.7435
 8213SOL    HW236102   2.222   2.103  17.603 -0.6506 -1.2376 -1.3203
 8214SOL     OW36103   3.965   0.791   4.018 -0.1375 -0.3108  0.3016
 8214SOL    HW136104   4.037   0.798   4.080  0.0030 -1.1589  0.2282
 8214SOL    HW236105   3.978   0.869   3.965  0.5949 -1.4230 -1.1268
 8215SOL     OW36106   2.425   3.577  10.085  0.4719  0.8376 -0.0194
 8215SOL    HW136107   2.460   3.563  10.173 -1.7202 -1.2548  0.4975
 8215SOL    HW236108   2.349   3.634  10.095 -1.0107 -1.0469 -0.6347
 8216SOL     OW36109   3.444   4.494   4.573  0.3930 -0.0917  0.0743
 8216SOL    HW136110   3.456   4.575   4.622  2.4617 -0.8906  0.9263
 8216SOL    HW236111   3.354   4.515   4.550  0.8837  3.1948  1.1902
 8217SOL     OW36112   1.093   1.357   6.380  0.3696 -0.1413 -0.0272
 8217SOL    HW136113   1.151   1.312   6.318  0.8496 -1.0535  1.0806
 8217SOL    HW236114   1.007   1.326   6.354 -0.4431  2.2829 -0.1829
 8218SOL     OW36115   3.487   3.616   2.573  0.1178  0.3543  0.2503
 8218SOL    HW136116   3.560   3.566   2.537 -0.1403  0.5695 -0.5604
 8218SOL    HW236117   3.452   3.539   2.618 -1.3681 -0.8854 -3.0884
 8219SOL     OW36118   3.769   3.385   8.403  0.6893  0.0046  0.2842
 8219SOL    HW136119   3.768   3.471   8.362 -0.3504  0.1145  0.5363
 8219SOL    HW236120   3.739   3.333   8.328 -0.0998  0.4622  0.2842
 8220SOL     OW36121   0.542   0.755  12.458  0.2762  0.2719 -0.0173
 8220SOL    HW136122   0.589   0.748  12.541 -0.4920 -0.0284  0.3914
 8220SOL    HW236123   0.548   0.849  12.444  0.2996  0.1970 -0.4881
 8221SOL     OW36124   0.106   3.253   3.013  0.4224 -0.1462  0.3419
 8221SOL    HW136125   0.122   3.206   2.932 -3.1939 -0.6604 -0.0592
 8221SOL    HW236126   0.187   3.305   3.016  0.3000  0.1045 -0.7351
 8222SOL     OW36127   3.341   3.251   1.426 -0.4025  0.3211 -0.5240
 8222SOL    HW136128   3.391   3.318   1.471 -1.2978  1.0963 -0.6660
 8222SOL    HW236129   3.249   3.270   1.443 -0.2174 -0.0091  0.8348
 8223SOL     OW36130   4.379   2.228   2.705 -0.0708 -0.2488 -0.0505
 8223SOL    HW136131   4.433   2.177   2.644  0.6516  1.9908 -1.2818
 8223SOL    HW236132   4.415   2.193   2.786  1.9134 -0.4928 -1.0250
 8224SOL     OW36133   0.911   2.717   2.902  0.5791  0.5351  0.4267
 8224SOL    HW136134   0.929   2.687   2.812 -0.6892  0.9793  0.0303
 8224SOL    HW236135   0.820   2.744   2.888 -0.3967 -3.2917 -0.7104
 8225SOL     OW36136   3.306   3.776  14.056  0.5237 -0.4103  0.1677
 8225SOL    HW136137   3.361   3.840  14.012  0.4646 -0.1185  0.5245
 8225SOL    HW236138   3.217   3.802  14.031  0.9566  2.5720  1.7774
 8226SOL     OW36139   3.667   2.698  16.148  0.1415  0.2366  0.3773
 8226SOL    HW136140   3.629   2.727  16.066  2.5117 -0.8550 -1.0893
 8226SOL    HW236141   3.687   2.607  16.126 -3.0097 -0.2396 -0.4265
 8227SOL     OW36142   4.025   4.368   3.220 -0.7008  0.2309 -0.8240
 8227SOL    HW136143   4.099   4.380   3.161  0.1673 -2.3293 -0.2268
 8227SOL    HW236144   4.045   4.279   3.247  0.4755  0.2114 -1.8034
 8228SOL     OW36145   3.040   1.203   7.237  0.5656  0.0758 -0.0416
 8228SOL    HW136146   2.958   1.246   7.262  0.5827  0.9952 -1.5679
 8228SOL    HW236147   3.001   1.125   7.199  0.9508 -0.7973  1.3582
 8229SOL     OW36148   2.422   0.346   3.819 -0.6069 -0.4666  0.0448
 8229SOL    HW136149   2.385   0.275   3.767 -1.1706 -0.4572  0.4368
 8229SOL    HW236150   2.399   0.316   3.908  2.2676  1.6387  1.4995
 8230SOL     OW36151   0.913   2.807   7.365 -0.5736  0.0830  0.4872
 8230SOL    HW136152   0.960   2.809   7.449  0.9736 -1.5074 -0.3336
 8230SOL    HW236153   0.885   2.716   7.363 -1.0032  0.2850 -2.5244
 8231SOL     OW36154   0.997   3.389   7.904 -0.1080  0.7493 -0.0886
 8231SOL    HW136155   0.977   3.300   7.875  0.9879  0.8225 -1.0579
 8231SOL    HW236156   0.911   3.423   7.931 -0.8275 -0.6868 -0.5783
 8232SOL     OW36157   0.038   2.480  12.831 -0.1592  0.0049  0.1633
 8232SOL    HW136158   0.006   2.482  12.740 -1.1784 -0.9240  0.4923
 8232SOL    HW236159   0.132   2.491  12.817 -0.0159 -1.5519 -0.1072
 8233SOL     OW36160   3.180   3.831  12.055  0.0970 -0.1880 -0.4772
 8233SOL    HW136161   3.201   3.799  12.143  0.9193 -0.6135 -0.8261
 8233SOL    HW236162   3.250   3.786  12.008 -0.7184 -0.8020 -1.0931
 8234SOL     OW36163   1.069   3.409  15.589 -0.0985 -0.2570  0.0915
 8234SOL    HW136164   1.145   3.374  15.635  0.3280  0.5091 -0.0272
 8234SOL    HW236165   0.993   3.388  15.643  1.1022  0.6011  2.1131
 8235SOL     OW36166   0.906   3.896   3.015 -0.2399  0.3230  0.2962
 8235SOL    HW136167   0.921   3.815   2.965 -0.9269  0.3492  0.0492
 8235SOL    HW236168   0.871   3.945   2.940 -0.4820 -0.8774 -0.3802
 8236SOL     OW36169   0.754   3.011   5.511 -0.1869 -0.4085 -0.4319
 8236SOL    HW136170   0.691   2.941   5.493 -2.2782  1.0379  1.2178
 8236SOL    HW236171   0.819   2.989   5.445 -0.9336 -0.1578 -1.2597
 8237SOL     OW36172   0.080   3.387   4.977  0.2643  0.1286 -0.2166
 8237SOL    HW136173   0.116   3.382   5.065 -0.4017 -2.6597 -0.0995
 8237SOL    HW236174   0.081   3.295   4.950 -0.4238  0.2460 -0.6441
 8238SOL     OW36175   2.326   0.737  10.469 -0.3807 -0.1337  0.0350
 8238SOL    HW136176   2.296   0.673  10.405  0.8817 -0.0050 -0.6891
 8238SOL    HW236177   2.319   0.686  10.550 -1.7864  0.0901  0.0632
 8239SOL     OW36178   0.052   3.845   2.144 -0.2553  0.8848 -0.6483
 8239SOL    HW136179   4.718   3.768   2.150  1.8620 -0.6549 -0.3436
 8239SOL    HW236180   0.137   3.820   2.109 -0.3906 -0.9711  0.3708
 8240SOL     OW36181   3.844   3.340   2.759  0.7509  0.5186  0.1693
 8240SOL    HW136182   3.758   3.323   2.799 -0.7029  1.7192 -2.4519
 8240SOL    HW236183   3.827   3.307   2.670  1.5194  0.6618 -0.0292
 8241SOL     OW36184   4.533   2.679  17.489  0.1989 -0.2195  0.4721
 8241SOL    HW136185   4.513   2.768  17.518 -0.7895 -0.8918  1.8938
 8241SOL    HW236186   4.473   2.671  17.415 -1.8703  1.6831  1.9025
 8242SOL     OW36187   3.799   1.090   8.821  0.0790 -0.3221  0.1518
 8242SOL    HW136188   3.707   1.117   8.815 -0.9699 -3.9851  0.0601
 8242SOL    HW236189   3.839   1.156   8.878 -3.2228  3.6068 -2.0522
 8243SOL     OW36190   3.034   4.512   2.938 -0.1188 -0.1972  0.0655
 8243SOL    HW136191   3.090   4.535   2.864 -0.8954 -1.0936 -0.7844
 8243SOL    HW236192   3.023   4.418   2.929  0.0979 -0.3106  0.9552
 8244SOL     OW36193   1.727   0.537  13.764  0.1061 -0.2069  0.2288
 8244SOL    HW136194   1.735   0.629  13.742 -0.8958  0.2568  1.8232
 8244SOL    HW236195   1.635   0.518  13.746  0.4867  0.8879 -2.7287
 8245SOL     OW36196   4.545   1.020   1.924  0.4008 -0.4795  0.1207
 8245SOL    HW136197   4.534   0.974   2.007 -1.1278  0.8711  0.6757
 8245SOL    HW236198   4.546   1.111   1.955 -0.5399 -0.6307  0.6128
 8246SOL     OW36199   0.884   2.242   8.502  0.4034  0.2434 -1.1424
 8246SOL    HW136200   0.790   2.228   8.486 -0.1313  1.5214  0.9094
 8246SOL    HW236201   0.921   2.186   8.434  4.2272 -0.8602  1.8521
 8247SOL     OW36202   2.536   4.566   4.449 -0.1890  0.2205 -0.0215
 8247SOL    HW136203   2.537   4.595   4.540 -2.5297 -2.8926  0.9440
 8247SOL    HW236204   2.579   4.481   4.451  0.4124  0.4808 -1.7454
 8248SOL     OW36205   3.845   1.287   0.422 -0.1238 -0.4178  0.2508
 8248SOL    HW136206   3.848   1.301   0.327  1.3803 -1.2166  0.1767
 8248SOL    HW236207   3.777   1.221   0.418 -0.1591 -0.2517 -2.0461
 8249SOL     OW36208   1.109   1.739   4.521 -0.0052  0.2068 -0.5035
 8249SOL    HW136209   1.027   1.764   4.564 -0.7023  0.3244 -1.9319
 8249SOL    HW236210   1.076   1.729   4.432  0.5697 -0.3275 -0.6559
 8250SOL     OW36211   4.046   3.505   4.495 -0.6644  0.1654  0.0872
 8250SOL    HW136212   3.993   3.565   4.548 -1.9365  0.5509 -1.6365
 8250SOL    HW236213   4.102   3.566   4.446  0.2729 -1.5515 -0.9734
 8251SOL     OW36214   1.233   1.478   4.571 -0.4765 -0.8390 -0.2516
 8251SOL    HW136215   1.180   1.547   4.612  0.2366 -1.7670  2.2539
 8251SOL    HW236216   1.199   1.473   4.482 -2.1206  2.8175  0.1596
 8252SOL     OW36217   1.212   3.125  13.107  0.0319 -0.4394 -0.0949
 8252SOL    HW136218   1.168   3.107  13.024 -0.1989  2.5639 -0.6346
 8252SOL    HW236219   1.154   3.187  13.152  1.1126  0.8464 -0.4777
 8253SOL     OW36220   0.192   0.445  12.046  0.0717 -0.3917 -0.1102
 8253SOL    HW136221   0.138   0.488  11.980 -1.0558  0.0924  1.1377
 8253SOL    HW236222   0.129   0.388  12.089  2.9078 -1.5931  2.5408
 8254SOL     OW36223   0.954   1.848   7.219  0.0266 -0.2207  0.6801
 8254SOL    HW136224   0.938   1.921   7.278  0.4424 -0.0356  0.5631
 8254SOL    HW236225   0.880   1.834   7.160  1.5328  0.5631 -1.3995
 8255SOL     OW36226   4.664   3.673   5.419 -0.0530  0.0505  0.2190
 8255SOL    HW136227   4.619   3.624   5.488 -0.7582  0.0854 -0.2088
 8255SOL    HW236228   4.696   3.603   5.361  2.0326  0.3018  1.0684
 8256SOL     OW36229   4.690   3.704   9.362  0.2670  0.2750  0.6793
 8256SOL    HW136230   0.036   3.704   9.295 -0.1293  1.0085  0.2671
 8256SOL    HW236231   4.637   3.776   9.326 -1.1168 -0.9030  0.3180
 8257SOL     OW36232   4.192   4.378   3.008 -0.4329 -0.0086  0.0426
 8257SOL    HW136233   4.193   4.417   2.921  5.0380  0.1079  0.1317
 8257SOL    HW236234   4.166   4.289   2.987  0.9320 -0.1129 -1.2256
 8258SOL     OW36235   3.092   4.249   7.947 -0.2756  0.4346 -0.5971
 8258SOL    HW136236   3.149   4.261   8.024 -0.3724  1.8236 -0.7430
 8258SOL    HW236237   3.097   4.154   7.936  0.4834  0.3021  0.8661
 8259SOL     OW36238   1.433   4.707   0.774  0.8338 -0.9357  0.1134
 8259SOL    HW136239   1.349   0.030   0.766  1.9305  0.8850 -0.8004
 8259SOL    HW236240   1.413   4.651   0.849 -0.2877 -2.6082 -1.4397
 8260SOL     OW36241   1.382   2.948   2.201  0.0135 -0.0049  0.2041
 8260SOL    HW136242   1.406   2.990   2.119 -0.4129 -1.0842 -0.4727
 8260SOL    HW236243   1.295   2.914   2.181 -0.4547  1.6847 -0.5798
 8261SOL     OW36244   0.636   0.826   6.730 -0.2866 -0.3591 -0.1642
 8261SOL    HW136245   0.721   0.814   6.686 -0.4739  2.1179 -1.1893
 8261SOL    HW236246   0.587   0.878   6.667 -1.4899  0.9632  1.9153
 8262SOL     OW36247   2.299   2.327   2.509  0.3355 -0.0898  0.2304
 8262SOL    HW136248   2.330   2.344   2.420 -1.6686  0.5684 -0.3534
 8262SOL    HW236249   2.332   2.397   2.565  1.4148  1.3800 -2.2701
 8263SOL     OW36250   3.114   1.883  10.350  0.2418  0.3635  0.6371
 8263SOL    HW136251   3.114   1.801  10.301 -0.6509  0.8413 -0.1718
 8263SOL    HW236252   3.202   1.881  10.386 -0.0634  0.8742  1.4238
 8264SOL     OW36253   0.498   3.953  15.540 -0.2435 -0.1650 -0.1839
 8264SOL    HW136254   0.411   3.918  15.559 -0.3039  0.7628  1.1963
 8264SOL    HW236255   0.552   3.874  15.548  2.8360  1.9615  0.0886
 8265SOL     OW36256   0.331   2.052   4.816  0.3806 -1.0674 -0.4719
 8265SOL    HW136257   0.313   2.093   4.731  1.2027  0.2196 -0.0248
 8265SOL    HW236258   0.251   2.076   4.863  0.8263 -1.0226  0.2595
 8266SOL     OW36259   1.520   3.748   4.816 -0.1459 -0.2269  0.6527
 8266SOL    HW136260   1.522   3.842   4.797 -0.1809 -0.3220  0.1777
 8266SOL    HW236261   1.569   3.755   4.898 -2.0864  0.0966  1.7619
 8267SOL     OW36262   4.327   1.900   2.675  0.2394  0.8427 -0.1691
 8267SOL    HW136263   4.265   1.952   2.726 -0.2372 -0.1455  0.2373
 8267SOL    HW236264   4.390   1.967   2.646 -0.4125  0.8061 -1.6828
 8268SOL     OW36265   1.001   1.724   5.068 -0.3078 -0.1086  0.1975
 8268SOL    HW136266   0.930   1.728   5.005 -0.5963  0.5674  0.5622
 8268SOL    HW236267   1.069   1.728   5.001  0.2702  0.1271  0.8005
 8269SOL     OW36268   1.433   0.488   7.824  0.4859  0.5715 -0.1214
 8269SOL    HW136269   1.374   0.414   7.808 -0.1270  0.8030  1.0295
 8269SOL    HW236270   1.393   0.508   7.909 -1.8515  1.2192 -1.3554
 8270SOL     OW36271   2.363   1.151   4.254  0.0113 -0.5521  0.1024
 8270SOL    HW136272   2.389   1.234   4.213  0.6904  0.3988  2.4980
 8270SOL    HW236273   2.345   1.170   4.346  0.8684  1.0786 -0.0553
 8271SOL     OW36274   0.692   0.211   9.630  0.5937 -0.9066  0.3350
 8271SOL    HW136275   0.716   0.130   9.676 -2.5333 -1.7814  0.4086
 8271SOL    HW236276   0.770   0.223   9.576 -0.2468  0.8686 -0.4805
 8272SOL     OW36277   0.180   0.225  14.367  0.3806 -0.9302 -0.2320
 8272SOL    HW136278   0.253   0.188  14.317  2.6285  2.2858  0.6661
 8272SOL    HW236279   0.106   0.205  14.309  0.6233  1.3410 -1.3390
 8273SOL     OW36280   4.441   0.713   5.715 -0.2008 -0.1575  0.0643
 8273SOL    HW136281   4.457   0.619   5.706  0.6458  0.0828 -0.9851
 8273SOL    HW236282   4.372   0.717   5.649 -0.1468  0.7311  0.0665
 8274SOL     OW36283   0.465   4.220   3.277 -0.3324  0.5206  0.2961
 8274SOL    HW136284   0.513   4.165   3.339  1.2352  0.0609 -1.2877
 8274SOL    HW236285   0.525   4.194   3.206 -0.1548  1.1061  0.2350
 8275SOL     OW36286   0.981   2.576  12.654 -0.0097  0.3207 -0.0406
 8275SOL    HW136287   0.993   2.507  12.588 -0.0879 -0.0494  0.3303
 8275SOL    HW236288   1.056   2.560  12.710  1.2767  1.7608 -1.3420
 8276SOL     OW36289   2.938   3.508   2.886  0.1167  0.1108  0.4865
 8276SOL    HW136290   3.004   3.576   2.885 -0.0812  0.2919 -0.1363
 8276SOL    HW236291   2.963   3.454   2.961  0.8762  1.6188  1.3156
 8277SOL     OW36292   4.568   3.763  14.373 -0.3441  0.2441  0.1159
 8277SOL    HW136293   4.553   3.729  14.462 -2.0835 -2.5522 -1.2285
 8277SOL    HW236294   4.513   3.699  14.327  0.3016 -0.8326  0.8420
 8278SOL     OW36295   3.659   3.669  11.814  0.2247  0.4050 -0.2016
 8278SOL    HW136296   3.629   3.606  11.879 -2.0169  1.4694 -0.2118
 8278SOL    HW236297   3.703   3.612  11.751 -0.4368  0.4082 -0.6691
 8279SOL     OW36298   0.893   1.133   7.172  0.1065  0.5871 -0.6847
 8279SOL    HW136299   0.901   1.228   7.167 -1.8308  0.8396  1.0059
 8279SOL    HW236300   0.841   1.120   7.092 -2.8092  1.2646  1.0844
 8280SOL     OW36301   3.131   3.747  13.677  0.3972  1.1450  0.0352
 8280SOL    HW136302   3.075   3.678  13.642 -1.0351  1.6959  1.2259
 8280SOL    HW236303   3.166   3.691  13.746 -1.6186 -1.3947 -1.0037
 8281SOL     OW36304   1.507   2.321  13.054 -0.0904 -0.1124 -0.1544
 8281SOL    HW136305   1.479   2.391  13.114  0.4975  2.0284 -2.3622
 8281SOL    HW236306   1.558   2.260  13.107  0.4425  1.1425  0.7905
 8282SOL     OW36307   4.711   3.542   1.935  0.1246  0.0007  0.5023
 8282SOL    HW136308   4.647   3.575   1.998  0.2779  0.2706  0.5157
 8282SOL    HW236309   4.686   3.449   1.933  2.6896 -0.6562 -0.8800
 8283SOL     OW36310   1.912   0.122   4.901 -0.0659  0.4266  0.0699
 8283SOL    HW136311   1.820   0.143   4.890  0.2283  1.6949  0.1200
 8283SOL    HW236312   1.919   0.026   4.895 -0.2063  0.3272  1.4252
 8284SOL     OW36313   4.689   0.508  17.521 -0.2072  0.0004  0.0527
 8284SOL    HW136314   4.668   0.533  17.611  0.9209 -0.9507  0.5763
 8284SOL    HW236315   0.053   0.546  17.516 -0.5112  0.6962  0.0664
 8285SOL     OW36316   1.700   3.117   4.022  0.0570  0.8508  0.2687
 8285SOL    HW136317   1.785   3.084   3.993 -0.6966  0.4317 -1.4717
 8285SOL    HW236318   1.689   3.184   3.955 -1.0287  0.5729  0.1665
 8286SOL     OW36319   4.208   4.697   4.707 -0.2894  0.2886 -0.0118
 8286SOL    HW136320   4.208   4.631   4.637  1.0812 -0.5557  0.7947
 8286SOL    HW236321   4.301   4.714   4.695 -0.1539 -1.2586 -1.1944
 8287SOL     OW36322   2.311   2.384   8.550  0.3730 -0.0039 -0.0345
 8287SOL    HW136323   2.354   2.454   8.501  0.3853 -0.3897 -0.5705
 8287SOL    HW236324   2.381   2.355   8.608  0.7383  1.3384  0.1953
 8288SOL     OW36325   1.439   1.581   5.165 -0.7836  0.8273 -0.0959
 8288SOL    HW136326   1.459   1.616   5.078 -0.4051 -2.5409 -1.3667
 8288SOL    HW236327   1.527   1.576   5.202 -0.9378  0.0239  0.1689
 8289SOL     OW36328   3.703   0.060   4.679  0.0563 -0.5304  0.6092
 8289SOL    HW136329   3.626   0.030   4.728 -0.8110 -0.2339 -0.5712
 8289SOL    HW236330   3.665   0.130   4.626 -0.5211 -1.1119  0.2507
 8290SOL     OW36331   2.871   4.032   4.963  0.1291 -0.1127  0.2800
 8290SOL    HW136332   2.879   4.126   4.950  1.1196 -0.1332  0.7386
 8290SOL    HW236333   2.931   4.027   5.038  1.0173 -1.3740 -0.5139
 8291SOL     OW36334   3.454   1.204  12.066 -0.1559 -0.1148  0.0634
 8291SOL    HW136335   3.443   1.296  12.040 -1.5183 -0.3641 -0.2219
 8291SOL    HW236336   3.419   1.202  12.155 -0.8851 -0.4635 -0.2358
 8292SOL     OW36337   1.985   1.810   6.587 -0.1360 -0.6112 -0.2978
 8292SOL    HW136338   1.912   1.871   6.600  0.7255  0.0481  1.4029
 8292SOL    HW236339   2.038   1.849   6.517 -0.9877  1.8696  0.4493
 8293SOL     OW36340   0.305   3.554   0.340 -0.0140  0.0113  0.3721
 8293SOL    HW136341   0.221   3.592   0.314 -0.0671 -1.2993 -1.3749
 8293SOL    HW236342   0.321   3.619   0.409  1.1318  0.6224 -0.4636
 8294SOL     OW36343   1.600   2.173  16.706  0.2315  0.1153  0.5187
 8294SOL    HW136344   1.664   2.217  16.762 -1.4373  1.5634  1.2793
 8294SOL    HW236345   1.513   2.206  16.728  0.4426  1.1444 -0.2012
 8295SOL     OW36346   4.679   2.103  12.404 -0.5019 -0.5215 -0.3344
 8295SOL    HW136347   4.714   2.138  12.486  1.4207 -0.7986 -1.0326
 8295SOL    HW236348   4.677   2.008  12.408 -1.2533 -0.4639  0.6044
 8296SOL     OW36349   2.304   0.421   9.683  0.1901 -0.0280  0.3753
 8296SOL    HW136350   2.380   0.479   9.690  0.5946 -0.4565 -0.4995
 8296SOL    HW236351   2.303   0.415   9.588 -1.0163 -1.9852  0.5075
 8297SOL     OW36352   2.561   0.584   3.947  0.5891  0.1602 -0.2608
 8297SOL    HW136353   2.561   0.679   3.951 -0.6081  0.1280  0.5885
 8297SOL    HW236354   2.567   0.559   3.855  1.2375  0.9681 -0.4404
 8298SOL     OW36355   1.106   3.383   0.874  0.1491  0.5587 -0.0005
 8298SOL    HW136356   1.118   3.314   0.809 -1.7828  0.1414  0.0862
 8298SOL    HW236357   1.124   3.323   0.946  0.7550 -0.1653 -0.7624
 8299SOL     OW36358   1.867   1.552   9.500  0.3094 -0.3965 -0.3660
 8299SOL    HW136359   1.935   1.539   9.566  2.2855 -0.1138 -2.3345
 8299SOL    HW236360   1.867   1.462   9.468  2.4276 -0.8877  1.0538
 8300SOL     OW36361   1.726   3.176   3.114 -0.3499 -0.4650 -0.1807
 8300SOL    HW136362   1.658   3.129   3.162  1.1866 -1.3045  1.1539
 8300SOL    HW236363   1.676   3.186   3.033  2.6299 -0.5849 -2.0291
 8301SOL     OW36364   1.283   3.464   5.513 -0.2067  0.6913  0.0444
 8301SOL    HW136365   1.255   3.464   5.604  0.1729 -1.5642  0.1471
 8301SOL    HW236366   1.212   3.421   5.465 -0.0401  0.2941  0.1532
 8302SOL     OW36367   4.085   1.312   8.111  0.4367 -0.5125 -0.5378
 8302SOL    HW136368   4.057   1.401   8.089  0.4828 -0.4922 -0.5143
 8302SOL    HW236369   4.172   1.306   8.071 -0.3825 -2.2959 -2.0244
 8303SOL     OW36370   0.753   0.547   5.814 -1.1265 -0.6185 -0.1089
 8303SOL    HW136371   0.814   0.487   5.857  0.1459 -1.5157 -3.1668
 8303SOL    HW236372   0.793   0.630   5.842 -1.5574 -1.3113  2.5038
 8304SOL     OW36373   2.147   2.913   6.288 -0.0261 -0.2036  0.3196
 8304SOL    HW136374   2.085   2.970   6.242 -1.0741 -2.4599 -1.0330
 8304SOL    HW236375   2.184   2.866   6.213 -1.1882  2.1569 -1.7637
 8305SOL     OW36376   0.687   2.771  14.860  0.5603  0.0764  0.0229
 8305SOL    HW136377   0.672   2.821  14.780  2.8395  0.1056 -0.3920
 8305SOL    HW236378   0.643   2.816  14.931  2.3360 -0.3829  1.4187
 8306SOL     OW36379   1.374   4.647   7.397  0.2599  0.1113  0.6672
 8306SOL    HW136380   1.291   4.605   7.417 -0.2405  1.0858  0.6119
 8306SOL    HW236381   1.356   0.014   7.424  1.4836 -0.3995  3.1936
 8307SOL     OW36382   4.013   4.467  17.176 -0.1969 -0.3966  0.2160
 8307SOL    HW136383   4.033   4.417  17.097  2.0610  0.7932  0.0581
 8307SOL    HW236384   4.076   4.430  17.239  0.3089  0.7535  0.3745
 8308SOL     OW36385   0.086   3.586   6.061  0.3442  0.3394 -0.4034
 8308SOL    HW136386   0.098   3.503   6.106 -0.5414  0.2486 -0.3438
 8308SOL    HW236387   0.163   3.595   6.004  1.0384 -2.7001  0.0616
 8309SOL     OW36388   1.510   4.423   7.475  0.0801  0.7460  0.5005
 8309SOL    HW136389   1.596   4.437   7.435 -0.1962  0.1482 -0.2973
 8309SOL    HW236390   1.466   4.505   7.453 -0.5596  0.3678  0.3812
 8310SOL     OW36391   3.350   2.471   6.995 -0.1389  0.5125 -0.4411
 8310SOL    HW136392   3.307   2.399   7.041 -0.4926  1.8619  1.3058
 8310SOL    HW236393   3.314   2.543   7.047 -0.3860 -0.2116  0.3947
 8311SOL     OW36394   0.071   1.852   0.000  0.1313  0.3368 -0.4004
 8311SOL    HW136395   0.134   1.901   0.053 -2.0481  0.9559  1.6687
 8311SOL    HW236396   0.113   1.837  17.609  0.0715  0.0029 -0.3733
 8312SOL     OW36397   2.852   3.245   0.939  0.1297 -0.4065 -0.2583
 8312SOL    HW136398   2.898   3.322   0.907 -0.2446 -0.1901 -0.2777
 8312SOL    HW236399   2.833   3.200   0.856  1.8673 -0.6105 -0.5445
 8313SOL     OW36400   1.272   0.450  10.716  0.4996  0.1447  0.3553
 8313SOL    HW136401   1.215   0.526  10.728  0.4026  0.0411  0.5492
 8313SOL    HW236402   1.321   0.454  10.799 -0.5091  1.0075  0.9157
 8314SOL     OW36403   1.797   4.114  13.112 -0.1388 -0.4148  0.1042
 8314SOL    HW136404   1.819   4.053  13.041 -0.4773  0.4404 -0.7355
 8314SOL    HW236405   1.730   4.068  13.163 -0.3366 -1.9082 -1.5013
 8315SOL     OW36406   4.544   0.652   1.172 -0.5636  0.2402  0.1506
 8315SOL    HW136407   4.473   0.690   1.224  0.1918  0.9269  0.6683
 8315SOL    HW236408   4.542   0.557   1.184  1.9185  0.3646  1.6400
 8316SOL     OW36409   0.829   4.121  13.969  0.0614 -0.3490  0.1111
 8316SOL    HW136410   0.745   4.145  13.930  0.1794  0.8345  0.5928
 8316SOL    HW236411   0.838   4.205  14.014  1.6366 -1.5445  2.0479
 8317SOL     OW36412   2.215   1.166  17.437  0.7473  0.0362  0.3729
 8317SOL    HW136413   2.134   1.217  17.431  0.6075  0.2390  3.8705
 8317SOL    HW236414   2.187   1.078  17.410  0.7680  0.3434 -0.6248
 8318SOL     OW36415   4.318   0.912   5.147 -0.3822  0.2188  0.1901
 8318SOL    HW136416   4.248   0.849   5.126 -0.7882  0.3659  1.0942
 8318SOL    HW236417   4.283   0.958   5.223 -3.4588 -0.9011 -0.5351
 8319SOL     OW36418   3.543   1.209   6.935 -0.1782 -0.8978 -0.2209
 8319SOL    HW136419   3.635   1.203   6.962 -0.2492 -0.2627  0.1642
 8319SOL    HW236420   3.516   1.117   6.932 -1.6007 -0.4334 -1.8367
 8320SOL     OW36421   0.083   1.902  13.050 -0.0080  0.2191  0.1990
 8320SOL    HW136422   0.153   1.935  12.993  1.7819 -1.0150  1.6530
 8320SOL    HW236423   0.118   1.815  13.069 -1.4095  0.5576  4.3970
 8321SOL     OW36424   1.887   0.484  10.770  0.3172  0.1868 -0.3845
 8321SOL    HW136425   1.875   0.451  10.681 -1.6436 -0.8802  0.2688
 8321SOL    HW236426   1.963   0.539  10.752 -0.7455  0.4885 -3.8976
 8322SOL     OW36427   4.497   3.279   1.760  0.1126  0.4323  0.5731
 8322SOL    HW136428   4.519   3.367   1.729  1.9055 -0.2143  0.0557
 8322SOL    HW236429   4.561   3.259   1.828 -0.2669 -0.1435  0.7645
 8323SOL     OW36430   2.839   0.935   4.384 -0.0176  0.0721  0.5114
 8323SOL    HW136431   2.825   0.929   4.479  1.5016 -4.7096  0.4565
 8323SOL    HW236432   2.758   0.975   4.353  0.2828  1.2272  1.2294
 8324SOL     OW36433   1.056   0.999   6.063  0.3386 -0.7423  0.5463
 8324SOL    HW136434   0.982   0.991   6.123  0.8063  1.4888  1.4034
 8324SOL    HW236435   1.096   1.074   6.107  0.4137 -1.4823  1.7510
 8325SOL     OW36436   0.377   1.053  12.514  0.4030 -0.2727  0.3879
 8325SOL    HW136437   0.292   1.065  12.557  0.6466  0.1564  0.7505
 8325SOL    HW236438   0.368   1.095  12.429 -1.1287 -0.6614  0.3615
 8326SOL     OW36439   1.721   2.272  14.279  0.0366  0.1904 -0.2404
 8326SOL    HW136440   1.672   2.354  14.273  0.2158  0.3547  0.4633
 8326SOL    HW236441   1.689   2.257  14.368 -3.5430  1.6656 -1.2502
 8327SOL     OW36442   2.164   1.762   8.737 -0.1547  0.4820 -0.2789
 8327SOL    HW136443   2.216   1.784   8.814 -0.5838  0.2164  0.0951
 8327SOL    HW236444   2.219   1.695   8.697 -0.7943  1.0114 -2.0375
 8328SOL     OW36445   2.279   1.719   4.938 -0.1965  0.1588  0.0844
 8328SOL    HW136446   2.241   1.651   4.883  1.0911 -0.7813  0.3478
 8328SOL    HW236447   2.371   1.709   4.913 -0.7055 -0.8728 -1.4085
 8329SOL     OW36448   3.206   4.645   6.647  0.2823  0.6930  0.2269
 8329SOL    HW136449   3.271   4.614   6.584  0.3228 -1.2264  1.2242
 8329SOL    HW236450   3.164   4.714   6.595 -3.0539 -1.3042  0.3110
 8330SOL     OW36451   1.970   0.158   6.019  0.0424 -0.2402  0.1374
 8330SOL    HW136452   2.019   0.204   6.087 -0.8023 -2.2114  2.0887
 8330SOL    HW236453   1.901   0.121   6.074 -0.3737 -0.0073 -0.2307
 8331SOL     OW36454   4.309   4.394  13.407  0.0158  0.2242  0.1210
 8331SOL    HW136455   4.272   4.483  13.413 -1.9260 -0.4670 -1.4249
 8331SOL    HW236456   4.303   4.396  13.311  0.0519 -2.0717  0.0851
 8332SOL     OW36457   3.620   3.444   0.288 -0.9777 -0.1810  0.0509
 8332SOL    HW136458   3.623   3.450   0.383  1.0764 -1.7602  0.0817
 8332SOL    HW236459   3.532   3.410   0.270 -1.0415 -0.0171  0.0517
 8333SOL     OW36460   0.914   2.753   5.375  0.5535  0.0980  0.2099
 8333SOL    HW136461   0.950   2.771   5.462 -0.8213 -1.2530  1.0571
 8333SOL    HW236462   0.879   2.665   5.386  2.3958 -0.3595  2.3722
 8334SOL     OW36463   4.675   1.456   9.724 -0.1728 -0.1144  1.0172
 8334SOL    HW136464   4.683   1.481   9.632 -0.3590 -0.5057  0.8967
 8334SOL    HW236465   4.590   1.493   9.749  0.0242  0.4325  0.8852
 8335SOL     OW36466   2.721   1.457   0.189  0.0687  0.0834 -0.4240
 8335SOL    HW136467   2.728   1.372   0.233  0.4882 -0.7958 -2.1945
 8335SOL    HW236468   2.702   1.419   0.103  1.0190 -0.6389 -0.3167
 8336SOL     OW36469   3.579   3.906   6.003  0.5177 -0.1076 -0.1812
 8336SOL    HW136470   3.670   3.913   5.974  0.5393 -0.2840 -0.1517
 8336SOL    HW236471   3.542   3.982   5.958  0.5068  0.0982  0.1767
 8337SOL     OW36472   1.860   0.739   8.318  0.1256  0.4006  0.5099
 8337SOL    HW136473   1.863   0.797   8.394 -1.5845 -1.1534  1.7984
 8337SOL    HW236474   1.844   0.804   8.250  4.7795  0.1858 -0.7559
 8338SOL     OW36475   2.638   4.591  10.822  0.2390 -0.2802 -0.5344
 8338SOL    HW136476   2.610   4.527  10.756  0.4185 -1.2146  0.2793
 8338SOL    HW236477   2.715   4.625  10.776 -1.2427  0.8545 -2.1394
 8339SOL     OW36478   0.300   1.327   8.553  0.1804 -0.2665  0.9589
 8339SOL    HW136479   0.307   1.415   8.590  0.6297  0.0973  0.0040
 8339SOL    HW236480   0.212   1.321   8.515  1.4020 -0.0546 -1.8996
 8340SOL     OW36481   3.859   0.420  14.448 -0.0396  0.5115 -0.0199
 8340SOL    HW136482   3.886   0.328  14.444 -1.0833  0.2075 -0.1545
 8340SOL    HW236483   3.783   0.432  14.390 -0.1631  1.6800  0.3850
 8341SOL     OW36484   2.298   1.556   4.283 -0.0550  0.7998  0.3475
 8341SOL    HW136485   2.223   1.549   4.342  0.3087 -2.8445  0.3579
 8341SOL    HW236486   2.261   1.580   4.198  0.2193 -1.3357 -0.3835
 8342SOL     OW36487   3.711   4.515   5.978  0.0070 -0.2675 -0.3640
 8342SOL    HW136488   3.748   4.586   5.926 -0.0763 -0.0827 -0.1693
 8342SOL    HW236489   3.777   4.445   5.976 -1.1721 -1.4281  1.3561
 8343SOL     OW36490   3.721   1.369   8.016  0.2075  0.0014  0.1508
 8343SOL    HW136491   3.631   1.351   7.989  1.3453 -3.6939 -1.0788
 8343SOL    HW236492   3.745   1.442   7.959  1.6752 -1.4818 -1.1299
 8344SOL     OW36493   4.105   1.084   2.927 -0.0247 -0.3237  0.3482
 8344SOL    HW136494   4.064   1.077   3.013  3.4261  0.8600  2.0889
 8344SOL    HW236495   4.099   0.998   2.884  0.2967  0.2333 -0.7959
 8345SOL     OW36496   0.371   2.335   7.019 -0.3495 -0.2196  0.4616
 8345SOL    HW136497   0.451   2.317   7.068 -1.1530 -1.8784  1.1615
 8345SOL    HW236498   0.368   2.265   6.954  1.6261  1.0208 -0.9783
 8346SOL     OW36499   1.685   1.435   8.802  0.4742  0.0928  0.0037
 8346SOL    HW136500   1.722   1.363   8.853 -0.1556 -0.4979 -0.3802
 8346SOL    HW236501   1.615   1.386   8.759  0.1668 -1.5994  2.3934
 8347SOL     OW36502   3.628   0.800   1.862 -0.8860 -0.1388 -0.5938
 8347SOL    HW136503   3.591   0.726   1.814 -0.8074 -0.0840 -0.7368
 8347SOL    HW236504   3.574   0.870   1.826 -1.9385 -1.8321 -2.3046
 8348SOL     OW36505   1.257   0.941  16.289 -0.2757 -0.0266 -0.5906
 8348SOL    HW136506   1.289   0.967  16.203 -0.1105  1.5326 -0.0412
 8348SOL    HW236507   1.295   0.994  16.359 -1.3880 -1.2344  0.9284
 8349SOL     OW36508   0.869   1.731   4.844 -0.6230 -0.0795 -0.3299
 8349SOL    HW136509   0.779   1.705   4.865 -0.7293  0.2042 -0.4389
 8349SOL    HW236510   0.847   1.760   4.755 -1.4353  0.6702  0.1205
 8350SOL     OW36511   2.196   0.463   1.842 -0.0870 -0.0048  0.0749
 8350SOL    HW136512   2.245   0.524   1.897  2.5968 -0.0041 -2.3144
 8350SOL    HW236513   2.143   0.414   1.904 -1.1627  0.1614 -0.7314
 8351SOL     OW36514   4.650   3.251   1.982  0.1721  0.5887  0.1707
 8351SOL    HW136515   0.006   3.240   2.035  1.3173 -0.3857 -1.7012
 8351SOL    HW236516   4.607   3.167   1.998  0.5885 -0.0695 -2.0821
 8352SOL     OW36517   3.063   1.641   6.542  1.0282  0.2061 -0.1892
 8352SOL    HW136518   3.009   1.643   6.621  3.0037  4.0321  1.1084
 8352SOL    HW236519   2.999   1.674   6.479  0.7264 -2.3132 -1.1776
 8353SOL     OW36520   1.741   1.005   7.797  0.1349  0.1029  0.2714
 8353SOL    HW136521   1.807   1.074   7.786 -1.8514  2.0595  0.7282
 8353SOL    HW236522   1.757   0.959   7.715  2.0183  1.4774 -0.1254
 8354SOL     OW36523   4.241   2.896  14.876  0.1708  0.2086 -0.1561
 8354SOL    HW136524   4.193   2.925  14.798  0.1354 -0.6921 -0.4722
 8354SOL    HW236525   4.224   2.802  14.866  2.8405 -0.6078  2.6463
 8355SOL     OW36526   3.927   1.666   8.934  0.0924  0.2807  0.7317
 8355SOL    HW136527   3.893   1.702   8.851 -2.1380 -2.2107  0.6015
 8355SOL    HW236528   3.903   1.737   8.993 -1.9371  1.4868 -1.5469
 8356SOL     OW36529   0.981   4.624  17.168 -0.1769 -0.1695  0.7696
 8356SOL    HW136530   1.021   4.557  17.113  0.8080  3.3272 -2.8085
 8356SOL    HW236531   0.932   4.572  17.232 -2.5231 -0.3149 -1.1480
 8357SOL     OW36532   2.335   2.586   4.341 -0.3227 -0.2190  0.0929
 8357SOL    HW136533   2.391   2.614   4.413  0.2825 -1.2843  0.0396
 8357SOL    HW236534   2.273   2.659   4.337  0.8043  0.6749 -0.9027
 8358SOL     OW36535   3.059   0.463   9.655 -0.0432  0.3105  1.1467
 8358SOL    HW136536   3.120   0.395   9.626  2.1224  3.7288 -2.2665
 8358SOL    HW236537   3.002   0.467   9.578  0.7496  0.7022  0.5791
 8359SOL     OW36538   0.189   0.272   2.176 -1.3177  0.2376 -0.5998
 8359SOL    HW136539   0.242   0.324   2.115 -2.0632  1.2039 -0.4227
 8359SOL    HW236540   0.185   0.188   2.131 -0.4051  0.3087 -0.8209
 8360SOL     OW36541   3.412   4.123  10.693 -0.3169 -0.4432  0.0837
 8360SOL    HW136542   3.388   4.038  10.657  0.0509 -0.1801 -0.7652
 8360SOL    HW236543   3.453   4.153  10.612 -0.5240 -3.8042 -1.2471
 8361SOL     OW36544   3.916   3.252  11.586 -0.0137 -0.2132  0.9004
 8361SOL    HW136545   3.991   3.194  11.584 -0.2353 -0.4579 -0.4721
 8361SOL    HW236546   3.862   3.192  11.638 -3.3781 -1.0797 -3.5826
 8362SOL     OW36547   4.169   3.666  11.685  0.2749  0.1387  0.3972
 8362SOL    HW136548   4.092   3.633  11.731  0.8591  0.1779  1.3914
 8362SOL    HW236549   4.167   3.758  11.709 -0.8283  0.7246 -1.9354
 8363SOL     OW36550   0.832   1.381   7.132  0.3839 -0.5508  0.2551
 8363SOL    HW136551   0.844   1.425   7.048 -0.6684 -0.1237  0.3365
 8363SOL    HW236552   0.743   1.400   7.163 -0.6175  0.5768 -3.3359
 8364SOL     OW36553   0.642   3.938   8.361  0.8415  0.3260  0.3843
 8364SOL    HW136554   0.715   3.939   8.299 -0.4866  0.2327 -1.1897
 8364SOL    HW236555   0.625   4.029   8.383 -3.3658 -0.2854 -0.4188
 8365SOL     OW36556   0.924   2.258   6.053  0.0257  0.5486 -0.4284
 8365SOL    HW136557   0.926   2.328   6.119 -0.3329 -0.1227  0.2875
 8365SOL    HW236558   0.830   2.241   6.056  0.2663 -0.9065 -1.4792
 8366SOL     OW36559   1.742   3.093   9.192 -0.2271 -0.5385 -0.3386
 8366SOL    HW136560   1.657   3.086   9.235 -0.9060 -1.5477 -1.8283
 8366SOL    HW236561   1.782   3.013   9.228  1.3770  1.3345  2.0468
 8367SOL     OW36562   2.622   3.611   3.902  0.1225  0.3120  0.2558
 8367SOL    HW136563   2.670   3.606   3.984 -0.2283  0.1302  0.4466
 8367SOL    HW236564   2.637   3.703   3.880  3.1954 -0.0775  0.6036
 8368SOL     OW36565   1.750   4.600   5.835 -0.0685  0.1617  0.1932
 8368SOL    HW136566   1.812   4.527   5.837 -1.1315 -0.7172  0.6426
 8368SOL    HW236567   1.679   4.567   5.889  0.3219  0.6830  1.0186
 8369SOL     OW36568   0.331   4.007   6.039 -0.7032  0.3249 -0.4928
 8369SOL    HW136569   0.328   4.102   6.030  0.5858  0.4221  0.0775
 8369SOL    HW236570   0.367   4.000   6.127 -1.0925 -0.7718 -0.4152
 8370SOL     OW36571   3.643   2.994   4.061  0.0598 -0.4391  0.0098
 8370SOL    HW136572   3.726   3.005   4.106 -0.0783  0.9726 -0.0868
 8370SOL    HW236573   3.618   2.906   4.090 -3.2455 -0.3232 -2.4770
 8371SOL     OW36574   3.123   3.906   7.648  0.3607 -0.1223 -0.1844
 8371SOL    HW136575   3.130   3.815   7.676  3.6220  0.3941  0.7261
 8371SOL    HW236576   3.113   3.942   7.736 -1.8949  0.8735 -0.8584
 8372SOL     OW36577   0.904   2.463   6.257  0.0247 -0.2389  0.2624
 8372SOL    HW136578   0.855   2.432   6.333 -0.3642  0.0217  0.1197
 8372SOL    HW236579   0.978   2.511   6.294  0.9499  0.4212 -2.4686
 8373SOL     OW36580   1.447   2.308   2.314  0.3168  0.1644 -0.0849
 8373SOL    HW136581   1.411   2.265   2.236  1.2023  0.0163 -0.4141
 8373SOL    HW236582   1.380   2.375   2.325 -0.7597 -0.9928  0.3628
 8374SOL     OW36583   0.172   0.453   9.180 -0.0029  0.8129  0.5238
 8374SOL    HW136584   0.111   0.505   9.233 -2.9806  0.0807 -2.1539
 8374SOL    HW236585   0.105   0.406   9.131 -0.6461  0.0164  2.1410
 8375SOL     OW36586   2.998   1.834   8.300 -0.0567 -0.0797 -0.0850
 8375SOL    HW136587   3.023   1.908   8.244  1.5503 -0.0352  0.6797
 8375SOL    HW236588   2.978   1.879   8.383 -0.5340 -0.7964  0.1902
 8376SOL     OW36589   2.534   1.402  16.877  0.3091  0.0011  0.1059
 8376SOL    HW136590   2.618   1.392  16.920  0.7799  0.2864 -0.7562
 8376SOL    HW236591   2.548   1.381  16.784  0.3116 -0.8137  0.2878
 8377SOL     OW36592   0.711   4.708  14.676  0.3651  0.1540  0.4003
 8377SOL    HW136593   0.786   4.691  14.618 -1.1028 -0.9076 -1.1595
 8377SOL    HW236594   0.745   0.064  14.719  0.3662 -0.7178  1.9966
 8378SOL     OW36595   0.898   0.823  11.713  0.1513  0.3030  0.1223
 8378SOL    HW136596   0.851   0.906  11.707 -1.3423 -0.5977 -0.7117
 8378SOL    HW236597   0.864   0.769  11.642 -2.0807  0.9840  0.6878
 8379SOL     OW36598   4.194   0.505   9.428  0.0427 -0.0471 -1.0499
 8379SOL    HW136599   4.107   0.514   9.388 -0.4322  1.0461  0.2286
 8379SOL    HW236600   4.221   0.421   9.392 -0.0124  0.3368 -1.9934
 8380SOL     OW36601   3.569   4.272   1.437 -0.3176  0.1223  0.0483
 8380SOL    HW136602   3.642   4.245   1.381 -0.3774 -1.5809  0.8075
 8380SOL    HW236603   3.613   4.291   1.520  0.4197 -0.5012 -0.1976
 8381SOL     OW36604   4.184   3.699   4.365 -0.3658  0.1336  0.5912
 8381SOL    HW136605   4.270   3.664   4.341  1.0498  1.0583  4.2954
 8381SOL    HW236606   4.153   3.738   4.283 -0.6130 -0.4535  0.4034
 8382SOL     OW36607   4.126   1.806  10.438 -0.1583  0.1713 -0.0799
 8382SOL    HW136608   4.082   1.739  10.387  0.3690 -0.3479  0.1409
 8382SOL    HW236609   4.172   1.844  10.363 -0.0451  1.1874  0.5031
 8383SOL     OW36610   3.788   0.918   1.516 -0.0925  0.2591 -0.0382
 8383SOL    HW136611   3.762   0.837   1.559  2.1326 -1.4394 -1.8862
 8383SOL    HW236612   3.882   0.899   1.509 -0.5313 -2.6567  2.0594
 8384SOL     OW36613   3.479   1.523   3.891  0.2365  0.3023 -0.2499
 8384SOL    HW136614   3.446   1.462   3.825 -0.1860 -0.5083  0.7242
 8384SOL    HW236615   3.510   1.465   3.961 -0.4093 -0.9619 -1.0178
 8385SOL     OW36616   0.462   1.847   4.707 -0.3259 -0.4389  0.0619
 8385SOL    HW136617   0.409   1.897   4.769  2.7109  1.3379  1.2404
 8385SOL    HW236618   0.522   1.911   4.668 -0.3597 -0.9383 -0.8008
 8386SOL     OW36619   3.412   1.908  15.949 -0.3509  0.4132 -0.1331
 8386SOL    HW136620   3.452   1.944  15.870  0.2099 -1.3668 -0.6616
 8386SOL    HW236621   3.375   1.988  15.985  0.7711  0.2562  1.3733
 8387SOL     OW36622   0.646   1.392   1.134  0.1746 -0.3190  0.1348
 8387SOL    HW136623   0.596   1.464   1.096 -2.2372 -0.7370  2.4964
 8387SOL    HW236624   0.736   1.422   1.129 -0.1401  0.4826 -0.6755
 8388SOL     OW36625   3.645   0.261   0.856  0.2191  0.2312 -0.3728
 8388SOL    HW136626   3.619   0.343   0.897  1.4322  0.5958 -0.3152
 8388SOL    HW236627   3.562   0.214   0.849 -0.0962  0.3511  2.6596
 8389SOL     OW36628   0.564   3.209   7.254 -0.1835 -0.5533  0.0092
 8389SOL    HW136629   0.638   3.150   7.266 -1.2310 -1.7820  0.3353
 8389SOL    HW236630   0.583   3.237   7.164  2.4047  1.1820  1.0720
 8390SOL     OW36631   3.739   2.743   9.247  0.3529 -0.5354 -0.4641
 8390SOL    HW136632   3.706   2.778   9.164 -1.2064 -0.5283  0.1572
 8390SOL    HW236633   3.824   2.720   9.209  1.6783  0.9087  1.5990
 8391SOL     OW36634   2.661   4.512  10.339  0.5624 -0.0388 -0.1270
 8391SOL    HW136635   2.587   4.561  10.375  0.5277 -0.2236  0.0562
 8391SOL    HW236636   2.637   4.495  10.249 -1.3669  0.7894  0.2393
 8392SOL     OW36637   0.952   3.162  17.507 -0.3917 -0.2133  0.2603
 8392SOL    HW136638   0.955   3.239  17.450 -2.3916  0.9476  1.7385
 8392SOL    HW236639   1.020   3.189  17.569  0.6571 -1.5257 -0.3172
 8393SOL     OW36640   1.819   2.755   4.200 -0.4274 -0.2681 -0.5500
 8393SOL    HW136641   1.858   2.841   4.186 -1.8895  0.7092  1.3226
 8393SOL    HW236642   1.768   2.750   4.120 -1.2255  0.0036 -0.0655
 8394SOL     OW36643   0.238   3.315  16.349 -0.3107 -0.1570 -0.0359
 8394SOL    HW136644   0.206   3.283  16.434  0.8810  2.0447  1.2483
 8394SOL    HW236645   0.159   3.318  16.295 -1.3307 -2.0630  1.3594
 8395SOL     OW36646   1.584   0.367   9.603 -0.2361 -0.1729 -0.2297
 8395SOL    HW136647   1.635   0.291   9.575  1.3842  0.6980  0.3794
 8395SOL    HW236648   1.583   0.359   9.699  1.2129 -1.1725 -0.3018
 8396SOL     OW36649   3.218   1.277   2.992 -0.5196 -0.1218  0.0551
 8396SOL    HW136650   3.190   1.333   3.064  1.7524 -1.4685  2.0256
 8396SOL    HW236651   3.154   1.206   2.997 -2.3987  1.4432 -1.7244
 8397SOL     OW36652   0.369   0.162   6.449  0.0685  0.2322 -0.5041
 8397SOL    HW136653   0.341   0.071   6.458  1.2452 -0.1965 -1.0983
 8397SOL    HW236654   0.463   0.154   6.465  0.0985 -1.5117 -1.5930
 8398SOL     OW36655   4.569   2.950   8.876  0.2166 -0.4518 -0.1118
 8398SOL    HW136656   4.627   2.882   8.909 -0.2996 -1.0689 -0.4655
 8398SOL    HW236657   4.481   2.940   8.913 -1.1105  1.4321 -2.7939
 8399SOL     OW36658   4.054   1.554  15.346  0.3321 -0.6148  0.0055
 8399SOL    HW136659   4.134   1.564  15.294 -0.0033  1.6176 -0.1087
 8399SOL    HW236660   4.011   1.481  15.301  2.3364 -2.1850  0.6515
 8400SOL     OW36661   0.756   4.497   5.842 -0.2726  0.0046  0.0789
 8400SOL    HW136662   0.734   4.499   5.749  3.2952  0.3925 -0.7478
 8400SOL    HW236663   0.840   4.542   5.845 -0.6853  0.8780 -1.3506
 8401SOL     OW36664   3.909   3.472   8.917 -0.2859  0.3016 -0.0304
 8401SOL    HW136665   3.987   3.497   8.867  0.2493  0.3504  0.8366
 8401SOL    HW236666   3.880   3.561   8.939  0.6445  0.2380  1.4485
 8402SOL     OW36667   0.196   3.417   2.111  0.7266  0.4050  0.3657
 8402SOL    HW136668   0.182   3.353   2.180  0.5466  0.2596  0.1936
 8402SOL    HW236669   0.112   3.462   2.122 -0.7029 -2.0849 -0.5201
 8403SOL     OW36670   0.271   2.572   8.298  0.5094 -0.2388 -0.4200
 8403SOL    HW136671   0.346   2.604   8.348  0.8106 -1.7922  0.1397
 8403SOL    HW236672   0.272   2.619   8.214 -1.4424 -1.7939 -1.3376
 8404SOL     OW36673   3.673   3.457   5.348  0.1458 -0.1031 -0.0729
 8404SOL    HW136674   3.680   3.454   5.252 -0.8937  1.6698 -0.2010
 8404SOL    HW236675   3.758   3.493   5.373  1.4675 -1.3963 -2.7337
 8405SOL     OW36676   1.704   0.574   7.171 -0.4867  0.2718 -0.1743
 8405SOL    HW136677   1.627   0.517   7.175 -1.1671  1.3092  1.5482
 8405SOL    HW236678   1.694   0.610   7.083  0.0034  0.4663 -0.1499
 8406SOL     OW36679   4.300   3.469   7.168  0.4083 -0.1028  0.3030
 8406SOL    HW136680   4.236   3.539   7.179  0.0705 -0.5434  1.1340
 8406SOL    HW236681   4.260   3.423   7.094 -0.5689 -0.5334  1.1076
 8407SOL     OW36682   2.752   2.069   9.387 -0.1935 -0.0548  0.6574
 8407SOL    HW136683   2.713   2.017   9.317  0.3319 -0.7298  0.8665
 8407SOL    HW236684   2.675   2.087   9.441 -0.7170 -2.7145  0.7923
 8408SOL     OW36685   3.255   0.804  16.775 -0.7008  0.6991 -0.2107
 8408SOL    HW136686   3.208   0.886  16.764  0.4760  1.2113 -1.4215
 8408SOL    HW236687   3.320   0.824  16.707  1.5838 -2.6356  0.9746
 8409SOL     OW36688   3.020   0.429   3.898 -0.1995 -0.4298 -0.2228
 8409SOL    HW136689   3.102   0.380   3.897 -1.8315 -3.1817  1.0674
 8409SOL    HW236690   3.026   0.487   3.822  0.5638  1.7964  1.5300
 8410SOL     OW36691   3.518   0.018   2.782 -0.0698 -0.5315 -0.1409
 8410SOL    HW136692   3.562   0.067   2.711 -2.3493  2.9961  0.8916
 8410SOL    HW236693   3.434   0.029   2.738 -0.4440  1.4539  1.0581
 8411SOL     OW36694   3.325   2.494  11.663 -0.3890 -0.5299  0.6827
 8411SOL    HW136695   3.359   2.487  11.752 -0.8429 -1.1265  0.8084
 8411SOL    HW236696   3.331   2.402  11.635 -0.9454 -0.0577 -0.9817
 8412SOL     OW36697   3.699   0.245   5.700 -0.1227  0.0235 -0.6949
 8412SOL    HW136698   3.745   0.258   5.617  0.3549 -0.6886 -0.5380
 8412SOL    HW236699   3.647   0.326   5.702 -1.1502 -0.6787  1.2552
 8413SOL     OW36700   0.911   0.058  12.934 -0.2723  0.3640 -0.2716
 8413SOL    HW136701   0.885   0.146  12.906 -0.6519  0.6314  0.9061
 8413SOL    HW236702   0.908   0.004  12.855  1.1746 -1.5582  1.0029
 8414SOL     OW36703   3.304   2.730   5.082  0.0289 -0.3842  0.1363
 8414SOL    HW136704   3.345   2.725   4.996  0.0356  0.3739  0.1018
 8414SOL    HW236705   3.379   2.704   5.136 -0.0330  0.7879  0.7694
 8415SOL     OW36706   3.941   2.695   9.043  0.1261  0.2227 -0.6984
 8415SOL    HW136707   3.906   2.618   8.998  0.7865 -0.0278 -0.7951
 8415SOL    HW236708   4.006   2.728   8.981  2.9344 -0.3361  1.9162
 8416SOL     OW36709   3.463   1.787   0.525  0.3531  0.1036 -0.8380
 8416SOL    HW136710   3.383   1.835   0.546 -0.6760 -1.2288 -1.7399
 8416SOL    HW236711   3.525   1.796   0.597  0.4705 -1.7316 -0.7140
 8417SOL     OW36712   2.748   0.549  10.391 -0.3175  0.7692  0.0379
 8417SOL    HW136713   2.835   0.588  10.380 -0.2455  0.3665 -0.8120
 8417SOL    HW236714   2.760   0.467  10.344  1.2259  0.1015  1.5936
 8418SOL     OW36715   4.592   1.724   2.971 -0.0008 -0.6225  0.1161
 8418SOL    HW136716   4.512   1.728   2.918  0.6828  0.7720 -0.8464
 8418SOL    HW236717   4.574   1.769   3.054  0.4991 -1.0697  0.4662
 8419SOL     OW36718   0.981   4.110   4.096  0.0326 -0.1809 -0.3249
 8419SOL    HW136719   0.908   4.154   4.054 -1.8683 -1.4322  1.6856
 8419SOL    HW236720   1.043   4.074   4.032  0.4815 -0.4948  0.2776
 8420SOL     OW36721   1.590   1.936   6.086  0.1057  0.3382 -0.1727
 8420SOL    HW136722   1.504   1.900   6.106  0.0843 -0.8582 -2.4919
 8420SOL    HW236723   1.584   2.029   6.110 -0.4327  1.1057 -3.2857
 8421SOL     OW36724   3.790   3.523  16.385 -0.2091  0.1963  0.5913
 8421SOL    HW136725   3.881   3.520  16.358 -0.8496  0.8229 -1.6419
 8421SOL    HW236726   3.793   3.614  16.415  1.0191  0.3803 -0.0885
 8422SOL     OW36727   0.723   3.657   7.394 -0.5034 -0.3425  0.5212
 8422SOL    HW136728   0.784   3.712   7.442 -0.4583  0.8143 -0.8628
 8422SOL    HW236729   0.703   3.579   7.447  0.0558 -1.3660 -0.7559
 8423SOL     OW36730   1.473   4.695  12.525 -0.5425 -0.4907  0.1797
 8423SOL    HW136731   1.490   4.683  12.431 -0.4551 -0.7511  0.2299
 8423SOL    HW236732   1.390   0.019  12.517  0.4564  1.3852  0.7643
 8424SOL     OW36733   0.575   0.525   4.194 -0.1947 -0.3234  0.6229
 8424SOL    HW136734   0.632   0.583   4.245  0.8466  1.4992 -2.6511
 8424SOL    HW236735   0.635   0.450   4.204 -1.0024 -0.9576  0.7148
 8425SOL     OW36736   3.192   0.107   1.597 -0.1392  0.1615  0.3998
 8425SOL    HW136737   3.147   0.028   1.623  0.7673 -1.2210 -2.2276
 8425SOL    HW236738   3.230   0.084   1.512 -0.4956  0.3667  0.1845
 8426SOL     OW36739   2.810   4.260   6.307  0.1986  0.3118 -0.4697
 8426SOL    HW136740   2.797   4.179   6.357  3.8467 -0.1637 -0.2881
 8426SOL    HW236741   2.845   4.226   6.224 -1.3266  1.4082 -1.5585
 8427SOL     OW36742   3.121   3.456   3.876 -0.3936  0.1465 -0.2566
 8427SOL    HW136743   3.127   3.404   3.796  3.2555  0.5528 -0.2697
 8427SOL    HW236744   3.029   3.446   3.899 -1.3394  1.2658 -3.5973
 8428SOL     OW36745   4.040   3.497   1.762  0.5552 -0.4943  0.3415
 8428SOL    HW136746   4.087   3.526   1.684  0.0561 -1.4625 -0.3318
 8428SOL    HW236747   4.039   3.401   1.763  1.6945 -0.4819  2.4830
 8429SOL     OW36748   3.143   2.896   0.808  0.0091 -1.3134  0.3740
 8429SOL    HW136749   3.137   2.823   0.870 -1.1450 -1.2199  0.3883
 8429SOL    HW236750   3.191   2.853   0.738  1.5591  0.8880  0.0998
 8430SOL     OW36751   3.701   4.269   6.536 -0.0699  0.2383 -0.0515
 8430SOL    HW136752   3.730   4.205   6.472 -1.2340 -1.9859  1.6183
 8430SOL    HW236753   3.648   4.209   6.589  2.0473 -0.1578  1.6079
 8431SOL     OW36754   0.721   2.945   6.679 -0.4702  0.4366  0.0875
 8431SOL    HW136755   0.784   3.017   6.678  0.1722 -0.0793  2.8678
 8431SOL    HW236756   0.777   2.867   6.676  1.6259  1.8894  1.9492
 8432SOL     OW36757   0.557   0.723   4.789  0.0420 -0.3957 -0.4349
 8432SOL    HW136758   0.475   0.677   4.769 -0.6227 -1.1306  3.9427
 8432SOL    HW236759   0.566   0.769   4.705 -2.1804  1.2279  0.2251
 8433SOL     OW36760   1.482   2.906   6.714 -0.2063 -0.0654 -0.1703
 8433SOL    HW136761   1.496   2.815   6.739 -0.2229  0.5041  1.8983
 8433SOL    HW236762   1.509   2.900   6.622  0.5427 -1.1292  0.1255
 8434SOL     OW36763   2.843   3.011   2.252 -0.5932 -0.2072  0.3976
 8434SOL    HW136764   2.921   3.059   2.226 -0.6574 -0.5159 -0.3544
 8434SOL    HW236765   2.777   3.047   2.193 -0.9003 -1.5542 -0.0937
 8435SOL     OW36766   4.319   4.151  15.603 -0.4030  0.6154  0.3272
 8435SOL    HW136767   4.329   4.066  15.645  0.4177  0.5594  0.0302
 8435SOL    HW236768   4.352   4.127  15.516 -0.5889 -0.0103  0.4265
 8436SOL     OW36769   0.405   3.679   6.201  0.0490  0.0387  0.7706
 8436SOL    HW136770   0.401   3.762   6.249  2.0883  0.4427  0.2167
 8436SOL    HW236771   0.494   3.651   6.220 -0.3409 -1.6877  0.1145
 8437SOL     OW36772   1.666   1.513   5.663 -0.3516  0.2838  0.3619
 8437SOL    HW136773   1.621   1.513   5.579 -1.3305 -1.3627  0.9050
 8437SOL    HW236774   1.614   1.582   5.706  0.0345  0.8070 -0.0102
 8438SOL     OW36775   3.544   2.395   4.941 -0.1622 -0.1196  0.0675
 8438SOL    HW136776   3.508   2.481   4.920 -0.2080  0.2972  1.8470
 8438SOL    HW236777   3.610   2.413   4.874 -0.3211 -1.5563 -0.4820
 8439SOL     OW36778   1.931   2.669   5.457  0.5275  0.1185  0.9833
 8439SOL    HW136779   1.933   2.599   5.522 -0.0878 -0.7311  0.0977
 8439SOL    HW236780   2.020   2.649   5.429 -0.2833 -0.1223 -1.3864
 8440SOL     OW36781   1.249   1.390   1.797  0.7521 -0.5406  0.2078
 8440SOL    HW136782   1.307   1.332   1.747  1.3270  1.1621 -1.1284
 8440SOL    HW236783   1.249   1.352   1.884 -0.8093 -1.5850 -0.2618
 8441SOL     OW36784   0.803   3.814   4.054  0.3809 -1.0082 -0.5247
 8441SOL    HW136785   0.777   3.870   4.127  1.7188 -0.5097 -0.4296
 8441SOL    HW236786   0.749   3.857   3.987 -2.0904  1.0239  2.7956
 8442SOL     OW36787   2.751   4.477   3.118  0.0348 -0.1973  0.4900
 8442SOL    HW136788   2.821   4.534   3.152  1.4906 -1.4359 -0.4587
 8442SOL    HW236789   2.806   4.399   3.120 -2.6161 -2.0518  0.8914
 8443SOL     OW36790   2.768   3.786  15.167  0.0235  0.1346 -0.4014
 8443SOL    HW136791   2.863   3.783  15.156  0.3384  1.7578  1.7205
 8443SOL    HW236792   2.755   3.717  15.233  0.2753  1.1073  0.6684
 8444SOL     OW36793   3.919   0.002   4.527 -0.7151 -0.1037  0.3249
 8444SOL    HW136794   3.840   0.010   4.581 -0.8671 -2.0102  0.3734
 8444SOL    HW236795   3.920   4.630   4.516 -1.2996  0.0311 -0.8928
 8445SOL     OW36796   4.226   4.358  15.076  0.1174  0.2846 -0.2536
 8445SOL    HW136797   4.261   4.269  15.075 -0.4501  0.0647 -0.2440
 8445SOL    HW236798   4.218   4.368  14.981  0.4844 -2.4427 -0.5612
 8446SOL     OW36799   2.297   3.862   2.786 -0.2705  0.0595  0.2829
 8446SOL    HW136800   2.367   3.911   2.830  1.7468 -0.5806 -2.2517
 8446SOL    HW236801   2.345   3.832   2.709 -1.4030 -0.4971 -0.1944
 8447SOL     OW36802   2.113   3.959   6.068 -0.0979 -0.5104 -0.4465
 8447SOL    HW136803   2.111   3.877   6.116 -0.4710 -0.0235  0.3613
 8447SOL    HW236804   2.167   3.941   5.991 -0.7281  0.8813 -1.2174
 8448SOL     OW36805   0.923   3.088   4.368 -0.7288 -0.6026 -0.1756
 8448SOL    HW136806   0.986   3.016   4.371  1.8216  1.5745 -1.6588
 8448SOL    HW236807   0.965   3.166   4.404 -1.4834  0.7210 -2.1812
 8449SOL     OW36808   4.106   2.783   7.393 -0.5982  0.3887  0.1047
 8449SOL    HW136809   4.075   2.700   7.357  1.2726 -0.1808 -0.1722
 8449SOL    HW236810   4.200   2.770   7.390 -0.6887 -0.6233  1.9905
 8450SOL     OW36811   3.237   3.020  13.771  0.2773  0.0355  0.2482
 8450SOL    HW136812   3.305   2.970  13.816  0.7452 -0.8457 -1.4103
 8450SOL    HW236813   3.243   3.103  13.818  0.7122  1.4107 -2.2160
 8451SOL     OW36814   2.632   1.090  15.079  0.6917 -0.3403  0.4322
 8451SOL    HW136815   2.724   1.101  15.055  0.2351 -2.5834 -2.3057
 8451SOL    HW236816   2.642   1.122  15.169  3.6559  0.4170 -0.1564
 8452SOL     OW36817   1.634   1.587   4.153 -0.0459 -0.4657 -0.1939
 8452SOL    HW136818   1.552   1.539   4.144 -0.2265 -0.0188 -0.9567
 8452SOL    HW236819   1.657   1.597   4.060 -1.3756 -1.7697 -0.6732
 8453SOL     OW36820   1.648   1.077   2.960 -0.2909  0.3207 -0.5100
 8453SOL    HW136821   1.558   1.049   2.979  0.1736  0.2795  1.5955
 8453SOL    HW236822   1.665   1.110   3.048 -1.9579 -0.1202 -0.0248
 8454SOL     OW36823   2.341   3.163  17.442  0.3328  0.4634 -0.0828
 8454SOL    HW136824   2.321   3.182  17.351  3.6094  0.4093 -0.8310
 8454SOL    HW236825   2.413   3.102  17.429  2.9576  3.5795 -0.2322
 8455SOL     OW36826   0.789   4.019   2.741 -0.8089  0.0387 -0.0102
 8455SOL    HW136827   0.732   4.095   2.732 -1.8257 -0.8605 -1.1287
 8455SOL    HW236828   0.725   3.953   2.714  0.1831  0.0364 -2.4264
 8456SOL     OW36829   1.992   1.955  12.907  0.1321  0.0128 -0.1401
 8456SOL    HW136830   1.897   1.950  12.914  0.0177  0.0006 -1.5993
 8456SOL    HW236831   2.020   1.945  12.998  1.5654  0.7519 -0.4984
 8457SOL     OW36832   4.460   0.514  13.378  0.1470 -0.0416 -0.3773
 8457SOL    HW136833   4.516   0.484  13.449  0.6748 -1.8750 -1.5741
 8457SOL    HW236834   4.396   0.565  13.427  1.6315  0.5001  0.9785
 8458SOL     OW36835   0.985   0.839  16.182  0.3132 -0.6330 -0.2579
 8458SOL    HW136836   1.056   0.873  16.236 -0.6025  0.3599  0.3237
 8458SOL    HW236837   1.005   0.878  16.096  1.8969 -0.2127  0.2995
 8459SOL     OW36838   2.840   2.125   4.422  0.3151 -0.2060 -0.2670
 8459SOL    HW136839   2.788   2.186   4.369 -1.0335 -0.2122  1.0381
 8459SOL    HW236840   2.765   2.078   4.458  1.8494 -2.0037  0.5827
 8460SOL     OW36841   4.467   2.574   7.014 -0.1438  0.0938  0.2099
 8460SOL    HW136842   4.404   2.645   7.017  0.4732  0.7085 -1.4507
 8460SOL    HW236843   4.409   2.508   6.974  0.0204 -0.9882  1.7589
 8461SOL     OW36844   2.519   0.424   7.746  0.0680 -0.6881 -0.9678
 8461SOL    HW136845   2.608   0.420   7.782 -0.7730 -0.8862  1.1040
 8461SOL    HW236846   2.486   0.509   7.776  0.9120 -1.0818  1.0638
 8462SOL     OW36847   2.166   1.894   2.752  0.7339  0.0526  0.3214
 8462SOL    HW136848   2.159   1.986   2.730 -1.7701 -0.7709 -2.3091
 8462SOL    HW236849   2.249   1.869   2.712 -1.5513 -0.5417 -3.9646
 8463SOL     OW36850   4.312   0.785  16.705 -0.0189 -0.3765 -0.2991
 8463SOL    HW136851   4.307   0.708  16.761 -1.5030  0.5153  0.8171
 8463SOL    HW236852   4.386   0.767  16.647 -2.1016  0.4001 -3.2248
 8464SOL     OW36853   3.467   2.493   3.869 -0.4441 -0.1622 -0.5524
 8464SOL    HW136854   3.439   2.581   3.893  0.3734  0.1710 -0.7937
 8464SOL    HW236855   3.437   2.444   3.946  1.4080 -0.3546  0.0519
 8465SOL     OW36856   2.873   2.991   9.896  0.6006  0.3994  0.1345
 8465SOL    HW136857   2.824   3.002   9.977  2.3372  2.6594  0.8823
 8465SOL    HW236858   2.805   2.955   9.840 -0.6580  2.2200  0.4886
 8466SOL     OW36859   3.061   4.103   2.592 -0.3667  0.6769  0.7047
 8466SOL    HW136860   2.971   4.080   2.572  0.1227 -0.7892  0.1468
 8466SOL    HW236861   3.095   4.014   2.600  0.8168  1.2938  2.4271
 8467SOL     OW36862   4.535   3.825   4.226  0.0644  0.6013  0.4198
 8467SOL    HW136863   4.600   3.845   4.293 -0.4444 -3.1756  2.0162
 8467SOL    HW236864   4.498   3.741   4.252  1.3958 -0.8935 -2.4592
 8468SOL     OW36865   1.560   4.687   8.515 -0.4568 -0.5581 -0.3753
 8468SOL    HW136866   1.556   4.653   8.604  0.0099  2.1940  0.6718
 8468SOL    HW236867   1.470   4.700   8.485 -0.3972  0.9476  0.1230
 8469SOL     OW36868   4.060   4.025   4.725  0.3966  0.7711 -0.6022
 8469SOL    HW136869   4.131   4.080   4.757  1.7002 -1.3837  0.2250
 8469SOL    HW236870   4.061   4.037   4.630  1.5749 -0.7793 -0.7893
 8470SOL     OW36871   1.089   3.365   2.057  0.1661  0.4650 -0.2398
 8470SOL    HW136872   1.179   3.393   2.042 -0.0258 -0.2534 -2.7256
 8470SOL    HW236873   1.080   3.301   1.987  0.5290  0.5929 -0.4022
 8471SOL     OW36874   2.854   2.715   6.699 -0.1176  0.4361  0.0003
 8471SOL    HW136875   2.760   2.733   6.696 -0.7591 -2.6308  1.3965
 8471SOL    HW236876   2.852   2.619   6.707  0.8353  0.1529 -3.2663
 8472SOL     OW36877   4.136   0.101  10.502 -0.3701 -0.1583 -0.0987
 8472SOL    HW136878   4.197   0.029  10.516 -1.6326 -1.6083 -2.0508
 8472SOL    HW236879   4.099   0.122  10.588 -1.9369 -0.0027 -0.8072
 8473SOL     OW36880   4.226   1.924  10.662  0.3606  0.0969  0.1491
 8473SOL    HW136881   4.181   1.879  10.591  2.8877 -0.2306 -1.2337
 8473SOL    HW236882   4.229   2.013  10.627  0.1829  0.2895  0.6204
 8474SOL     OW36883   3.671   4.541  14.870  0.5374 -0.1854 -0.3210
 8474SOL    HW136884   3.609   4.493  14.815 -1.0169  3.1225 -1.5039
 8474SOL    HW236885   3.744   4.482  14.855  0.9842  0.6861 -1.5528
 8475SOL     OW36886   1.489   3.978  15.904  0.2011  0.5328 -0.4410
 8475SOL    HW136887   1.457   4.022  15.825  0.1225  1.0890 -0.0978
 8475SOL    HW236888   1.580   3.968  15.876 -0.4235 -2.7644 -1.3610
 8476SOL     OW36889   1.505   0.752  12.678 -0.4827  0.8841  0.1240
 8476SOL    HW136890   1.417   0.714  12.674  0.4435 -1.2170 -0.5002
 8476SOL    HW236891   1.528   0.763  12.585  1.9835  0.2436  0.6718
 8477SOL     OW36892   3.369   3.838   1.964 -0.2151  0.1748  0.2105
 8477SOL    HW136893   3.286   3.797   1.937  0.2203 -1.0337  0.7013
 8477SOL    HW236894   3.351   3.930   1.949  0.0568  0.5046  1.8826
 8478SOL     OW36895   0.221   1.844   9.476  0.3432  0.2329  0.2197
 8478SOL    HW136896   0.284   1.782   9.441  0.5824 -0.1733  1.3603
 8478SOL    HW236897   0.204   1.799   9.559 -2.1564  0.7869  0.0162
 8479SOL     OW36898   3.832   1.779   8.711  0.1477 -0.3740 -0.0300
 8479SOL    HW136899   3.778   1.856   8.728 -0.2778 -1.1127  1.9589
 8479SOL    HW236900   3.783   1.730   8.644 -0.6157 -1.1915  1.1286
 8480SOL     OW36901   2.482   1.124   5.400  0.2320  0.4216  0.2716
 8480SOL    HW136902   2.489   1.167   5.314 -0.1039 -0.5303 -0.2311
 8480SOL    HW236903   2.455   1.197   5.456  2.4013  1.7436 -0.4064
 8481SOL     OW36904   4.498   2.794   8.209  0.4976 -0.9656  0.7791
 8481SOL    HW136905   4.517   2.865   8.271 -0.1693 -0.2217  0.1332
 8481SOL    HW236906   4.561   2.727   8.238  0.6936 -1.6228 -1.1682
 8482SOL     OW36907   1.999   3.533   3.898  0.1787  0.5709 -0.1409
 8482SOL    HW136908   1.936   3.500   3.963  1.3212  3.1090  2.2706
 8482SOL    HW236909   1.948   3.530   3.817 -2.6628  0.5038  1.6653
 8483SOL     OW36910   1.774   3.420  11.190  0.4041  0.5755 -0.4936
 8483SOL    HW136911   1.855   3.392  11.150 -0.9644 -0.6319 -2.3859
 8483SOL    HW236912   1.757   3.496  11.134 -1.1044 -1.3086 -2.5744
 8484SOL     OW36913   0.023   2.783   6.306 -0.0822 -0.4147 -0.4106
 8484SOL    HW136914   4.709   2.871   6.308  0.0727 -0.2651 -3.5663
 8484SOL    HW236915   4.693   2.724   6.359 -0.3981  2.7387  2.7469
 8485SOL     OW36916   1.989   2.664   3.155 -0.0753  0.2410  0.1260
 8485SOL    HW136917   2.049   2.644   3.083 -0.3406 -1.4417  0.3757
 8485SOL    HW236918   1.912   2.683   3.100 -0.7066 -2.4231  0.0870
 8486SOL     OW36919   3.145   0.353  15.644  0.2129 -0.0424  0.1653
 8486SOL    HW136920   3.144   0.283  15.578 -1.5464 -1.7992  2.0509
 8486SOL    HW236921   3.052   0.370  15.657  0.1654  0.5498 -0.9339
 8487SOL     OW36922   1.873   4.337   8.510 -0.1899 -0.5463 -0.1459
 8487SOL    HW136923   1.929   4.411   8.486 -1.8848 -0.1960 -2.9919
 8487SOL    HW236924   1.885   4.326   8.604 -1.2067  0.2430  0.0724
 8488SOL     OW36925   4.018   2.887  10.589 -0.7978  0.8291 -0.0489
 8488SOL    HW136926   3.935   2.927  10.561 -0.5008  1.3714 -0.1499
 8488SOL    HW236927   4.076   2.962  10.580  2.3059 -1.8241 -1.8487
 8489SOL     OW36928   1.325   3.133   2.748 -0.1739 -0.0173 -0.0535
 8489SOL    HW136929   1.320   3.145   2.653 -0.6448 -0.7785 -0.1234
 8489SOL    HW236930   1.248   3.078   2.762  1.8919 -3.2878 -1.5259
 8490SOL     OW36931   4.171   4.230   6.165 -0.1647 -0.0629  0.0613
 8490SOL    HW136932   4.130   4.274   6.240 -0.6631 -0.8644  0.2502
 8490SOL    HW236933   4.142   4.139   6.169 -1.9748  0.4206 -2.3260
 8491SOL     OW36934   3.749   4.415   7.513  0.3514 -0.4396 -0.5360
 8491SOL    HW136935   3.832   4.462   7.508 -0.1589  0.3536 -1.5204
 8491SOL    HW236936   3.769   4.356   7.586  1.2966  0.9464  0.3138
 8492SOL     OW36937   1.545   0.973   8.664 -0.5474  0.2391  0.6002
 8492SOL    HW136938   1.632   0.974   8.625 -0.2144 -3.4613  1.1839
 8492SOL    HW236939   1.559   0.904   8.729 -3.4711 -1.8177 -0.9794
 8493SOL     OW36940   1.505   0.861   1.699  0.2420  0.9167 -0.1051
 8493SOL    HW136941   1.538   0.798   1.635  0.0857  1.9980 -1.2551
 8493SOL    HW236942   1.580   0.921   1.699 -1.7110  3.3540 -1.0277
 8494SOL     OW36943   3.305   3.360   1.862 -0.1835  0.0186  0.1459
 8494SOL    HW136944   3.242   3.408   1.916 -0.8687 -1.1280  0.3550
 8494SOL    HW236945   3.270   3.396   1.781 -0.8797  0.8889  0.8348
 8495SOL     OW36946   4.386   3.879  14.920 -0.2725  0.7933 -0.1437
 8495SOL    HW136947   4.397   3.973  14.910 -0.4950  0.9340  0.9896
 8495SOL    HW236948   4.297   3.871  14.956 -0.6104 -0.3322 -1.2099
 8496SOL     OW36949   4.626   0.394   1.867  0.2786 -0.4498  0.0621
 8496SOL    HW136950   4.612   0.301   1.884 -1.7325 -0.1977 -0.2299
 8496SOL    HW236951   4.720   0.405   1.854  0.4125 -1.4065  0.2092
 8497SOL     OW36952   2.135   1.528   4.817 -0.4126  0.0128  0.3561
 8497SOL    HW136953   2.138   1.439   4.784 -1.1789  0.4371 -0.8673
 8497SOL    HW236954   2.040   1.537   4.815 -0.2210  1.9320 -0.5343
 8498SOL     OW36955   1.915   3.223   3.855  0.4934  0.0847 -0.6396
 8498SOL    HW136956   1.829   3.234   3.813  0.5431  2.9986  0.0134
 8498SOL    HW236957   1.931   3.318   3.860  1.2149 -0.0653 -0.1314
 8499SOL     OW36958   2.847   4.624  13.954  0.3651  0.4803  0.6199
 8499SOL    HW136959   2.849   4.597  13.862 -1.4988  1.2291  0.3511
 8499SOL    HW236960   2.924   4.679  13.965  0.2167  0.9125 -0.5048
 8500SOL     OW36961   2.552   1.515   2.266  0.6499  0.0950  0.0691
 8500SOL    HW136962   2.523   1.507   2.175  4.0841 -1.2629 -0.9039
 8500SOL    HW236963   2.644   1.538   2.254  0.5242 -0.4954 -2.0714
 8501SOL     OW36964   1.505   3.275   5.742  0.0949  0.2671 -0.3511
 8501SOL    HW136965   1.452   3.348   5.710  1.2546  0.6732 -1.3549
 8501SOL    HW236966   1.531   3.226   5.664  1.3319  0.7149 -0.2212
 8502SOL     OW36967   3.843   0.149   1.802  0.6176 -0.8548 -0.4377
 8502SOL    HW136968   3.905   0.105   1.860  0.3122 -1.6174 -0.6892
 8502SOL    HW236969   3.758   0.112   1.826 -0.3794  1.0552 -1.1093
 8503SOL     OW36970   4.641   4.405  11.814  0.0290  0.2096 -0.3197
 8503SOL    HW136971   4.583   4.417  11.740 -0.2624  2.4410  0.2722
 8503SOL    HW236972   4.716   4.352  11.786  0.6911 -0.5977  2.8686
 8504SOL     OW36973   2.364   4.186   3.100  0.1134  0.5285 -0.1705
 8504SOL    HW136974   2.333   4.276   3.090 -3.3386 -0.8282 -1.3197
 8504SOL    HW236975   2.325   4.155   3.019  0.7436 -1.0126  0.1195
 8505SOL     OW36976   4.065   2.995  14.417  0.1127 -0.1887  0.5892
 8505SOL    HW136977   4.113   2.918  14.389  0.8674  1.3399 -2.3615
 8505SOL    HW236978   4.105   3.066  14.366  2.1768 -0.6660  1.5264
 8506SOL     OW36979   4.218   3.733   0.155 -0.4783  0.6878  0.0191
 8506SOL    HW136980   4.291   3.769   0.205 -0.4185  0.5981 -0.0031
 8506SOL    HW236981   4.274   3.695   0.086  0.6653 -0.2392  1.4543
 8507SOL     OW36982   4.593   1.994  12.914 -0.3036 -0.7970  0.7486
 8507SOL    HW136983   4.589   2.089  12.928  0.2631 -1.0345  2.5813
 8507SOL    HW236984   4.672   1.972  12.965 -0.7882 -0.7668  1.5043
 8508SOL     OW36985   1.947   4.167  15.799 -0.6460  0.6049  0.8974
 8508SOL    HW136986   1.914   4.256  15.784  1.0103  0.9098 -0.8973
 8508SOL    HW236987   2.014   4.171  15.868  1.2391 -0.2357 -0.9068
 8509SOL     OW36988   3.231   2.442   0.755 -0.1419 -0.2860  0.4555
 8509SOL    HW136989   3.324   2.427   0.774  0.4650  0.3453 -1.9857
 8509SOL    HW236990   3.196   2.415   0.840 -1.3571 -0.9565 -0.2616
 8510SOL     OW36991   2.873   3.868   4.276 -0.8418 -0.3566 -0.2071
 8510SOL    HW136992   2.939   3.805   4.249 -0.9598  0.2639 -1.9552
 8510SOL    HW236993   2.900   3.950   4.235 -1.9950 -0.9691 -2.2376
 8511SOL     OW36994   1.283   4.610   5.409 -0.0545 -0.4618  0.4138
 8511SOL    HW136995   1.212   4.602   5.344  0.5317 -0.4894 -0.2224
 8511SOL    HW236996   1.344   4.675   5.375  0.0575 -0.9956 -0.4221
 8512SOL     OW36997   3.991   1.381  12.560  0.3399 -0.1196  0.0006
 8512SOL    HW136998   4.067   1.392  12.504 -0.1768  0.6831 -0.5482
 8512SOL    HW236999   3.944   1.464  12.554 -0.2562 -0.5501 -1.2415
 8513SOL     OW37000   1.742   4.305   4.797 -1.1585  0.0449  0.3085
 8513SOL    HW137001   1.777   4.375   4.852 -0.3151  1.2763 -1.8172
 8513SOL    HW237002   1.698   4.356   4.729  2.1184  1.9107 -0.3979
 8514SOL     OW37003   3.226   0.413  13.790  0.2893  0.0793  0.0599
 8514SOL    HW137004   3.170   0.476  13.837 -3.8799 -0.8445 -3.7110
 8514SOL    HW237005   3.246   0.356  13.864  0.9096  0.9330  0.5542
 8515SOL     OW37006   3.036   1.626   7.441  0.2741 -0.8218  0.1008
 8515SOL    HW137007   3.067   1.558   7.381  1.0164 -2.0043  1.8234
 8515SOL    HW237008   2.964   1.582   7.486 -0.8110 -1.5756 -2.3555
 8516SOL     OW37009   3.011   3.204   4.664  0.2793  0.0065  0.0954
 8516SOL    HW137010   3.063   3.140   4.615  1.7964  0.6545  0.8734
 8516SOL    HW237011   3.068   3.225   4.738  2.1726 -1.3324 -0.9933
 8517SOL     OW37012   2.382   3.095   6.011  0.5225 -0.1950  0.1403
 8517SOL    HW137013   2.390   3.095   5.916  0.5186 -0.0688  0.1408
 8517SOL    HW237014   2.429   3.176   6.031  1.8649 -1.0389  0.4331
 8518SOL     OW37015   2.480   3.887  11.779  0.0086 -0.4599 -0.2755
 8518SOL    HW137016   2.573   3.905  11.792  0.3237 -2.5310  0.3841
 8518SOL    HW237017   2.467   3.957  11.715  0.1513  2.2629  2.6704
 8519SOL     OW37018   1.738   1.252   6.221 -0.3044  0.3221 -0.1644
 8519SOL    HW137019   1.695   1.279   6.140 -0.3412  1.3757  0.2140
 8519SOL    HW237020   1.827   1.222   6.202 -0.1417  1.1887 -0.7420
 8520SOL     OW37021   4.077   3.060   9.595  0.4312 -0.1206 -0.2668
 8520SOL    HW137022   4.076   3.055   9.499  1.9878 -1.3440 -0.2066
 8520SOL    HW237023   4.049   2.970   9.611 -1.1858  0.5159  0.5193
 8521SOL     OW37024   1.490   1.680   4.923 -0.1778  0.8313  0.0279
 8521SOL    HW137025   1.532   1.764   4.904  1.1599  0.2467  0.4417
 8521SOL    HW237026   1.544   1.624   4.866  0.4638  1.6102 -0.1247
 8522SOL     OW37027   2.822   0.813   5.378 -0.5530 -0.3623  0.4407
 8522SOL    HW137028   2.770   0.757   5.436  2.7922 -2.2387  1.5766
 8522SOL    HW237029   2.760   0.821   5.305 -0.7730  1.0250  0.7737
 8523SOL     OW37030   2.863   1.503   5.082  0.3841  0.2280  0.4417
 8523SOL    HW137031   2.942   1.471   5.039  0.9701 -1.3692  2.7227
 8523SOL    HW237032   2.811   1.482   5.004  2.2817  3.0578 -1.5359
 8524SOL     OW37033   2.460   4.176   6.848  0.1083 -0.8629  0.0450
 8524SOL    HW137034   2.504   4.111   6.902 -0.7099 -1.0600  0.4777
 8524SOL    HW237035   2.472   4.250   6.907 -2.2297 -0.4639  0.0290
 8525SOL     OW37036   0.367   3.120   1.110  0.6730  0.1897 -0.0632
 8525SOL    HW137037   0.392   3.171   1.033 -0.0696  0.6874  0.0283
 8525SOL    HW237038   0.291   3.077   1.071 -0.5104  2.0491  0.2024
 8526SOL     OW37039   3.461   2.058   2.371 -0.3879  0.1345  0.0722
 8526SOL    HW137040   3.451   1.964   2.356  0.7768  0.1051 -0.5357
 8526SOL    HW237041   3.536   2.082   2.316  1.5838 -1.1584  2.1867
 8527SOL     OW37042   0.032   2.061   3.089  0.8024  0.9130 -0.8182
 8527SOL    HW137043   0.062   2.125   3.153 -2.1225  1.3186  0.1044
 8527SOL    HW237044   0.107   2.001   3.080 -0.5390 -0.9148  0.2949
 8528SOL     OW37045   3.037   1.455   7.762 -0.1832  0.2489  0.1118
 8528SOL    HW137046   2.965   1.514   7.783 -0.8511 -0.4350 -0.2627
 8528SOL    HW237047   3.116   1.506   7.781 -1.9943  3.2651 -0.5733
 8529SOL     OW37048   3.788   1.436   6.002  0.1042 -0.0867 -0.7020
 8529SOL    HW137049   3.836   1.417   6.082 -1.8058  2.7114  1.1140
 8529SOL    HW237050   3.701   1.435   6.043 -0.0788 -2.8592 -1.1787
 8530SOL     OW37051   2.536   4.312   8.776  0.0574 -0.5596  0.6740
 8530SOL    HW137052   2.564   4.222   8.761  2.2693  0.6169 -2.3942
 8530SOL    HW237053   2.532   4.323   8.871  2.9881 -0.7850  0.8229
 8531SOL     OW37054   3.055   1.468   6.252  0.2743 -0.1168 -0.2249
 8531SOL    HW137055   3.035   1.398   6.314  1.3774 -1.1816 -1.0907
 8531SOL    HW237056   3.025   1.548   6.296  1.2648  0.2928 -0.2909
 8532SOL     OW37057   0.857   0.616  13.508 -0.0483  0.0360  0.2677
 8532SOL    HW137058   0.928   0.562  13.544 -2.2487 -1.3621  2.4625
 8532SOL    HW237059   0.798   0.619  13.584  0.4800  0.3626  0.6699
 8533SOL     OW37060   0.343   2.965   2.789  0.5223 -0.1705  0.1728
 8533SOL    HW137061   0.397   3.043   2.800 -1.3848  1.2739 -0.7183
 8533SOL    HW237062   0.257   2.990   2.822  1.1327  4.5537 -1.8550
 8534SOL     OW37063   2.553   3.145   3.721  0.0596 -0.2974 -0.0571
 8534SOL    HW137064   2.639   3.111   3.697  0.7356  1.5982 -0.3153
 8534SOL    HW237065   2.558   3.238   3.744 -1.6790  0.3771 -2.4090
 8535SOL     OW37066   4.538   3.567   5.627 -0.2315  0.1402  0.0458
 8535SOL    HW137067   4.543   3.594   5.719 -0.1897  4.0054 -1.0723
 8535SOL    HW237068   4.451   3.595   5.599 -0.2568 -0.0688 -0.0795
 8536SOL     OW37069   2.482   3.503  11.755 -0.0051  0.4247  0.7714
 8536SOL    HW137070   2.570   3.536  11.774  1.0185 -2.3907  1.0241
 8536SOL    HW237071   2.507   3.426  11.704  1.1043 -0.2688  2.3681
 8537SOL     OW37072   2.697   3.125   5.175 -0.0480  0.5021 -0.4299
 8537SOL    HW137073   2.726   3.148   5.263 -0.7995  0.6345 -0.2212
 8537SOL    HW237074   2.783   3.131   5.132 -0.4702 -2.3513 -1.6723
 8538SOL     OW37075   3.895   1.297   3.526  0.0789 -0.0947 -0.7487
 8538SOL    HW137076   3.823   1.293   3.589  0.7247  1.8698  0.0856
 8538SOL    HW237077   3.956   1.340   3.585 -0.7612  0.5118 -0.3105
 8539SOL     OW37078   4.350   2.680   4.650  0.4864  0.9886  0.5323
 8539SOL    HW137079   4.400   2.664   4.569 -2.6879 -1.1191 -1.0033
 8539SOL    HW237080   4.401   2.633   4.716 -0.1734 -0.1101  0.2647
 8540SOL     OW37081   3.357   3.584   5.714 -0.6653  0.2447 -0.0937
 8540SOL    HW137082   3.379   3.578   5.621  0.2318 -0.4971  0.1680
 8540SOL    HW237083   3.322   3.673   5.721  0.5029  0.7021 -0.1719
 8541SOL     OW37084   4.076   4.506   0.214 -1.2136 -0.1501  0.4957
 8541SOL    HW137085   3.990   4.518   0.174 -0.1198  1.7346 -1.3035
 8541SOL    HW237086   4.097   4.414   0.203  3.6824  1.1646 -1.0893
 8542SOL     OW37087   1.858   0.898   7.559 -0.5841  0.0260 -0.6477
 8542SOL    HW137088   1.907   0.933   7.485  0.4278 -0.0021  0.0055
 8542SOL    HW237089   1.799   0.840   7.512 -1.3210 -2.1283  2.9406
 8543SOL     OW37090   0.264   3.004   3.352 -0.0999 -0.3648  0.9424
 8543SOL    HW137091   0.276   2.912   3.376  0.5787 -0.2840  0.9297
 8543SOL    HW237092   0.279   3.053   3.433 -1.5848 -0.7522  1.4523
 8544SOL     OW37093   3.779   0.406   4.825  0.1981 -0.0366  0.4103
 8544SOL    HW137094   3.769   0.340   4.893  0.4043 -0.2364  0.2444
 8544SOL    HW237095   3.712   0.373   4.765  0.4347 -0.1245  0.1929
 8545SOL     OW37096   2.514   0.809   4.260 -0.2189 -0.7063  0.2492
 8545SOL    HW137097   2.510   0.837   4.168 -0.1388 -0.0399  0.4543
 8545SOL    HW237098   2.568   0.730   4.256 -0.5887 -1.0106  1.2900
 8546SOL     OW37099   2.319   2.863  14.384 -0.4051 -0.2902 -0.2009
 8546SOL    HW137100   2.272   2.946  14.381  2.8078  1.5211 -0.4156
 8546SOL    HW237101   2.407   2.901  14.389  0.5152 -2.5866  1.1424
 8547SOL     OW37102   0.263   3.663   9.638 -0.5088  0.4347  0.1110
 8547SOL    HW137103   0.207   3.727   9.594  1.1824 -0.6191 -3.5624
 8547SOL    HW237104   0.206   3.587   9.628  1.6889 -1.0016 -1.5014
 8548SOL     OW37105   0.387   2.228   4.586  0.2574 -0.3062  0.4192
 8548SOL    HW137106   0.345   2.314   4.594 -0.5602 -0.5236 -1.5658
 8548SOL    HW237107   0.443   2.249   4.511 -1.2405  1.7337 -0.1079
 8549SOL     OW37108   4.699   2.605   8.296  0.0212  0.0925 -0.0517
 8549SOL    HW137109   4.652   2.617   8.378  0.2132 -0.7234  0.1740
 8549SOL    HW237110   0.068   2.620   8.320 -0.3783  0.6184  1.1349
 8550SOL     OW37111   4.715   4.611   7.093  0.2820  0.0201  0.3880
 8550SOL    HW137112   0.070   4.608   7.149  1.1900 -0.6990 -0.9234
 8550SOL    HW237113   4.716   4.704   7.068 -1.4230  0.4963  2.1523
 8551SOL     OW37114   0.555   0.084   7.573 -0.0972 -0.0734  0.5417
 8551SOL    HW137115   0.504   0.101   7.493 -1.0012 -0.6280  0.9983
 8551SOL    HW237116   0.532   4.715   7.580  0.3711 -0.0360  2.4259
 8552SOL     OW37117   3.518   1.719   9.297  0.3813 -0.0409  0.2136
 8552SOL    HW137118   3.474   1.640   9.329 -0.6095  0.8567  1.0886
 8552SOL    HW237119   3.455   1.762   9.240  1.0773  1.7149  0.7535
 8553SOL     OW37120   3.518   1.293   2.630 -0.3150 -0.1262 -0.1190
 8553SOL    HW137121   3.598   1.241   2.628  0.1672  0.6179 -0.3056
 8553SOL    HW237122   3.492   1.284   2.538  0.8463  1.8484 -0.6503
 8554SOL     OW37123   4.369   2.304   8.980 -0.5005  0.2368 -0.5386
 8554SOL    HW137124   4.322   2.243   8.923 -2.3060 -0.1338  1.3228
 8554SOL    HW237125   4.304   2.321   9.049  1.7695  3.5238  0.7869
 8555SOL     OW37126   3.337   4.427   4.220 -0.3780  0.0918 -0.9675
 8555SOL    HW137127   3.255   4.464   4.253 -0.4483 -0.2654 -0.7488
 8555SOL    HW237128   3.328   4.358   4.285 -0.8106 -0.5132 -1.6761
 8556SOL     OW37129   3.885   0.205   9.876  0.4991  0.2334 -0.2389
 8556SOL    HW137130   3.894   0.144   9.803 -0.8193 -0.9905  0.6410
 8556SOL    HW237131   3.929   0.285   9.845  0.2134  0.8925  1.0280
 8557SOL     OW37132   1.649   2.933   1.912  0.0281 -0.1931 -0.0829
 8557SOL    HW137133   1.670   2.854   1.863 -2.1247  0.3875 -1.9178
 8557SOL    HW237134   1.691   2.903   1.993 -0.4370 -0.6046  0.0103
 8558SOL     OW37135   4.305   0.249   2.414  0.1381  0.0443 -0.0268
 8558SOL    HW137136   4.401   0.251   2.408  0.1161  1.6742  0.0540
 8558SOL    HW237137   4.287   0.293   2.331 -0.6415 -0.3117 -0.0480
 8559SOL     OW37138   2.028   2.820   1.917 -0.0864  0.8253  0.0272
 8559SOL    HW137139   1.954   2.829   1.978 -1.1446 -1.0617 -0.9579
 8559SOL    HW237140   2.070   2.742   1.952  1.5544  2.6626  2.1424
 8560SOL     OW37141   0.894   3.578   5.960 -0.2647 -0.2913 -0.1132
 8560SOL    HW137142   0.828   3.647   5.956 -0.5272 -0.5141  0.4196
 8560SOL    HW237143   0.882   3.550   5.869 -0.1114 -0.3233 -0.1221
 8561SOL     OW37144   3.208   0.834   7.308 -0.0150  0.0572  0.3156
 8561SOL    HW137145   3.148   0.784   7.253 -1.0527  1.9904 -0.3237
 8561SOL    HW237146   3.247   0.769   7.366  0.8937 -1.3881 -1.9471
 8562SOL     OW37147   0.395   3.997   2.850  0.4640  0.2946  0.2159
 8562SOL    HW137148   0.435   3.938   2.915 -2.7081 -1.6175  0.4120
 8562SOL    HW237149   0.309   3.959   2.837  0.2637  1.5906 -2.3908
 8563SOL     OW37150   1.288   0.081   3.524 -0.0866 -0.0045 -0.0590
 8563SOL    HW137151   1.281   0.094   3.430 -0.4774 -2.0573 -0.3115
 8563SOL    HW237152   1.284   0.173   3.551 -1.1723  0.2033 -0.9188
 8564SOL     OW37153   0.941   3.097   6.651 -0.2448  0.0229  0.1892
 8564SOL    HW137154   1.024   3.062   6.618 -0.2367  2.3360 -2.2545
 8564SOL    HW237155   0.981   3.114   6.736 -0.6731 -1.7387  0.7347
 8565SOL     OW37156   1.792   1.076   0.301  0.5940 -0.3388  0.1266
 8565SOL    HW137157   1.749   1.139   0.244  0.6306  2.0119  2.7043
 8565SOL    HW237158   1.744   0.994   0.287  0.7442 -0.6670  1.4669
 8566SOL     OW37159   0.891   0.136   2.305  0.3232  0.3481  1.2970
 8566SOL    HW137160   0.821   0.189   2.342 -1.0431 -0.8582  0.4274
 8566SOL    HW237161   0.912   0.073   2.374 -0.3877 -1.5616 -0.2463
 8567SOL     OW37162   1.350   3.737  17.494  0.2118 -0.5934 -0.7119
 8567SOL    HW137163   1.400   3.814  17.522  0.2644 -0.4946 -1.0763
 8567SOL    HW237164   1.266   3.777  17.473  0.2082 -0.5765 -0.6653
 8568SOL     OW37165   1.845   2.989  15.107  0.0665 -0.8751 -0.2188
 8568SOL    HW137166   1.815   2.968  15.195  0.0907 -0.7338 -0.1759
 8568SOL    HW237167   1.937   3.008  15.128 -0.1481 -0.6574  0.5147
 8569SOL     OW37168   1.696   2.591   3.496 -0.3106  0.0122  0.1065
 8569SOL    HW137169   1.748   2.630   3.567  1.5045  1.0595 -1.7903
 8569SOL    HW237170   1.752   2.528   3.450 -2.8705 -0.2513 -2.5947
 8570SOL     OW37171   2.604   1.532  16.441 -0.3269 -0.7102  0.3731
 8570SOL    HW137172   2.564   1.595  16.381  0.6314 -1.6896 -1.3160
 8570SOL    HW237173   2.682   1.503  16.394 -0.6223 -1.4593  0.3358
 8571SOL     OW37174   1.648   0.712   9.737 -0.1926  0.1395  0.3078
 8571SOL    HW137175   1.742   0.720   9.719  0.2505 -1.5938  1.8339
 8571SOL    HW237176   1.650   0.681   9.827 -1.9501  1.8117  0.9211
 8572SOL     OW37177   3.723   3.277   9.401 -0.2578  0.5157 -0.1641
 8572SOL    HW137178   3.708   3.317   9.486 -3.2743 -1.1493  0.1097
 8572SOL    HW237179   3.721   3.349   9.338  1.7646 -0.2016 -1.0402
 8573SOL     OW37180   1.404   3.033   1.951  0.1791  0.0131 -0.3697
 8573SOL    HW137181   1.333   2.983   1.910  1.1654 -1.8831  0.2088
 8573SOL    HW237182   1.487   3.007   1.910  0.6067 -2.3844  1.9922
 8574SOL     OW37183   4.199   4.498  15.308  0.0502 -0.0353 -0.3159
 8574SOL    HW137184   4.209   4.439  15.234  2.8688 -0.9353  0.7886
 8574SOL    HW237185   4.262   4.560  15.272  0.7688 -0.9129 -0.5433
 8575SOL     OW37186   1.238   2.654   2.762  0.0154  0.1214  0.3505
 8575SOL    HW137187   1.211   2.698   2.681 -0.8301 -0.1474  0.4832
 8575SOL    HW237188   1.298   2.719   2.798  1.5978 -1.2573  0.2550
 8576SOL     OW37189   4.456   4.356   1.735  0.5259 -0.0597 -0.6291
 8576SOL    HW137190   4.506   4.438   1.743  0.4996 -0.1926  0.8904
 8576SOL    HW237191   4.376   4.400   1.705  0.5447  2.0038  2.2525
 8577SOL     OW37192   1.489   1.538   5.466  0.0451 -0.4723 -0.4206
 8577SOL    HW137193   1.406   1.568   5.502  0.2902 -1.5602  1.0565
 8577SOL    HW237194   1.458   1.506   5.381  1.8164  1.4982 -1.8109
 8578SOL     OW37195   1.406   0.765   6.288 -0.6230  0.2423 -0.2563
 8578SOL    HW137196   1.416   0.698   6.220 -0.8275  2.2208 -2.2190
 8578SOL    HW237197   1.465   0.833   6.256 -0.1037 -0.1070 -0.0299
 8579SOL     OW37198   2.878   3.958  17.129  0.1090  0.0651 -0.7305
 8579SOL    HW137199   2.820   3.968  17.053  0.9156 -0.4017 -1.3971
 8579SOL    HW237200   2.920   4.044  17.136 -0.6672  0.0873  3.6680
 8580SOL     OW37201   0.706   2.212  13.024 -0.3328 -0.5110 -0.0204
 8580SOL    HW137202   0.683   2.298  13.060  0.1040  0.7075 -2.6668
 8580SOL    HW237203   0.739   2.224  12.935 -2.6557 -0.5299 -0.9094
 8581SOL     OW37204   0.552   0.797   7.480  0.2415 -0.7529 -0.3825
 8581SOL    HW137205   0.555   0.872   7.539 -0.6556 -1.0424  0.0279
 8581SOL    HW237206   0.643   0.793   7.452  0.1350 -2.5433 -0.4749
 8582SOL     OW37207   0.116   3.795  15.157  0.4051  0.1197 -0.4641
 8582SOL    HW137208   0.112   3.723  15.220 -2.2011  1.1924  0.5705
 8582SOL    HW237209   0.148   3.871  15.206  0.0834 -0.6597  0.9453
 8583SOL     OW37210   3.098   2.976  15.269 -0.0101 -0.4411 -0.0809
 8583SOL    HW137211   3.063   3.019  15.191 -0.2587  0.4409  0.5216
 8583SOL    HW237212   3.024   2.918  15.288 -0.5154  0.4729  0.7081
 8584SOL     OW37213   4.315   1.912   6.299 -0.5303 -0.0450  0.2277
 8584SOL    HW137214   4.250   1.868   6.353  0.8528  1.2466  2.9139
 8584SOL    HW237215   4.369   1.949   6.368 -0.2974  1.6718 -0.8727
 8585SOL     OW37216   2.113   2.071   3.238 -0.0482 -0.4840 -0.0802
 8585SOL    HW137217   2.067   2.000   3.192  1.1819  0.9739 -3.5900
 8585SOL    HW237218   2.085   2.048   3.326 -1.5427  1.0041 -0.1638
 8586SOL     OW37219   4.104   2.700   1.951  0.2289 -0.1891  0.1665
 8586SOL    HW137220   4.071   2.772   2.005  2.6177  0.4643  0.7415
 8586SOL    HW237221   4.189   2.683   1.992 -0.3737  0.1623  1.5835
 8587SOL     OW37222   1.773   3.853   3.850  0.0681  0.0889 -0.0433
 8587SOL    HW137223   1.716   3.818   3.782  0.0145  1.5683 -0.7573
 8587SOL    HW237224   1.789   3.936   3.807  2.7548  1.3730  3.3927
 8588SOL     OW37225   1.870   2.297   6.185  0.0215 -0.1812  0.0774
 8588SOL    HW137226   1.908   2.295   6.098  0.1590 -1.6490  0.1622
 8588SOL    HW237227   1.933   2.263   6.249  1.4199  2.3820  0.0401
 8589SOL     OW37228   3.491   0.726   5.254  0.0430  0.0398  0.1055
 8589SOL    HW137229   3.530   0.673   5.186 -3.3784  0.0403 -1.8843
 8589SOL    HW237230   3.550   0.800   5.242  1.0586 -1.2130 -2.5770
 8590SOL     OW37231   4.470   0.335   3.244 -0.4140  0.1979  0.6221
 8590SOL    HW137232   4.500   0.267   3.305 -3.4260 -2.0100 -0.3268
 8590SOL    HW237233   4.544   0.345   3.184 -1.6287  0.9402 -0.7609
 8591SOL     OW37234   3.544   2.960   5.161  0.9662 -0.0509 -0.3374
 8591SOL    HW137235   3.550   2.870   5.194 -2.3008  0.4744  1.6676
 8591SOL    HW237236   3.460   2.986   5.199  0.7431 -2.2445  0.6674
 8592SOL     OW37237   3.420   2.859   4.681 -0.1084  0.2702 -0.2400
 8592SOL    HW137238   3.478   2.929   4.653  1.6816 -1.4722 -0.9419
 8592SOL    HW237239   3.373   2.825   4.605  0.5663  0.1134 -0.5890
 8593SOL     OW37240   2.167   1.613  16.351  0.5359  0.0927 -0.0903
 8593SOL    HW137241   2.253   1.571  16.359  0.0675 -0.3697  2.3487
 8593SOL    HW237242   2.134   1.587  16.437  1.9773 -0.8065  0.1885
 8594SOL     OW37243   2.886   1.283   4.865 -0.4430  0.1188  0.6996
 8594SOL    HW137244   2.974   1.282   4.903 -0.0386  1.3468 -0.1824
 8594SOL    HW237245   2.879   1.206   4.809  3.4770  2.1219 -2.5508
 8595SOL     OW37246   1.433   3.870   1.813  0.1914  0.2886  0.2990
 8595SOL    HW137247   1.349   3.901   1.778 -0.4434  0.0957  1.6167
 8595SOL    HW237248   1.498   3.899   1.749  0.6263  1.4194  1.2577
 8596SOL     OW37249   4.318   1.750   7.890 -0.2914  0.0967  0.0850
 8596SOL    HW137250   4.360   1.761   7.805 -0.5999 -0.2083 -0.1068
 8596SOL    HW237251   4.266   1.829   7.906  0.2507 -0.0160  2.5055
 8597SOL     OW37252   3.963   4.513  14.802  0.2521  0.3066  0.1985
 8597SOL    HW137253   3.988   4.598  14.767 -1.4648  1.1120  0.9503
 8597SOL    HW237254   4.040   4.490  14.854  1.6405  1.5096 -1.3376
 8598SOL     OW37255   3.907   2.208  11.446 -0.0056 -0.0302 -0.1229
 8598SOL    HW137256   3.863   2.155  11.514  0.0096  0.0972 -0.0140
 8598SOL    HW237257   3.970   2.258  11.497 -0.4616  0.9116 -0.4941
 8599SOL     OW37258   4.660   0.409   8.881  0.0992 -0.3968  0.0521
 8599SOL    HW137259   4.658   0.403   8.976 -0.5528  1.8049  0.1813
 8599SOL    HW237260   4.611   0.331   8.857 -0.7210 -0.6740  2.6277
 8600SOL     OW37261   3.695   2.664   1.215 -0.0377  0.4060 -0.0710
 8600SOL    HW137262   3.701   2.759   1.202 -1.5130  0.3685 -1.0419
 8600SOL    HW237263   3.610   2.642   1.178 -1.4853  1.3071  2.6861
 8601SOL     OW37264   2.096   1.420  15.300 -0.9919 -0.0611 -0.2054
 8601SOL    HW137265   2.163   1.488  15.294 -1.2125  0.0427 -1.3586
 8601SOL    HW237266   2.065   1.420  15.210 -0.1542 -0.4165 -0.4951
 8602SOL     OW37267   1.150   3.907   3.937  0.3168  0.0922  0.0265
 8602SOL    HW137268   1.229   3.862   3.907 -0.5407 -0.7972 -0.8829
 8602SOL    HW237269   1.079   3.860   3.895  0.4398 -1.0417  1.0700
 8603SOL     OW37270   1.222   2.581   4.319  0.4539 -0.2730  0.2174
 8603SOL    HW137271   1.145   2.637   4.328  0.3104 -0.3055 -0.8854
 8603SOL    HW237272   1.201   2.516   4.253 -0.2706  1.2929 -1.1051
 8604SOL     OW37273   4.586   3.697   7.147 -0.1062  0.3176  0.3293
 8604SOL    HW137274   4.520   3.702   7.217 -0.3089 -0.0262  0.1636
 8604SOL    HW237275   4.536   3.645   7.084 -0.0414 -0.9072  1.2690
 8605SOL     OW37276   4.016   1.523   7.297 -0.5560  0.0318 -0.5073
 8605SOL    HW137277   3.930   1.500   7.332  0.6051  1.5612  3.4322
 8605SOL    HW237278   4.029   1.442   7.248 -0.8371 -0.7272  0.6854
 8606SOL     OW37279   2.586   0.730   7.251  0.0757 -0.0671  0.4505
 8606SOL    HW137280   2.520   0.661   7.237  0.1626  0.0188 -0.3737
 8606SOL    HW237281   2.657   0.691   7.301 -0.9907  0.2267  2.2059
 8607SOL     OW37282   1.910   4.546   3.169 -0.3028 -0.1106  0.3476
 8607SOL    HW137283   1.929   4.547   3.075  0.8406 -0.9621  0.5618
 8607SOL    HW237284   1.972   4.615   3.192 -2.0921  1.6796 -0.2293
 8608SOL     OW37285   0.958   2.417   2.629  0.2304 -0.2553 -0.2950
 8608SOL    HW137286   0.909   2.336   2.646 -1.0713  0.3179 -1.3973
 8608SOL    HW237287   0.908   2.464   2.563 -1.6406 -0.6546  0.8261
 8609SOL     OW37288   2.728   0.024   4.346  0.0062  0.4147  0.4064
 8609SOL    HW137289   2.664   4.687   4.384 -0.6380  0.5181 -0.4901
 8609SOL    HW237290   2.774   4.692   4.282  0.5903 -0.3121  1.4617
 8610SOL     OW37291   0.863   2.472  10.379  0.4160 -0.6401  0.7141
 8610SOL    HW137292   0.872   2.435  10.291 -0.4072 -0.0302  0.3709
 8610SOL    HW237293   0.861   2.395  10.436 -0.9279 -0.2321  1.2355
 8611SOL     OW37294   1.748   2.406   2.025  0.2155  0.0477 -0.2157
 8611SOL    HW137295   1.758   2.351   1.947  1.5313  0.3499 -0.2624
 8611SOL    HW237296   1.706   2.484   1.989  0.8823 -0.3576 -1.8515
 8612SOL     OW37297   2.549   0.487   5.803 -0.1729  0.1599  0.3857
 8612SOL    HW137298   2.541   0.512   5.711  0.7735 -0.4102  0.1459
 8612SOL    HW237299   2.462   0.505   5.839  0.1105 -0.0364  1.1647
 8613SOL     OW37300   1.194   3.747   9.364 -0.2111  0.4327  0.0072
 8613SOL    HW137301   1.216   3.832   9.327 -0.1148  0.9856  1.3203
 8613SOL    HW237302   1.137   3.762   9.440 -1.3134 -0.3882 -0.6517
 8614SOL     OW37303   0.369   3.167   3.178  0.0010 -0.2795 -0.3207
 8614SOL    HW137304   0.404   3.237   3.232  0.2281 -1.0791  0.5715
 8614SOL    HW237305   0.317   3.118   3.242  1.1004  1.7087  2.0580
 8615SOL     OW37306   1.139   3.563   4.999  0.2035 -0.4357 -0.7585
 8615SOL    HW137307   1.107   3.652   4.995  2.3985  0.4006  0.0870
 8615SOL    HW237308   1.065   3.518   4.958 -0.4616  1.7423 -1.8948
 8616SOL     OW37309   3.270   2.261   0.144 -0.5917  0.1386  0.3471
 8616SOL    HW137310   3.198   2.209   0.109  0.7015 -0.9541 -0.6619
 8616SOL    HW237311   3.234   2.292   0.228  1.3064 -0.3227  1.3345
 8617SOL     OW37312   4.466   1.241   2.603 -0.3512  0.1076  0.3176
 8617SOL    HW137313   4.456   1.161   2.655 -0.3088 -0.4276 -0.4802
 8617SOL    HW237314   4.475   1.211   2.512  1.4606 -0.3854  0.6485
 8618SOL     OW37315   1.796   2.258   8.510 -0.2286  0.4931 -0.5729
 8618SOL    HW137316   1.721   2.309   8.480 -1.0146 -0.6646 -0.5993
 8618SOL    HW237317   1.797   2.171   8.470 -1.8011  0.2334 -0.0931
 8619SOL     OW37318   3.313   0.173  11.597  0.6886  0.3770  0.3094
 8619SOL    HW137319   3.296   0.227  11.674  0.8479  0.6361  0.1666
 8619SOL    HW237320   3.367   0.229  11.540  0.8761  0.1547  0.2704
 8620SOL     OW37321   0.874   2.502   9.894  0.4466  0.6916  0.0347
 8620SOL    HW137322   0.949   2.559   9.879  0.5840  0.8770  1.4702
 8620SOL    HW237323   0.869   2.463   9.807  0.3322 -4.1497  2.2307
 8621SOL     OW37324   0.299   4.270  14.653 -0.2173  0.0294 -0.2530
 8621SOL    HW137325   0.279   4.337  14.587 -0.5076  0.0934 -0.1033
 8621SOL    HW237326   0.386   4.297  14.680 -0.3879  0.5422 -0.2100
 8622SOL     OW37327   3.211   2.206   8.958 -0.5801  0.4794  0.0469
 8622SOL    HW137328   3.258   2.132   8.995  0.0977  0.0142 -1.7542
 8622SOL    HW237329   3.216   2.268   9.030 -2.8038 -0.0403  0.6525
 8623SOL     OW37330   3.881   0.173  11.893 -0.0893 -0.4014 -0.2645
 8623SOL    HW137331   3.953   0.123  11.856  1.8776  1.0074  1.6314
 8623SOL    HW237332   3.851   0.103  11.952  1.7333 -0.2598  0.8296
 8624SOL     OW37333   4.418   3.517  14.882 -0.5790  0.0087  0.4782
 8624SOL    HW137334   4.363   3.511  14.960 -2.2995  0.9682 -0.6694
 8624SOL    HW237335   4.428   3.425  14.858  3.0619  0.0000  1.9293
 8625SOL     OW37336   0.484   0.587   5.177 -0.2281 -0.6563  0.2096
 8625SOL    HW137337   0.437   0.536   5.111  0.4884 -0.7267 -0.2387
 8625SOL    HW237338   0.575   0.565   5.158  0.0678 -0.3103  1.2484
 8626SOL     OW37339   3.472   3.888   7.939 -0.3130  0.0697  0.2840
 8626SOL    HW137340   3.523   3.815   7.902 -3.2771 -2.5342  1.3320
 8626SOL    HW237341   3.397   3.836   7.968 -0.3923 -0.8778 -1.5912
 8627SOL     OW37342   0.133   3.609   4.842  0.2789 -0.3548 -0.0534
 8627SOL    HW137343   0.106   3.521   4.867 -1.1431  0.0292 -0.2841
 8627SOL    HW237344   0.157   3.651   4.925 -2.6600 -3.7136  2.5066
 8628SOL     OW37345   0.067   1.697  10.008 -0.3533 -0.5356  0.3622
 8628SOL    HW137346   4.710   1.742   9.980  0.8285  0.1304 -1.9600
 8628SOL    HW237347   0.033   1.609   9.995 -0.9167 -0.4375  1.2180
 8629SOL     OW37348   4.373   1.245  16.765  0.0414 -0.3843 -0.2161
 8629SOL    HW137349   4.399   1.292  16.686  0.1448  1.1755  0.7539
 8629SOL    HW237350   4.451   1.207  16.805 -1.3489 -0.8085  2.0599
 8630SOL     OW37351   2.946   3.011   2.973 -0.4191 -0.3593 -0.3631
 8630SOL    HW137352   2.947   3.089   2.917  0.5429 -0.4275 -0.4366
 8630SOL    HW237353   3.019   2.968   2.929 -2.0276 -3.3660 -0.0972
 8631SOL     OW37354   3.411   0.751   0.937 -0.0650  0.6240 -0.2536
 8631SOL    HW137355   3.484   0.784   0.885 -1.8578  2.4612 -1.6147
 8631SOL    HW237356   3.348   0.737   0.866  0.2867  1.7923 -0.7865
 8632SOL     OW37357   4.447   1.980   8.729  0.8521 -0.0229  0.1293
 8632SOL    HW137358   4.361   1.964   8.768  0.1636 -1.4447 -1.9771
 8632SOL    HW237359   4.446   1.911   8.663  2.9576  0.8770 -0.8243
 8633SOL     OW37360   0.356   4.498   2.285  0.7884 -0.0556  0.6269
 8633SOL    HW137361   0.323   4.409   2.275 -1.8208  1.2970 -2.8506
 8633SOL    HW237362   0.331   4.521   2.375 -0.4645  1.1101 -0.0294
 8634SOL     OW37363   4.192   0.118  12.236  0.0502 -0.8102  0.2687
 8634SOL    HW137364   4.216   0.198  12.284 -0.1748  0.1764 -1.2419
 8634SOL    HW237365   4.245   0.050  12.278 -0.2946 -0.5744  1.0878
 8635SOL     OW37366   3.538   3.022   9.571  0.3961 -0.1766 -0.3127
 8635SOL    HW137367   3.489   3.102   9.585  2.5679  1.3814 -1.5735
 8635SOL    HW237368   3.598   3.031   9.645 -0.1085  0.4955  0.0087
 8636SOL     OW37369   3.444   0.501   2.464  0.0908  0.0931 -0.4875
 8636SOL    HW137370   3.443   0.442   2.389 -2.8511  0.8203 -1.0124
 8636SOL    HW237371   3.375   0.561   2.435 -0.9393 -0.1281  1.5140
 8637SOL     OW37372   3.645   4.698   6.489  0.2226  0.2968 -0.0889
 8637SOL    HW137373   3.699   0.021   6.554  1.4691 -0.2676 -0.7210
 8637SOL    HW237374   3.697   4.619   6.473  1.6568  1.5506 -1.6413
 8638SOL     OW37375   4.249   4.267  13.636 -0.8735 -0.3373 -0.5897
 8638SOL    HW137376   4.286   4.323  13.568  2.0110 -0.0421  1.2097
 8638SOL    HW237377   4.212   4.193  13.587  0.2577  0.3083 -2.4234
 8639SOL     OW37378   1.216   2.219   9.462 -0.4531  0.0532 -0.1073
 8639SOL    HW137379   1.237   2.295   9.408  2.6702 -0.4871  0.3418
 8639SOL    HW237380   1.300   2.182   9.488  0.7872  3.5382  0.7708
 8640SOL     OW37381   2.791   2.294   2.155 -0.2212 -0.0363 -0.0140
 8640SOL    HW137382   2.785   2.286   2.059  1.3666 -1.3036 -0.0088
 8640SOL    HW237383   2.869   2.249   2.187 -0.5244 -0.2989  0.3442
 8641SOL     OW37384   2.372   1.668   2.370 -0.3020  0.2960 -0.1056
 8641SOL    HW137385   2.321   1.588   2.365  0.5474 -0.1650 -1.2906
 8641SOL    HW237386   2.458   1.637   2.343 -0.4441 -0.2502  0.0772
 8642SOL     OW37387   0.082   3.355   8.855 -0.2137 -0.2446 -0.7621
 8642SOL    HW137388   0.138   3.433   8.851 -1.2152  0.3822 -2.7405
 8642SOL    HW237389   0.151   3.294   8.828  1.5000  1.3900 -0.1414
 8643SOL     OW37390   0.360   2.016   5.742  0.1605 -0.0929  0.0185
 8643SOL    HW137391   0.321   1.942   5.788  1.1526 -0.6282  0.0052
 8643SOL    HW237392   0.290   2.077   5.763  1.3419  0.7499  1.4802
 8644SOL     OW37393   0.523   2.653  10.276  0.2399  0.5875 -0.5953
 8644SOL    HW137394   0.543   2.561  10.292  1.4463  0.9524 -0.0120
 8644SOL    HW237395   0.462   2.636  10.203  0.4854 -0.7856 -0.4645
 8645SOL     OW37396   0.078   0.765  10.333 -0.3627 -0.0930 -0.4112
 8645SOL    HW137397   0.025   0.689  10.308 -1.3170  0.2929  0.4431
 8645SOL    HW237398   0.172   0.744  10.326 -0.5735 -1.5099  0.8366
 8646SOL     OW37399   0.757   0.446   5.139 -0.1416 -0.1048 -0.2511
 8646SOL    HW137400   0.841   0.413   5.170  0.0313 -0.3093 -0.9501
 8646SOL    HW237401   0.784   0.506   5.070 -0.0815  0.6933  0.4595
 8647SOL     OW37402   3.623   1.144   1.449  0.0142 -0.0426 -0.3504
 8647SOL    HW137403   3.578   1.109   1.372  0.9540 -2.7904  0.3450
 8647SOL    HW237404   3.694   1.082   1.465  0.1522  0.4069  0.7990
 8648SOL     OW37405   1.452   4.578   3.546 -0.0728  0.0982  0.0672
 8648SOL    HW137406   1.412   4.664   3.534 -3.3565 -1.7484 -2.0723
 8648SOL    HW237407   1.422   4.557   3.635  2.8132 -0.7199  0.8705
 8649SOL     OW37408   3.940   1.589   3.154  0.5128  0.0311 -0.1263
 8649SOL    HW137409   3.964   1.505   3.193 -0.2400  0.6490  1.6527
 8649SOL    HW237410   3.865   1.611   3.209  0.2057 -0.1988 -0.4465
 8650SOL     OW37411   2.883   2.548   3.191 -0.0026  0.2921 -0.1225
 8650SOL    HW137412   2.896   2.640   3.170  2.7424  0.5858  2.8689
 8650SOL    HW237413   2.864   2.557   3.284 -2.7768  0.1085 -0.6663
 8651SOL     OW37414   1.335   0.004   2.040 -0.4043 -0.0102  0.0100
 8651SOL    HW137415   1.360   0.022   2.131 -2.3654 -1.6571  0.8816
 8651SOL    HW237416   1.269   0.074   2.038 -1.4482 -1.0637 -2.2122
 8652SOL     OW37417   3.243   1.032   8.914  0.9307  0.3710  0.1874
 8652SOL    HW137418   3.306   1.099   8.939 -0.3395  1.0408  1.5697
 8652SOL    HW237419   3.166   1.043   8.971  0.9954  0.8030  0.1888
 8653SOL     OW37420   0.331   3.645   7.586  0.1316 -0.1555 -0.1728
 8653SOL    HW137421   0.272   3.693   7.644 -1.5256 -0.1423 -1.8796
 8653SOL    HW237422   0.320   3.563   7.635 -0.4019  0.4223  0.6793
 8654SOL     OW37423   3.915   1.449  11.493  0.0463 -0.8642  0.4781
 8654SOL    HW137424   3.884   1.432  11.582 -0.2240 -0.1468  0.5230
 8654SOL    HW237425   3.986   1.385  11.492 -1.0562 -2.0803  0.3194
 8655SOL     OW37426   2.573   3.513   0.934 -0.3243 -0.3427 -0.3473
 8655SOL    HW137427   2.628   3.582   0.897 -0.6040 -1.2536 -2.4985
 8655SOL    HW237428   2.511   3.499   0.862 -2.0229 -0.0856  1.0720
 8656SOL     OW37429   4.452   1.757   4.258 -0.0374  0.1237  0.1793
 8656SOL    HW137430   4.543   1.733   4.276 -0.1452 -0.3008  0.1715
 8656SOL    HW237431   4.465   1.778   4.166  2.5805  0.7341  0.6904
 8657SOL     OW37432   3.957   2.397   9.091  0.2266 -0.1615 -0.1442
 8657SOL    HW137433   3.962   2.468   9.155 -2.5102 -0.5825  0.5501
 8657SOL    HW237434   3.911   2.430   9.014  1.4656 -0.7704 -1.1332
 8658SOL     OW37435   3.712   3.701   7.974 -0.3769 -0.2874  0.2111
 8658SOL    HW137436   3.782   3.742   7.922 -1.3094  0.3492 -0.5519
 8658SOL    HW237437   3.741   3.733   8.060  0.1847 -0.0818 -0.0523
 8659SOL     OW37438   0.342   0.305   8.394 -0.0498  0.1129 -0.5501
 8659SOL    HW137439   0.435   0.305   8.372  0.6024  0.1849  2.1845
 8659SOL    HW237440   0.326   0.398   8.410 -0.6987  0.0655 -0.9154
 8660SOL     OW37441   1.534   2.930  11.136 -0.3944 -0.2913 -0.0504
 8660SOL    HW137442   1.604   2.902  11.076 -1.4470 -0.7405 -1.0641
 8660SOL    HW237443   1.508   2.843  11.167 -2.1222  0.4300  0.4844
 8661SOL     OW37444   0.289   0.152  11.299  0.2343  0.3073  0.1604
 8661SOL    HW137445   0.304   0.195  11.384 -1.2357  2.1895 -0.5251
 8661SOL    HW237446   0.367   0.186  11.255 -2.3739  3.7478 -1.7019
 8662SOL     OW37447   4.008   3.436   4.000  0.3109 -0.4862 -0.0099
 8662SOL    HW137448   4.093   3.471   4.024 -0.7932  0.7658  2.0478
 8662SOL    HW237449   3.975   3.423   4.089  1.2843 -0.3984  0.3608
 8663SOL     OW37450   0.209   2.157  12.214 -0.6528 -0.0702  0.3529
 8663SOL    HW137451   0.248   2.153  12.301  1.0672 -0.4079 -0.4414
 8663SOL    HW237452   0.116   2.177  12.227  0.1210  1.0192  4.1860
 8664SOL     OW37453   3.585   2.175   3.615  0.2189 -0.1694  0.3317
 8664SOL    HW137454   3.653   2.129   3.665 -0.0611 -1.1741 -0.2151
 8664SOL    HW237455   3.644   2.236   3.571 -0.1396 -0.1261 -0.0903
 8665SOL     OW37456   3.056   0.145  10.411 -0.1765 -0.0529 -0.0413
 8665SOL    HW137457   2.984   0.157  10.349  0.0307  2.3892  0.1680
 8665SOL    HW237458   3.056   0.052  10.431 -0.6647 -0.1876 -0.6470
 8666SOL     OW37459   0.003   2.449   3.799  0.5863  0.3319  0.1738
 8666SOL    HW137460   4.664   2.512   3.762  0.8586  2.9031  4.1422
 8666SOL    HW237461   4.672   2.423   3.873  0.2093  0.6303 -0.0003
 8667SOL     OW37462   4.374   2.901   1.887 -0.1135  0.0458  0.1566
 8667SOL    HW137463   4.357   2.841   1.960  1.0673 -0.0249  0.3708
 8667SOL    HW237464   4.467   2.918   1.905  0.4191 -0.4119 -2.1115
 8668SOL     OW37465   0.658   4.103   5.832 -0.0695 -0.2276 -0.0454
 8668SOL    HW137466   0.733   4.083   5.775 -0.0903  1.0130 -0.5061
 8668SOL    HW237467   0.703   4.120   5.915  0.1041  1.2008 -0.4153
 8669SOL     OW37468   0.649   1.996   3.971  0.4186  0.2264 -0.0266
 8669SOL    HW137469   0.740   1.966   3.976  0.3076  0.1224  1.2199
 8669SOL    HW237470   0.599   1.915   3.967  3.0398 -1.4859  2.0248
 8670SOL     OW37471   3.346   1.954   3.787 -0.3115  0.3306  0.1399
 8670SOL    HW137472   3.294   1.936   3.865 -0.0960 -1.5509 -0.1491
 8670SOL    HW237473   3.288   2.015   3.740 -0.9332 -0.3632  0.0061
 8671SOL     OW37474   4.529   0.862   2.140 -0.5927 -0.2057  0.3760
 8671SOL    HW137475   4.548   0.801   2.069 -2.0231 -0.3015  0.0891
 8671SOL    HW237476   4.586   0.833   2.211 -1.8724 -0.5259  1.2610
 8672SOL     OW37477   2.456   1.705  15.364  0.4279 -0.0929  0.2392
 8672SOL    HW137478   2.469   1.622  15.409  0.2896  0.8890  2.0730
 8672SOL    HW237479   2.520   1.759  15.411  0.4348  0.6116 -0.5802
 8673SOL     OW37480   1.212   2.028   0.649 -0.1815  0.3247 -0.6530
 8673SOL    HW137481   1.297   2.043   0.691 -0.7746 -1.1544  1.0901
 8673SOL    HW237482   1.162   2.098   0.692  0.1505  1.3627 -1.9650
 8674SOL     OW37483   3.864   3.499  11.687  0.4429 -0.2506  0.2359
 8674SOL    HW137484   3.897   3.421  11.642 -0.4007 -0.7285  0.4283
 8674SOL    HW237485   3.904   3.477  11.772  2.7501  3.4858  0.1218
 8675SOL     OW37486   2.005   2.593   2.673 -0.2324 -0.0436 -0.0592
 8675SOL    HW137487   2.082   2.588   2.729  0.0999  4.1649 -0.1122
 8675SOL    HW237488   1.952   2.520   2.706  0.3835 -0.6800 -0.5004
 8676SOL     OW37489   1.583   1.199   1.029 -0.0276  0.0896 -0.0753
 8676SOL    HW137490   1.654   1.181   0.967 -1.9620 -1.3175 -1.8733
 8676SOL    HW237491   1.518   1.236   0.969 -0.1427  0.8142  0.4944
 8677SOL     OW37492   0.353   4.217   8.381  0.6369 -0.3770  0.7456
 8677SOL    HW137493   0.358   4.134   8.334  0.0138 -0.6788  1.2163
 8677SOL    HW237494   0.265   4.248   8.358  1.5366  0.7491 -1.1691
 8678SOL     OW37495   0.690   4.480   6.750 -0.0748  0.2126  0.5643
 8678SOL    HW137496   0.693   4.569   6.785  1.5875  0.3645  0.0626
 8678SOL    HW237497   0.727   4.442   6.830  4.2250  1.3984 -0.8478
 8679SOL     OW37498   4.152   1.887   5.210 -0.4366 -0.4126  0.2099
 8679SOL    HW137499   4.109   1.809   5.245  0.3609 -0.5360  0.9104
 8679SOL    HW237500   4.135   1.864   5.119  1.1205  1.1512 -0.4788
 8680SOL     OW37501   4.442   3.488   2.341  0.2040  0.3804 -0.0890
 8680SOL    HW137502   4.349   3.511   2.339 -0.4675 -2.3955 -0.9619
 8680SOL    HW237503   4.470   3.561   2.286 -1.4089  0.8105 -0.3411
 8681SOL     OW37504   0.780   3.277  14.736 -0.7862  0.1315  0.2474
 8681SOL    HW137505   0.736   3.260  14.819 -0.7453 -1.3960 -0.0342
 8681SOL    HW237506   0.709   3.293  14.673  1.0656  0.1961 -1.8383
 8682SOL     OW37507   0.025   1.304   2.644  0.1585  0.3847  0.3463
 8682SOL    HW137508   0.056   1.223   2.605 -0.6684  0.1162  0.2661
 8682SOL    HW237509   4.655   1.290   2.627  0.6188  1.0639 -2.6973
 8683SOL     OW37510   0.906   2.667   6.929  0.0357 -0.1745 -1.1604
 8683SOL    HW137511   0.987   2.682   6.882  0.4177  0.3889 -0.3242
 8683SOL    HW237512   0.854   2.609   6.874 -2.5520  0.1052  0.9922
 8684SOL     OW37513   1.333   1.929   5.507 -0.3462 -0.1780  0.1614
 8684SOL    HW137514   1.294   1.878   5.579 -0.1384  0.6035  0.8366
 8684SOL    HW237515   1.286   1.889   5.435 -0.4122  1.5713 -0.7585
 8685SOL     OW37516   0.478   0.847   3.354  0.3253  0.2466 -0.0575
 8685SOL    HW137517   0.442   0.854   3.443  1.6893  2.1695  0.3392
 8685SOL    HW237518   0.453   0.935   3.326 -2.6328 -0.1823  1.2236
 8686SOL     OW37519   4.711   4.635   3.870 -0.2486  0.0553 -0.1877
 8686SOL    HW137520   4.678   0.001   3.885 -0.6304  0.2404 -2.1457
 8686SOL    HW237521   4.633   4.582   3.887 -0.0888  0.3301  1.4167
 8687SOL     OW37522   0.804   1.016   6.199 -0.0855  0.0643 -0.2161
 8687SOL    HW137523   0.730   1.041   6.143 -0.8282  1.5116  1.4137
 8687SOL    HW237524   0.761   0.937   6.231 -1.4191  1.1257  0.5920
 8688SOL     OW37525   2.118   1.919   0.465  0.2327  0.2498  0.2516
 8688SOL    HW137526   2.045   1.860   0.482  2.8470 -2.3443  2.4815
 8688SOL    HW237527   2.097   2.000   0.512  1.3762  1.2540 -0.9509
 8689SOL     OW37528   0.768   2.153  16.698  0.4104  0.1075 -0.7765
 8689SOL    HW137529   0.725   2.236  16.716  0.4484  0.3158 -1.6331
 8689SOL    HW237530   0.847   2.172  16.647  1.2574  0.5065  0.6990
 8690SOL     OW37531   4.484   1.732   7.629  0.2282 -0.2465  0.5363
 8690SOL    HW137532   4.579   1.722   7.640  0.2298 -0.8357  0.0149
 8690SOL    HW237533   4.467   1.826   7.634  1.4388 -0.1047  2.0761
 8691SOL     OW37534   1.498   1.833   3.519 -0.3531 -0.5964  0.4196
 8691SOL    HW137535   1.488   1.897   3.589  0.2244 -0.4768  0.3874
 8691SOL    HW237536   1.413   1.840   3.475 -0.0839 -0.6710 -0.1168
 8692SOL     OW37537   3.316   4.463   5.469 -0.4923  0.5086  0.5212
 8692SOL    HW137538   3.342   4.506   5.388 -2.7155 -0.2786 -0.6009
 8692SOL    HW237539   3.409   4.451   5.489 -0.5797 -1.9914 -0.6210
 8693SOL     OW37540   2.079   3.432   0.679 -0.6200  0.7049 -0.1251
 8693SOL    HW137541   2.085   3.441   0.774  0.7345 -0.6330 -0.0660
 8693SOL    HW237542   2.035   3.347   0.675  0.3679  0.1377  0.8130
 8694SOL     OW37543   4.433   1.439   3.684 -0.4824 -0.1811 -0.9719
 8694SOL    HW137544   4.490   1.421   3.759 -1.3928 -1.3477 -0.5631
 8694SOL    HW237545   4.496   1.490   3.633  0.1319 -0.5237 -0.5657
 8695SOL     OW37546   2.783   4.225   1.560  0.6384  0.1123  0.4636
 8695SOL    HW137547   2.812   4.182   1.641  0.5714 -0.4639  0.1858
 8695SOL    HW237548   2.847   4.183   1.502 -1.1479  0.2556 -1.5961
 8696SOL     OW37549   2.894   4.522   7.094  0.3416  0.2117  0.0321
 8696SOL    HW137550   2.938   4.590   7.043  0.5784  0.9684  1.2394
 8696SOL    HW237551   2.962   4.462   7.123 -1.5661 -1.1118  1.8594
 8697SOL     OW37552   0.693   0.948   4.316  0.0390 -0.1403 -0.7744
 8697SOL    HW137553   0.779   0.942   4.276  0.8535  0.7615  0.8374
 8697SOL    HW237554   0.649   0.949   4.231 -0.1850 -2.4213 -0.6943
 8698SOL     OW37555   1.389   2.678   5.000 -0.2709 -0.1532 -0.3664
 8698SOL    HW137556   1.396   2.732   4.921 -1.2729 -0.1620 -0.4713
 8698SOL    HW237557   1.309   2.720   5.032 -1.4478 -1.0733 -2.1125
 8699SOL     OW37558   3.510   2.785   0.874  0.1688 -0.0438  0.2352
 8699SOL    HW137559   3.424   2.775   0.916  0.4168 -0.0487  0.7354
 8699SOL    HW237560   3.478   2.803   0.785 -0.4365  1.3397  0.7304
 8700SOL     OW37561   4.400   0.018   1.590 -0.6719 -0.2413  0.0627
 8700SOL    HW137562   4.318   4.693   1.597  0.4559 -2.2887 -1.0102
 8700SOL    HW237563   4.459   4.678   1.550  0.0555  0.6777 -0.3143
 8701SOL     OW37564   2.830   2.821   3.159 -0.7815 -0.4290  0.1342
 8701SOL    HW137565   2.811   2.880   3.232 -2.2742 -0.1234 -0.4966
 8701SOL    HW237566   2.882   2.874   3.098 -0.4103 -1.5703 -0.5471
 8702SOL     OW37567   1.548   4.504   4.304  0.5357 -0.2014  0.6926
 8702SOL    HW137568   1.598   4.575   4.266 -0.3630  0.2780  0.4038
 8702SOL    HW237569   1.525   4.445   4.232 -1.0532  0.4899  0.6261
 8703SOL     OW37570   3.376   0.288   4.339  0.0210 -0.0215 -0.1410
 8703SOL    HW137571   3.434   0.363   4.349 -2.2411  2.2182 -3.8715
 8703SOL    HW237572   3.293   0.331   4.363  0.2718 -1.0205  2.5284
 8704SOL     OW37573   2.071   1.215   7.863  0.3667  0.5210  0.8860
 8704SOL    HW137574   2.093   1.150   7.796  0.9540  1.9337 -0.2708
 8704SOL    HW237575   1.996   1.263   7.827 -0.5110 -2.4847 -1.2897
 8705SOL     OW37576   1.991   2.336   5.741 -0.2293  0.4327  0.2714
 8705SOL    HW137577   1.979   2.246   5.772 -0.9075  0.7454  0.9007
 8705SOL    HW237578   2.028   2.372   5.822 -0.1339  1.9453 -0.4479
 8706SOL     OW37579   4.419   1.809   5.274  0.3813  0.0997 -0.2122
 8706SOL    HW137580   4.349   1.869   5.249 -0.3340 -0.3749  0.6511
 8706SOL    HW237581   4.405   1.733   5.218  0.1481 -0.2279  0.2948
 8707SOL     OW37582   3.055   1.064   8.136  0.3777 -0.3839 -0.2818
 8707SOL    HW137583   2.994   1.034   8.203 -1.4515  4.5105  0.2613
 8707SOL    HW237584   3.027   1.155   8.128  0.5618 -0.2699  0.4045
 8708SOL     OW37585   2.283   3.718   7.658 -0.7322 -0.5710 -0.4093
 8708SOL    HW137586   2.338   3.686   7.586  0.1385  1.0576 -0.4747
 8708SOL    HW237587   2.329   3.683   7.734 -0.6934  2.5169  1.0124
 8709SOL     OW37588   0.885   0.239   6.509 -0.0883  0.3229  0.1655
 8709SOL    HW137589   0.975   0.206   6.515  0.6115  2.1101 -0.3029
 8709SOL    HW237590   0.870   0.226   6.415 -1.6653  2.9081  0.0657
 8710SOL     OW37591   4.338   2.868   4.393 -0.3973 -0.1044  0.1539
 8710SOL    HW137592   4.364   2.776   4.392  1.0562  0.3129  0.4324
 8710SOL    HW237593   4.402   2.900   4.330  0.7249 -1.8721  0.3989
 8711SOL     OW37594   1.028   2.396   3.461 -0.6449  0.5593  0.0415
 8711SOL    HW137595   1.088   2.324   3.480 -1.2525 -0.1391 -0.6926
 8711SOL    HW237596   1.088   2.458   3.419 -0.3911 -0.5782 -1.2753
 8712SOL     OW37597   2.347   0.185  13.912 -0.0462 -0.1848  0.0741
 8712SOL    HW137598   2.408   0.203  13.840 -0.7790 -0.8165 -0.7144
 8712SOL    HW237599   2.265   0.181  13.862  0.9410  2.7848 -1.7769
 8713SOL     OW37600   2.163   1.820   8.339  0.3674 -0.4829 -0.4186
 8713SOL    HW137601   2.253   1.835   8.369  0.9818  0.5760 -2.7899
 8713SOL    HW237602   2.166   1.787   8.249  0.9670 -3.5160  0.6856
 8714SOL     OW37603   4.704   1.956  12.615 -0.2818  0.2738 -0.2371
 8714SOL    HW137604   4.643   1.980  12.685 -1.7590  1.1818 -1.8366
 8714SOL    HW237605   0.050   2.018  12.640 -2.0465  1.4881  1.6526
 8715SOL     OW37606   1.384   3.931  12.160  0.1546 -0.5313 -0.6358
 8715SOL    HW137607   1.361   3.858  12.217 -1.3528 -0.6191 -1.3665
 8715SOL    HW237608   1.458   3.899  12.108  0.9512  0.6093 -0.2000
 8716SOL     OW37609   4.378   1.682   2.102  0.3719 -0.0431 -0.0796
 8716SOL    HW137610   4.316   1.615   2.073  1.6763 -1.0276 -0.5731
 8716SOL    HW237611   4.327   1.763   2.101 -0.0838 -0.3318 -0.3370
 8717SOL     OW37612   2.693   2.703   1.646 -1.0545  0.3357 -0.1672
 8717SOL    HW137613   2.788   2.712   1.658 -0.9915 -0.4605 -0.1071
 8717SOL    HW237614   2.686   2.646   1.570  0.6222  0.2043 -0.2154
 8718SOL     OW37615   0.092   4.248   0.420  0.3096 -0.0762  1.0368
 8718SOL    HW137616   0.052   4.316   0.366 -0.0843 -1.9144 -0.9462
 8718SOL    HW237617   0.171   4.284   0.461 -0.5249 -0.5345  3.0533
 8719SOL     OW37618   0.966   3.683  11.167 -0.0798 -0.0639 -0.4612
 8719SOL    HW137619   0.974   3.587  11.160 -1.9824 -0.3078  0.6357
 8719SOL    HW237620   1.017   3.693  11.247 -0.6547 -0.9624  0.0329
 8720SOL     OW37621   1.049   3.657   6.166 -0.4470  0.2936  0.6219
 8720SOL    HW137622   0.997   3.619   6.094  0.1051 -0.0296  0.3973
 8720SOL    HW237623   1.059   3.747   6.135  2.3731 -0.0739  0.4863
 8721SOL     OW37624   3.835   3.900   5.894 -0.1180 -0.2525  0.1191
 8721SOL    HW137625   3.873   3.973   5.844  1.4041 -3.0286 -2.7239
 8721SOL    HW237626   3.912   3.856   5.929 -0.4760  0.1332  1.3943
 8722SOL     OW37627   2.491   0.927  17.421  0.2767  0.0426  0.8466
 8722SOL    HW137628   2.563   0.865  17.411  0.9229  1.4708 -3.1713
 8722SOL    HW237629   2.537   1.007  17.395 -1.6878  1.0630  0.5475
 8723SOL     OW37630   4.671   3.642  14.638  0.1760  0.2483 -0.1022
 8723SOL    HW137631   0.002   3.715  14.606  1.3857 -0.7158 -0.2739
 8723SOL    HW237632   4.713   3.566  14.599 -1.2530 -1.4797  1.7210
 8724SOL     OW37633   4.522   1.362   3.231  0.1779  0.3822 -0.1278
 8724SOL    HW137634   4.446   1.409   3.197 -0.2821 -0.2675 -0.0076
 8724SOL    HW237635   4.520   1.277   3.187 -1.2536  0.4497 -0.1894
 8725SOL     OW37636   2.263   4.477  16.441 -0.2361 -0.4221 -0.0987
 8725SOL    HW137637   2.228   4.485  16.530 -2.0208 -2.3193 -0.6010
 8725SOL    HW237638   2.341   4.532  16.444 -1.5834  1.5351 -1.0855
 8726SOL     OW37639   4.443   2.605   4.193  0.2704 -0.6687 -0.4090
 8726SOL    HW137640   4.358   2.612   4.150 -0.3356  1.0336  1.0793
 8726SOL    HW237641   4.459   2.511   4.201  1.4314 -0.5437 -1.3064
 8727SOL     OW37642   0.682   0.584  13.784  0.5471 -0.1559 -0.2652
 8727SOL    HW137643   0.690   0.556  13.875  1.9761  1.2910  0.0469
 8727SOL    HW237644   0.766   0.629  13.773 -0.5886  2.3387  1.1910
 8728SOL     OW37645   4.404   3.838  14.051  0.1157  0.3255 -0.3972
 8728SOL    HW137646   4.393   3.778  13.978 -1.0336 -1.8631  1.5774
 8728SOL    HW237647   4.482   3.882  14.018 -0.5149  1.3069 -0.6075
 8729SOL     OW37648   1.182   1.380   2.798 -0.0904 -0.3546 -0.4684
 8729SOL    HW137649   1.158   1.473   2.794 -1.1119 -0.6581 -1.2418
 8729SOL    HW237650   1.167   1.354   2.889  0.8117 -2.3097 -0.8741
 8730SOL     OW37651   0.172   2.547   6.333 -0.1235 -0.3864  0.1735
 8730SOL    HW137652   0.204   2.624   6.381 -2.3732  1.5926 -1.5617
 8730SOL    HW237653   0.149   2.581   6.247  3.4787  0.9142 -0.2805
 8731SOL     OW37654   3.078   4.563   5.525 -0.7164 -0.7610  0.0224
 8731SOL    HW137655   3.153   4.522   5.483 -0.5772  0.7159 -1.1933
 8731SOL    HW237656   3.092   4.654   5.498  1.9314 -0.9522  0.7669
 8732SOL     OW37657   2.902   0.140   2.856 -0.2221  0.0880 -0.3161
 8732SOL    HW137658   2.998   0.141   2.857 -0.2309  1.0920 -1.6134
 8732SOL    HW237659   2.881   0.144   2.950  1.6234 -0.8761  0.1477
 8733SOL     OW37660   1.392   3.470  17.502 -0.3497  0.3104 -0.7200
 8733SOL    HW137661   1.432   3.466  17.415  0.3433 -1.8929 -0.2928
 8733SOL    HW237662   1.391   3.565  17.515  2.1355  0.7730 -3.7978
 8734SOL     OW37663   0.682   1.165   5.762  0.3149 -0.3157  0.3502
 8734SOL    HW137664   0.762   1.140   5.716  0.3991  0.1467  0.2510
 8734SOL    HW237665   0.635   1.219   5.699  2.2327  1.3512  0.3454
 8735SOL     OW37666   2.171   1.304  17.015  0.9419 -0.0966  0.3672
 8735SOL    HW137667   2.151   1.333  17.104 -1.9734  2.0020 -0.9536
 8735SOL    HW237668   2.201   1.385  16.973  2.2421 -0.4841  0.5458
 8736SOL     OW37669   1.013   3.867  11.551  0.5731  0.0655 -0.3106
 8736SOL    HW137670   1.032   3.955  11.582  2.6381 -0.4498 -0.0674
 8736SOL    HW237671   1.055   3.866  11.465  0.2831 -1.5783 -0.4440
 8737SOL     OW37672   1.403   2.548  13.595  0.1844 -0.5095 -0.1415
 8737SOL    HW137673   1.465   2.509  13.534  0.3222  0.2499 -0.4915
 8737SOL    HW237674   1.422   2.488  13.667  1.1298 -0.2517 -0.1802
 8738SOL     OW37675   3.283   2.111   7.507 -0.3885  0.0919  0.4287
 8738SOL    HW137676   3.244   2.024   7.498  1.1917 -0.4658 -0.9854
 8738SOL    HW237677   3.201   2.161   7.513 -0.0743  0.7249 -0.5268
 8739SOL     OW37678   2.526   1.071   9.972  0.8901 -0.4136 -0.2629
 8739SOL    HW137679   2.597   1.034  10.025  0.5508  0.7555  0.9836
 8739SOL    HW237680   2.464   1.092  10.041  1.7426 -2.6014  1.1674
 8740SOL     OW37681   3.106   1.278   5.041 -1.0326  0.1586 -0.0705
 8740SOL    HW137682   3.106   1.201   5.097  0.2713  0.7351  0.7323
 8740SOL    HW237683   3.184   1.324   5.071 -1.0671  1.9732 -2.7521
 8741SOL     OW37684   4.298   2.581  14.372 -0.1505  0.2028  0.4194
 8741SOL    HW137685   4.286   2.600  14.279 -0.5582  1.4827  0.7283
 8741SOL    HW237686   4.267   2.491  14.373  1.3173 -0.2835  3.1158
 8742SOL     OW37687   2.008   2.413   8.508 -0.6418 -0.2795 -0.3809
 8742SOL    HW137688   1.920   2.381   8.529 -0.3910 -1.3937 -1.0479
 8742SOL    HW237689   2.042   2.341   8.455 -2.9658 -1.5715 -0.1056
 8743SOL     OW37690   1.541   4.251  17.435 -0.7174 -0.3492  0.5642
 8743SOL    HW137691   1.525   4.227  17.527 -0.1271 -0.0424  0.7443
 8743SOL    HW237692   1.477   4.188  17.401 -1.7454  0.2487  1.3813
 8744SOL     OW37693   3.407   1.320   6.623 -1.1572  0.0102  0.3240
 8744SOL    HW137694   3.498   1.289   6.623 -0.9281  0.7149 -1.0771
 8744SOL    HW237695   3.386   1.323   6.716 -1.6259 -2.2026  0.3043
 8745SOL     OW37696   3.537   2.359  13.839 -0.1686 -0.7760 -0.1793
 8745SOL    HW137697   3.489   2.302  13.779 -0.8670 -1.2547  0.8284
 8745SOL    HW237698   3.483   2.361  13.919  1.4641  0.7431  0.8949
 8746SOL     OW37699   2.798   2.512   9.177 -0.0954  0.1767 -0.2767
 8746SOL    HW137700   2.775   2.603   9.195  1.0887  0.7065 -1.3744
 8746SOL    HW237701   2.894   2.506   9.178 -0.2401 -2.2148 -0.7491
 8747SOL     OW37702   1.993   0.121  12.773 -0.6137 -0.8029 -0.6143
 8747SOL    HW137703   2.037   0.202  12.746  1.5862 -1.9771 -0.5577
 8747SOL    HW237704   2.066   0.060  12.763  0.0982  0.1027 -0.9039
 8748SOL     OW37705   3.375   1.182  11.803  0.1871  0.0838 -0.7729
 8748SOL    HW137706   3.309   1.114  11.793  1.2632 -0.5831 -3.2645
 8748SOL    HW237707   3.389   1.183  11.898  0.3838 -0.5750 -0.7989
 8749SOL     OW37708   3.889   0.385   9.549  0.2059  0.0569  0.1298
 8749SOL    HW137709   3.958   0.378   9.614  0.8173  0.1263 -0.5096
 8749SOL    HW237710   3.864   0.293   9.539  0.6948 -0.1630  1.0026
 8750SOL     OW37711   4.588   1.041  12.992 -0.4242 -0.0843  0.0071
 8750SOL    HW137712   4.595   0.946  12.979 -2.6143 -0.6056  2.6582
 8750SOL    HW237713   4.537   1.050  13.072 -1.3222  0.9927 -0.6812
 8751SOL     OW37714   3.538   4.556   1.337  0.4177 -0.5810  0.2840
 8751SOL    HW137715   3.562   4.587   1.424 -2.2125  0.2205  0.7257
 8751SOL    HW237716   3.529   4.461   1.342 -0.4314 -0.4254  1.6198
 8752SOL     OW37717   3.754   1.554  17.638 -0.3923  0.2766 -0.0748
 8752SOL    HW137718   3.704   1.583   0.020 -0.9353 -1.4951  0.2382
 8752SOL    HW237719   3.828   1.614  17.634 -0.3654  0.1753 -1.0374
 8753SOL     OW37720   2.981   3.731   5.627 -0.5903 -0.9762 -0.0661
 8753SOL    HW137721   2.906   3.674   5.611 -0.5510 -1.3392  1.0159
 8753SOL    HW237722   2.945   3.808   5.672 -0.6235 -0.6550 -0.6452
 8754SOL     OW37723   4.538   2.066   2.555 -0.6410  0.9490 -0.3372
 8754SOL    HW137724   4.486   2.043   2.478  1.8947 -0.8484 -1.5160
 8754SOL    HW237725   4.628   2.068   2.521 -0.3274  1.5321  0.5352
 8755SOL     OW37726   1.898   0.306   9.258  0.2356 -0.0434  0.0222
 8755SOL    HW137727   1.901   0.224   9.210  0.5371  1.2579 -2.1632
 8755SOL    HW237728   1.925   0.370   9.193  2.3807 -1.4088 -0.4245
 8756SOL     OW37729   1.383   4.320  16.223 -0.1787  0.2550 -0.0281
 8756SOL    HW137730   1.346   4.339  16.137  0.2825 -1.5798 -0.6310
 8756SOL    HW237731   1.465   4.279  16.196  0.9298  2.6355 -0.3194
 8757SOL     OW37732   3.256   4.535   6.135 -0.0600  0.1390  0.1757
 8757SOL    HW137733   3.342   4.499   6.113 -0.4211 -0.3797 -0.4065
 8757SOL    HW237734   3.223   4.543   6.045 -0.7494 -0.4866  0.3664
 8758SOL     OW37735   3.715   1.416   8.658  0.1265 -0.3487 -0.8968
 8758SOL    HW137736   3.732   1.458   8.742 -1.4205 -2.5629  0.5337
 8758SOL    HW237737   3.802   1.423   8.618  0.5923 -0.7973  0.0391
 8759SOL     OW37738   2.617   0.446   2.886  0.5429  0.2068  0.0537
 8759SOL    HW137739   2.618   0.363   2.838  2.0611 -0.5064  1.3236
 8759SOL    HW237740   2.617   0.506   2.812 -0.6090 -1.1031 -1.0125
 8760SOL     OW37741   1.612   0.361   9.862 -0.6421 -0.4093 -0.1901
 8760SOL    HW137742   1.697   0.324   9.837 -0.9596 -2.4132  1.6607
 8760SOL    HW237743   1.638   0.444   9.902 -1.1886 -0.4253  0.1926
 8761SOL     OW37744   0.898   2.175   1.545  0.3595 -0.0755  0.5605
 8761SOL    HW137745   0.993   2.173   1.529  0.5223 -0.6416  1.5999
 8761SOL    HW237746   0.885   2.098   1.599 -0.2593 -0.2815  0.1113
 8762SOL     OW37747   1.795   2.141   8.027  0.2134  0.2978 -0.3190
 8762SOL    HW137748   1.761   2.231   8.035 -0.0443  0.4988 -3.5608
 8762SOL    HW237749   1.842   2.146   7.944  2.2099 -3.8110  0.5700
 8763SOL     OW37750   2.407   0.158  17.063  0.4584  0.6191  0.2474
 8763SOL    HW137751   2.413   0.137  16.969  0.4517  0.9988  0.1635
 8763SOL    HW237752   2.382   0.250  17.056 -1.5307 -0.0550 -1.8574
 8764SOL     OW37753   1.597   3.003   0.799 -0.0153 -0.1183  0.3571
 8764SOL    HW137754   1.554   2.988   0.715 -0.3667  0.1835  0.4847
 8764SOL    HW237755   1.526   3.052   0.841 -0.0260  0.0467  0.1483
 8765SOL     OW37756   0.552   1.318  16.158 -1.1887 -0.8584  0.4897
 8765SOL    HW137757   0.634   1.290  16.198 -0.8935 -0.7266 -0.0231
 8765SOL    HW237758   0.567   1.400  16.111 -0.3212 -1.4804 -0.3261
 8766SOL     OW37759   2.237   1.273   9.902 -0.3972 -0.0660  0.9976
 8766SOL    HW137760   2.222   1.204   9.837  0.8423 -1.1131  1.8205
 8766SOL    HW237761   2.145   1.299   9.906 -0.1517  0.6502  2.0935
 8767SOL     OW37762   3.748   3.547  12.287 -0.0169 -0.2098  0.1811
 8767SOL    HW137763   3.720   3.455  12.282  0.9275 -0.4353 -1.0951
 8767SOL    HW237764   3.704   3.572  12.206  0.2048 -1.5929 -0.3791
 8768SOL     OW37765   0.919   4.637   3.551  0.0745  0.7973  0.6168
 8768SOL    HW137766   0.951   4.558   3.508 -2.1594  0.9690 -1.3255
 8768SOL    HW237767   0.901   4.607   3.640 -0.1322  0.4534  0.4574
 8769SOL     OW37768   2.262   2.648   8.119 -0.2795 -0.3654  0.0189
 8769SOL    HW137769   2.180   2.601   8.134 -1.2089  1.0757 -0.4506
 8769SOL    HW237770   2.264   2.638   8.024 -0.6840 -0.8159  0.0635
 8770SOL     OW37771   2.792   2.931   8.710  0.0308  0.1374 -0.5729
 8770SOL    HW137772   2.827   3.016   8.684  4.3317 -0.7322  2.3921
 8770SOL    HW237773   2.702   2.935   8.676  0.7285  0.1117 -2.4024
 8771SOL     OW37774   0.789   3.829   2.346 -0.1386 -0.6630  0.3806
 8771SOL    HW137775   0.793   3.793   2.258 -1.9604 -0.6254  0.2728
 8771SOL    HW237776   0.851   3.902   2.351 -0.6292 -0.1316 -1.1931
 8772SOL     OW37777   0.898   0.081   2.984 -0.2576  0.2399 -0.5014
 8772SOL    HW137778   0.846   0.141   3.037 -0.5713  1.3088 -2.0203
 8772SOL    HW237779   0.836   0.013   2.958 -2.7016  2.3249 -0.0932
 8773SOL     OW37780   3.171   1.419   3.230  0.0063  0.0589 -0.4085
 8773SOL    HW137781   3.138   1.365   3.302 -1.3080  0.8181 -0.4378
 8773SOL    HW237782   3.239   1.471   3.270 -1.0995  0.5369  0.8435
 8774SOL     OW37783   1.387   4.295   8.851 -0.2013  0.0098 -0.4286
 8774SOL    HW137784   1.405   4.236   8.778  0.0875 -0.9394  0.4031
 8774SOL    HW237785   1.394   4.234   8.924  0.5805  2.1139  1.2502
 8775SOL     OW37786   3.581   0.487   5.686 -0.0573 -0.7579 -0.2472
 8775SOL    HW137787   3.627   0.570   5.674 -0.9483 -0.1847  0.2695
 8775SOL    HW237788   3.534   0.484   5.603 -1.8410  0.4758  0.7040
 8776SOL     OW37789   1.264   1.196   3.531 -0.6091  0.1892 -0.3373
 8776SOL    HW137790   1.245   1.180   3.624 -1.8608 -0.3054 -0.6900
 8776SOL    HW237791   1.209   1.134   3.485 -0.0331 -1.4303  1.1633
 8777SOL     OW37792   3.923   4.212   7.270 -0.2516  0.2628 -0.5729
 8777SOL    HW137793   3.935   4.193   7.363  0.0301  0.3220 -0.5981
 8777SOL    HW237794   3.849   4.155   7.251  0.5759 -0.6700 -0.9595
 8778SOL     OW37795   4.644   4.556   1.653  0.4609  0.5736 -0.7046
 8778SOL    HW137796   4.655   4.562   1.558 -2.1010  0.7413 -0.9920
 8778SOL    HW237797   0.012   4.537   1.675 -0.4453 -2.8387  0.0704
 8779SOL     OW37798   2.141   1.077  14.024 -0.6130  0.0881  0.1494
 8779SOL    HW137799   2.212   1.088  14.088 -1.0027  0.4664  0.5145
 8779SOL    HW237800   2.063   1.082  14.079  0.4038  0.1008  1.5856
 8780SOL     OW37801   2.622   4.451   9.018 -0.2395 -0.3985  0.3353
 8780SOL    HW137802   2.654   4.422   9.104  1.7662  0.6166 -0.0671
 8780SOL    HW237803   2.632   4.546   9.026 -2.6180  0.0664 -2.1945
 8781SOL     OW37804   2.465   2.282   2.938  0.6344  0.2846  0.0885
 8781SOL    HW137805   2.390   2.252   2.989  1.0939 -1.1093 -0.0324
 8781SOL    HW237806   2.478   2.371   2.970  1.3718 -0.3840  1.6645
 8782SOL     OW37807   3.734   2.576   6.403  0.0622  0.4070  0.4110
 8782SOL    HW137808   3.678   2.533   6.338  1.8707 -1.0730 -0.1716
 8782SOL    HW237809   3.701   2.533   6.481 -0.8386 -1.2112 -0.8645
 8783SOL     OW37810   4.108   1.950  15.359 -0.0794  0.6861 -0.5019
 8783SOL    HW137811   4.026   1.903  15.344  0.1526  0.5505 -1.3420
 8783SOL    HW237812   4.093   1.962  15.452  1.2051 -2.1197  0.0621
 8784SOL     OW37813   4.678   0.635   4.107 -0.3414 -0.1365 -0.1729
 8784SOL    HW137814   4.673   0.588   4.190  1.3814 -0.7543 -0.4138
 8784SOL    HW237815   0.009   0.705   4.144 -0.0009  0.3264 -1.5202
 8785SOL     OW37816   4.045   0.192   0.596  0.1315 -0.5363  0.6772
 8785SOL    HW137817   3.954   0.199   0.565  0.6324  3.4444  0.0476
 8785SOL    HW237818   4.050   0.097   0.599 -0.9309 -0.7176 -3.3249
 8786SOL     OW37819   2.010   4.258   9.733  0.3380  0.2337  0.3797
 8786SOL    HW137820   2.039   4.173   9.700 -0.8610  0.5314 -1.4598
 8786SOL    HW237821   2.057   4.259   9.816  0.8406 -2.7171  0.1411
 8787SOL     OW37822   1.990   3.094   5.159 -0.3112 -0.4025 -0.5312
 8787SOL    HW137823   1.938   3.087   5.080 -0.2950  0.7519 -0.6454
 8787SOL    HW237824   2.039   3.176   5.148  0.2162 -0.6439 -0.0056
 8788SOL     OW37825   0.726   0.136   8.457  0.4834 -0.6658 -0.3994
 8788SOL    HW137826   0.716   0.088   8.375  0.0272  1.0223 -1.3259
 8788SOL    HW237827   0.684   0.217   8.427  0.1233 -0.7840 -0.2117
 8789SOL     OW37828   0.018   4.601   2.617  0.0548 -0.6204 -0.0616
 8789SOL    HW137829   4.687   4.636   2.688  0.3258  1.3920 -0.8484
 8789SOL    HW237830   4.695   4.637   2.542  2.4300  0.9917 -0.7542
 8790SOL     OW37831   3.783   3.039   6.896 -0.1211  0.0859  0.4652
 8790SOL    HW137832   3.735   3.093   6.834 -1.6650 -1.0565  0.6437
 8790SOL    HW237833   3.757   2.950   6.870  0.6851  0.4525 -1.5114
 8791SOL     OW37834   2.953   4.506   7.464  0.3289  0.3807  0.2207
 8791SOL    HW137835   2.937   4.423   7.509  0.9800  0.0461 -0.1701
 8791SOL    HW237836   2.865   4.527   7.432 -0.0930  0.9391  1.7720
 8792SOL     OW37837   3.964   1.720   4.767 -0.0401  0.6279  0.1322
 8792SOL    HW137838   4.021   1.714   4.690  1.6223  0.9683  1.3358
 8792SOL    HW237839   3.949   1.814   4.764 -1.1232  0.4637  0.6367
 8793SOL     OW37840   3.900   3.602   5.390 -0.0208 -0.1624  0.0999
 8793SOL    HW137841   3.970   3.538   5.379  0.4231 -0.0324  2.2556
 8793SOL    HW237842   3.933   3.674   5.337  0.3979 -0.6169 -0.2584
 8794SOL     OW37843   2.527   1.202   4.610  0.0840  0.2521  0.5699
 8794SOL    HW137844   2.569   1.287   4.624  1.5173 -0.1397 -1.3764
 8794SOL    HW237845   2.560   1.185   4.522  1.7958  1.2561  1.0072
 8795SOL     OW37846   4.545   0.811   5.942 -0.1548 -0.2763 -0.9320
 8795SOL    HW137847   4.614   0.745   5.935  0.1011 -0.1557  0.3792
 8795SOL    HW237848   4.501   0.811   5.857  2.2712 -1.2007 -2.1873
 8796SOL     OW37849   4.216   2.152  10.522  0.2096 -0.1362  0.1531
 8796SOL    HW137850   4.258   2.142  10.437  2.1616  1.1448  0.9785
 8796SOL    HW237851   4.160   2.225  10.496  0.6002  0.0551 -0.1506
 8797SOL     OW37852   2.384   3.815  16.670 -0.1301 -0.0521  0.3643
 8797SOL    HW137853   2.406   3.776  16.585  0.2675  2.0739 -0.5200
 8797SOL    HW237854   2.417   3.904  16.654 -0.1580 -0.1563 -0.2789
 8798SOL     OW37855   0.308   0.192  10.358  0.4138  0.7927 -0.5045
 8798SOL    HW137856   0.282   0.184  10.450 -0.2842  2.2526 -0.5675
 8798SOL    HW237857   0.291   0.285  10.341  2.4209  1.2710  0.1455
 8799SOL     OW37858   0.705   0.212   3.595 -0.4392 -0.0051 -0.0819
 8799SOL    HW137859   0.703   0.119   3.618  1.8280 -0.4612 -1.7205
 8799SOL    HW237860   0.768   0.214   3.523 -0.5154 -2.4107 -0.2191
 8800SOL     OW37861   2.750   3.904  11.823  0.4602  0.4290  0.2378
 8800SOL    HW137862   2.838   3.935  11.799  0.8211  0.0215  1.0500
 8800SOL    HW237863   2.758   3.892  11.917  1.7462 -1.7145 -0.1474
 8801SOL     OW37864   3.150   2.954  11.379 -0.3747 -0.2132 -0.4961
 8801SOL    HW137865   3.091   3.025  11.351  1.0807  0.4776 -1.8150
 8801SOL    HW237866   3.195   2.995  11.452  0.8122 -2.1494 -0.1453
 8802SOL     OW37867   0.368   3.967   0.151  0.2534 -0.2213 -0.1296
 8802SOL    HW137868   0.346   3.885   0.107  3.1443 -1.2752  0.4239
 8802SOL    HW237869   0.286   3.990   0.196  1.2254  2.3602  0.3532
 8803SOL     OW37870   3.487   3.956   7.150 -0.2518  0.2149 -0.6246
 8803SOL    HW137871   3.417   3.891   7.151 -0.3819  0.3625 -0.0634
 8803SOL    HW237872   3.502   3.979   7.058  0.0874 -0.1102 -0.6521
 8804SOL     OW37873   4.684   3.993   1.473  0.1379 -0.1194  0.0291
 8804SOL    HW137874   4.639   4.018   1.392 -1.0967  2.1918  1.4474
 8804SOL    HW237875   0.032   4.056   1.461 -1.3004  2.0358  3.0021
 8805SOL     OW37876   1.222   1.189   6.161  0.1247  0.1212 -0.0410
 8805SOL    HW137877   1.307   1.148   6.179 -0.0562 -1.1084 -1.9049
 8805SOL    HW237878   1.235   1.248   6.087  2.3066 -1.3790 -0.8635
 8806SOL     OW37879   1.099   2.079   5.121 -0.0160  0.2351  0.4214
 8806SOL    HW137880   1.121   2.109   5.033 -0.0002  0.4175  0.4883
 8806SOL    HW237881   1.142   2.146   5.174  2.1585  0.3105 -1.4637
 8807SOL     OW37882   4.401   3.627   2.710 -0.6339  0.0218 -0.1867
 8807SOL    HW137883   4.343   3.678   2.766  0.4986  0.9976  0.1029
 8807SOL    HW237884   4.357   3.542   2.717 -1.4556  0.2744 -2.2320
 8808SOL     OW37885   1.104   3.288  10.502  0.4071  0.3267 -0.3368
 8808SOL    HW137886   1.051   3.277  10.581 -0.4005 -0.2798 -0.9711
 8808SOL    HW237887   1.176   3.347  10.526  0.3647 -0.6313  2.1406
 8809SOL     OW37888   2.093   2.903   2.784  0.1774 -0.3185  0.2860
 8809SOL    HW137889   2.177   2.862   2.804 -0.5537 -0.8499  2.1952
 8809SOL    HW237890   2.076   2.964   2.856 -0.7528 -2.1946  1.6363
 8810SOL     OW37891   2.369   0.777   2.658  0.1988 -0.7244  0.8058
 8810SOL    HW137892   2.278   0.805   2.655  0.5435  0.3879  0.8275
 8810SOL    HW237893   2.417   0.841   2.606  0.7537 -0.8427  1.1702
 8811SOL     OW37894   3.348   4.055   9.165  0.5961  0.4627  0.2324
 8811SOL    HW137895   3.439   4.042   9.190  0.3087  0.5842  1.3314
 8811SOL    HW237896   3.335   4.138   9.209 -1.1325 -0.0576  0.6898
 8812SOL     OW37897   2.722   2.639   4.320 -0.6601 -0.1170 -0.1001
 8812SOL    HW137898   2.666   2.645   4.397  0.3178  0.0050  0.6094
 8812SOL    HW237899   2.752   2.730   4.327  1.4694 -0.9826  1.9394
 8813SOL     OW37900   4.064   3.696  14.627  0.8269 -0.1569 -0.7636
 8813SOL    HW137901   4.034   3.624  14.571 -0.3567 -1.1918  1.2187
 8813SOL    HW237902   3.981   3.734  14.656  0.1929 -2.0748 -0.0700
 8814SOL     OW37903   0.626   3.275   1.092  0.3403  1.0425 -0.6365
 8814SOL    HW137904   0.561   3.265   1.022  0.6746 -1.1286 -0.6203
 8814SOL    HW237905   0.653   3.184   1.105  1.1766  1.6744  2.0164
 8815SOL     OW37906   0.991   2.388  10.109 -0.3287 -0.3493  0.6786
 8815SOL    HW137907   1.076   2.432  10.111 -0.8922  0.8601 -1.4489
 8815SOL    HW237908   0.965   2.401  10.017  2.3412  2.2202  0.2776
 8816SOL     OW37909   2.379   3.511   3.953  0.0063  0.4493  0.1864
 8816SOL    HW137910   2.314   3.567   3.912  2.4789  0.9616 -2.9984
 8816SOL    HW237911   2.458   3.564   3.959  0.0701  0.4413 -0.5884
 8817SOL     OW37912   0.881   0.826   3.826  0.5316 -0.3449 -0.0244
 8817SOL    HW137913   0.865   0.741   3.867  0.2223 -0.2505  0.0526
 8817SOL    HW237914   0.961   0.848   3.875  0.9497  0.3893 -1.0304
 8818SOL     OW37915   3.623   3.345   3.603 -0.0864  0.4712  0.3257
 8818SOL    HW137916   3.648   3.356   3.695  0.8722  1.8524 -0.0997
 8818SOL    HW237917   3.620   3.249   3.604 -1.5884  0.5259  0.9043
 8819SOL     OW37918   2.963   0.376   0.067 -0.0897 -0.1760 -0.2420
 8819SOL    HW137919   2.939   0.297   0.117 -1.3294 -0.7156 -1.6761
 8819SOL    HW237920   2.897   0.432   0.107  0.0906  1.9352 -2.9510
 8820SOL     OW37921   4.627   3.206  16.726 -0.3693 -0.1740  0.5063
 8820SOL    HW137922   4.642   3.224  16.819 -2.3499  3.2608  0.1723
 8820SOL    HW237923   4.545   3.157  16.726 -0.6269  0.2540  0.2485
 8821SOL     OW37924   2.320   0.787   3.523  0.6145  0.2971  0.7576
 8821SOL    HW137925   2.326   0.692   3.511 -1.0029  0.3739 -0.6610
 8821SOL    HW237926   2.398   0.812   3.474  0.9377  0.3018  1.2722
 8822SOL     OW37927   3.507   2.332  12.156 -0.0384 -0.2743 -0.0858
 8822SOL    HW137928   3.565   2.408  12.152  0.1485 -0.3283  1.4754
 8822SOL    HW237929   3.424   2.373  12.182 -0.0552  0.5613 -1.4415
 8823SOL     OW37930   0.633   1.024   7.616  0.3364  0.1408  0.2912
 8823SOL    HW137931   0.688   0.995   7.689 -4.2827 -2.3476  2.8180
 8823SOL    HW237932   0.702   1.040   7.553 -1.1788  1.9929 -0.9133
 8824SOL     OW37933   2.118   0.854  17.604 -0.1350 -0.1389  0.1468
 8824SOL    HW137934   2.086   0.768  17.630  1.2703 -0.3673  1.1089
 8824SOL    HW237935   2.109   0.894  17.690  1.7809  0.4541  0.0834
 8825SOL     OW37936   4.560   1.370  15.806 -0.2494 -0.4090 -0.3908
 8825SOL    HW137937   4.564   1.366  15.901 -1.4980 -0.3732 -0.3259
 8825SOL    HW237938   4.600   1.285  15.786  2.4759  0.1843  2.6096
 8826SOL     OW37939   3.461   3.103   1.623 -0.2106  0.8566  0.3009
 8826SOL    HW137940   3.418   3.184   1.596  0.2015  1.4380  1.3610
 8826SOL    HW237941   3.454   3.052   1.543  4.3097 -0.5954  0.8535
 8827SOL     OW37942   0.004   1.426  16.700  0.1833  0.4692  0.5572
 8827SOL    HW137943   4.681   1.380  16.630  0.0677  0.6237  0.5290
 8827SOL    HW237944   4.704   1.516  16.673 -0.2869  1.3446  3.8715
 8828SOL     OW37945   4.073   2.394   5.904 -0.6284  0.1973  0.3297
 8828SOL    HW137946   4.096   2.346   5.824 -1.1939  3.1180 -1.5924
 8828SOL    HW237947   4.113   2.338   5.971 -3.4951  0.3102  2.1639
 8829SOL     OW37948   2.745   4.374   9.236 -0.2202 -0.0808  0.1155
 8829SOL    HW137949   2.716   4.417   9.317  0.7168  0.0908  0.3690
 8829SOL    HW237950   2.760   4.288   9.276 -1.6148 -0.4290 -0.1133
 8830SOL     OW37951   3.212   3.089  10.937 -0.1951 -0.5266 -0.0677
 8830SOL    HW137952   3.253   3.175  10.929 -0.7455 -0.3342 -0.8562
 8830SOL    HW237953   3.134   3.106  10.884  2.1581 -0.2028 -3.4260
 8831SOL     OW37954   3.203   2.429   6.458 -0.0496 -0.1199 -0.2207
 8831SOL    HW137955   3.188   2.447   6.550  0.5073  0.6879 -0.2920
 8831SOL    HW237956   3.276   2.487   6.437 -1.5896  1.1341 -2.0839
 8832SOL     OW37957   3.031   2.377   4.960 -0.4360 -0.2404  0.0107
 8832SOL    HW137958   2.947   2.345   4.993 -0.0424 -0.3452  0.8870
 8832SOL    HW237959   3.059   2.440   5.027  0.5458 -1.0903  0.3882
 8833SOL     OW37960   2.181   3.635   6.184 -0.0603  0.6986  0.1165
 8833SOL    HW137961   2.105   3.681   6.220  1.1629  0.8618  2.4770
 8833SOL    HW237962   2.142   3.595   6.106 -1.1000 -0.2452  1.1236
 8834SOL     OW37963   1.953   2.161   2.367  0.0513 -0.3035  0.1097
 8834SOL    HW137964   1.990   2.212   2.295  1.1086 -0.4785  0.5299
 8834SOL    HW237965   1.860   2.179   2.356 -0.2607 -1.2832  1.1518
 8835SOL     OW37966   3.157   4.114  15.106 -0.2014  0.3370  0.4234
 8835SOL    HW137967   3.193   4.166  15.035 -0.1277  0.5966  0.6531
 8835SOL    HW237968   3.062   4.131  15.102  0.2129  2.6414  0.3536
 8836SOL     OW37969   0.014   4.690   4.603  0.1246 -0.5373  0.2884
 8836SOL    HW137970   0.062   0.046   4.630 -1.9605  0.3888  1.3460
 8836SOL    HW237971   0.082   4.624   4.597  1.1870  0.5408  0.4689
 8837SOL     OW37972   0.164   1.717   7.327 -0.1744 -0.2810 -0.1135
 8837SOL    HW137973   0.154   1.702   7.233 -0.1426  0.3088 -0.2115
 8837SOL    HW237974   0.156   1.812   7.332 -2.7224 -0.4700 -0.5444
 8838SOL     OW37975   0.506   2.243   5.280  0.0935 -0.1198  0.0123
 8838SOL    HW137976   0.456   2.205   5.353  1.3688 -1.8602 -0.0222
 8838SOL    HW237977   0.503   2.169   5.220 -1.0772  0.0683 -0.1678
 8839SOL     OW37978   0.557   4.722   9.950  0.6269  0.2029  0.2685
 8839SOL    HW137979   0.552   0.052  10.030  0.7787 -0.2737  0.5972
 8839SOL    HW237980   0.653   4.721   9.944  0.6928  2.7283  0.8270
 8840SOL     OW37981   0.373   2.180   5.510  0.0950 -0.2002 -0.3199
 8840SOL    HW137982   0.436   2.117   5.546  1.5555  0.4228 -1.7973
 8840SOL    HW237983   0.291   2.131   5.522 -0.5629  0.6224 -1.4445
 8841SOL     OW37984   2.721   3.799   6.766  0.0184  0.3080  0.7695
 8841SOL    HW137985   2.773   3.735   6.717 -2.0713 -0.7637 -0.0718
 8841SOL    HW237986   2.669   3.838   6.696 -0.0425 -1.0556  0.0547
 8842SOL     OW37987   4.310   3.088  11.268  0.2776  0.4841 -0.4121
 8842SOL    HW137988   4.294   3.173  11.227  0.0634 -0.5555 -2.4644
 8842SOL    HW237989   4.246   3.047  11.211  0.4155 -0.2426 -0.0486
 8843SOL     OW37990   3.448   0.552   5.916 -0.6287  0.6787  0.0436
 8843SOL    HW137991   3.482   0.526   5.830  0.8817 -2.3061  1.5565
 8843SOL    HW237992   3.353   0.543   5.907 -0.9260  0.4800  3.3703
 8844SOL     OW37993   2.612   2.758   7.243  0.0238 -0.6800 -0.0706
 8844SOL    HW137994   2.694   2.798   7.213 -0.4254 -2.1081 -3.1859
 8844SOL    HW237995   2.632   2.740   7.335  3.7055 -1.3857 -0.9781
 8845SOL     OW37996   0.963   2.178  15.803  0.8128  0.4389  0.5063
 8845SOL    HW137997   1.054   2.205  15.795  0.4798  0.9709 -1.5976
 8845SOL    HW237998   0.914   2.245  15.755 -2.3745 -2.0341  0.2696
 8846SOL     OW37999   1.738   3.347   2.347 -0.5891 -0.9483 -0.1050
 8846SOL    HW138000   1.829   3.354   2.378 -0.1593 -2.9235 -0.9179
 8846SOL    HW238001   1.753   3.319   2.257 -1.6667 -1.2694 -0.1839
 8847SOL     OW38002   1.082   2.428  10.844 -0.4129 -0.6015  0.2049
 8847SOL    HW138003   1.053   2.402  10.757  1.9753 -1.1034 -0.4560
 8847SOL    HW238004   1.142   2.357  10.867  1.3750  0.2074 -1.9603
 8848SOL     OW38005   0.629   1.465  15.672 -0.2612 -1.1993  0.0476
 8848SOL    HW138006   0.608   1.394  15.611  0.1055  1.6278 -3.3644
 8848SOL    HW238007   0.562   1.452  15.739  0.5389  1.3662  1.3169
 8849SOL     OW38008   0.921   3.229  10.724 -0.2164 -0.9048  0.3185
 8849SOL    HW138009   0.931   3.242  10.818  0.3329 -0.3694  0.1831
 8849SOL    HW238010   0.967   3.145  10.718  1.5224  0.0509  0.0752
 8850SOL     OW38011   3.222   4.288   2.160  0.5880 -0.3209  0.0774
 8850SOL    HW138012   3.268   4.266   2.241  2.7309  2.3935 -0.4176
 8850SOL    HW238013   3.146   4.232   2.174  1.1071 -0.6185  1.6573
 8851SOL     OW38014   0.370   4.610   4.195 -0.0782  0.0234 -0.0357
 8851SOL    HW138015   0.441   4.590   4.134  0.2951 -0.1767  0.4623
 8851SOL    HW238016   0.296   4.572   4.148 -0.2746 -0.6038  0.7810
 8852SOL     OW38017   3.329   2.816  11.777  0.3827 -0.5698 -0.2133
 8852SOL    HW138018   3.244   2.775  11.792 -1.1243  2.2411 -1.0944
 8852SOL    HW238019   3.371   2.797  11.861  0.6145 -0.3286 -0.2763
 8853SOL     OW38020   1.549   1.022  16.617  0.4587 -0.2034  0.5265
 8853SOL    HW138021   1.628   1.036  16.668  0.0136  0.8388  0.9426
 8853SOL    HW238022   1.547   0.926  16.614  0.6052 -0.2528  1.9153
 8854SOL     OW38023   0.074   4.425  14.912 -0.2089 -0.4144  0.3810
 8854SOL    HW138024   0.167   4.430  14.931 -0.4181  0.1702  1.2559
 8854SOL    HW238025   0.059   4.333  14.891 -0.3920 -0.6545  1.5478
 8855SOL     OW38026   3.820   4.366   0.832 -0.5416 -0.3078  0.0708
 8855SOL    HW138027   3.913   4.347   0.841 -0.2217  1.0170 -0.4594
 8855SOL    HW238028   3.786   4.317   0.907  0.9958  2.0938  2.3232
 8856SOL     OW38029   0.172   0.299   5.269  0.3689 -0.6240  0.3365
 8856SOL    HW138030   0.116   0.330   5.198  0.8227  4.1104  2.0854
 8856SOL    HW238031   0.225   0.376   5.288  1.1577 -0.6419 -1.7777
 8857SOL     OW38032   4.113   4.682   1.133 -0.5820  0.1317 -0.1586
 8857SOL    HW138033   4.040   4.720   1.183  0.3714  2.3427 -0.4709
 8857SOL    HW238034   4.064   4.656   1.055  0.7508  1.4298 -1.4171
 8858SOL     OW38035   1.490   1.365   2.105  0.6233  0.6805  0.0208
 8858SOL    HW138036   1.418   1.304   2.090  2.1755 -1.6162  2.0086
 8858SOL    HW238037   1.487   1.429   2.034 -2.3348  0.4109 -0.1180
 8859SOL     OW38038   3.322   0.947  17.337  0.5016 -0.3205 -0.3138
 8859SOL    HW138039   3.325   0.867  17.285  2.1184  1.3741 -2.8074
 8859SOL    HW238040   3.241   0.934  17.386  2.3865 -0.6497  2.7269
 8860SOL     OW38041   2.715   2.466   0.691  0.2787  0.0290  0.3606
 8860SOL    HW138042   2.640   2.509   0.650  1.9155  2.1045 -0.4914
 8860SOL    HW238043   2.734   2.404   0.622 -0.6228  0.7962 -0.5737
 8861SOL     OW38044   0.580   3.343   5.013 -0.1757 -0.2586 -0.1809
 8861SOL    HW138045   0.588   3.406   4.941  4.1858  0.8771  1.2803
 8861SOL    HW238046   0.619   3.397   5.082 -1.8556  1.1371 -0.3395
 8862SOL     OW38047   2.621   0.811  15.120 -0.1822  0.4344  0.2154
 8862SOL    HW138048   2.634   0.898  15.084  1.0520  0.5125  0.8284
 8862SOL    HW238049   2.571   0.823  15.201 -1.2927 -0.0531 -0.4058
 8863SOL     OW38050   0.613   0.953   4.048 -0.1267  0.7017 -0.0711
 8863SOL    HW138051   0.671   0.889   4.007  0.4290  0.1997  1.5083
 8863SOL    HW238052   0.527   0.922   4.022 -0.5061  0.2876  1.6618
 8864SOL     OW38053   3.696   1.028   5.577 -0.8068 -0.0212  0.4171
 8864SOL    HW138054   3.731   1.108   5.616 -2.3647  0.8079  0.1207
 8864SOL    HW238055   3.652   1.074   5.505  0.0742 -0.0339 -0.1222
 8865SOL     OW38056   4.519   3.083  16.025 -0.0164 -0.0965 -0.8499
 8865SOL    HW138057   4.501   3.177  16.034 -0.7488 -0.2213 -0.9781
 8865SOL    HW238058   4.440   3.066  16.077  1.3081 -1.1022  0.8304
 8866SOL     OW38059   2.428   0.363   6.229 -0.2060  0.1476  0.0259
 8866SOL    HW138060   2.513   0.408   6.229 -0.2686  0.2521 -1.2761
 8866SOL    HW238061   2.366   0.428   6.261  0.1458  0.7708 -0.5527
 8867SOL     OW38062   1.924   2.273  16.817  0.1651  0.0603 -0.4209
 8867SOL    HW138063   1.979   2.245  16.890  0.0181 -1.5108 -0.9113
 8867SOL    HW238064   1.854   2.326  16.856  1.8663  0.8824  1.5224
 8868SOL     OW38065   2.431   0.509   4.731 -0.5222 -0.3413 -0.0113
 8868SOL    HW138066   2.443   0.600   4.702 -2.5313 -0.3772 -0.9852
 8868SOL    HW238067   2.372   0.483   4.660 -0.2552  0.1800 -0.4227
 8869SOL     OW38068   2.512   2.781   8.499 -0.0190 -0.0926  0.3689
 8869SOL    HW138069   2.434   2.751   8.453 -0.6395  1.5250  0.3553
 8869SOL    HW238070   2.488   2.764   8.591  1.5223 -1.1271  0.5830
 8870SOL     OW38071   1.776   3.377   6.582 -0.1653  0.0273 -0.5649
 8870SOL    HW138072   1.720   3.446   6.549  0.6582  0.1855 -1.6561
 8870SOL    HW238073   1.737   3.353   6.666  1.4631 -0.1888  0.1278
 8871SOL     OW38074   3.478   4.350  10.193 -0.0492  0.4957 -0.1041
 8871SOL    HW138075   3.554   4.406  10.175  0.4764  0.1187  0.9625
 8871SOL    HW238076   3.419   4.412  10.235 -0.9221  1.0252 -2.1122
 8872SOL     OW38077   0.842   1.949   4.311 -0.5237  0.0771  0.2489
 8872SOL    HW138078   0.934   1.957   4.284 -0.2313 -0.2952  1.1600
 8872SOL    HW238079   0.841   1.853   4.314  0.0069  0.1392  2.0585
 8873SOL     OW38080   3.278   0.671   6.499 -0.1705  0.2761 -0.0120
 8873SOL    HW138081   3.199   0.646   6.547  0.9991  0.3452  1.9226
 8873SOL    HW238082   3.322   0.715   6.571  2.1745 -0.7665 -0.8313
 8874SOL     OW38083   3.494   3.790   2.226  0.1688 -0.1070  0.2133
 8874SOL    HW138084   3.487   3.695   2.220 -1.0581  0.0007 -0.1594
 8874SOL    HW238085   3.442   3.823   2.152 -1.2251 -1.3296  0.6420
 8875SOL     OW38086   3.992   4.143   8.871  0.3566  0.8219  0.4244
 8875SOL    HW138087   4.072   4.130   8.820  0.2458  1.5691  0.0550
 8875SOL    HW238088   3.979   4.238   8.868 -0.0652  0.7600  0.3643
 8876SOL     OW38089   0.996   1.077  10.506  0.6642 -0.0732  0.1853
 8876SOL    HW138090   0.909   1.109  10.482 -0.0416  1.3490  4.6376
 8876SOL    HW238091   1.047   1.051  10.429  0.1523 -0.0408 -0.1603
 8877SOL     OW38092   3.105   0.866   2.963  0.0764 -0.3502  0.4161
 8877SOL    HW138093   3.042   0.826   2.904 -2.0207  2.1096  0.9819
 8877SOL    HW238094   3.185   0.823   2.933  0.5572  0.3955  0.6300
 8878SOL     OW38095   1.170   4.219   4.960 -0.1100 -0.5868  0.0572
 8878SOL    HW138096   1.102   4.254   4.902  0.5429  0.1977 -0.2214
 8878SOL    HW238097   1.202   4.300   4.999 -0.6832  0.2700 -1.2588
 8879SOL     OW38098   4.449   1.479   9.503  0.0424 -0.1616  0.0390
 8879SOL    HW138099   4.543   1.476   9.485 -0.0105 -1.7564  0.0427
 8879SOL    HW238100   4.435   1.541   9.575  1.5381 -1.4165  1.3991
 8880SOL     OW38101   3.050   2.244   7.196 -0.0607 -0.6836  1.1131
 8880SOL    HW138102   3.067   2.153   7.170  2.4670  0.0177  0.2713
 8880SOL    HW238103   3.043   2.234   7.291  0.0067 -1.2834  1.0553
 8881SOL     OW38104   2.634   1.531  13.178  0.2934  0.3626  0.4793
 8881SOL    HW138105   2.580   1.599  13.217 -0.8596  0.5973 -1.5551
 8881SOL    HW238106   2.676   1.501  13.259 -0.2353 -0.1850  0.5481
 8882SOL     OW38107   2.276   0.393   0.475  0.6098 -0.2485 -0.1133
 8882SOL    HW138108   2.252   0.456   0.408 -0.2848  1.3130  1.6676
 8882SOL    HW238109   2.264   0.314   0.422 -1.0749  0.5316 -0.8776
 8883SOL     OW38110   4.463   2.484   8.434 -0.0837  0.2381 -0.4313
 8883SOL    HW138111   4.388   2.426   8.450  0.1071  0.8562  2.6712
 8883SOL    HW238112   4.414   2.562   8.408  0.3294  1.1177  1.4512
 8884SOL     OW38113   4.600   3.796   1.609  0.2198 -0.1423  0.3434
 8884SOL    HW138114   4.525   3.842   1.647  0.4778  2.4876 -2.3083
 8884SOL    HW238115   4.646   3.866   1.562 -0.2550  0.8289  1.3203
 8885SOL     OW38116   4.258   2.637   6.477  0.7828 -0.0441  0.2450
 8885SOL    HW138117   4.178   2.587   6.465  0.6719  0.1941 -0.0026
 8885SOL    HW238118   4.251   2.705   6.410 -2.3014 -0.0782  0.5507
 8886SOL     OW38119   1.988   4.400   8.934  0.4698  0.1706  0.0149
 8886SOL    HW138120   1.991   4.392   9.029  0.9180 -3.3933 -0.2955
 8886SOL    HW238121   2.083   4.387   8.926  0.4699  1.7578 -2.8303
 8887SOL     OW38122   2.443   4.684   7.235  0.1211 -0.1065 -0.1561
 8887SOL    HW138123   2.438   0.053   7.259 -1.0293 -0.1393 -0.2935
 8887SOL    HW238124   2.518   4.689   7.175  1.6756  2.1677  1.9722
 8888SOL     OW38125   2.432   2.164   6.333 -0.1476 -0.1543 -0.2171
 8888SOL    HW138126   2.475   2.233   6.383  1.8670 -1.2387 -0.4528
 8888SOL    HW238127   2.388   2.112   6.400 -0.1429  0.4746  0.2668
 8889SOL     OW38128   4.428   1.058  17.095  0.2451 -0.3307 -0.0763
 8889SOL    HW138129   4.509   1.020  17.062 -0.5815 -0.7733 -1.5740
 8889SOL    HW238130   4.364   0.996  17.060 -0.4587  0.1338  0.3874
 8890SOL     OW38131   2.623   3.425   6.347  0.1626 -0.6445  0.0847
 8890SOL    HW138132   2.676   3.490   6.299  2.5345 -2.2378  0.5319
 8890SOL    HW238133   2.612   3.471   6.430 -1.5812  0.7909 -0.9417
 8891SOL     OW38134   2.875   4.306   4.922  0.1164  0.4525  0.0213
 8891SOL    HW138135   2.780   4.318   4.929  0.0236 -1.4424  1.8875
 8891SOL    HW238136   2.907   4.382   4.970  0.8734 -1.0042  1.8032
 8892SOL     OW38137   0.739   1.143   3.682  0.8095  0.3720 -0.1232
 8892SOL    HW138138   0.734   1.050   3.665  1.3459  0.5421 -1.2056
 8892SOL    HW238139   0.649   1.171   3.698  0.0398 -1.3828 -1.5188
 8893SOL     OW38140   2.244   1.202   3.060 -0.1237  0.4009  0.4059
 8893SOL    HW138141   2.229   1.143   2.987 -1.7793  0.0861  1.0013
 8893SOL    HW238142   2.336   1.225   3.051  0.7370 -2.4449  1.9344
 8894SOL     OW38143   0.396   4.327   5.495  0.2841  0.0643  0.7678
 8894SOL    HW138144   0.431   4.349   5.581 -1.8591  0.1703  1.6152
 8894SOL    HW238145   0.434   4.240   5.483 -0.0296  0.5220 -3.7708
 8895SOL     OW38146   4.597   0.788   9.257 -0.1689  0.7235  0.3122
 8895SOL    HW138147   4.509   0.786   9.295  0.8489 -1.2828  2.5493
 8895SOL    HW238148   4.642   0.856   9.308  1.4709 -0.4789  0.5017
 8896SOL     OW38149   1.088   1.720   8.798 -0.4421  0.0300  0.6385
 8896SOL    HW138150   1.176   1.722   8.761 -0.5849  0.4841  0.3242
 8896SOL    HW238151   1.065   1.627   8.800 -1.6230  0.3246  0.5854
 8897SOL     OW38152   1.080   0.750   5.473  0.8640 -0.1331  0.2696
 8897SOL    HW138153   1.120   0.667   5.449 -0.8340  0.4924 -4.6993
 8897SOL    HW238154   1.003   0.760   5.417  1.4142  1.7381 -0.1467
 8898SOL     OW38155   0.069   4.430   0.201  0.5031 -0.6851 -0.1982
 8898SOL    HW138156   0.072   4.357   0.140  0.3266 -0.5928 -0.3158
 8898SOL    HW238157   0.013   4.491   0.153  1.9916  1.4665  0.7948
 8899SOL     OW38158   3.072   0.584   3.002 -0.7746  0.5871 -0.2298
 8899SOL    HW138159   3.067   0.536   2.919  1.7609 -0.6944  0.3630
 8899SOL    HW238160   2.977   0.593   3.016 -0.6279  0.9146  0.5243
 8900SOL     OW38161   1.251   2.595   5.712  0.0266  0.4277 -0.3308
 8900SOL    HW138162   1.276   2.661   5.777  0.4565 -2.2514  2.2370
 8900SOL    HW238163   1.293   2.521   5.756  0.7978  1.1475  0.1458
 8901SOL     OW38164   0.880   2.868  11.600  0.0318  0.3122 -0.2916
 8901SOL    HW138165   0.907   2.861  11.508  0.4416  2.0237 -0.2882
 8901SOL    HW238166   0.895   2.959  11.622 -4.0627  0.0792  3.4623
 8902SOL     OW38167   2.346   1.932   6.539  0.0820  0.2713  0.3335
 8902SOL    HW138168   2.300   1.871   6.598 -1.0420 -0.2233 -1.0633
 8902SOL    HW238169   2.428   1.950   6.584  0.7006 -0.2199 -0.6143
 8903SOL     OW38170   2.871   3.109   8.978 -0.1402  0.4577 -0.3417
 8903SOL    HW138171   2.965   3.097   8.961 -0.3580 -1.9992  0.0881
 8903SOL    HW238172   2.840   3.162   8.905 -0.6121  1.9188  0.9265
 8904SOL     OW38173   3.662   4.013   4.631 -0.1898  0.4238 -1.3345
 8904SOL    HW138174   3.594   3.951   4.604  0.3339 -0.2739 -1.0191
 8904SOL    HW238175   3.635   4.094   4.587  1.1185  0.8962 -1.2792
 8905SOL     OW38176   2.936   1.745   3.127  0.0604  0.4250 -0.3979
 8905SOL    HW138177   2.927   1.759   3.033  1.0318 -0.7030 -0.6515
 8905SOL    HW238178   2.843   1.734   3.148  0.6453 -1.0067  1.4420
 8906SOL     OW38179   2.313   4.492   7.558 -0.4936  0.1827  0.1635
 8906SOL    HW138180   2.306   4.540   7.641 -0.8716  0.1384  0.1590
 8906SOL    HW238181   2.289   4.547   7.482  1.7078 -1.1322 -1.4733
 8907SOL     OW38182   3.219   1.041   6.744  0.0111 -0.0481  0.1567
 8907SOL    HW138183   3.223   1.136   6.755 -2.2475  0.0400  0.2452
 8907SOL    HW238184   3.140   1.046   6.689 -1.1938  1.5983  2.0446
 8908SOL     OW38185   4.016   0.152  10.258  0.0325 -0.2120 -0.5395
 8908SOL    HW138186   4.037   0.059  10.248  1.1287 -0.2621  2.0383
 8908SOL    HW238187   4.036   0.158  10.352  2.2399  0.3975 -1.0523
 8909SOL     OW38188   0.966   4.536   4.091 -0.3542 -0.7386 -0.4222
 8909SOL    HW138189   1.012   4.464   4.134  0.1732  1.5822  2.8295
 8909SOL    HW238190   0.898   4.565   4.152  1.1652  2.0328 -0.0536
 8910SOL     OW38191   1.853   1.846   6.025  0.4470  0.0192 -0.3081
 8910SOL    HW138192   1.831   1.865   5.934 -1.5428  0.8922  0.3526
 8910SOL    HW238193   1.796   1.911   6.067  0.3549 -0.0721 -0.2890
 8911SOL     OW38194   0.355   1.016   0.180 -0.1172 -0.2270 -0.3152
 8911SOL    HW138195   0.352   0.977   0.093 -1.5152  0.5409 -0.5924
 8911SOL    HW238196   0.266   1.048   0.193 -0.1152  0.1941 -1.3683
 8912SOL     OW38197   4.003   4.111   2.399  0.8075  0.6951  0.2168
 8912SOL    HW138198   3.924   4.164   2.410 -0.4644 -1.1293 -0.2288
 8912SOL    HW238199   3.990   4.091   2.307 -0.0724  0.8545  0.3056
 8913SOL     OW38200   0.312   4.348   2.746  0.6073 -0.2080  0.6795
 8913SOL    HW138201   0.229   4.327   2.704  0.7424  3.1708 -1.3453
 8913SOL    HW238202   0.366   4.325   2.670 -0.7837  0.5757 -0.5586
 8914SOL     OW38203   0.355   4.529   1.155  0.2868  0.0221 -0.4385
 8914SOL    HW138204   0.407   4.521   1.235 -2.1760 -5.5308  0.6289
 8914SOL    HW238205   0.332   4.621   1.168  0.4682  0.3616 -2.6212
 8915SOL     OW38206   3.382   4.711   2.247  0.5365 -0.1228 -0.1410
 8915SOL    HW138207   3.464   4.713   2.200  0.1096  0.9844 -0.8445
 8915SOL    HW238208   3.396   4.641   2.311  2.1891  1.6770  1.4540
 8916SOL     OW38209   3.157   0.855  16.377 -0.4492 -0.2479  0.1979
 8916SOL    HW138210   3.250   0.869  16.392 -0.7057  0.6808  0.9365
 8916SOL    HW238211   3.121   0.835  16.463  0.6448  1.4788  1.0496
 8917SOL     OW38212   2.986   1.657   0.708  0.4671 -0.3355  0.4048
 8917SOL    HW138213   2.933   1.633   0.784  0.6503 -1.5429  0.1545
 8917SOL    HW238214   2.963   1.581   0.654 -2.9260  0.4438  0.7014
 8918SOL     OW38215   4.222   2.102   2.395  0.1116 -0.4802  0.4251
 8918SOL    HW138216   4.234   2.024   2.340 -0.6532  0.3638 -0.9538
 8918SOL    HW238217   4.166   2.065   2.463 -2.2914 -0.3486 -1.4756
 8919SOL     OW38218   2.520   4.518  11.055  0.1325  0.0794 -0.4468
 8919SOL    HW138219   2.520   4.606  11.094  2.1636  0.3094 -0.9521
 8919SOL    HW238220   2.558   4.537  10.969  2.8195 -3.1573  0.0769
 8920SOL     OW38221   2.686   1.945  14.446  0.0537  0.7940 -0.2895
 8920SOL    HW138222   2.636   1.926  14.367  1.0165  0.6223 -0.8598
 8920SOL    HW238223   2.613   1.932  14.507  1.1658  1.8771  1.2671
 8921SOL     OW38224   4.516   0.072  13.367  0.1848  0.3324 -0.2769
 8921SOL    HW138225   4.560   0.142  13.319  1.1961  0.0614  0.2429
 8921SOL    HW238226   4.582   0.004  13.350  2.6084  2.7135 -0.3717
 8922SOL     OW38227   3.931   0.127  16.647  0.3751 -0.4253 -0.8004
 8922SOL    HW138228   3.918   0.061  16.579  1.8596 -2.5764  1.0039
 8922SOL    HW238229   3.862   0.123  16.713  0.4182  0.5508 -0.6872
 8923SOL     OW38230   3.057   2.877   8.495 -0.6600 -0.8369  0.1763
 8923SOL    HW138231   3.148   2.853   8.515  0.3954  1.9251 -1.3416
 8923SOL    HW238232   3.065   2.960   8.543 -0.1678 -1.3784  1.0421
 8924SOL     OW38233   3.695   1.279   5.698  0.5442 -0.4753 -0.2024
 8924SOL    HW138234   3.746   1.347   5.654  0.7478 -0.1470  0.5393
 8924SOL    HW238235   3.618   1.332   5.718  0.8032  0.5951 -2.0188
 8925SOL     OW38236   1.201   1.855   4.790 -0.5199 -0.1188  0.5115
 8925SOL    HW138237   1.263   1.906   4.842 -0.7206 -1.1708  1.7804
 8925SOL    HW238238   1.203   1.893   4.702  0.0573 -0.8189  0.2235
 8926SOL     OW38239   4.597   2.851   3.450  0.1508  0.1044 -0.2227
 8926SOL    HW138240   4.564   2.939   3.428 -1.0667 -0.4743 -0.7365
 8926SOL    HW238241   4.665   2.875   3.512  0.1543  0.6772 -0.4498
 8927SOL     OW38242   0.427   3.809   1.285  0.4577 -0.6756 -0.3805
 8927SOL    HW138243   0.340   3.791   1.321 -0.5215  2.6982 -0.9994
 8927SOL    HW238244   0.399   3.839   1.199 -2.4730  1.2518  1.2296
 8928SOL     OW38245   3.901   0.772   2.270  0.4746  0.0691 -0.2552
 8928SOL    HW138246   3.997   0.776   2.275  0.5095 -2.1907  0.8650
 8928SOL    HW238247   3.883   0.797   2.180 -0.8811 -1.8974 -0.5201
 8929SOL     OW38248   2.304   0.837   4.408 -0.1271  0.0729  0.1798
 8929SOL    HW138249   2.376   0.830   4.345 -1.9806  1.1916 -2.0192
 8929SOL    HW238250   2.266   0.922   4.385 -1.2192 -0.6077 -0.4939
 8930SOL     OW38251   3.316   2.511   5.331 -0.2993 -0.0805 -0.1186
 8930SOL    HW138252   3.277   2.481   5.413 -1.0741  2.0398  0.3007
 8930SOL    HW238253   3.336   2.600   5.360  0.2471  0.3098 -1.6631
 8931SOL     OW38254   0.858   1.424   3.961 -0.9115 -0.2192  0.2395
 8931SOL    HW138255   0.819   1.337   3.973 -1.0835 -0.0433  0.9471
 8931SOL    HW238256   0.946   1.400   3.934 -0.2084  1.3203  1.1456
 8932SOL     OW38257   0.003   3.505   6.378 -0.2647  0.5632  0.2793
 8932SOL    HW138258   0.059   3.574   6.412  2.7250 -0.5101 -2.5249
 8932SOL    HW238259   0.062   3.431   6.392  1.7821  2.4628  1.7520
 8933SOL     OW38260   2.254   4.120  11.062  0.3647 -0.3434  0.0572
 8933SOL    HW138261   2.181   4.115  11.123 -0.9449  0.6915 -1.3944
 8933SOL    HW238262   2.258   4.216  11.067 -3.2746 -0.3511  2.7684
 8934SOL     OW38263   4.354   2.547   5.963  0.2612 -0.2051 -0.0650
 8934SOL    HW138264   4.279   2.522   5.909  2.1373 -1.6876 -1.9605
 8934SOL    HW238265   4.326   2.623   6.015  1.8931 -0.1656  0.7592
 8935SOL     OW38266   1.742   0.468   3.601  0.3371  0.1745 -0.1289
 8935SOL    HW138267   1.690   0.507   3.531 -1.6998 -1.1806  0.6429
 8935SOL    HW238268   1.758   0.383   3.558 -1.1533  0.1877 -0.7060
 8936SOL     OW38269   2.610   1.578   6.763 -0.0621  0.2097  0.2240
 8936SOL    HW138270   2.570   1.494   6.738  1.7354 -1.1696  2.0123
 8936SOL    HW238271   2.532   1.631   6.776 -1.2972 -1.4867 -0.2063
 8937SOL     OW38272   2.610   2.476   3.246 -0.6976 -0.0957  0.5956
 8937SOL    HW138273   2.689   2.531   3.246 -0.2112 -0.7938  0.0659
 8937SOL    HW238274   2.563   2.517   3.319  0.8539 -0.0650  1.5850
 8938SOL     OW38275   1.202   2.940  12.263 -0.4555 -0.0940  0.5334
 8938SOL    HW138276   1.171   2.872  12.204  0.0762 -0.1262  0.2869
 8938SOL    HW238277   1.220   2.898  12.347  0.2512 -1.7804 -0.4631
 8939SOL     OW38278   4.063   0.219  10.752 -0.1086  0.1675  0.2321
 8939SOL    HW138279   4.061   0.314  10.764 -0.9001  0.1979 -0.1482
 8939SOL    HW238280   4.031   0.187  10.836 -1.1833 -0.8823 -0.5860
 8940SOL     OW38281   2.704   0.918  10.171 -0.3193 -0.0070  0.2915
 8940SOL    HW138282   2.775   0.861  10.141 -0.4072  0.3375 -0.5944
 8940SOL    HW238283   2.738   1.007  10.159 -0.9221  0.2061  0.1873
 8941SOL     OW38284   2.759   4.258  10.436  0.1185  0.0643 -0.5525
 8941SOL    HW138285   2.815   4.197  10.389 -0.1701 -0.1273 -0.6465
 8941SOL    HW238286   2.716   4.298  10.361 -1.6175  2.0923  1.5072
 8942SOL     OW38287   2.197   2.897   5.517  0.2715  0.1314  0.3110
 8942SOL    HW138288   2.229   2.918   5.429  0.4999 -1.5267 -0.0015
 8942SOL    HW238289   2.107   2.928   5.510 -0.2545 -1.0271  1.9856
 8943SOL     OW38290   1.225   0.496   5.924  0.5888  0.3228 -0.3360
 8943SOL    HW138291   1.251   0.543   6.004 -1.1411  1.3953 -0.4026
 8943SOL    HW238292   1.201   0.571   5.870 -1.6262  0.4621  0.8595
 8944SOL     OW38293   1.406   3.110   4.229 -0.7025  0.2042 -0.4978
 8944SOL    HW138294   1.382   3.197   4.262  0.1378  0.9839 -1.9442
 8944SOL    HW238295   1.338   3.107   4.161  2.1451  1.0013 -3.3876
 8945SOL     OW38296   0.735   2.348   1.661  0.4255  0.2662 -0.1810
 8945SOL    HW138297   0.790   2.292   1.607  0.2092 -0.7616  0.6694
 8945SOL    HW238298   0.652   2.318   1.625  1.5979 -1.8114 -1.1206
 8946SOL     OW38299   2.690   3.481   8.366 -0.0601  0.1835  0.0220
 8946SOL    HW138300   2.672   3.549   8.301  1.9228  0.2468 -0.4599
 8946SOL    HW238301   2.611   3.475   8.420 -1.9522  0.2753 -2.7665
 8947SOL     OW38302   3.748   0.272   0.584  0.2329 -0.5156  0.3830
 8947SOL    HW138303   3.717   0.293   0.672 -0.9378 -2.3983  0.4223
 8947SOL    HW238304   3.749   0.357   0.540  2.3055 -1.2781 -1.0119
 8948SOL     OW38305   0.263   1.026   5.690  0.9108  0.4853  0.0583
 8948SOL    HW138306   0.245   0.932   5.703  2.2122  0.2674  0.2914
 8948SOL    HW238307   0.285   1.057   5.778  0.4440  2.4154 -0.5167
 8949SOL     OW38308   2.573   0.912   3.520 -0.1083  0.0200 -0.3933
 8949SOL    HW138309   2.661   0.951   3.524  0.3394 -1.2256  1.6762
 8949SOL    HW238310   2.596   0.823   3.495  2.5655  0.0784  1.8275
 8950SOL     OW38311   1.170   0.333   5.707  0.3110 -0.0269 -0.6200
 8950SOL    HW138312   1.097   0.378   5.665 -0.7454  0.1739  1.4258
 8950SOL    HW238313   1.208   0.402   5.762  0.0976  0.4374 -1.0570
 8951SOL     OW38314   3.206   0.047   5.733 -0.3921  0.4625  0.6932
 8951SOL    HW138315   3.165   4.719   5.664  1.2769  0.0668 -0.0013
 8951SOL    HW238316   3.189   0.133   5.695 -0.7301  0.3236  0.5296
 8952SOL     OW38317   2.691   4.684   7.115 -0.5722 -0.5539  0.1023
 8952SOL    HW138318   2.739   4.603   7.098  0.3115 -0.1134  0.4740
 8952SOL    HW238319   2.748   0.009   7.175 -2.2208  0.5855  0.7415
 8953SOL     OW38320   3.608   3.443   2.915 -0.1188  0.0550 -0.3320
 8953SOL    HW138321   3.581   3.518   2.969  0.2267  1.2771 -1.8748
 8953SOL    HW238322   3.532   3.431   2.858 -0.1845  0.3664 -0.3123
 8954SOL     OW38323   2.361   2.040   2.351  0.0974 -0.1859 -0.0487
 8954SOL    HW138324   2.315   2.105   2.297  1.4178  0.4664 -0.3917
 8954SOL    HW238325   2.446   2.057   2.310 -0.9731  3.7392 -0.6633
 8955SOL     OW38326   4.253   2.680   2.577  0.3789 -0.2041 -0.0024
 8955SOL    HW138327   4.303   2.651   2.653  1.4220  1.1741 -0.1466
 8955SOL    HW238328   4.222   2.595   2.548 -0.4129 -0.6241  2.0858
 8956SOL     OW38329   2.636   3.347  11.987 -0.2555  0.2968  0.2362
 8956SOL    HW138330   2.651   3.436  11.957 -1.3413  0.1945 -0.6527
 8956SOL    HW238331   2.583   3.362  12.065  0.6732  2.8829  0.3529
 8957SOL     OW38332   2.733   0.742  10.579  0.1906 -0.4306 -0.3910
 8957SOL    HW138333   2.733   0.683  10.503  1.5410  1.0657 -1.5507
 8957SOL    HW238334   2.643   0.739  10.611 -0.7639  0.5093 -2.9751
 8958SOL     OW38335   4.368   3.302   7.858  0.2185  0.6891  0.0349
 8958SOL    HW138336   4.285   3.253   7.855  0.6611 -0.0857  0.6409
 8958SOL    HW238337   4.377   3.326   7.766  1.2268 -2.3042 -0.6180
 8959SOL     OW38338   1.182   0.971   3.900 -0.0021  0.4740 -0.4727
 8959SOL    HW138339   1.251   0.924   3.854  1.1399  0.4600  1.2401
 8959SOL    HW238340   1.143   1.029   3.834  1.9135 -0.4826 -2.4458
 8960SOL     OW38341   2.143   2.751   6.820  0.0056  0.4996  0.0469
 8960SOL    HW138342   2.050   2.769   6.835 -0.4176 -1.2453 -0.4602
 8960SOL    HW238343   2.180   2.823   6.769 -1.7392  1.9961  0.9076
 8961SOL     OW38344   0.502   0.929   2.441 -0.3967  0.4420 -0.2300
 8961SOL    HW138345   0.543   0.989   2.379 -0.9413  1.6018  0.5520
 8961SOL    HW238346   0.496   0.977   2.523  0.0873 -0.0078  0.0758
 8962SOL     OW38347   4.599   0.069   3.324 -0.5300  0.1644  0.2174
 8962SOL    HW138348   4.661   0.082   3.395  0.9521 -1.8762 -0.6925
 8962SOL    HW238349   4.630   4.717   3.273  0.6979  0.6756  0.2153
 8963SOL     OW38350   3.350   0.464   4.089 -0.7424  0.1711  0.1392
 8963SOL    HW138351   3.322   0.388   4.039 -1.6523  0.8657 -0.3935
 8963SOL    HW238352   3.266   0.510   4.088 -0.1466  1.3089  1.4697
 8964SOL     OW38353   2.131   1.517  16.628  0.0526  0.2999 -0.1204
 8964SOL    HW138354   2.160   1.523  16.719  0.6223 -0.8481 -0.2290
 8964SOL    HW238355   2.047   1.563  16.630  0.0119  0.2237 -0.0483
 8965SOL     OW38356   2.748   3.771  11.547  0.3633  0.5333 -0.3643
 8965SOL    HW138357   2.737   3.802  11.637  3.6803  2.1332 -0.5120
 8965SOL    HW238358   2.678   3.705  11.549  1.3885 -0.5184  1.2330
 8966SOL     OW38359   0.635   2.864  11.702 -0.9805  0.1335 -0.0689
 8966SOL    HW138360   0.657   2.812  11.779 -1.2782  1.2267  0.7499
 8966SOL    HW238361   0.713   2.844  11.650 -1.0184  1.1488 -0.5221
 8967SOL     OW38362   2.273   4.248   8.195 -0.2910 -0.0260  0.1756
 8967SOL    HW138363   2.316   4.296   8.125 -1.5648  0.9025  0.0344
 8967SOL    HW238364   2.183   4.278   8.185  0.0782  1.0063 -0.0505
 8968SOL     OW38365   4.217   0.894  16.997 -0.6933  0.1840  0.1940
 8968SOL    HW138366   4.144   0.890  17.058 -0.1294  2.1828  1.0031
 8968SOL    HW238367   4.191   0.943  16.919 -0.8474 -0.1371  0.0427
 8969SOL     OW38368   1.625   3.227   5.021  0.8135 -0.3793  0.0776
 8969SOL    HW138369   1.592   3.306   4.978  1.6434 -1.3277 -2.3042
 8969SOL    HW238370   1.711   3.211   4.981  1.8532  0.9155  1.7975
 8970SOL     OW38371   2.418   3.872  13.351 -0.2597 -0.3062 -0.3567
 8970SOL    HW138372   2.507   3.851  13.324 -0.9949 -2.2357 -1.3001
 8970SOL    HW238373   2.370   3.797  13.317  4.1694 -3.6214  0.6920
 8971SOL     OW38374   4.369   0.065   6.794 -0.0639 -0.2405 -0.4247
 8971SOL    HW138375   4.450   0.049   6.842  0.2844 -0.6943 -1.1793
 8971SOL    HW238376   4.328   0.140   6.839  0.3881  0.3714 -1.0432
 8972SOL     OW38377   3.446   1.331   4.858  0.1129  0.7403 -0.5012
 8972SOL    HW138378   3.401   1.246   4.854  0.1752  0.7207 -0.8207
 8972SOL    HW238379   3.513   1.313   4.792 -0.5411 -0.2424 -0.8990
 8973SOL     OW38380   1.660   3.297   7.872 -0.4828  0.3218 -0.2495
 8973SOL    HW138381   1.571   3.282   7.905 -1.1048  0.5707 -1.7840
 8973SOL    HW238382   1.649   3.274   7.780 -3.0954  0.4972  0.0155
 8974SOL     OW38383   4.332   0.957   2.399  0.2123 -0.4122  0.2701
 8974SOL    HW138384   4.406   1.015   2.377 -0.0741 -0.0903  0.1527
 8974SOL    HW238385   4.276   1.015   2.450  2.2232  0.6811  1.2200
 8975SOL     OW38386   3.968   3.390   4.884 -0.0410 -0.3863  0.2427
 8975SOL    HW138387   4.045   3.431   4.844 -0.0526  1.2313  1.8700
 8975SOL    HW238388   3.992   3.298   4.882 -0.4838 -0.5228  1.1724
 8976SOL     OW38389   1.687   1.181   5.024 -0.1909 -0.2458  0.9844
 8976SOL    HW138390   1.613   1.190   5.084 -0.8137  2.6234 -0.2094
 8976SOL    HW238391   1.690   1.087   5.008 -0.2652 -0.1202  0.2536
 8977SOL     OW38392   0.516   4.034  11.503 -0.6424 -0.6646  0.0256
 8977SOL    HW138393   0.445   3.972  11.484  0.3466 -2.3664  1.8429
 8977SOL    HW238394   0.596   3.983  11.514 -1.1775 -1.4063  0.5540
 8978SOL     OW38395   2.974   4.027   3.309 -0.2421 -0.4791  0.0160
 8978SOL    HW138396   2.893   4.077   3.314 -1.5973 -2.8956  1.7949
 8978SOL    HW238397   2.977   3.980   3.392  2.8900  1.5804  1.0735
 8979SOL     OW38398   0.679   2.971   8.081 -0.3294 -0.0664 -0.0881
 8979SOL    HW138399   0.743   2.967   8.010 -0.5777 -3.3216 -0.1320
 8979SOL    HW238400   0.702   2.886   8.120 -2.8022 -2.0990 -3.0401
 8980SOL     OW38401   4.397   3.125   0.452  0.0431  0.1096 -0.3455
 8980SOL    HW138402   4.378   3.092   0.365 -2.0968 -1.6303  0.7710
 8980SOL    HW238403   4.313   3.148   0.490 -0.5623 -2.0191 -0.3707
 8981SOL     OW38404   1.073   1.622   6.341 -0.6474 -0.1037 -0.9804
 8981SOL    HW138405   0.989   1.616   6.295 -1.9582  0.1224  1.3723
 8981SOL    HW238406   1.097   1.533   6.365  2.1596  1.1114  0.7196
 8982SOL     OW38407   2.358   1.153   9.095 -0.4302 -0.5600 -0.1584
 8982SOL    HW138408   2.453   1.138   9.087  0.0487  2.5622 -0.1752
 8982SOL    HW238409   2.336   1.176   9.005  2.9188  1.0632 -0.5843
 8983SOL     OW38410   3.510   3.361   8.530  0.5297 -0.0506 -0.1554
 8983SOL    HW138411   3.508   3.451   8.562  0.1735 -0.6445  1.5016
 8983SOL    HW238412   3.603   3.352   8.512  0.6725  2.1879 -0.5355
 8984SOL     OW38413   0.360   1.617  15.766  0.2847 -0.3339 -0.0708
 8984SOL    HW138414   0.350   1.682  15.835  0.1102  0.6779 -1.0508
 8984SOL    HW238415   0.383   1.538  15.816  1.3200 -1.6448 -2.5972
 8985SOL     OW38416   2.232   0.113   6.790  1.0830 -0.0584 -0.6966
 8985SOL    HW138417   2.275   0.170   6.853 -1.3427  0.1513  0.7601
 8985SOL    HW238418   2.270   0.138   6.706 -2.6185  0.9204 -2.1135
 8986SOL     OW38419   2.694   2.448  16.809  0.1923 -0.2412 -0.3960
 8986SOL    HW138420   2.671   2.495  16.729  0.7549 -0.4967 -0.7073
 8986SOL    HW238421   2.697   2.360  16.771  2.1055  0.6987 -2.4328
 8987SOL     OW38422   2.455   3.761   4.759  0.1277  0.2781 -0.2368
 8987SOL    HW138423   2.517   3.702   4.716 -0.6271 -0.2654 -0.5712
 8987SOL    HW238424   2.506   3.831   4.801 -1.3364  0.1615  1.7572
 8988SOL     OW38425   0.318   3.149   5.014  0.2453 -0.0946  0.3666
 8988SOL    HW138426   0.337   3.059   4.989  2.7086  0.9713 -1.6037
 8988SOL    HW238427   0.259   3.184   4.947  0.3071  0.0264  0.3734
 8989SOL     OW38428   0.634   3.646   5.840 -0.3690 -0.2156  0.1016
 8989SOL    HW138429   0.572   3.718   5.840  1.2249  1.1580 -0.7006
 8989SOL    HW238430   0.662   3.657   5.749 -0.1099 -0.4169  0.1561
 8990SOL     OW38431   1.426   3.398  11.590 -0.1749 -0.1954 -0.3114
 8990SOL    HW138432   1.481   3.437  11.523  2.1349 -0.1404  1.6508
 8990SOL    HW238433   1.448   3.466  11.654 -1.9732  1.4072 -1.3943
 8991SOL     OW38434   2.301   3.097  12.229  0.5755  0.2532  0.0336
 8991SOL    HW138435   2.360   3.172  12.219 -0.5243  1.3112  1.6926
 8991SOL    HW238436   2.357   3.034  12.274 -1.9683  0.1371  2.9827
 8992SOL     OW38437   4.133   2.629   4.811 -0.1755  0.1697 -0.1635
 8992SOL    HW138438   4.141   2.547   4.861 -0.7852 -0.2994 -0.8362
 8992SOL    HW238439   4.211   2.629   4.755 -2.3234  1.5793 -3.1467
 8993SOL     OW38440   1.573   3.432  11.946  0.7915  0.0506 -0.4613
 8993SOL    HW138441   1.599   3.522  11.967 -2.8508  0.6349  1.3925
 8993SOL    HW238442   1.555   3.445  11.853  0.0752  1.0404 -0.1768
 8994SOL     OW38443   2.757   0.852  17.585 -0.5932 -0.3503 -0.0046
 8994SOL    HW138444   2.710   0.771  17.600  1.0409 -1.2541  0.2799
 8994SOL    HW238445   2.840   0.819  17.621 -0.5703 -0.8655 -0.5257
 8995SOL     OW38446   3.689   0.796   3.676 -0.1632 -0.4122 -0.6457
 8995SOL    HW138447   3.763   0.737   3.676 -0.0190 -0.2041 -3.4859
 8995SOL    HW238448   3.614   0.743   3.650 -0.6763 -0.4028  0.7810
 8996SOL     OW38449   0.704   3.347   5.834 -0.8024 -0.3449 -0.2653
 8996SOL    HW138450   0.676   3.289   5.906  0.6176  0.0895  0.6292
 8996SOL    HW238451   0.651   3.425   5.850 -1.6902 -1.1162  0.6265
 8997SOL     OW38452   3.173   2.928   1.752  0.0100  0.2335  0.0577
 8997SOL    HW138453   3.202   2.987   1.683 -0.1552 -0.6200 -0.7351
 8997SOL    HW238454   3.214   2.974   1.826 -1.1037  0.8881  0.2565
 8998SOL     OW38455   3.779   1.909  17.159 -0.1628 -0.8248  0.0941
 8998SOL    HW138456   3.787   1.916  17.064 -0.6103 -2.0854 -0.0307
 8998SOL    HW238457   3.808   1.998  17.179  0.0687 -0.9471  0.3130
 8999SOL     OW38458   3.751   2.001   3.403  0.0840 -0.3401 -0.9375
 8999SOL    HW138459   3.846   2.015   3.402 -0.1067  0.8961 -1.9126
 8999SOL    HW238460   3.738   1.969   3.492  0.5723 -1.3594 -1.2282
 9000SOL     OW38461   4.209   2.324  16.308 -0.1358  0.2601  0.6917
 9000SOL    HW138462   4.235   2.392  16.245 -1.3695  2.3410  2.4228
 9000SOL    HW238463   4.256   2.245  16.280 -0.5429  0.0665  0.5558
 9001SOL     OW38464   1.409   1.027   6.521 -0.5105  0.5034 -0.0472
 9001SOL    HW138465   1.477   1.011   6.586 -0.7486  2.9591  0.7979
 9001SOL    HW238466   1.463   1.050   6.446  0.3887 -2.0028 -0.1645
 9002SOL     OW38467   0.783   3.034   7.343  1.2804 -0.1663  0.3420
 9002SOL    HW138468   0.856   3.095   7.357 -0.0697  1.5061  0.1029
 9002SOL    HW238469   0.823   2.947   7.347 -0.4099 -1.0195 -1.1936
 9003SOL     OW38470   4.402   4.692  15.781  0.0636  0.2324 -0.7945
 9003SOL    HW138471   4.488   0.011  15.783  0.0178  0.3549 -1.3502
 9003SOL    HW238472   4.367   4.705  15.869 -1.6812 -2.2120 -1.1127
 9004SOL     OW38473   0.497   3.687   6.547  0.1886 -0.4339 -0.1384
 9004SOL    HW138474   0.542   3.771   6.539 -0.6895  0.1031  0.6066
 9004SOL    HW238475   0.474   3.697   6.639  0.5141  0.5356 -0.1658
 9005SOL     OW38476   0.615   3.220   6.978 -0.2166 -0.2283 -0.0992
 9005SOL    HW138477   0.625   3.246   6.887  2.1006 -2.7066 -0.5614
 9005SOL    HW238478   0.670   3.142   6.989  2.6645  2.2756  3.5338
 9006SOL     OW38479   1.209   3.872  16.620  0.3388  0.3289  0.6513
 9006SOL    HW138480   1.210   3.882  16.525  0.8008  0.2563  0.6478
 9006SOL    HW238481   1.197   3.777  16.630 -0.6809  0.0421 -3.2238
 9007SOL     OW38482   2.815   3.020   3.719 -0.0170  0.2614  0.0224
 9007SOL    HW138483   2.909   3.032   3.731  0.3777 -2.9395  0.0490
 9007SOL    HW238484   2.792   2.977   3.802  0.0833  1.6483  0.7717
 9008SOL     OW38485   0.295   4.629   6.485  0.1718  0.1961 -0.1934
 9008SOL    HW138486   0.236   4.555   6.493  1.1118 -0.3266  1.8666
 9008SOL    HW238487   0.379   4.583   6.492  0.8059  1.3515 -0.1452
 9009SOL     OW38488   4.662   1.778   8.270  0.3167 -0.6701 -0.4858
 9009SOL    HW138489   0.012   1.749   8.326  0.4804  0.0496 -0.3276
 9009SOL    HW238490   4.655   1.707   8.205 -0.6495 -1.8087  0.8657
 9010SOL     OW38491   1.729   3.036   2.432  0.0642 -0.5829 -0.3766
 9010SOL    HW138492   1.649   3.087   2.440  1.4282  1.2165  2.0825
 9010SOL    HW238493   1.781   3.093   2.375 -0.2446  0.8358  0.7509
 9011SOL     OW38494   4.009   1.207  13.627 -0.2691 -0.5999  0.2806
 9011SOL    HW138495   4.022   1.196  13.721  0.0051  3.6053  0.7300
 9011SOL    HW238496   4.075   1.274  13.611  0.3082 -0.9132  1.3506
 9012SOL     OW38497   1.741   0.090  14.117  0.2827 -0.3276 -0.2903
 9012SOL    HW138498   1.793   0.049  14.048  1.2326  1.4689 -0.6503
 9012SOL    HW238499   1.794   0.159  14.159  0.5633 -0.9696  0.4030
 9013SOL     OW38500   0.386   2.781  16.069 -0.6463  0.5063  0.0322
 9013SOL    HW138501   0.371   2.736  15.985  1.6428 -0.3526  0.1057
 9013SOL    HW238502   0.327   2.730  16.125 -1.1162 -1.2867 -2.0726
 9014SOL     OW38503   1.371   2.749  16.065 -0.1422  0.3847 -0.1378
 9014SOL    HW138504   1.282   2.739  16.030  0.1897 -1.4711 -0.4397
 9014SOL    HW238505   1.404   2.693  15.995 -0.4891  0.5909 -0.4673
 9015SOL     OW38506   0.473   2.773  16.614  0.1263  0.4650 -0.0000
 9015SOL    HW138507   0.400   2.798  16.557  1.1719  2.8268 -0.2974
 9015SOL    HW238508   0.538   2.749  16.548  0.5068 -0.9959  0.9048
 9016SOL     OW38509   1.081   3.332  12.906  0.0484  0.4592 -0.3929
 9016SOL    HW138510   1.026   3.331  12.984 -2.0340 -0.4600 -1.8548
 9016SOL    HW238511   1.085   3.240  12.881 -1.7007  0.4696 -0.7350
 9017SOL     OW38512   3.391   1.509  14.259 -0.2280  0.2301 -0.1272
 9017SOL    HW138513   3.399   1.599  14.291 -3.2319  0.8765 -1.1401
 9017SOL    HW238514   3.314   1.480  14.309  1.1162 -1.5879  0.8713
 9018SOL     OW38515   3.936   1.881   9.100  0.0383 -0.5986  0.3195
 9018SOL    HW138516   3.891   1.834   9.169 -0.7270 -1.1540 -0.5706
 9018SOL    HW238517   3.884   1.961   9.094  2.9934  1.2975 -0.3969
 9019SOL     OW38518   4.277   3.240  12.640 -0.2210  0.0220 -0.4183
 9019SOL    HW138519   4.226   3.320  12.653 -3.7595 -2.0145 -1.8930
 9019SOL    HW238520   4.356   3.268  12.593 -2.3432  2.2365 -2.6787
 9020SOL     OW38521   0.640   1.713   6.518  0.2263 -0.0454  0.3033
 9020SOL    HW138522   0.580   1.641   6.538  1.8907 -1.1088  1.4314
 9020SOL    HW238523   0.583   1.776   6.472 -2.0352 -1.7314  0.8214
 9021SOL     OW38524   1.620   0.763   2.908  0.4742 -0.6982  0.1081
 9021SOL    HW138525   1.576   0.816   2.974 -0.7618  0.0110 -1.2724
 9021SOL    HW238526   1.618   0.818   2.830  0.1970 -0.5184  0.2427
 9022SOL     OW38527   3.865   0.147   0.025 -0.7327  0.2065 -0.2010
 9022SOL    HW138528   3.860   0.233  17.676  2.7325 -0.7880 -2.6063
 9022SOL    HW238529   3.860   0.083  17.648 -0.6054 -0.5077  0.4429
 9023SOL     OW38530   0.711   4.716   9.020 -0.2477  0.3912  0.1887
 9023SOL    HW138531   0.765   0.065   8.987  0.6200 -0.5797 -0.5089
 9023SOL    HW238532   0.702   0.010   9.114  0.7438 -0.0899  0.3751
 9024SOL     OW38533   2.548   4.608   4.729 -0.5188  0.9083  0.1414
 9024SOL    HW138534   2.548   4.514   4.749  0.3628  0.8043 -0.3494
 9024SOL    HW238535   2.629   4.643   4.766 -0.3310 -0.1855  0.7726
 9025SOL     OW38536   2.671   4.531   7.431 -0.0836  0.3989 -0.1238
 9025SOL    HW138537   2.583   4.534   7.470  0.6951  2.2459  1.4441
 9025SOL    HW238538   2.671   4.625   7.416  0.8241  0.4482  0.1897
 9026SOL     OW38539   3.753   0.606   0.518 -0.0588  0.6098 -0.1691
 9026SOL    HW138540   3.757   0.626   0.612 -1.8460 -1.3766  0.3321
 9026SOL    HW238541   3.842   0.634   0.496  0.1192 -0.2524 -0.5626
 9027SOL     OW38542   0.871   3.036  14.755 -0.3176 -0.5816  0.0364
 9027SOL    HW138543   0.806   2.982  14.710  0.4076 -1.1205 -0.3808
 9027SOL    HW238544   0.845   3.119  14.714  1.5081 -0.4062 -0.7493
 9028SOL     OW38545   0.491   2.300   4.347  0.1073  0.3398 -0.5555
 9028SOL    HW138546   0.489   2.218   4.298 -1.0767 -0.6448  1.1527
 9028SOL    HW238547   0.585   2.319   4.351 -0.0903  0.7621  2.1221
 9029SOL     OW38548   4.078   3.766   0.516  0.7029  0.2698 -0.1687
 9029SOL    HW138549   4.029   3.840   0.552  0.1424 -0.2188  0.0828
 9029SOL    HW238550   4.048   3.696   0.573 -0.3076  0.7970 -0.0345
 9030SOL     OW38551   3.293   0.389   8.248  0.1245  0.1567 -0.1946
 9030SOL    HW138552   3.377   0.421   8.215  0.1957 -2.0443 -2.1506
 9030SOL    HW238553   3.240   0.371   8.170  0.3346 -0.9372 -0.0903
 9031SOL     OW38554   3.135   1.126   3.745  0.2207  0.1694  0.2292
 9031SOL    HW138555   3.188   1.049   3.765  2.5313  1.6311 -0.2934
 9031SOL    HW238556   3.048   1.087   3.740 -0.7962  2.5515 -0.9984
 9032SOL     OW38557   3.087   1.682  12.899 -0.2466 -0.2345  0.1229
 9032SOL    HW138558   3.172   1.718  12.873 -1.8409  3.1314 -0.4200
 9032SOL    HW238559   3.061   1.657  12.810  0.1672  0.5961 -0.2284
 9033SOL     OW38560   3.009   1.399   4.065 -0.0273  0.0393 -0.2834
 9033SOL    HW138561   2.943   1.332   4.049 -1.0670  1.6877 -2.8520
 9033SOL    HW238562   2.978   1.468   4.006  1.3780  0.3729 -0.6273
 9034SOL     OW38563   1.932   2.414  11.633 -0.2854 -0.0082 -0.0632
 9034SOL    HW138564   1.962   2.354  11.565  0.9182  1.1765 -0.5919
 9034SOL    HW238565   1.851   2.380  11.669 -1.4065  0.3137 -2.3035
 9035SOL     OW38566   2.629   1.650   8.285  0.1432 -0.1052  0.2201
 9035SOL    HW138567   2.558   1.625   8.344  0.6638  1.2007  1.4000
 9035SOL    HW238568   2.703   1.660   8.346  0.3371 -0.5929  0.0655
 9036SOL     OW38569   2.962   1.246   8.761  0.3407  0.5129 -0.2003
 9036SOL    HW138570   2.955   1.300   8.840 -1.5584 -1.5580  1.0815
 9036SOL    HW238571   2.922   1.312   8.704  0.9240  1.4817  0.5092
 9037SOL     OW38572   0.618   1.112  14.489  0.2453 -0.1860 -0.1993
 9037SOL    HW138573   0.651   1.189  14.535 -2.0398 -1.1112  2.9762
 9037SOL    HW238574   0.560   1.073  14.554 -0.1622 -0.8084 -0.9424
 9038SOL     OW38575   4.093   0.274   5.075 -0.2548 -0.2440 -0.4170
 9038SOL    HW138576   4.166   0.334   5.060 -1.5007  0.5280 -3.4029
 9038SOL    HW238577   4.056   0.281   4.987  0.0768 -0.6714 -0.5913
 9039SOL     OW38578   4.535   3.523   0.087  0.3456 -0.2415  0.4093
 9039SOL    HW138579   4.572   3.595   0.035  1.6545 -0.3131  1.2381
 9039SOL    HW238580   4.489   3.462   0.029  0.9883 -2.1214  1.8850
 9040SOL     OW38581   3.437   1.008   7.624  0.4374 -0.3960 -0.3557
 9040SOL    HW138582   3.451   1.100   7.602  0.2137 -0.5005 -0.9367
 9040SOL    HW238583   3.394   1.008   7.710  1.2899  0.1597  0.0679
 9041SOL     OW38584   2.539   2.599   1.900 -0.4327  0.2906  0.3628
 9041SOL    HW138585   2.594   2.651   1.958 -1.7797  3.0989 -0.8823
 9041SOL    HW238586   2.580   2.625   1.818  2.8884  1.3122  2.3675
 9042SOL     OW38587   3.008   4.090   1.454 -0.4764  0.2313  0.1768
 9042SOL    HW138588   3.052   4.148   1.392 -0.1041 -4.1284 -3.6650
 9042SOL    HW238589   3.022   4.008   1.407  0.5884  0.6597 -0.2679
 9043SOL     OW38590   0.103   0.100   1.962  0.0079  0.2041  0.3147
 9043SOL    HW138591   0.020   0.079   1.918  0.0171  0.0765  0.3589
 9043SOL    HW238592   0.166   0.057   1.905  0.7953  1.8654 -0.0787
 9044SOL     OW38593   3.941   1.687   7.063  0.5512 -0.0914 -0.1511
 9044SOL    HW138594   3.986   1.643   7.136 -2.0232  0.0158  1.5048
 9044SOL    HW238595   3.880   1.615   7.045  0.9475  0.1960 -2.5980
 9045SOL     OW38596   1.311   0.718  13.846  0.6123 -0.4657 -0.0451
 9045SOL    HW138597   1.257   0.797  13.847  1.0002 -0.2035  1.7448
 9045SOL    HW238598   1.334   0.713  13.754 -1.5494  2.8969 -0.7514
 9046SOL     OW38599   2.239   3.986   7.027 -0.2403 -0.3585 -0.7403
 9046SOL    HW138600   2.258   4.055   7.090 -2.1560 -0.6630  0.1642
 9046SOL    HW238601   2.168   4.021   6.973 -2.4467 -2.5225  0.7425
 9047SOL     OW38602   0.873   0.070   7.723 -0.3132 -0.7600 -0.2143
 9047SOL    HW138603   0.821   0.075   7.643  1.2319  0.1619 -1.1525
 9047SOL    HW238604   0.809   0.050   7.791  1.5664 -0.4427  1.6419
 9048SOL     OW38605   3.723   0.766  10.915  0.0475  0.3713 -0.3522
 9048SOL    HW138606   3.702   0.676  10.888  3.0468 -0.5785  0.4586
 9048SOL    HW238607   3.710   0.796  10.825  0.0332  1.7989  0.1358
 9049SOL     OW38608   3.371   0.400   0.592  0.3045  0.2221 -0.4464
 9049SOL    HW138609   3.423   0.426   0.516  0.6871 -0.0786 -0.2881
 9049SOL    HW238610   3.328   0.320   0.564  0.1272 -0.2925  1.2906
 9050SOL     OW38611   2.185   1.942  10.334  0.1515 -0.4037 -0.9396
 9050SOL    HW138612   2.249   1.941  10.405 -0.6816 -0.6530 -0.1988
 9050SOL    HW238613   2.172   2.036  10.320  1.5512 -0.0123  0.4444
 9051SOL     OW38614   4.533   3.671   2.130 -0.3396  0.4282 -0.3178
 9051SOL    HW138615   4.517   3.760   2.160  0.4239 -0.1471  1.7839
 9051SOL    HW238616   4.449   3.651   2.087 -1.5340  0.3503  2.0227
 9052SOL     OW38617   4.285   3.267   7.408 -0.5496  0.1616  0.1302
 9052SOL    HW138618   4.276   3.313   7.324  0.6623  1.2301  0.5972
 9052SOL    HW238619   4.193   3.254   7.430 -0.6383 -0.2024 -0.4538
 9053SOL     OW38620   0.018   3.901   4.857  0.4669  0.8705  0.0792
 9053SOL    HW138621   4.697   3.983   4.833  0.3237  0.5948 -0.5803
 9053SOL    HW238622   4.685   3.845   4.803 -0.7084  0.3903  1.7944
 9054SOL     OW38623   2.073   3.004   3.885 -0.0268 -0.4788 -0.4356
 9054SOL    HW138624   2.025   3.085   3.902  0.5379 -0.2738  0.1839
 9054SOL    HW238625   2.066   3.008   3.790  1.6150 -0.2799 -0.5432
 9055SOL     OW38626   0.098   3.918  16.311 -0.0931  0.4206 -0.1595
 9055SOL    HW138627   0.015   3.890  16.271  0.1548 -0.4432 -0.0723
 9055SOL    HW238628   0.087   4.013  16.301  0.5730  0.5950  0.7663
 9056SOL     OW38629   1.789   1.312   6.915  0.0641  0.8572 -0.0578
 9056SOL    HW138630   1.826   1.344   6.832 -2.8128  1.2570 -1.1763
 9056SOL    HW238631   1.697   1.334   6.902  0.1621  1.2171 -0.1339
 9057SOL     OW38632   4.670   2.108   4.291  0.1360 -0.0344  0.1899
 9057SOL    HW138633   4.707   2.025   4.323  0.6743  1.4226  3.3785
 9057SOL    HW238634   4.701   2.102   4.201 -1.8712  0.4745 -0.5344
 9058SOL     OW38635   0.469   2.792   6.040  0.6685  0.0163 -0.3303
 9058SOL    HW138636   0.510   2.706   6.040 -1.1805 -0.8675  0.5734
 9058SOL    HW238637   0.399   2.786   6.105  0.4186  2.6231 -0.3453
 9059SOL     OW38638   3.966   1.665   3.931  0.0454 -0.0681 -0.4946
 9059SOL    HW138639   4.002   1.753   3.939  0.7285 -0.1029 -3.0644
 9059SOL    HW238640   3.992   1.625   4.014 -0.7215  3.0098  1.2353
 9060SOL     OW38641   4.082   2.458  10.936 -0.1742 -0.3580 -0.0383
 9060SOL    HW138642   4.177   2.464  10.921 -0.3851 -0.7146 -1.4815
 9060SOL    HW238643   4.046   2.466  10.848  0.7265 -3.4554 -0.7284
 9061SOL     OW38644   2.076   0.123   8.850 -0.1435 -0.3799  0.0241
 9061SOL    HW138645   2.166   0.106   8.878  0.1824  0.1388 -0.7139
 9061SOL    HW238646   2.100   0.137   8.758  0.6630 -1.0926  0.1214
 9062SOL     OW38647   4.307   4.602   8.933  0.0796  0.2413  0.3647
 9062SOL    HW138648   4.377   4.576   8.993  0.1175  1.1033  0.6967
 9062SOL    HW238649   4.247   4.621   9.006  1.2475 -0.1612  1.4228
 9063SOL     OW38650   4.716   0.772   2.332 -0.4311  0.3079 -0.1133
 9063SOL    HW138651   4.670   0.812   2.405  1.9843 -0.3234  1.7844
 9063SOL    HW238652   0.070   0.730   2.371 -0.8565 -0.2235  0.1432
 9064SOL     OW38653   1.447   2.937   3.884 -0.3763  0.0584 -0.4980
 9064SOL    HW138654   1.356   2.965   3.897  0.1870  2.1632 -1.1618
 9064SOL    HW238655   1.497   2.998   3.937 -1.8673  1.3253 -0.5453
 9065SOL     OW38656   4.029   4.586  10.226 -0.0984 -0.3725 -0.7163
 9065SOL    HW138657   4.035   4.614  10.135 -0.5932  2.0244 -0.0096
 9065SOL    HW238658   4.117   4.572  10.260  0.4571  2.6929 -0.9223
 9066SOL     OW38659   1.347   3.300  15.481 -0.1775  0.3449 -0.6615
 9066SOL    HW138660   1.357   3.366  15.549 -1.9076  0.1218 -0.1840
 9066SOL    HW238661   1.360   3.213  15.520 -0.6817  0.1796 -0.8608
 9067SOL     OW38662   2.712   1.062   8.104 -0.8208 -0.3153 -0.1087
 9067SOL    HW138663   2.773   1.113   8.051 -1.8731  1.1304  0.0680
 9067SOL    HW238664   2.765   1.002   8.158 -3.4865 -1.3873  1.3104
 9068SOL     OW38665   0.715   1.925   3.553  0.3135  0.5281 -0.1208
 9068SOL    HW138666   0.644   1.878   3.597  0.5219 -0.9976 -1.4418
 9068SOL    HW238667   0.669   1.995   3.507 -0.7362  0.5901  1.0354
 9069SOL     OW38668   2.465   2.870   7.007  0.3734  0.5367  0.2113
 9069SOL    HW138669   2.528   2.863   7.079  0.6514  1.6228  0.0662
 9069SOL    HW238670   2.403   2.936   7.037 -1.5532 -0.3875 -1.7902
 9070SOL     OW38671   0.925   2.565  17.526  0.1838  0.5860 -0.0098
 9070SOL    HW138672   0.903   2.507  17.453 -1.0568 -1.7241  2.2193
 9070SOL    HW238673   0.974   2.630  17.475  1.8020  0.4329  1.3503
 9071SOL     OW38674   2.286   2.472  16.832  0.2149 -0.5715  0.7860
 9071SOL    HW138675   2.277   2.378  16.848  0.9594 -0.6290  0.8768
 9071SOL    HW238676   2.312   2.477  16.740 -0.9653  3.1930  0.6791
 9072SOL     OW38677   0.539   3.706   8.756 -0.3322  0.0102 -0.1681
 9072SOL    HW138678   0.606   3.742   8.698  1.4947 -1.8941  0.7458
 9072SOL    HW238679   0.588   3.690   8.837 -2.3786 -0.8230  0.9187
 9073SOL     OW38680   2.051   2.324   4.961  0.0603  0.1715  0.0833
 9073SOL    HW138681   2.032   2.256   5.026  0.8907  0.5888  0.7691
 9073SOL    HW238682   1.972   2.378   4.963  0.5098  0.8609 -0.7671
 9074SOL     OW38683   1.218   0.378  17.048  0.1701 -0.6166 -0.0117
 9074SOL    HW138684   1.209   0.322  16.971  0.5267 -0.5397 -0.1069
 9074SOL    HW238685   1.293   0.333  17.087 -0.9056 -1.5087  1.0382
 9075SOL     OW38686   3.893   1.238  14.122  0.3173 -0.1328 -0.2223
 9075SOL    HW138687   3.892   1.180  14.199  0.0464  2.1481  1.4949
 9075SOL    HW238688   3.802   1.224  14.095 -0.5858  1.9751  1.7653
 9076SOL     OW38689   3.308   2.733   8.657 -0.7116  0.0583 -0.2316
 9076SOL    HW138690   3.359   2.792   8.712 -3.0667  0.5458  1.4434
 9076SOL    HW238691   3.358   2.730   8.576 -1.4323 -2.8268 -0.5589
 9077SOL     OW38692   3.568   0.360   9.990  0.5940  0.6702  0.7217
 9077SOL    HW138693   3.613   0.406  10.061 -1.9603  1.3805  1.8705
 9077SOL    HW238694   3.612   0.400   9.915 -0.2746  1.4161  0.6060
 9078SOL     OW38695   1.565   4.462   0.697  0.1963  0.0831  0.1239
 9078SOL    HW138696   1.571   4.558   0.696  0.0206  0.0814 -1.1839
 9078SOL    HW238697   1.506   4.442   0.623 -1.1775  2.3513  0.5966
 9079SOL     OW38698   1.360   3.746  13.431 -0.8739 -0.1922  0.7334
 9079SOL    HW138699   1.452   3.772  13.428 -0.4069 -1.7668  1.3478
 9079SOL    HW238700   1.316   3.816  13.383 -0.6644  0.1130  0.9871
 9080SOL     OW38701   3.471   4.498   7.509 -0.2331  0.0578  0.1817
 9080SOL    HW138702   3.557   4.473   7.475 -0.6458  0.4632 -1.1518
 9080SOL    HW238703   3.484   4.497   7.604 -1.0912  0.1620  0.2988
 9081SOL     OW38704   0.880   1.260  12.793  0.4940  0.0306  0.6079
 9081SOL    HW138705   0.912   1.281  12.706  2.0424  1.1677  1.4571
 9081SOL    HW238706   0.797   1.308  12.787 -1.3875 -3.0491  1.8128
 9082SOL     OW38707   2.736   3.379   2.175  0.1961  0.0092  0.1707
 9082SOL    HW138708   2.749   3.424   2.091  0.5778 -1.0427 -0.3265
 9082SOL    HW238709   2.680   3.302   2.174 -0.2165  0.3523 -2.7305
 9083SOL     OW38710   2.386   2.917   3.297 -0.4357 -0.0556  0.0441
 9083SOL    HW138711   2.430   2.835   3.319 -1.4135 -1.2059 -2.2129
 9083SOL    HW238712   2.429   2.977   3.358  0.1922  0.3443 -0.7919
 9084SOL     OW38713   4.093   1.500   9.096  0.2739  0.1820  0.2521
 9084SOL    HW138714   4.015   1.459   9.132  1.1191 -0.4618  1.3742
 9084SOL    HW238715   4.057   1.582   9.063  1.7620  1.3908  1.6106
 9085SOL     OW38716   1.570   0.432   3.817 -0.4771 -0.3748  0.1715
 9085SOL    HW138717   1.543   0.343   3.795 -0.9526 -0.5600  1.4674
 9085SOL    HW238718   1.644   0.448   3.759 -0.8676 -0.2517 -0.2919
 9086SOL     OW38719   0.420   2.776   0.625  0.1587  0.4008 -0.1298
 9086SOL    HW138720   0.413   2.860   0.670  0.5226  1.0608 -1.2899
 9086SOL    HW238721   0.489   2.740   0.680  1.9457 -0.1299 -2.7505
 9087SOL     OW38722   0.347   1.685  15.487  0.7940 -1.4795  0.4722
 9087SOL    HW138723   0.387   1.735  15.416  0.3617 -1.6419  0.1124
 9087SOL    HW238724   0.416   1.693  15.551  0.9080 -1.3513  0.3333
 9088SOL     OW38725   1.496   3.222  13.949  0.1359  0.5165 -0.0413
 9088SOL    HW138726   1.421   3.193  14.001  1.1228  0.4679  1.3801
 9088SOL    HW238727   1.461   3.200  13.863  1.4025 -0.4981 -0.2875
 9089SOL     OW38728   1.433   0.152   4.406  0.0218 -0.5974 -0.2293
 9089SOL    HW138729   1.483   0.184   4.332 -0.6155 -0.7007 -0.7111
 9089SOL    HW238730   1.505   0.121   4.461  0.9177 -1.2549 -1.7754
 9090SOL     OW38731   1.545   3.428   4.859  0.3204 -0.1887  0.2392
 9090SOL    HW138732   1.611   3.476   4.809 -1.2828  1.2785 -0.4656
 9090SOL    HW238733   1.467   3.471   4.824 -0.4645 -1.4978  0.4008
 9091SOL     OW38734   3.674   2.663   5.512 -0.2129  0.0036  0.0369
 9091SOL    HW138735   3.675   2.757   5.532 -0.4764 -0.3757  1.8042
 9091SOL    HW238736   3.742   2.643   5.576 -0.9273 -0.0836  0.7669
 9092SOL     OW38737   3.877   0.991  15.733 -0.4499  0.4036  0.1022
 9092SOL    HW138738   3.864   0.920  15.795  2.1494  1.0931  1.4435
 9092SOL    HW238739   3.955   1.033  15.768  0.1395 -0.1309 -0.5746
 9093SOL     OW38740   1.850   3.329  12.742 -0.2201 -0.3136 -0.1652
 9093SOL    HW138741   1.823   3.409  12.787  0.4059  1.4097 -2.8518
 9093SOL    HW238742   1.781   3.320  12.675  1.1805 -0.1598 -1.6345
 9094SOL     OW38743   0.256   3.659   8.528 -0.0384 -0.2591  0.3517
 9094SOL    HW138744   0.194   3.625   8.593  0.4709 -0.7123  0.5975
 9094SOL    HW238745   0.290   3.742   8.561  1.5730 -1.3130  1.3329
 9095SOL     OW38746   4.048   1.099  14.320  0.1629  0.1822 -0.1051
 9095SOL    HW138747   3.992   1.090  14.397 -1.2964  0.0677 -1.1783
 9095SOL    HW238748   4.126   1.057  14.357  0.2869  1.4103  1.0747
 9096SOL     OW38749   1.153   4.578   0.642  0.1872 -0.0616  0.5835
 9096SOL    HW138750   1.216   4.548   0.576  1.2638  1.4818  0.9045
 9096SOL    HW238751   1.199   4.558   0.724  0.0594 -0.1813  0.6269
 9097SOL     OW38752   1.709   1.643  15.834  0.1956 -0.1633 -0.1562
 9097SOL    HW138753   1.726   1.730  15.799 -1.9661  0.3705  0.1741
 9097SOL    HW238754   1.792   1.622  15.877  0.3980  1.0474  0.0508
 9098SOL     OW38755   3.181   1.771   2.309 -0.1222  0.5608  0.6184
 9098SOL    HW138756   3.111   1.821   2.351 -1.5746 -1.8617  1.0963
 9098SOL    HW238757   3.176   1.694   2.366  0.2188 -0.6754 -1.0176
 9099SOL     OW38758   4.603   4.003  14.000 -0.0127 -0.2795 -0.1961
 9099SOL    HW138759   4.681   3.948  13.985  1.4690  1.1094  2.4106
 9099SOL    HW238760   4.597   4.058  13.922  0.1522  0.0412  0.0163
 9100SOL     OW38761   0.153   2.876   5.913 -0.3892  0.3577 -0.3586
 9100SOL    HW138762   0.215   2.862   5.842 -0.5200  1.7649 -0.7452
 9100SOL    HW238763   0.196   2.941   5.969  0.1555 -0.0638 -0.2933
 9101SOL     OW38764   3.376   2.789   0.630 -0.1271 -0.2880  0.2703
 9101SOL    HW138765   3.429   2.764   0.554  0.2809  0.3492  0.3505
 9101SOL    HW238766   3.306   2.724   0.625 -0.8016  0.3935  0.8681
 9102SOL     OW38767   2.028   4.451   9.199  0.1072 -0.0323 -0.4149
 9102SOL    HW138768   1.947   4.442   9.248  0.3917  2.8025  0.6298
 9102SOL    HW238769   2.088   4.406   9.259  3.9150  2.8888 -2.0121
 9103SOL     OW38770   0.184   1.983   6.074  0.3552  0.4737  0.1966
 9103SOL    HW138771   0.245   2.008   6.142  0.2460  1.8292 -0.2126
 9103SOL    HW238772   0.115   1.950   6.132  0.2638  0.3291  0.0077
 9104SOL     OW38773   1.339   1.072   5.869 -0.1799 -0.1990  0.1363
 9104SOL    HW138774   1.259   1.024   5.848  0.6297 -1.8874  0.9685
 9104SOL    HW238775   1.354   1.116   5.786 -2.4335  1.0467  0.3940
 9105SOL     OW38776   0.774   4.448   4.889  0.2499 -0.7885 -0.1892
 9105SOL    HW138777   0.706   4.407   4.942  1.3194 -0.4116  1.5011
 9105SOL    HW238778   0.784   4.536   4.926 -0.5178 -0.1084 -1.6167
 9106SOL     OW38779   2.041   2.310   4.439  0.1770  0.3813 -0.2868
 9106SOL    HW138780   2.064   2.387   4.491 -2.3957  1.7410 -1.1487
 9106SOL    HW238781   1.970   2.276   4.493  1.2796 -2.5326 -0.6877
 9107SOL     OW38782   2.960   1.794   3.886  0.0312 -0.8538 -0.9802
 9107SOL    HW138783   3.047   1.756   3.899 -0.3488 -2.1904 -2.3339
 9107SOL    HW238784   2.962   1.883   3.922  0.2765 -0.9635 -0.7253
 9108SOL     OW38785   0.079   0.824   7.968 -0.0515  0.7893  0.0841
 9108SOL    HW138786   0.102   0.913   7.994 -1.6551  1.4576 -0.7949
 9108SOL    HW238787   0.135   0.800   7.895  1.0520 -0.1057  1.2223
 9109SOL     OW38788   0.630   3.564   4.796  0.3913  0.3145  0.3264
 9109SOL    HW138789   0.654   3.618   4.721  0.2411 -0.2570 -0.1369
 9109SOL    HW238790   0.552   3.616   4.819 -0.7988 -0.5780 -1.7055
 9110SOL     OW38791   0.223   2.668  16.237  0.0080  0.0419  0.3631
 9110SOL    HW138792   0.153   2.605  16.254 -0.3448  0.0095 -1.1419
 9110SOL    HW238793   0.241   2.696  16.327  0.3367 -3.5079  1.3758
 9111SOL     OW38794   3.375   2.490   9.542 -0.3827  0.1233 -0.3568
 9111SOL    HW138795   3.287   2.517   9.518 -0.1793  0.8536 -0.2955
 9111SOL    HW238796   3.412   2.461   9.459  0.8533  4.1116 -1.2284
 9112SOL     OW38797   4.700   1.641   8.527  0.4320 -0.3758 -0.4757
 9112SOL    HW138798   4.627   1.662   8.585 -0.4676 -1.4855 -1.2092
 9112SOL    HW238799   0.036   1.618   8.599  1.3469  1.8746 -0.5071
 9113SOL     OW38800   4.466   0.631   4.796  0.0752  0.0132 -0.0764
 9113SOL    HW138801   4.508   0.658   4.878  2.2801 -1.0831 -0.8541
 9113SOL    HW238802   4.421   0.710   4.769  1.8628  1.3897  0.9677
 9114SOL     OW38803   3.235   2.480   2.914  0.2149 -0.2269  0.2361
 9114SOL    HW138804   3.176   2.474   2.989  0.1728  0.7639  0.2806
 9114SOL    HW238805   3.231   2.388   2.888  0.9001  0.5432 -2.6151
 9115SOL     OW38806   0.606   2.665  17.160 -0.1697  0.0365  0.3409
 9115SOL    HW138807   0.697   2.681  17.185 -1.1092  1.8282  2.6364
 9115SOL    HW238808   0.565   2.750  17.151  1.2636  1.0945  3.4939
 9116SOL     OW38809   1.211   1.675  16.025  0.1934  0.4125 -0.0477
 9116SOL    HW138810   1.187   1.731  15.951 -0.0668 -1.6131 -1.5036
 9116SOL    HW238811   1.257   1.739  16.079  0.7021  1.0733 -1.2527
 9117SOL     OW38812   4.531   1.690   6.816 -0.2701 -0.4450  0.3981
 9117SOL    HW138813   4.533   1.629   6.890 -0.2864 -2.5294 -1.2990
 9117SOL    HW238814   4.438   1.707   6.807 -0.8421 -2.5217  2.4650
 9118SOL     OW38815   0.787   1.100   3.411 -0.1750 -0.2964 -0.4884
 9118SOL    HW138816   0.782   1.100   3.506  0.5835  1.4186 -0.4370
 9118SOL    HW238817   0.881   1.098   3.392 -0.3647  0.1516 -1.5066
 9119SOL     OW38818   1.487   1.959   7.344  0.8264  0.3417  0.7962
 9119SOL    HW138819   1.530   1.903   7.408  1.2627 -3.2917 -2.6060
 9119SOL    HW238820   1.513   1.890   7.282 -1.5205 -1.2699  1.5752
 9120SOL     OW38821   0.743   1.500   4.193  0.4365  0.3616 -1.0261
 9120SOL    HW138822   0.792   1.486   4.112  0.1247  0.4445 -1.2270
 9120SOL    HW238823   0.754   1.414   4.234  1.1758  0.8971 -0.0824
 9121SOL     OW38824   1.253   4.047   0.582  0.3128 -0.2832  0.0246
 9121SOL    HW138825   1.342   4.051   0.545  0.9781 -0.9444  1.5302
 9121SOL    HW238826   1.253   4.120   0.644 -0.7684 -0.2423 -0.0292
 9122SOL     OW38827   1.321   0.173  16.493  0.4497  0.1820  0.0811
 9122SOL    HW138828   1.375   0.189  16.415  0.1824  2.0154  0.2587
 9122SOL    HW238829   1.245   0.225  16.464  0.9316  1.8842  1.8487
 9123SOL     OW38830   0.197   1.686   9.722 -0.0053  0.1432  0.5391
 9123SOL    HW138831   0.139   1.610   9.713 -1.6613  1.3929  0.5839
 9123SOL    HW238832   0.178   1.718   9.810 -0.1171  0.3063  0.4571
 9124SOL     OW38833   2.629   1.742  12.943  0.4039 -0.2700  0.0274
 9124SOL    HW138834   2.692   1.687  12.896  1.7587 -2.1940  4.1325
 9124SOL    HW238835   2.611   1.691  13.022  2.3764 -0.8086  0.1429
 9125SOL     OW38836   1.864   3.297   3.309  0.1397  0.8614 -0.3665
 9125SOL    HW138837   1.892   3.384   3.281  1.4013  1.0228  1.3703
 9125SOL    HW238838   1.813   3.269   3.233  0.4255  2.4556 -1.1643
 9126SOL     OW38839   0.374   3.882   4.008  0.6454  0.3275  0.2422
 9126SOL    HW138840   0.355   3.793   3.979 -1.0942  1.2138 -1.3122
 9126SOL    HW238841   0.316   3.886   4.084 -1.5688 -0.5956 -1.4063
 9127SOL     OW38842   2.461   4.675   9.908  0.5327  0.7145  0.0058
 9127SOL    HW138843   2.517   4.627   9.847  0.6571 -0.4740  1.0608
 9127SOL    HW238844   2.410   0.013   9.855  0.5371  1.5263  0.9460
 9128SOL     OW38845   1.282   4.170   3.492 -0.0669 -0.6208  0.0339
 9128SOL    HW138846   1.359   4.115   3.506 -0.2715 -1.4231 -2.0594
 9128SOL    HW238847   1.265   4.197   3.583  2.6432 -0.6101  0.5318
 9129SOL     OW38848   0.956   0.941   4.916  0.0546  0.2632  0.2050
 9129SOL    HW138849   0.964   0.902   4.829  1.0618  0.3009  0.2854
 9129SOL    HW238850   0.884   1.000   4.894 -0.6385  0.0955  2.0582
 9130SOL     OW38851   4.269   1.336  13.542 -0.7601 -0.2269 -0.4337
 9130SOL    HW138852   4.322   1.398  13.493 -2.5941 -0.0429 -2.1654
 9130SOL    HW238853   4.268   1.266  13.477  0.0112 -0.2160 -0.4634
 9131SOL     OW38854   1.950   0.855  13.957  0.2343  0.7221  0.1667
 9131SOL    HW138855   1.905   0.895  14.032 -1.4943  1.5927 -1.3463
 9131SOL    HW238856   2.036   0.895  13.968  1.1932 -1.4213  0.5319
 9132SOL     OW38857   2.825   1.722   2.272 -0.0506 -0.4698 -0.2451
 9132SOL    HW138858   2.851   1.741   2.362 -1.3439 -0.8754  0.2152
 9132SOL    HW238859   2.847   1.802   2.224 -0.0778  1.0758  2.3544
 9133SOL     OW38860   0.729   2.040   7.602  0.0513  0.0207  0.0954
 9133SOL    HW138861   0.656   2.019   7.543  1.1741 -2.5029 -0.3915
 9133SOL    HW238862   0.670   2.043   7.677  0.4709  0.0411  0.4213
 9134SOL     OW38863   1.759   4.281   0.728 -0.0871  0.6707  0.0189
 9134SOL    HW138864   1.792   4.315   0.645 -0.1301  0.9272  0.1037
 9134SOL    HW238865   1.673   4.324   0.721 -0.4040 -0.1674 -1.0860
 9135SOL     OW38866   3.387   2.451   7.728  0.2972 -0.3045 -1.3844
 9135SOL    HW138867   3.389   2.361   7.762 -2.0582 -0.0825 -0.6537
 9135SOL    HW238868   3.318   2.497   7.775  1.0399 -1.2860  0.6904
 9136SOL     OW38869   0.153   2.840   4.640  0.0775  0.6046 -0.4094
 9136SOL    HW138870   0.090   2.834   4.568  0.5491  1.8269 -0.9193
 9136SOL    HW238871   0.235   2.850   4.592  0.4121  0.0340  0.0454
 9137SOL     OW38872   3.712   2.216  13.007 -0.0111 -0.2685  0.1579
 9137SOL    HW138873   3.687   2.190  12.919  1.1805  1.9162 -0.8389
 9137SOL    HW238874   3.684   2.141  13.060  0.1560  0.5588  1.4270
 9138SOL     OW38875   2.869   0.817   7.470 -0.8506  0.4528  0.2879
 9138SOL    HW138876   2.927   0.862   7.532 -1.8074 -0.2629  1.6933
 9138SOL    HW238877   2.799   0.788   7.527 -0.8686 -1.2266 -0.5768
 9139SOL     OW38878   0.217   0.000   0.909  0.2170 -0.3046 -0.3353
 9139SOL    HW138879   0.288   4.660   0.908 -0.2617 -0.8937  2.0462
 9139SOL    HW238880   0.169   4.694   0.831  1.5760 -2.6040 -0.2810
 9140SOL     OW38881   3.226   3.103   4.472  0.1382  0.1644  0.1238
 9140SOL    HW138882   3.264   3.031   4.522 -0.9194 -0.0439  0.6252
 9140SOL    HW238883   3.204   3.047   4.397  0.6003  0.6883 -0.4053
 9141SOL     OW38884   4.214   2.418   6.935 -0.2517 -0.5265 -0.1260
 9141SOL    HW138885   4.137   2.465   6.902 -0.3974  0.0492  1.0239
 9141SOL    HW238886   4.164   2.386   7.010 -0.3445 -1.2118 -0.4883
 9142SOL     OW38887   2.931   0.036   2.315 -0.3743 -0.9399 -0.3259
 9142SOL    HW138888   2.980   0.104   2.269  0.2422 -1.5147 -0.5156
 9142SOL    HW238889   2.971   4.683   2.274  1.6513 -1.1249  1.9715
 9143SOL     OW38890   2.625   2.979   9.450  0.0957 -0.4464 -0.4122
 9143SOL    HW138891   2.678   2.999   9.373 -1.1352  2.4114 -0.5148
 9143SOL    HW238892   2.564   3.052   9.458  1.0205  0.3272 -0.3844
 9144SOL     OW38893   3.744   3.303   6.311  0.8758  0.1758 -0.3888
 9144SOL    HW138894   3.723   3.211   6.322  3.8134 -0.6903 -1.9116
 9144SOL    HW238895   3.799   3.301   6.232 -2.9299 -1.8943 -2.9900
 9145SOL     OW38896   0.632   2.481  17.604 -0.6141  0.2257 -0.4130
 9145SOL    HW138897   0.671   2.474  17.691 -1.1369  0.9795 -0.1236
 9145SOL    HW238898   0.704   2.452  17.548 -0.4481 -0.9527  0.4301
 9146SOL     OW38899   4.238   1.916   7.525  0.1782  0.2260  0.2773
 9146SOL    HW138900   4.284   1.848   7.576  0.0764  0.1039  0.2071
 9146SOL    HW238901   4.242   1.874   7.439  1.8738  0.0194  0.4503
 9147SOL     OW38902   0.277   2.657   4.794  0.2310 -0.0377 -0.3435
 9147SOL    HW138903   0.361   2.651   4.747  0.7291 -2.0636  0.8315
 9147SOL    HW238904   0.231   2.733   4.757 -1.0584  0.4869  2.3431
 9148SOL     OW38905   4.021   4.619   5.198 -0.2849  0.4116  0.6186
 9148SOL    HW138906   4.049   4.652   5.113  0.7106  2.1598  1.6157
 9148SOL    HW238907   4.106   4.622   5.243 -0.6487 -0.0701  1.3358
 9149SOL     OW38908   3.044   1.827   9.962  0.5222  0.2549 -0.2190
 9149SOL    HW138909   3.005   1.897  10.014  0.8697  0.6016 -0.4256
 9149SOL    HW238910   3.121   1.801  10.012  1.0437  0.4291 -0.9289
 9150SOL     OW38911   2.093   3.672   2.669 -0.6312  0.6420 -0.0401
 9150SOL    HW138912   2.131   3.759   2.663 -1.5575  0.8822 -2.1297
 9150SOL    HW238913   2.105   3.644   2.760  1.5063 -0.0599 -0.5283
 9151SOL     OW38914   0.707   1.389  10.922  0.6600  0.3283  0.1126
 9151SOL    HW138915   0.705   1.305  10.967  0.6807  0.0270 -0.4512
 9151SOL    HW238916   0.618   1.423  10.909  1.2826  1.4097 -1.2544
 9152SOL     OW38917   0.082   1.609   8.771  0.2547 -0.1072  0.2149
 9152SOL    HW138918   0.174   1.588   8.790  0.3153 -0.6489 -0.6781
 9152SOL    HW238919   0.046   1.601   8.859 -0.8264 -1.5111 -0.3480
 9153SOL     OW38920   1.292   0.665   7.040 -0.0291  0.0875 -0.2874
 9153SOL    HW138921   1.198   0.681   7.045  0.2753  1.6535  0.5709
 9153SOL    HW238922   1.294   0.674   6.944  2.3496  2.2673 -0.0387
 9154SOL     OW38923   3.639   2.326   6.508 -0.5236  0.2311  0.3630
 9154SOL    HW138924   3.545   2.307   6.513 -0.3225 -1.6261 -2.9364
 9154SOL    HW238925   3.662   2.281   6.426 -1.3995 -0.4889  0.5140
 9155SOL     OW38926   3.114   3.035   2.116  0.3270  0.4547  0.4907
 9155SOL    HW138927   3.182   3.050   2.050 -1.2799  0.9409 -1.0546
 9155SOL    HW238928   3.092   2.946   2.088  2.8160  0.0739 -0.2277
 9156SOL     OW38929   3.002   2.284  17.178 -0.2613 -0.7385  0.8500
 9156SOL    HW138930   2.971   2.343  17.110 -0.8928 -1.6836  0.3099
 9156SOL    HW238931   2.997   2.345  17.251 -1.4691  0.8950 -0.6220
 9157SOL     OW38932   1.333   0.292   4.611 -0.1428  0.3109 -0.9209
 9157SOL    HW138933   1.355   0.218   4.667  1.6507  1.1810 -0.4848
 9157SOL    HW238934   1.367   0.257   4.529 -3.1996 -2.1095 -1.1565
 9158SOL     OW38935   2.935   2.765  15.168  0.2034  0.1097 -0.4519
 9158SOL    HW138936   2.870   2.821  15.126  0.6380  1.2191  0.3247
 9158SOL    HW238937   2.995   2.746  15.096  0.2038  1.8932 -0.9269
 9159SOL     OW38938   3.608   4.539   0.827 -0.5481 -0.4927  0.1663
 9159SOL    HW138939   3.591   4.555   0.920 -2.4086 -0.9111 -0.1063
 9159SOL    HW238940   3.624   4.444   0.827  3.0259  0.0947 -1.0624
 9160SOL     OW38941   3.523   4.535   3.259 -0.2064  0.3088  0.2538
 9160SOL    HW138942   3.618   4.531   3.246  0.0577  1.6163  1.8076
 9160SOL    HW238943   3.494   4.443   3.259  2.7495 -0.6425  0.9285
 9161SOL     OW38944   0.729   0.049   0.618  0.2638 -0.2207  0.6316
 9161SOL    HW138945   0.716   0.023   0.526  2.5684 -1.7584  0.7544
 9161SOL    HW238946   0.775   4.697   0.655 -0.7361 -0.0642  2.1834
 9162SOL     OW38947   4.076   1.966   4.554  0.4607 -0.0971  0.4383
 9162SOL    HW138948   4.116   1.952   4.468 -1.5979 -1.5396 -0.3066
 9162SOL    HW238949   4.038   2.053   4.540  0.9920  0.1781  0.7223
 9163SOL     OW38950   1.440   3.057   4.732 -0.1395  0.1656 -0.9251
 9163SOL    HW138951   1.390   3.138   4.728  0.4689  0.4976 -1.8039
 9163SOL    HW238952   1.513   3.075   4.673 -0.0907 -3.3592 -1.9673
 9164SOL     OW38953   4.379   4.239  16.616 -0.0924  0.5702 -0.2295
 9164SOL    HW138954   4.429   4.193  16.684 -0.4957  1.4444  0.6553
 9164SOL    HW238955   4.326   4.162  16.593  2.2722 -0.9652 -0.5647
 9165SOL     OW38956   3.729   1.828  14.217  0.6194 -0.1565 -0.2114
 9165SOL    HW138957   3.705   1.802  14.129 -0.3423 -0.6207  0.1875
 9165SOL    HW238958   3.798   1.892  14.199  0.5072 -0.4125 -1.5420
 9166SOL     OW38959   1.011   3.823   1.278  0.4814 -0.5364 -0.2173
 9166SOL    HW138960   1.055   3.770   1.211 -0.0344  2.2432 -2.7499
 9166SOL    HW238961   0.956   3.758   1.321 -0.7146  0.6452  0.0195
 9167SOL     OW38962   3.419   0.963   8.672  0.9545 -0.0748  0.1098
 9167SOL    HW138963   3.338   1.012   8.677  1.9727  1.6976 -0.6384
 9167SOL    HW238964   3.472   1.021   8.726 -0.3646  2.0832 -0.9535
 9168SOL     OW38965   1.019   0.378   5.189 -0.0015 -0.2825 -0.0021
 9168SOL    HW138966   1.080   0.435   5.143  0.9192 -1.0310  0.2974
 9168SOL    HW238967   1.089   0.347   5.246  0.2563 -2.1305 -1.3307
 9169SOL     OW38968   0.626   2.034   6.675 -0.1223  0.3355  0.1031
 9169SOL    HW138969   0.612   1.980   6.752 -0.4664 -0.6536 -0.6575
 9169SOL    HW238970   0.705   1.992   6.642 -1.1599 -0.4010 -1.4109
 9170SOL     OW38971   3.229   0.899   3.863  1.3143  0.3871  0.3908
 9170SOL    HW138972   3.292   0.876   3.931  1.0732 -0.8032  0.2114
 9170SOL    HW238973   3.259   0.843   3.791  0.3787  1.4444 -0.8472
 9171SOL     OW38974   1.365   0.016   1.356 -0.3418  0.4169 -0.0803
 9171SOL    HW138975   1.338   4.670   1.417 -0.0527 -0.1702 -0.6130
 9171SOL    HW238976   1.372   0.090   1.416 -1.6009  0.7959 -0.4078
 9172SOL     OW38977   2.552   0.938   2.512  0.0711  0.3230 -0.4446
 9172SOL    HW138978   2.571   0.976   2.598  1.8639 -0.6246 -0.4269
 9172SOL    HW238979   2.546   1.012   2.452  0.2344  0.4145 -0.3498
 9173SOL     OW38980   2.477   0.046   5.256 -0.2112 -0.1003  0.3533
 9173SOL    HW138981   2.542   0.018   5.320  1.0251 -1.1844 -1.3661
 9173SOL    HW238982   2.474   0.141   5.270  0.0569  0.0823 -0.7800
 9174SOL     OW38983   1.457   0.956   0.817 -0.4239  0.0445 -0.2999
 9174SOL    HW138984   1.511   0.952   0.738  0.2211 -0.7490  0.1796
 9174SOL    HW238985   1.433   1.048   0.806  0.2728  0.2129 -0.4226
 9175SOL     OW38986   3.631   0.272   1.179  0.1473  0.6169 -0.1538
 9175SOL    HW138987   3.640   0.312   1.265 -0.2720  2.8530 -1.1485
 9175SOL    HW238988   3.592   0.337   1.121  2.2015 -0.6969 -3.0577
 9176SOL     OW38989   0.785   0.870  15.768  0.7096  0.2729  0.0357
 9176SOL    HW138990   0.699   0.898  15.738  0.3380  0.0505  0.9088
 9176SOL    HW238991   0.839   0.948  15.753 -0.6756  1.7531  2.6654
 9177SOL     OW38992   1.432   2.015   9.904  0.2186 -0.5045  0.5667
 9177SOL    HW138993   1.343   1.986   9.883  0.3043 -0.4853  0.1786
 9177SOL    HW238994   1.472   2.011   9.817  2.4368  0.6524  1.5532
 9178SOL     OW38995   2.334   0.494   6.861 -0.1627  0.0335 -0.6068
 9178SOL    HW138996   2.266   0.481   6.794 -0.6897  0.3340 -0.1292
 9178SOL    HW238997   2.408   0.475   6.804  2.3104 -2.1250  3.3640
 9179SOL     OW38998   0.284   2.804   6.260  0.2330  0.3052  0.0876
 9179SOL    HW138999   0.302   2.874   6.322  1.9971  0.4389 -0.5838
 9179SOL    HW239000   0.188   2.802   6.268  0.1839 -0.0554 -0.6159
 9180SOL     OW39001   0.574   4.340  17.100  0.6988  0.2477  0.3541
 9180SOL    HW139002   0.516   4.342  17.024  2.4104 -1.0976 -0.9734
 9180SOL    HW239003   0.584   4.433  17.120  0.6305  0.8873 -2.5610
 9181SOL     OW39004   4.338   1.831   3.056 -0.0955 -0.0362 -0.0908
 9181SOL    HW139005   4.295   1.894   2.998  0.5164  0.0692 -0.4346
 9181SOL    HW239006   4.331   1.751   3.003  0.5874 -2.0048  2.8059
 9182SOL     OW39007   3.178   0.087   8.583 -0.3545 -0.2205  0.2115
 9182SOL    HW139008   3.149   4.720   8.571  1.5792 -0.6823 -1.0969
 9182SOL    HW239009   3.247   0.090   8.516 -1.6780 -3.7699 -1.3106
 9183SOL     OW39010   4.245   2.825   5.202  0.5671  0.1688  0.0469
 9183SOL    HW139011   4.258   2.850   5.293  0.5685 -1.0045  0.3720
 9183SOL    HW239012   4.176   2.760   5.217 -1.1251  2.6643  2.9774
 9184SOL     OW39013   2.175   0.817   6.571 -0.2418  0.2776 -0.0542
 9184SOL    HW139014   2.230   0.895   6.581  2.0237 -1.3637  0.3241
 9184SOL    HW239015   2.161   0.792   6.662  3.6096 -1.5924  0.0444
 9185SOL     OW39016   2.638   3.681   8.174 -0.2813  0.0522  0.1186
 9185SOL    HW139017   2.543   3.694   8.171 -0.3691 -0.8225 -0.8313
 9185SOL    HW239018   2.657   3.636   8.091  0.8138 -0.1202  0.4695
 9186SOL     OW39019   0.670   2.414   5.786  0.2165  0.4058 -0.2046
 9186SOL    HW139020   0.635   2.326   5.774  1.8285 -0.1809 -0.5339
 9186SOL    HW239021   0.749   2.423   5.733  0.7087  0.8472  0.5996
 9187SOL     OW39022   3.710   3.836   5.450  0.0537 -0.1714 -0.7667
 9187SOL    HW139023   3.736   3.746   5.471  0.5071  0.2842  0.6225
 9187SOL    HW239024   3.746   3.883   5.526 -0.5821  2.7313 -2.2776
 9188SOL     OW39025   1.163   0.146   6.176 -0.5598  0.4491 -0.1581
 9188SOL    HW139026   1.111   0.070   6.151 -0.0613  0.7022 -1.9795
 9188SOL    HW239027   1.230   0.153   6.108 -0.0280  1.4554  0.4792
 9189SOL     OW39028   3.495   0.588   1.781 -0.4175 -0.0540 -0.1146
 9189SOL    HW139029   3.548   0.524   1.829  0.9034  0.3824 -0.9951
 9189SOL    HW239030   3.426   0.531   1.747 -1.5222  0.9832  0.3955
 9190SOL     OW39031   1.710   3.124  14.709  0.1444  0.1349 -0.7811
 9190SOL    HW139032   1.686   3.132  14.801 -1.6939  0.6439 -1.3131
 9190SOL    HW239033   1.803   3.132  14.728  0.0709  0.3434 -0.5116
 9191SOL     OW39034   1.744   3.477  10.755 -0.2321 -0.4497  0.5727
 9191SOL    HW139035   1.658   3.435  10.750 -0.6347  0.5253 -0.7174
 9191SOL    HW239036   1.797   3.399  10.739 -0.3859 -1.3981  4.6451
 9192SOL     OW39037   2.325   2.520  16.553 -0.2208  0.2829  0.4193
 9192SOL    HW139038   2.420   2.520  16.546 -0.3333 -0.8976 -1.1552
 9192SOL    HW239039   2.305   2.599  16.503  3.3672  1.3880  0.7500
 9193SOL     OW39040   2.654   2.450   9.503 -0.1155 -0.1799  0.1102
 9193SOL    HW139041   2.574   2.398   9.504 -0.4398  0.3476  1.2060
 9193SOL    HW239042   2.617   2.527   9.460 -0.5643 -1.4377 -1.7615
 9194SOL     OW39043   3.777   4.363   5.684 -0.3715 -0.1642  0.0121
 9194SOL    HW139044   3.833   4.406   5.620  0.3881 -1.4687 -0.2013
 9194SOL    HW239045   3.692   4.361   5.640  0.8910 -1.4878 -2.3275
 9195SOL     OW39046   0.297   0.740   7.204  0.1585  0.0517  0.6692
 9195SOL    HW139047   0.265   0.773   7.288  2.1884  2.7473  0.3520
 9195SOL    HW239048   0.211   0.750   7.162 -0.0536  2.2100  1.6369
 9196SOL     OW39049   0.989   3.619   3.233  0.0189  0.0202  0.4293
 9196SOL    HW139050   1.052   3.669   3.183  0.0809  0.2266  0.7135
 9196SOL    HW239051   0.947   3.694   3.276  0.3157  0.3078  0.2191
 9197SOL     OW39052   0.803   4.234   7.891 -0.5828 -0.5519 -0.4031
 9197SOL    HW139053   0.760   4.212   7.973  0.3182 -0.4606  0.0864
 9197SOL    HW239054   0.892   4.250   7.920 -1.4853  1.7505  1.1264
 9198SOL     OW39055   3.083   3.769   4.537  0.0379  0.2820 -0.4568
 9198SOL    HW139056   3.013   3.785   4.600 -0.1948 -3.8642  0.3744
 9198SOL    HW239057   3.112   3.681   4.562 -1.3002  0.3234  1.1958
 9199SOL     OW39058   3.588   0.147   8.599 -0.2085 -0.0574 -0.1665
 9199SOL    HW139059   3.588   0.189   8.513 -0.3770 -1.2725 -0.7631
 9199SOL    HW239060   3.498   0.168   8.623 -0.5644 -1.5213 -0.2400
 9200SOL     OW39061   3.974   3.378  15.422 -0.5394  0.1782 -0.2756
 9200SOL    HW139062   3.987   3.283  15.416  1.2851  0.4360 -0.2147
 9200SOL    HW239063   4.060   3.402  15.455 -1.8295  2.2499  1.5727
 9201SOL     OW39064   0.349   3.025   0.782 -0.1080  0.1431  0.3302
 9201SOL    HW139065   0.416   3.092   0.766  0.4229 -0.2972  0.6672
 9201SOL    HW239066   0.385   2.964   0.847 -1.2077  1.6953  2.3859
 9202SOL     OW39067   1.374   3.887   0.261  0.0456  0.0982  0.0097
 9202SOL    HW139068   1.381   3.848   0.348  1.5159  1.3362  0.4295
 9202SOL    HW239069   1.409   3.815   0.208 -1.3731 -0.2540 -0.4532
 9203SOL     OW39070   1.673   0.938  14.295  0.4035  0.1193 -0.3061
 9203SOL    HW139071   1.647   0.898  14.378 -0.5085  1.0427 -0.1400
 9203SOL    HW239072   1.662   0.866  14.234 -0.8608  1.0352 -1.1800
 9204SOL     OW39073   3.105   3.796   9.158 -0.1536  0.3945  0.2996
 9204SOL    HW139074   3.017   3.776   9.191 -0.7582 -1.5676 -2.5092
 9204SOL    HW239075   3.155   3.777   9.237  1.4534 -1.3547 -1.1422
 9205SOL     OW39076   1.430   2.995   3.589 -0.3312 -0.0533 -0.0055
 9205SOL    HW139077   1.430   2.979   3.683 -0.9416  3.6781  0.6467
 9205SOL    HW239078   1.390   3.081   3.575  1.1874  0.8265  0.9703
 9206SOL     OW39079   2.500   4.629  13.883 -0.0769  0.1517  0.4760
 9206SOL    HW139080   2.413   4.617  13.847 -0.8178  1.3547  1.8583
 9206SOL    HW239081   2.503   4.547  13.932 -0.3966  0.1955  0.5660
 9207SOL     OW39082   0.136   3.964  15.407  0.4868 -0.0835  0.0043
 9207SOL    HW139083   0.147   4.034  15.343  0.6144  0.5986  0.7658
 9207SOL    HW239084   0.046   3.975  15.438  1.1446 -1.1546  2.3462
 9208SOL     OW39085   1.782   3.012   2.732  0.3686  0.5356 -0.1867
 9208SOL    HW139086   1.725   3.075   2.777  0.4498  0.0134  0.6494
 9208SOL    HW239087   1.770   3.030   2.639  1.0400  1.6117 -0.0680
 9209SOL     OW39088   0.309   4.624   2.526  0.6640  0.0671  0.5288
 9209SOL    HW139089   0.221   4.652   2.551  1.1078  0.6870  1.3528
 9209SOL    HW239090   0.341   4.661   2.608 -1.7310  2.1108  0.5500
 9210SOL     OW39091   0.926   1.301  13.512 -0.5868  0.0598 -0.6472
 9210SOL    HW139092   0.868   1.257  13.450 -1.9614 -0.2624  0.8715
 9210SOL    HW239093   0.860   1.330  13.575 -1.0222 -1.0389 -0.5988
 9211SOL     OW39094   1.612   1.240   1.379 -0.3396 -0.3576  0.4852
 9211SOL    HW139095   1.685   1.287   1.419  0.8445 -0.8154 -1.1525
 9211SOL    HW239096   1.622   1.262   1.287  2.2813  1.5192  1.2152
 9212SOL     OW39097   0.146   3.233   3.900  0.0417 -0.4335  0.0216
 9212SOL    HW139098   0.155   3.139   3.912  3.0554  0.0880  1.6274
 9212SOL    HW239099   0.068   3.252   3.952 -0.1481 -0.2892 -0.3157
 9213SOL     OW39100   2.543   1.959   2.025 -0.2797  0.3069  0.1116
 9213SOL    HW139101   2.479   1.892   2.047  1.4971 -1.2985  0.3181
 9213SOL    HW239102   2.567   2.001   2.108  1.2998 -0.2405 -0.0781
 9214SOL     OW39103   3.130   4.171   4.860  0.0891 -0.5888 -0.1220
 9214SOL    HW139104   3.068   4.223   4.809  1.3029  0.4474 -0.5639
 9214SOL    HW239105   3.096   4.196   4.945 -1.2446 -2.6526 -0.0612
 9215SOL     OW39106   2.383   3.122   6.400  0.0654  0.2976 -0.3215
 9215SOL    HW139107   2.351   3.048   6.349  2.7405  0.2825 -1.9045
 9215SOL    HW239108   2.369   3.187   6.331 -0.1201 -0.5364 -1.0703
 9216SOL     OW39109   1.535   3.327   4.076 -0.0887 -0.7015 -0.0474
 9216SOL    HW139110   1.550   3.235   4.056  2.7997 -0.1081 -0.6279
 9216SOL    HW239111   1.440   3.330   4.079 -0.1220 -1.9687  0.3345
 9217SOL     OW39112   1.902   1.881  13.559  0.3787  0.1647  0.2975
 9217SOL    HW139113   1.892   1.804  13.615  1.9633  0.2035  0.6137
 9217SOL    HW239114   1.821   1.930  13.577 -0.5094 -1.7827  1.5298
 9218SOL     OW39115   1.484   0.599   2.236 -0.0504 -0.9111  0.0642
 9218SOL    HW139116   1.534   0.673   2.269  2.4816 -1.6017 -2.3215
 9218SOL    HW239117   1.421   0.652   2.187  0.6910 -1.4725 -1.4972
 9219SOL     OW39118   4.382   2.818  11.780 -0.1392 -0.3519 -0.2877
 9219SOL    HW139119   4.341   2.889  11.731 -0.6896 -0.9602 -0.7127
 9219SOL    HW239120   4.424   2.773  11.707  0.9384  1.4097 -0.7712
 9220SOL     OW39121   0.284   2.828   5.687 -0.2547 -0.0772  0.3143
 9220SOL    HW139122   0.343   2.754   5.702  0.2687 -0.4090 -3.4746
 9220SOL    HW239123   0.240   2.801   5.607  0.2890 -2.4544  0.8021
 9221SOL     OW39124   1.965   2.068   3.818 -0.1738 -0.2697  0.3707
 9221SOL    HW139125   1.922   2.029   3.894  0.3296 -1.3240  0.1152
 9221SOL    HW239126   1.928   2.012   3.750 -2.2948  0.6495  0.7766
 9222SOL     OW39127   1.878   3.413   4.451 -0.1028  0.0518  0.3086
 9222SOL    HW139128   1.804   3.432   4.393 -0.3140  0.5349  0.7383
 9222SOL    HW239129   1.885   3.502   4.483 -1.6779  0.3804 -0.2845
 9223SOL     OW39130   4.679   2.785   4.043 -0.1910  0.3560 -0.2684
 9223SOL    HW139131   4.703   2.717   4.107 -2.4149 -0.0610  0.1321
 9223SOL    HW239132   4.621   2.743   3.980 -1.0843 -1.3175  1.6412
 9224SOL     OW39133   3.247   1.574  11.275 -0.2529  0.4163 -0.2321
 9224SOL    HW139134   3.182   1.596  11.341 -0.3358 -0.0696 -0.1479
 9224SOL    HW239135   3.271   1.486  11.305 -1.2072  0.9604  2.0968
 9225SOL     OW39136   3.126   1.684   0.073  0.2434  0.0688 -0.5233
 9225SOL    HW139137   3.036   1.686   0.105  0.1969  1.3921 -0.7146
 9225SOL    HW239138   3.121   1.758   0.012 -0.2469  0.7990  0.4019
 9226SOL     OW39139   0.079   2.190   3.792  0.2780 -0.2619  0.2909
 9226SOL    HW139140   0.017   2.162   3.725 -0.4422  0.9548  0.4484
 9226SOL    HW239141   0.055   2.280   3.813  0.6289 -0.6696  2.5355
 9227SOL     OW39142   3.032   0.744   0.547  0.0842  0.0096  0.2803
 9227SOL    HW139143   2.984   0.682   0.493 -1.0079 -0.8100  2.1661
 9227SOL    HW239144   3.027   0.826   0.499  2.9766  1.1225  1.9000
 9228SOL     OW39145   1.708   4.363  12.923 -0.1681  0.1581  0.5479
 9228SOL    HW139146   1.765   4.413  12.864 -0.6207 -0.5041 -0.4529
 9228SOL    HW239147   1.779   4.313  12.964  0.9487  2.7478  1.7457
 9229SOL     OW39148   3.881   1.298   9.046  0.3118 -0.0023 -0.3836
 9229SOL    HW139149   3.963   1.251   9.033  0.7093 -0.0783  2.4574
 9229SOL    HW239150   3.836   1.245   9.112  2.6997  2.0003  2.8529
 9230SOL     OW39151   3.732   1.216  11.300  0.6899 -0.2308  0.4875
 9230SOL    HW139152   3.655   1.160  11.290  0.5922  0.0937 -0.5825
 9230SOL    HW239153   3.758   1.181  11.385  0.0415  1.1166  1.2595
 9231SOL     OW39154   3.135   0.201   3.691  0.2495 -0.2431  0.2399
 9231SOL    HW139155   3.168   0.248   3.615 -1.4346  0.9880  0.2545
 9231SOL    HW239156   3.153   0.108   3.677 -0.2453 -0.4386  0.8916
 9232SOL     OW39157   1.359   3.264   3.804 -0.1958 -0.5751 -0.0564
 9232SOL    HW139158   1.290   3.310   3.853  0.8323  2.1421 -1.1634
 9232SOL    HW239159   1.338   3.260   3.711  1.8425  0.3185 -0.5571
 9233SOL     OW39160   3.741   2.835   6.502  0.3724 -0.3123  0.0712
 9233SOL    HW139161   3.739   2.745   6.469 -0.3975 -0.1836 -0.2353
 9233SOL    HW239162   3.769   2.815   6.591  1.8225  0.6255 -0.1790
 9234SOL     OW39163   2.867   0.601   6.425  0.5237  0.0102  0.3795
 9234SOL    HW139164   2.776   0.624   6.408  1.0109  0.2544 -1.9571
 9234SOL    HW239165   2.895   0.673   6.482 -0.3209 -1.9741  3.3007
 9235SOL     OW39166   2.794   2.241   5.079  0.2934 -0.1483  0.1197
 9235SOL    HW139167   2.741   2.232   4.999 -1.0053  0.5721  0.9023
 9235SOL    HW239168   2.748   2.314   5.120  1.5899  0.4313  0.5553
 9236SOL     OW39169   3.302   1.467   5.097 -0.2406 -0.4023 -0.7833
 9236SOL    HW139170   3.306   1.485   5.003 -2.0755  3.4568 -0.1232
 9236SOL    HW239171   3.388   1.427   5.113 -0.8383 -1.6059 -0.5518
 9237SOL     OW39172   3.599   3.405   1.887  0.0183  0.4238  0.0229
 9237SOL    HW139173   3.507   3.422   1.868  0.6591  2.2733 -1.4290
 9237SOL    HW239174   3.582   3.368   1.973 -1.7648 -0.1496 -0.5811
 9238SOL     OW39175   2.748   1.736   5.250  0.0140  0.2217 -0.4880
 9238SOL    HW139176   2.752   1.735   5.154 -3.2588 -1.9114 -0.6344
 9238SOL    HW239177   2.692   1.811   5.269  1.0913  0.7781  0.4555
 9239SOL     OW39178   4.507   0.189   8.847  0.4473 -0.4608 -0.5265
 9239SOL    HW139179   4.452   0.171   8.771 -1.2793 -1.1375  0.8945
 9239SOL    HW239180   4.439   0.207   8.912 -0.1812  0.3703 -1.4174
 9240SOL     OW39181   2.539   2.554   5.654  0.0233 -0.0543  0.2896
 9240SOL    HW139182   2.536   2.459   5.641  0.0787  0.2541 -2.1245
 9240SOL    HW239183   2.490   2.582   5.576 -1.4444 -1.8332  0.5916
 9241SOL     OW39184   4.037   2.738   8.205 -0.1623  0.8287 -0.1781
 9241SOL    HW139185   3.962   2.772   8.255  0.7332  1.6867  0.5708
 9241SOL    HW239186   4.108   2.740   8.269 -1.8354  2.7039  1.6156
 9242SOL     OW39187   2.621   0.848   5.808  0.0846  0.6165 -0.1395
 9242SOL    HW139188   2.692   0.909   5.827  0.3229 -0.3489  2.0222
 9242SOL    HW239189   2.582   0.907   5.743 -0.4349 -0.3997 -0.7405
 9243SOL     OW39190   4.588   3.207   2.676 -0.2458  0.3951 -0.2178
 9243SOL    HW139191   4.500   3.185   2.707 -0.0390 -1.1763 -0.7507
 9243SOL    HW239192   4.574   3.175   2.587 -0.2777  0.3514 -0.1969
 9244SOL     OW39193   1.227   1.869   5.769 -0.0672  0.7140 -0.2105
 9244SOL    HW139194   1.132   1.871   5.754 -0.0563  1.0049 -0.2317
 9244SOL    HW239195   1.233   1.807   5.842  0.4335  0.6429 -0.3123
 9245SOL     OW39196   2.431   2.359   7.349 -0.2370 -0.2665 -0.7827
 9245SOL    HW139197   2.422   2.454   7.353 -2.1395 -0.4891  0.6393
 9245SOL    HW239198   2.377   2.342   7.272  0.5230 -0.3243 -1.2984
 9246SOL     OW39199   0.134   2.842   1.948 -0.1921  0.0077 -0.6270
 9246SOL    HW139200   0.225   2.813   1.943 -0.2711 -0.4138  0.3690
 9246SOL    HW239201   0.105   2.761   1.990 -1.1855  0.4937 -0.3674
 9247SOL     OW39202   1.292   4.027   4.590  0.5518 -0.0960 -0.1462
 9247SOL    HW139203   1.313   4.009   4.682 -0.8811  1.3281  0.4475
 9247SOL    HW239204   1.277   3.935   4.568 -0.7151 -0.0492  0.5896
 9248SOL     OW39205   1.959   0.721   5.782  0.7792 -0.0069  0.7147
 9248SOL    HW139206   2.045   0.682   5.763  0.2876 -0.6212 -0.2113
 9248SOL    HW239207   1.937   0.675   5.863  2.1816  0.1162  1.1741
 9249SOL     OW39208   1.429   1.834   6.966  0.0762  0.7747  0.0721
 9249SOL    HW139209   1.400   1.743   6.978  0.0061  0.8466  0.4341
 9249SOL    HW239210   1.382   1.874   7.039 -0.2246  0.2970  0.1444
 9250SOL     OW39211   0.910   3.601  14.662  0.0812  0.3628 -0.3331
 9250SOL    HW139212   0.973   3.672  14.670  3.1893 -2.3927 -0.4698
 9250SOL    HW239213   0.879   3.615  14.572  0.4227  1.0274 -0.3517
 9251SOL     OW39214   4.530   0.556   0.338  0.3591  1.0404  0.0557
 9251SOL    HW139215   4.470   0.502   0.390  3.0061 -0.1720  1.8063
 9251SOL    HW239216   4.570   0.614   0.403  0.5942  0.1985  0.6522
 9252SOL     OW39217   2.771   4.383   8.592 -0.3248  0.1734  0.6403
 9252SOL    HW139218   2.692   4.352   8.637  1.1683 -1.7637  1.8932
 9252SOL    HW239219   2.737   4.440   8.523  0.6528  0.8511  0.7158
 9253SOL     OW39220   4.167   2.723   9.297 -0.1583  0.0673 -0.1656
 9253SOL    HW139221   4.082   2.679   9.289 -0.7889  1.3895 -0.7084
 9253SOL    HW239222   4.189   2.679   9.379  0.2093  0.3716 -0.0999
 9254SOL     OW39223   3.105   2.425   0.993 -0.0074 -0.1585  0.1696
 9254SOL    HW139224   3.030   2.377   0.958  1.6839 -2.4458 -0.2979
 9254SOL    HW239225   3.064   2.465   1.070 -1.3306 -2.0306  0.4347
 9255SOL     OW39226   0.970   2.744   4.383  0.2125 -0.0290  0.2882
 9255SOL    HW139227   0.906   2.754   4.454  0.3419  0.6361  0.3067
 9255SOL    HW239228   1.035   2.797   4.429 -0.2099 -1.4919  2.5555
 9256SOL     OW39229   1.116   2.454   5.099  0.2533 -0.6693 -0.3504
 9256SOL    HW139230   1.209   2.431   5.098  0.1307 -1.2423  1.4299
 9256SOL    HW239231   1.090   2.423   5.186 -0.2573  0.3356 -0.1457
 9257SOL     OW39232   0.952   1.236   2.651  0.4228 -0.1284  0.6205
 9257SOL    HW139233   1.009   1.296   2.699  0.7056  0.6361 -0.6655
 9257SOL    HW239234   0.869   1.229   2.700  0.6942  0.3262  1.1407
 9258SOL     OW39235   2.971   4.234  15.411 -0.1558 -0.5253 -0.2371
 9258SOL    HW139236   2.947   4.196  15.327  1.5649  0.7869 -1.3328
 9258SOL    HW239237   2.998   4.322  15.385  0.1777 -1.6632 -3.6542
 9259SOL     OW39238   4.404   4.665   7.838  0.0319 -0.0296 -0.4769
 9259SOL    HW139239   4.416   4.692   7.747 -0.4274 -1.1976 -0.8762
 9259SOL    HW239240   4.312   4.642   7.840 -0.2277  1.2335  2.0572
 9260SOL     OW39241   4.464   1.511   8.350 -0.5202 -0.5820 -0.4603
 9260SOL    HW139242   4.469   1.546   8.261 -0.1106 -2.5577 -1.2065
 9260SOL    HW239243   4.530   1.573   8.382  0.9602 -1.5907 -1.5893
 9261SOL     OW39244   0.662   1.267   7.850 -0.0586 -0.3297  0.3106
 9261SOL    HW139245   0.755   1.276   7.870 -0.6130  2.5042  1.7037
 9261SOL    HW239246   0.660   1.189   7.906 -1.6550 -0.7284 -0.3069
 9262SOL     OW39247   2.919   4.640   4.094  0.1556 -0.1155 -0.2854
 9262SOL    HW139248   2.906   0.009   4.073 -1.0703 -0.0103  0.9294
 9262SOL    HW239249   2.902   4.593   4.012  0.6943 -1.0206  0.1213
 9263SOL     OW39250   3.082   0.745   5.382  0.0181  0.8236  0.1968
 9263SOL    HW139251   2.997   0.776   5.349 -0.2601 -1.2189 -1.0229
 9263SOL    HW239252   3.060   0.705   5.466 -1.8875  0.7051 -0.3625
 9264SOL     OW39253   1.652   2.422  13.531  0.4343 -0.1221 -0.6680
 9264SOL    HW139254   1.660   2.386  13.619  0.6577 -0.4630 -0.8289
 9264SOL    HW239255   1.698   2.505  13.541  0.8482 -0.3288 -0.8672
 9265SOL     OW39256   2.407   3.924  10.941  0.0689  0.1383 -0.4974
 9265SOL    HW139257   2.373   3.996  10.994  2.0095  0.7580 -0.0586
 9265SOL    HW239258   2.463   3.985  10.891  1.0841 -0.2676  0.1317
 9266SOL     OW39259   1.125   3.938   7.286  0.1162  1.0954  0.0126
 9266SOL    HW139260   1.217   3.930   7.261 -0.3696  0.9647 -1.7507
 9266SOL    HW239261   1.116   4.033   7.278 -0.3421  0.9789 -0.8358
 9267SOL     OW39262   4.657   1.913  15.420 -0.0577 -0.1945 -0.5418
 9267SOL    HW139263   4.607   1.833  15.404  0.7742 -1.4974  3.2804
 9267SOL    HW239264   0.012   1.878  15.464 -0.7088  0.4173  1.0919
 9268SOL     OW39265   1.970   2.536   3.813 -0.1690 -0.3005  0.0434
 9268SOL    HW139266   1.959   2.457   3.760 -0.5142 -1.0462  1.2032
 9268SOL    HW239267   1.938   2.602   3.752  3.1711  2.0059  0.7665
 9269SOL     OW39268   0.529   1.312   2.825  0.3067 -0.4132 -0.5933
 9269SOL    HW139269   0.509   1.333   2.733 -1.1181 -1.3103 -0.4860
 9269SOL    HW239270   0.447   1.345   2.862  1.7969  1.5774  0.8986
 9270SOL     OW39271   1.879   0.336  10.549 -0.2060 -0.6685  0.6443
 9270SOL    HW139272   1.947   0.269  10.541  1.7939  1.2598  1.2210
 9270SOL    HW239273   1.804   0.279  10.532  0.3700 -1.7697  1.8505
 9271SOL     OW39274   4.096   0.218   4.545 -0.4866 -0.2325  0.7887
 9271SOL    HW139275   4.115   0.233   4.452 -0.7953  0.8657  0.9002
 9271SOL    HW239276   4.036   0.144   4.547  2.4660 -2.6865 -0.5399
 9272SOL     OW39277   2.135   3.990   6.691 -0.3355  0.0644 -0.0314
 9272SOL    HW139278   2.084   3.923   6.645  0.2022 -1.8019  2.0980
 9272SOL    HW239279   2.082   4.008   6.768  0.6674 -1.0629  0.9177
 9273SOL     OW39280   0.504   2.409  16.533 -0.3108 -0.0289  0.1537
 9273SOL    HW139281   0.538   2.369  16.614  3.4026 -1.9581 -2.3202
 9273SOL    HW239282   0.546   2.495  16.536 -0.0516 -0.0937 -1.8393
 9274SOL     OW39283   2.733   2.006   0.891 -0.0843 -0.6079  0.0928
 9274SOL    HW139284   2.658   1.948   0.879  0.9249 -1.4841 -1.9280
 9274SOL    HW239285   2.747   2.018   0.985 -1.7350  0.1697  0.2421
 9275SOL     OW39286   0.311   3.950   8.312  0.0323  0.6046 -0.3028
 9275SOL    HW139287   0.372   3.877   8.315 -2.2815 -1.3547 -0.8177
 9275SOL    HW239288   0.230   3.899   8.315  0.5837 -0.1589  1.4945
 9276SOL     OW39289   0.779   4.256  12.174 -0.5932 -0.2441 -0.0718
 9276SOL    HW139290   0.710   4.217  12.228 -1.3044  1.1317  0.0071
 9276SOL    HW239291   0.831   4.317  12.225  2.3620 -1.0355 -2.0961
 9277SOL     OW39292   4.430   0.607   2.451  0.2183  0.4641 -0.4208
 9277SOL    HW139293   4.474   0.685   2.487  1.0912 -0.5779  0.7719
 9277SOL    HW239294   4.496   0.538   2.464  0.1064 -0.0622 -2.7110
 9278SOL     OW39295   1.843   4.627   2.353  0.0046  0.4531 -0.1404
 9278SOL    HW139296   1.903   4.611   2.425  0.1960  3.3886  0.3415
 9278SOL    HW239297   1.881   4.711   2.327  0.5050  0.2317 -0.1264
 9279SOL     OW39298   1.796   0.249   1.225 -0.3484  0.7030  0.3869
 9279SOL    HW139299   1.874   0.254   1.171 -2.0947  2.2023 -2.0090
 9279SOL    HW239300   1.781   0.155   1.240  0.1223  0.2946 -1.7865
 9280SOL     OW39301   0.661   3.093   4.292  0.1239  0.2560 -0.0687
 9280SOL    HW139302   0.749   3.097   4.329  0.5630  0.7334 -1.1413
 9280SOL    HW239303   0.635   3.184   4.310 -1.8202 -0.5971  1.4138
 9281SOL     OW39304   3.779   4.145   9.047 -0.4103 -0.4091  0.1420
 9281SOL    HW139305   3.759   4.077   8.982  0.7263  0.4362 -1.1081
 9281SOL    HW239306   3.858   4.185   9.009  0.6492 -1.6715  1.0014
 9282SOL     OW39307   1.889   0.571   7.614 -0.1857  0.6869 -0.3667
 9282SOL    HW139308   1.835   0.622   7.553  1.9208  1.8707 -1.2471
 9282SOL    HW239309   1.822   0.538   7.674 -1.2561 -0.3079 -2.1147
 9283SOL     OW39310   0.703   4.411   6.103 -0.1003  0.4225 -0.1982
 9283SOL    HW139311   0.701   4.444   6.014 -0.8535  0.1427 -0.2848
 9283SOL    HW239312   0.649   4.469   6.157 -0.5920  1.5730 -1.9363
 9284SOL     OW39313   1.242   0.209   8.844  0.1020  0.1157  0.0785
 9284SOL    HW139314   1.268   0.152   8.916  1.2957  0.4229 -0.1069
 9284SOL    HW239315   1.315   0.202   8.782 -0.9616  0.0384 -1.1783
 9285SOL     OW39316   3.155   2.392   0.418  0.4770 -0.2080 -0.3546
 9285SOL    HW139317   3.060   2.382   0.430  0.2310  2.1327 -0.3729
 9285SOL    HW239318   3.186   2.338   0.491 -0.1420  0.0481  0.1051
 9286SOL     OW39319   0.655   2.311   5.040 -0.4057  0.0729 -0.0126
 9286SOL    HW139320   0.661   2.277   5.129  1.1834 -0.3613 -0.2802
 9286SOL    HW239321   0.674   2.228   4.997  1.2621  0.3390  0.1862
 9287SOL     OW39322   0.511   0.377   5.831 -0.2861 -0.0948 -0.4822
 9287SOL    HW139323   0.547   0.465   5.829 -1.5257  0.4827  2.6675
 9287SOL    HW239324   0.547   0.342   5.749 -0.8786 -0.7212 -0.4772
 9288SOL     OW39325   4.608   0.696   3.627 -0.5843  0.1026  0.1424
 9288SOL    HW139326   4.560   0.779   3.621  2.5135  1.8270 -0.7066
 9288SOL    HW239327   4.558   0.647   3.562 -0.1457 -2.1019  1.4681
 9289SOL     OW39328   1.768   0.132   3.798 -0.3359 -0.9960  0.0297
 9289SOL    HW139329   1.758   0.110   3.891 -0.2496 -2.4837 -0.2991
 9289SOL    HW239330   1.772   0.046   3.754 -2.2529  0.0571 -2.1882
 9290SOL     OW39331   2.018   1.272   5.860 -0.4045  0.0436  0.9067
 9290SOL    HW139332   1.977   1.356   5.880  1.3131  1.6226 -2.1135
 9290SOL    HW239333   1.955   1.248   5.792 -0.8333  0.5244  1.1419
 9291SOL     OW39334   1.691   4.469   5.404 -0.3476  0.5825  0.3083
 9291SOL    HW139335   1.644   4.509   5.477 -0.2065  0.6347  0.3709
 9291SOL    HW239336   1.735   4.551   5.380  0.0526  0.5505  0.9280
 9292SOL     OW39337   2.897   2.923  14.609 -0.3167  0.3286 -0.5564
 9292SOL    HW139338   2.976   2.874  14.585 -0.5003 -0.4573  0.4569
 9292SOL    HW239339   2.835   2.850  14.611 -1.0469  0.9508 -0.6144
 9293SOL     OW39340   1.640   1.193   2.268 -0.5497 -0.2321 -0.4629
 9293SOL    HW139341   1.709   1.259   2.280  0.2099 -1.3600  1.2069
 9293SOL    HW239342   1.582   1.254   2.221  0.9212  0.3594 -1.5356
 9294SOL     OW39343   4.655   1.744   2.443 -0.1859 -0.0920 -0.2677
 9294SOL    HW139344   4.670   1.695   2.362  0.2904 -3.2719  1.7745
 9294SOL    HW239345   4.701   1.688   2.505 -0.6571 -1.4836 -1.1949
 9295SOL     OW39346   4.618   3.511   4.614 -0.0859  0.2877 -0.3927
 9295SOL    HW139347   4.636   3.600   4.647  0.9413  0.2212 -0.7626
 9295SOL    HW239348   4.589   3.472   4.697  0.7899  0.3495 -0.0499
 9296SOL     OW39349   0.525   4.499   7.526 -0.0615  0.6419 -0.6403
 9296SOL    HW139350   0.507   4.420   7.578  0.9553  0.5666 -0.4039
 9296SOL    HW239351   0.562   4.467   7.444  1.2463  0.2268  0.1209
 9297SOL     OW39352   0.234   0.959  11.804  0.3601  0.5456  0.5649
 9297SOL    HW139353   0.250   0.906  11.882  1.1018  1.5678  1.1112
 9297SOL    HW239354   0.255   0.882  11.751  0.7409 -0.1812  1.7738
 9298SOL     OW39355   0.627   3.739   3.368  0.3641 -0.0396 -0.4414
 9298SOL    HW139356   0.594   3.727   3.279 -0.3514  0.5810 -0.2611
 9298SOL    HW239357   0.709   3.786   3.355 -1.4727  3.5547  0.6088
 9299SOL     OW39358   2.662   0.911   8.541 -0.3590 -0.1967 -0.2769
 9299SOL    HW139359   2.738   0.859   8.567 -0.7008 -0.4628  0.1965
 9299SOL    HW239360   2.603   0.905   8.616 -0.6224  0.4694 -0.4259
 9300SOL     OW39361   4.099   4.352   5.642 -0.4161  0.1974  0.0169
 9300SOL    HW139362   4.018   4.379   5.599  0.7647  1.6025 -1.3440
 9300SOL    HW239363   4.075   4.261   5.656 -0.1859  0.3826  1.6385
 9301SOL     OW39364   3.086   0.886   5.786  0.3491 -0.4450 -0.3250
 9301SOL    HW139365   3.138   0.847   5.856  1.2339 -1.7582 -1.7243
 9301SOL    HW239366   3.064   0.814   5.727 -1.7767 -0.5446  0.5913
 9302SOL     OW39367   1.890   1.289   9.455  0.0247 -0.2036 -0.1414
 9302SOL    HW139368   1.932   1.232   9.391 -1.6930  0.5414 -1.9210
 9302SOL    HW239369   1.820   1.241   9.499 -2.3863  2.2133 -1.3438
 9303SOL     OW39370   3.067   1.858   8.891 -0.1058  0.7211  0.0998
 9303SOL    HW139371   3.016   1.926   8.935  0.5153  0.5625  1.0844
 9303SOL    HW239372   3.109   1.802   8.956  0.9679  1.6063  0.1647
 9304SOL     OW39373   4.491   4.025   3.697 -0.0043  1.0912  0.1483
 9304SOL    HW139374   4.449   3.988   3.774 -0.9504  0.9344 -0.4464
 9304SOL    HW239375   4.528   4.106   3.734  0.8058  0.6114  0.3830
 9305SOL     OW39376   2.776   0.444  11.443 -0.0413  0.2862  0.3339
 9305SOL    HW139377   2.811   0.357  11.423  0.3347  0.9475 -1.8082
 9305SOL    HW239378   2.848   0.481  11.495 -1.5948  3.2754  0.3483
 9306SOL     OW39379   0.299   1.318   6.798  0.1284 -0.0214 -0.2018
 9306SOL    HW139380   0.293   1.357   6.885 -1.6567  2.4757 -1.4324
 9306SOL    HW239381   0.206   1.323   6.775  0.0463  0.9029  0.3475
 9307SOL     OW39382   0.350   2.391   5.821  0.2298 -0.1285  0.0461
 9307SOL    HW139383   0.262   2.404   5.856  0.6375 -0.1395  1.0992
 9307SOL    HW239384   0.401   2.357   5.895  0.8657 -0.1071 -0.3788
 9308SOL     OW39385   0.330   4.454  14.985 -0.0879 -0.4626 -0.3869
 9308SOL    HW139386   0.401   4.492  14.932  0.3799 -0.2598  0.3822
 9308SOL    HW239387   0.383   4.392  15.035  0.5878  0.6556  0.2997
 9309SOL     OW39388   1.377   0.908   0.349  0.1205  0.0027  0.2630
 9309SOL    HW139389   1.346   0.879   0.435 -0.7534  0.2787  0.0414
 9309SOL    HW239390   1.472   0.903   0.363 -0.2325 -1.2550  2.2567
 9310SOL     OW39391   2.487   2.105   3.613 -0.3733 -0.1355  0.3395
 9310SOL    HW139392   2.440   2.081   3.533 -2.7000  1.6172  1.1670
 9310SOL    HW239393   2.546   2.032   3.630  0.4089  0.6782  1.1148
 9311SOL     OW39394   0.823   0.500   3.760 -0.0712  0.2896 -0.4086
 9311SOL    HW139395   0.864   0.421   3.724  0.0279  0.1679 -0.0203
 9311SOL    HW239396   0.862   0.496   3.847  2.0295  1.9634 -1.2803
 9312SOL     OW39397   3.872   3.791   4.731  0.4392 -0.1486 -0.1791
 9312SOL    HW139398   3.924   3.871   4.730  3.2025 -1.9631 -1.6901
 9312SOL    HW239399   3.811   3.819   4.663 -1.7005  0.3212  1.9116
 9313SOL     OW39400   2.514   3.200   7.904 -0.1407  0.8848 -0.0565
 9313SOL    HW139401   2.486   3.123   7.953  2.4019 -0.8448 -1.2774
 9313SOL    HW239402   2.586   3.225   7.963  0.9979 -1.7178 -0.3346
 9314SOL     OW39403   1.975   3.721  11.185  0.6240  0.9464  0.6688
 9314SOL    HW139404   1.933   3.700  11.102  1.3205 -2.6277  1.2487
 9314SOL    HW239405   2.002   3.812  11.170 -0.3736  0.9127 -1.3105
 9315SOL     OW39406   0.976   4.106   0.797  0.5554 -0.2725  0.0845
 9315SOL    HW139407   1.015   4.129   0.882 -1.9417 -0.7562  1.3819
 9315SOL    HW239408   0.997   4.013   0.809 -2.4240 -0.8854  0.5803
 9316SOL     OW39409   3.620   4.463   6.795 -0.1576  0.5050  0.1388
 9316SOL    HW139410   3.530   4.446   6.769 -0.0548  0.7282 -0.3553
 9316SOL    HW239411   3.605   4.545   6.842  0.6587 -0.8161  2.7406
 9317SOL     OW39412   3.143   4.714   2.157 -0.1532  0.0153  0.1054
 9317SOL    HW139413   3.158   4.663   2.077  1.4394  0.5436  0.0856
 9317SOL    HW239414   3.231   0.002   2.191 -0.5212 -0.0900  1.0821
 9318SOL     OW39415   2.057   3.612   2.942 -0.4392 -0.4239 -0.4320
 9318SOL    HW139416   2.076   3.519   2.956  0.7940 -0.1796 -0.4367
 9318SOL    HW239417   2.146   3.639   2.967  0.6698 -0.9304 -3.7483
 9319SOL     OW39418   0.424   3.872  14.101  0.2398 -0.2182 -0.3541
 9319SOL    HW139419   0.342   3.841  14.141  0.7841  1.0590  1.7128
 9319SOL    HW239420   0.466   3.914  14.176  0.8003 -0.4119 -0.5601
 9320SOL     OW39421   3.067   0.168   7.918  0.0215  0.0064 -0.1265
 9320SOL    HW139422   3.159   0.189   7.903 -0.4021  1.5879 -0.5058
 9320SOL    HW239423   3.058   0.086   7.869  0.6419 -0.8148  1.1130
 9321SOL     OW39424   0.953   2.392  12.445 -0.1067 -0.8643  0.3641
 9321SOL    HW139425   0.951   2.315  12.503  1.9024 -3.0047 -2.4273
 9321SOL    HW239426   0.864   2.385  12.410  0.5689  0.0658 -1.5128
 9322SOL     OW39427   1.074   0.981   5.764 -0.2151  0.0755  0.4458
 9322SOL    HW139428   0.989   1.002   5.724 -0.3704  2.1783  1.8862
 9322SOL    HW239429   1.049   0.990   5.856  1.2473  0.7293  0.7814
 9323SOL     OW39430   0.338   0.091   7.983 -0.2189 -1.0909 -0.1237
 9323SOL    HW139431   0.298   0.115   7.899 -2.0734 -0.6689  0.8667
 9323SOL    HW239432   0.308   0.169   8.030 -2.5614 -2.1056  0.0719
 9324SOL     OW39433   1.455   2.347   4.726 -0.3690 -0.0275 -0.0333
 9324SOL    HW139434   1.401   2.369   4.650  0.8746  2.1280 -0.2815
 9324SOL    HW239435   1.502   2.276   4.683  2.1867  1.1762  0.7756
 9325SOL     OW39436   2.474   1.187   5.132 -0.5887  0.2515  0.5115
 9325SOL    HW139437   2.569   1.184   5.132 -0.4859  3.2328 -0.5494
 9325SOL    HW239438   2.462   1.279   5.156  0.9279  0.7572 -0.6529
 9326SOL     OW39439   1.048   1.343   8.542  0.9350  0.0431 -0.4873
 9326SOL    HW139440   1.099   1.325   8.463 -0.3465  1.9463 -1.7562
 9326SOL    HW239441   1.003   1.259   8.548  0.3331  0.3535 -0.5789
 9327SOL     OW39442   2.200   1.395   2.426  0.1477 -0.3397 -0.2013
 9327SOL    HW139443   2.281   1.416   2.473  0.7281 -2.3272 -0.3353
 9327SOL    HW239444   2.129   1.408   2.489  0.6466  0.5486  0.1782
 9328SOL     OW39445   2.047   1.826   3.122 -0.3670 -0.3112 -0.1414
 9328SOL    HW139446   2.085   1.756   3.069  0.1130 -1.2163  1.3960
 9328SOL    HW239447   1.986   1.773   3.174 -0.5831  1.1654  1.1186
 9329SOL     OW39448   1.127   4.691   7.621  0.1713 -0.7220  0.2219
 9329SOL    HW139449   1.042   4.697   7.665 -0.4291  1.9397 -1.3425
 9329SOL    HW239450   1.111   4.619   7.561 -1.5451  0.1833 -0.3830
 9330SOL     OW39451   2.666   2.103   8.838 -0.4660 -0.2804 -0.5349
 9330SOL    HW139452   2.738   2.122   8.777 -1.3390 -0.5035 -1.6358
 9330SOL    HW239453   2.690   2.166   8.906 -2.0510 -0.4777  0.1933
 9331SOL     OW39454   3.813   2.416  13.843 -0.4007  0.2094 -0.1138
 9331SOL    HW139455   3.838   2.376  13.926 -3.2807  0.4231  0.8468
 9331SOL    HW239456   3.717   2.410  13.845 -0.5603  2.4906 -1.4321
 9332SOL     OW39457   2.355   2.008   4.969  0.2015  0.1445  0.2807
 9332SOL    HW139458   2.410   2.026   5.045 -0.1110 -0.9022  0.7574
 9332SOL    HW239459   2.360   1.913   4.961 -0.2720  0.2680 -1.3384
 9333SOL     OW39460   2.923   2.274   4.672  0.7914 -0.5980  0.1687
 9333SOL    HW139461   2.892   2.226   4.595 -0.8580  0.5968  0.0800
 9333SOL    HW239462   2.990   2.212   4.702  2.1382  0.5581 -0.4743
 9334SOL     OW39463   0.425   2.734   3.166 -0.0907 -0.8766 -0.5741
 9334SOL    HW139464   0.487   2.662   3.160  0.8509 -0.0139 -1.0639
 9334SOL    HW239465   0.482   2.807   3.144  0.4117 -0.7540  1.0881
 9335SOL     OW39466   1.648   4.661   6.302  0.0198  0.9535 -0.3548
 9335SOL    HW139467   1.647   4.568   6.324 -0.4632  0.8528 -0.7810
 9335SOL    HW239468   1.736   4.673   6.267 -0.3288 -1.8927 -2.2339
 9336SOL     OW39469   2.255   3.136   8.166  0.3460 -0.1803  0.3425
 9336SOL    HW139470   2.167   3.154   8.200 -0.2905  0.3719 -1.5850
 9336SOL    HW239471   2.223   3.077   8.098  0.8695 -0.5080  0.3767
 9337SOL     OW39472   4.316   2.306   8.591 -0.0397 -0.1926  0.2423
 9337SOL    HW139473   4.410   2.306   8.611 -0.8572  1.5617  3.8986
 9337SOL    HW239474   4.297   2.212   8.587  1.0268 -0.4041  0.1277
 9338SOL     OW39475   1.849   4.702  15.067 -0.1133 -0.6536 -0.3714
 9338SOL    HW139476   1.831   4.701  15.161 -4.4702  0.0514 -1.2123
 9338SOL    HW239477   1.774   0.029  15.035  1.9339  2.0488 -0.8999
 9339SOL     OW39478   0.941   0.892  13.431  0.5061  0.3313 -0.3941
 9339SOL    HW139479   1.025   0.899  13.476  0.8265  0.9167 -1.0690
 9339SOL    HW239480   0.894   0.837  13.494  0.7899  1.1728  0.5609
 9340SOL     OW39481   3.664   4.553  10.107 -0.3013  0.5452 -0.8427
 9340SOL    HW139482   3.710   4.555  10.191 -1.8669 -0.2412  0.0311
 9340SOL    HW239483   3.641   4.645  10.091 -2.1197  0.2401 -0.0650
 9341SOL     OW39484   4.150   4.148   3.289 -0.1729  0.9855  0.0953
 9341SOL    HW139485   4.124   4.143   3.381 -1.1036  1.7226 -0.1292
 9341SOL    HW239486   4.217   4.080   3.288 -0.4349  0.7092  0.9380
 9342SOL     OW39487   3.286   1.270   4.294 -0.3519 -0.2667  0.9470
 9342SOL    HW139488   3.256   1.195   4.242  1.5634  0.5427 -1.3385
 9342SOL    HW239489   3.208   1.324   4.303  0.5656  1.6085 -2.1266
 9343SOL     OW39490   1.248   4.481   5.029 -0.8907 -0.1681  0.2264
 9343SOL    HW139491   1.205   4.532   4.960 -0.0178 -0.1552 -0.3169
 9343SOL    HW239492   1.341   4.465   5.010 -1.1343 -0.0733 -1.0335
 9344SOL     OW39493   2.904   0.051   6.730 -0.1764 -0.0176 -0.2235
 9344SOL    HW139494   2.894   4.679   6.725  0.2712 -0.1398  1.2262
 9344SOL    HW239495   2.880   0.082   6.643 -1.6133 -2.0780 -0.5558
 9345SOL     OW39496   1.640   2.526   5.956  0.0891 -0.4352  0.5883
 9345SOL    HW139497   1.559   2.489   5.921  0.5797 -1.0904  0.1450
 9345SOL    HW239498   1.620   2.514   6.049  0.0969  1.1268  0.7909
 9346SOL     OW39499   2.104   1.558   9.002 -0.0429  0.1149 -0.0853
 9346SOL    HW139500   2.039   1.496   9.034 -0.0950 -0.3906 -1.1628
 9346SOL    HW239501   2.041   1.629   8.991 -0.8298 -0.6425 -0.4109
 9347SOL     OW39502   0.398   1.842  12.697 -0.0287  0.0137  0.1712
 9347SOL    HW139503   0.383   1.826  12.604 -2.3308  0.5948  0.4524
 9347SOL    HW239504   0.381   1.756  12.737  1.6636  0.5343  2.0241
 9348SOL     OW39505   4.412   1.566   5.113 -0.1478  0.9846 -0.4997
 9348SOL    HW139506   4.327   1.521   5.115 -0.3479  1.2887 -1.9405
 9348SOL    HW239507   4.468   1.511   5.167 -0.8343 -0.0886 -0.8778
 9349SOL     OW39508   3.880   2.317   0.379 -0.6235 -0.4284  0.2542
 9349SOL    HW139509   3.866   2.249   0.313 -0.3709 -0.1488 -0.0874
 9349SOL    HW239510   3.951   2.286   0.436 -1.2336 -0.4027  1.0233
 9350SOL     OW39511   3.760   0.929   8.541  0.2090  0.1250  0.6394
 9350SOL    HW139512   3.774   0.930   8.446 -0.9648 -0.0942  0.4697
 9350SOL    HW239513   3.733   1.021   8.551  2.5647  1.1469 -2.2415
 9351SOL     OW39514   4.228   2.389  11.282  0.1971  0.1104 -0.2040
 9351SOL    HW139515   4.148   2.442  11.291  0.7732  0.6659  1.4534
 9351SOL    HW239516   4.198   2.310  11.237  0.2964  1.2304 -2.2537
 9352SOL     OW39517   1.095   3.863   7.682 -0.2621  0.3885  0.3633
 9352SOL    HW139518   1.118   3.857   7.775 -1.1587  1.8341  0.6870
 9352SOL    HW239519   1.144   3.941   7.655  1.5633 -0.3921  1.4485
 9353SOL     OW39520   2.153   0.265   5.437  0.4432  0.5506 -0.1227
 9353SOL    HW139521   2.163   0.197   5.370  0.1514  0.0323  0.3574
 9353SOL    HW239522   2.115   0.216   5.509 -0.1380 -1.9619 -2.1291
 9354SOL     OW39523   1.580   2.804   5.962  0.0193  0.6139  0.2285
 9354SOL    HW139524   1.658   2.831   6.011 -0.6044 -3.4362  3.4183
 9354SOL    HW239525   1.598   2.711   5.947 -0.2650  0.5581  0.2328
 9355SOL     OW39526   2.562   1.714   3.544 -0.1793 -0.3678  0.0533
 9355SOL    HW139527   2.493   1.746   3.486 -0.0681  3.0738  1.8296
 9355SOL    HW239528   2.596   1.788   3.594  1.3407 -2.4741  2.1444
 9356SOL     OW39529   4.608   0.145   9.314 -0.1795 -0.1118 -0.4306
 9356SOL    HW139530   4.614   0.060   9.357  1.1500 -0.6041 -1.5846
 9356SOL    HW239531   4.573   0.187   9.393 -0.1238 -2.0310  0.6132
 9357SOL     OW39532   1.269   2.572  13.128  0.8095 -0.1007  0.1518
 9357SOL    HW139533   1.301   2.654  13.165 -1.6936  0.9962 -0.1890
 9357SOL    HW239534   1.300   2.504  13.188 -0.4012  0.6649  1.6062
 9358SOL     OW39535   4.585   1.074  16.626  0.0217  0.3806 -0.3012
 9358SOL    HW139536   4.604   1.154  16.577  1.5880  0.0816 -0.1747
 9358SOL    HW239537   4.516   1.032  16.574 -1.4220  1.7811  0.4985
 9359SOL     OW39538   4.664   2.723   8.702 -0.5434  0.4519  0.3624
 9359SOL    HW139539   4.616   2.787   8.650 -0.5191  1.1903  1.2367
 9359SOL    HW239540   0.025   2.767   8.704 -0.6732  0.6431  1.9184
 9360SOL     OW39541   3.788   0.684   0.775 -0.6458 -0.5118 -0.2830
 9360SOL    HW139542   3.767   0.630   0.851 -0.1893  0.7141  0.7197
 9360SOL    HW239543   3.861   0.736   0.808 -0.6794 -0.2736 -0.5829
 9361SOL     OW39544   3.158   3.691  10.738 -0.1023  0.9727  0.2203
 9361SOL    HW139545   3.176   3.633  10.664 -0.9955  1.5244 -0.4391
 9361SOL    HW239546   3.198   3.639  10.808  0.0282  0.2792 -0.3659
 9362SOL     OW39547   0.512   0.913  13.885 -0.7010 -0.0547 -0.3293
 9362SOL    HW139548   0.516   0.924  13.980 -2.5137 -0.3834 -0.2070
 9362SOL    HW239549   0.418   0.897  13.873 -0.8257 -0.2783  0.9456
 9363SOL     OW39550   1.194   2.059   2.808 -0.1831 -0.7116  0.0087
 9363SOL    HW139551   1.118   2.028   2.857  0.1744  1.8462  2.1858
 9363SOL    HW239552   1.210   2.148   2.838  1.0593 -0.5805 -1.0416
 9364SOL     OW39553   0.553   0.586   6.837  0.2777 -0.3406 -0.3767
 9364SOL    HW139554   0.578   0.678   6.832  0.3482 -0.3386  0.0157
 9364SOL    HW239555   0.542   0.565   6.744  0.1061  0.6992 -0.5912
 9365SOL     OW39556   1.273   3.659   3.783 -0.1154  0.0879  0.2668
 9365SOL    HW139557   1.361   3.635   3.812  1.0727  2.8175 -1.0286
 9365SOL    HW239558   1.296   3.711   3.706  0.2199 -0.4334  0.0163
 9366SOL     OW39559   4.711   3.630   2.671  0.1631  0.0707  0.1269
 9366SOL    HW139560   4.622   3.664   2.682  0.3634  0.4425  0.6077
 9366SOL    HW239561   0.005   3.655   2.580 -4.0350 -1.2076 -1.0025
 9367SOL     OW39562   3.084   0.992   4.364 -0.1088 -0.4476 -0.1282
 9367SOL    HW139563   2.997   0.957   4.380  0.3832 -1.3597  0.5529
 9367SOL    HW239564   3.082   1.034   4.278  0.1210 -1.0240 -0.4134
 9368SOL     OW39565   2.794   3.269   2.779  0.5059 -0.4748 -0.7883
 9368SOL    HW139566   2.746   3.303   2.855 -0.4495 -4.0316  0.1891
 9368SOL    HW239567   2.865   3.332   2.774  1.0341 -1.0636 -0.6704
 9369SOL     OW39568   1.668   0.141   1.966  0.9121 -0.3650 -0.5547
 9369SOL    HW139569   1.633   0.150   2.055  2.1041 -0.2169 -0.0995
 9369SOL    HW239570   1.647   0.050   1.947 -0.7914 -0.3109  0.9898
 9370SOL     OW39571   3.275   4.510  10.258 -0.8278 -0.2087  0.9815
 9370SOL    HW139572   3.267   4.571  10.331  0.8727  0.5995  0.5075
 9370SOL    HW239573   3.218   4.435  10.270 -1.7649  0.2014 -0.8869
 9371SOL     OW39574   2.741   1.690   8.581 -0.6411  0.2534 -0.1994
 9371SOL    HW139575   2.690   1.724   8.655 -1.6747 -1.1364 -0.2797
 9371SOL    HW239576   2.827   1.704   8.620  0.2919 -0.1942 -2.1285
 9372SOL     OW39577   1.078   0.862   1.892  0.2499  1.1822 -0.1761
 9372SOL    HW139578   1.023   0.849   1.815 -0.9674  0.6276  0.7841
 9372SOL    HW239579   1.162   0.826   1.865 -0.1096  0.6001 -0.5126
 9373SOL     OW39580   3.160   0.050   9.339 -0.1244  0.2705 -0.4407
 9373SOL    HW139581   3.097   0.012   9.278 -1.8549 -0.6915  1.9509
 9373SOL    HW239582   3.152   4.713   9.414 -0.4089 -0.6735 -1.2356
 9374SOL     OW39583   4.139   3.904   3.688 -0.1401  0.2888  0.1483
 9374SOL    HW139584   4.188   3.958   3.750  0.8783 -0.4780  0.0248
 9374SOL    HW239585   4.092   3.847   3.749  1.7991 -0.0539  1.3248
 9375SOL     OW39586   1.367   0.503  16.450  0.4818  0.7866  0.0383
 9375SOL    HW139587   1.293   0.451  16.416 -0.6918  0.5787  2.9371
 9375SOL    HW239588   1.321   0.529  16.530  0.1932  0.7143 -0.1031
 9376SOL     OW39589   4.067   4.039   5.528  0.6283 -0.1273  0.1418
 9376SOL    HW139590   4.057   3.953   5.488 -0.8822 -0.6032  1.5093
 9376SOL    HW239591   4.158   4.030   5.558 -0.1036 -2.2779  1.7088
 9377SOL     OW39592   2.204   1.576   1.697 -0.1319 -1.0674  0.3603
 9377SOL    HW139593   2.149   1.627   1.757  2.6906  1.9621  0.2925
 9377SOL    HW239594   2.226   1.644   1.634  0.4268 -0.7734  0.8701
 9378SOL     OW39595   0.883   1.272  13.896  0.1193  0.4595  0.1614
 9378SOL    HW139596   0.933   1.348  13.868  0.4365  0.2120  0.0503
 9378SOL    HW239597   0.943   1.199  13.912 -1.4776 -0.9243 -0.0938
 9379SOL     OW39598   4.426   0.432  12.214 -0.3407 -0.0477  0.2246
 9379SOL    HW139599   4.444   0.455  12.123 -1.7279 -1.5261 -0.4244
 9379SOL    HW239600   4.359   0.496  12.234 -0.9780 -0.4193 -0.7213
 9380SOL     OW39601   2.327   3.576   3.030 -0.1609 -0.1599  0.4754
 9380SOL    HW139602   2.383   3.550   2.957 -1.6098  0.4483 -0.8600
 9380SOL    HW239603   2.397   3.593   3.093  2.5829 -3.1334 -1.7953
 9381SOL     OW39604   2.606   2.864   5.183  0.0272 -0.2151 -0.1548
 9381SOL    HW139605   2.694   2.838   5.156 -0.3233  0.4913 -2.0519
 9381SOL    HW239606   2.627   2.951   5.218  1.5101 -0.6719  0.0781
 9382SOL     OW39607   0.349   2.345   6.318 -1.0221  0.0735  0.2093
 9382SOL    HW139608   0.423   2.358   6.377  0.7257  2.8036 -2.5878
 9382SOL    HW239609   0.301   2.425   6.338  2.0676  2.3837 -1.5995
 9383SOL     OW39610   4.624   3.156  16.407  0.6407  0.1354 -0.5547
 9383SOL    HW139611   4.702   3.130  16.456  0.2163 -0.5704 -0.2597
 9383SOL    HW239612   4.653   3.228  16.352  1.2507  1.2237  1.1836
 9384SOL     OW39613   4.536   0.072   3.702 -0.1722 -0.0400  0.1053
 9384SOL    HW139614   4.472   0.005   3.725 -0.5194 -0.6908 -2.7050
 9384SOL    HW239615   4.471   0.123   3.654  0.8187  0.7601 -0.3997
 9385SOL     OW39616   1.628   3.670  11.188  0.0462 -0.5052 -0.0822
 9385SOL    HW139617   1.721   3.686  11.206 -0.1700  1.3615 -0.6056
 9385SOL    HW239618   1.594   3.759  11.197  1.6714  0.1643 -0.5991
 9386SOL     OW39619   3.036   3.889  12.489 -0.4339  0.3915 -0.1215
 9386SOL    HW139620   3.111   3.849  12.444 -1.4039 -0.4809 -0.9667
 9386SOL    HW239621   3.024   3.978  12.457  2.3347  1.5889  2.1489
 9387SOL     OW39622   2.015   2.909  16.377 -0.1358  0.3980 -0.2673
 9387SOL    HW139623   1.965   2.832  16.350  1.7750 -0.6300 -0.8159
 9387SOL    HW239624   2.005   2.959  16.296 -2.9782 -2.1598 -1.4844
 9388SOL     OW39625   2.952   1.401   2.848  0.3098 -0.0861 -0.0332
 9388SOL    HW139626   2.977   1.449   2.769 -0.0853 -0.7042 -0.5400
 9388SOL    HW239627   3.030   1.352   2.875  1.3916  1.9216  0.4798
 9389SOL     OW39628   4.409   4.156  11.864  0.4283  0.8239  0.7466
 9389SOL    HW139629   4.498   4.125  11.880  0.0576 -0.1660  0.8385
 9389SOL    HW239630   4.433   4.217  11.794 -1.1433  0.2310 -0.3113
 9390SOL     OW39631   1.084   0.085   4.002  0.2482 -0.7420 -0.1401
 9390SOL    HW139632   1.172   0.063   3.969  0.2826 -0.7595 -0.0363
 9390SOL    HW239633   1.081   0.075   4.097 -0.0899 -1.1654 -0.1934
 9391SOL     OW39634   2.205   3.289   2.247  0.1802 -0.2982  0.0047
 9391SOL    HW139635   2.237   3.317   2.161  1.5438 -2.0172 -0.0496
 9391SOL    HW239636   2.280   3.304   2.305  0.7357  2.1334 -1.3431
 9392SOL     OW39637   3.899   2.909   5.922  0.5238  0.2543 -0.0325
 9392SOL    HW139638   3.905   2.832   5.866 -0.9497  1.4278 -1.7998
 9392SOL    HW239639   3.831   2.882   5.984 -1.3834  2.2460 -1.2439
 9393SOL     OW39640   2.676   2.786  14.439  0.2643 -0.0806 -0.5113
 9393SOL    HW139641   2.639   2.864  14.397  0.5849  0.6750  0.6007
 9393SOL    HW239642   2.608   2.766  14.503 -1.4108  0.2985 -2.1677
 9394SOL     OW39643   4.595   4.347  13.538 -0.2277 -0.3795 -0.2818
 9394SOL    HW139644   4.525   4.330  13.474 -0.8736  1.2143 -0.0040
 9394SOL    HW239645   4.669   4.334  13.479  1.6103 -1.9633  2.4041
 9395SOL     OW39646   1.873   3.176   7.394 -0.0984 -0.1541 -0.1160
 9395SOL    HW139647   1.968   3.171   7.381 -0.1000  0.5047 -0.3511
 9395SOL    HW239648   1.847   3.195   7.304 -0.3910 -0.4237 -0.0907
 9396SOL     OW39649   3.083   3.708  14.350 -0.3177  0.1099 -1.0133
 9396SOL    HW139650   3.093   3.741  14.261 -1.7887 -1.5020 -1.7894
 9396SOL    HW239651   3.089   3.788  14.402  1.3122  0.0820 -1.1630
 9397SOL     OW39652   4.047   3.987   1.803  0.3662 -0.2236 -0.1410
 9397SOL    HW139653   4.055   3.894   1.823  0.8754 -0.3109 -0.7654
 9397SOL    HW239654   4.082   3.983   1.714  0.0639  1.1646 -0.3298
 9398SOL     OW39655   2.180   1.512   8.204 -0.5779 -0.0459 -0.0582
 9398SOL    HW139656   2.274   1.525   8.191 -0.6646  1.8110  1.2533
 9398SOL    HW239657   2.181   1.423   8.240 -1.0549 -0.4629 -1.0541
 9399SOL     OW39658   1.236   3.780   7.959 -0.3389  0.0633  0.5250
 9399SOL    HW139659   1.255   3.735   8.042 -1.0162  0.9902  1.1882
 9399SOL    HW239660   1.285   3.720   7.903 -0.0646 -0.8930  1.7799
 9400SOL     OW39661   0.153   2.149   8.474 -0.4182  0.1052  0.3632
 9400SOL    HW139662   0.094   2.216   8.507  0.2029  1.9849 -2.2879
 9400SOL    HW239663   0.104   2.068   8.459  0.0490 -0.1136 -0.0131
 9401SOL     OW39664   0.804   3.580   8.414  0.0601  0.1270  0.2626
 9401SOL    HW139665   0.857   3.657   8.436  2.8039 -2.1771  1.6776
 9401SOL    HW239666   0.726   3.597   8.468 -0.2959 -0.6424 -0.0122
 9402SOL     OW39667   2.265   2.270   1.677 -0.0001 -0.3486 -0.5578
 9402SOL    HW139668   2.214   2.189   1.674 -1.2849  0.4018  0.8705
 9402SOL    HW239669   2.345   2.255   1.727  0.3712  0.7944 -0.7994
 9403SOL     OW39670   3.198   3.617   7.466  0.2991  0.2152  0.2030
 9403SOL    HW139671   3.123   3.560   7.451  0.1699 -0.1580  2.2755
 9403SOL    HW239672   3.212   3.617   7.561 -3.4209 -0.9010  0.7566
 9404SOL     OW39673   0.909   1.820   6.097  0.5625  0.7286 -0.6096
 9404SOL    HW139674   0.969   1.884   6.136  0.2020 -0.3028  1.6327
 9404SOL    HW239675   0.915   1.755   6.167 -0.7882 -0.1501 -1.3272
 9405SOL     OW39676   1.992   3.506  11.967 -0.3173 -0.1701 -0.1593
 9405SOL    HW139677   1.981   3.435  12.031 -0.8525  0.4068  0.3838
 9405SOL    HW239678   2.079   3.481  11.935 -0.1051  0.1775  0.1498
 9406SOL     OW39679   4.463   3.185   8.187  0.0707  0.9773 -0.0203
 9406SOL    HW139680   4.391   3.166   8.247 -1.0961  2.1949 -1.0418
 9406SOL    HW239681   4.523   3.117   8.217  0.2442  2.3501  2.6838
 9407SOL     OW39682   0.872   4.537   0.686  0.3222 -0.3293  0.2713
 9407SOL    HW139683   0.959   4.533   0.646  0.1909 -4.3704  0.4449
 9407SOL    HW239684   0.886   4.541   0.780  0.9892 -1.4348  0.2247
 9408SOL     OW39685   3.469   0.855   4.792 -0.8753  0.4487  0.1685
 9408SOL    HW139686   3.556   0.867   4.829  0.0735 -2.3073 -1.2239
 9408SOL    HW239687   3.487   0.854   4.698  0.0485  3.4696  0.3195
 9409SOL     OW39688   0.526   4.042   6.929  0.0930 -0.2977  0.0892
 9409SOL    HW139689   0.596   4.020   6.867 -0.0450 -0.8631  0.1266
 9409SOL    HW239690   0.463   3.973   6.908  2.3582 -2.2372 -0.3394
 9410SOL     OW39691   4.073   3.238   8.997  0.2618 -0.3860 -0.0439
 9410SOL    HW139692   4.016   3.163   8.980  0.2630 -0.4424  0.1920
 9410SOL    HW239693   4.001   3.300   8.998  0.6169  0.0129  0.9403
 9411SOL     OW39694   4.021   4.108   5.816 -0.1049  0.3477  0.0624
 9411SOL    HW139695   4.039   4.076   5.728 -1.4070 -0.1792 -0.0112
 9411SOL    HW239696   4.102   4.077   5.858  1.4274  0.5336 -2.7935
 9412SOL     OW39697   2.326   4.081   1.614 -0.0591  0.4294 -0.1785
 9412SOL    HW139698   2.414   4.084   1.578  0.5482 -1.1614  1.1661
 9412SOL    HW239699   2.341   4.109   1.704  1.7065  0.7224 -0.5631
 9413SOL     OW39700   3.987   0.205   9.242 -0.1915 -0.1252 -0.4645
 9413SOL    HW139701   4.025   0.216   9.330  2.7220 -0.7322 -1.6385
 9413SOL    HW239702   3.978   0.296   9.213 -1.3387  0.0107  0.3264
 9414SOL     OW39703   2.050   2.312   7.511  0.1818  0.0210  0.3288
 9414SOL    HW139704   1.986   2.289   7.443 -0.1303 -0.2429  0.7077
 9414SOL    HW239705   2.120   2.257   7.476 -0.1500 -0.0717 -0.1840
 9415SOL     OW39706   1.107   2.762  17.429  0.0277  0.8165 -0.3646
 9415SOL    HW139707   1.182   2.709  17.402 -0.6224 -0.9825  1.3769
 9415SOL    HW239708   1.142   2.847  17.455  1.6495 -0.5722  1.9252
 9416SOL     OW39709   0.084   3.737   6.897  0.2969 -0.3616  0.3663
 9416SOL    HW139710   0.066   3.825   6.862 -0.6911 -0.9495 -0.5927
 9416SOL    HW239711   0.116   3.691   6.819  1.6290 -0.7630  1.1516
 9417SOL     OW39712   3.974   4.672  12.078  0.5614 -0.4847  0.1921
 9417SOL    HW139713   3.922   4.613  12.133  1.3656 -0.5553  0.8736
 9417SOL    HW239714   4.051   4.697  12.129  1.7687  2.0799 -2.8735
 9418SOL     OW39715   1.388   3.927   7.260 -0.4994  0.4601  0.1626
 9418SOL    HW139716   1.446   4.003   7.252 -0.4505  0.5503  1.4071
 9418SOL    HW239717   1.442   3.854   7.291 -0.9980 -0.6524 -1.5780
 9419SOL     OW39718   0.123   2.697   7.728 -0.3692  0.2026  0.4734
 9419SOL    HW139719   0.101   2.789   7.717 -0.4364  0.3313  1.6657
 9419SOL    HW239720   0.209   2.680   7.690 -0.2101  1.9323  0.0945
 9420SOL     OW39721   4.035   2.616   4.314 -0.2618 -0.4919 -0.1777
 9420SOL    HW139722   4.031   2.692   4.372  0.0201  1.1647 -2.3630
 9420SOL    HW239723   3.941   2.599   4.304 -0.4600  1.3416 -1.3356
 9421SOL     OW39724   3.516   0.185  15.573 -0.3699  0.0667 -0.5189
 9421SOL    HW139725   3.572   0.169  15.649 -1.7239 -0.5511  0.3520
 9421SOL    HW239726   3.578   0.149  15.509  1.0881  1.3907  0.1648
 9422SOL     OW39727   1.237   3.484   1.683  0.1916 -0.4418  0.0785
 9422SOL    HW139728   1.144   3.462   1.676  0.5162 -1.9944  0.6906
 9422SOL    HW239729   1.273   3.429   1.753  2.0575  0.0022 -0.5325
 9423SOL     OW39730   0.172   2.519  13.566  0.2329  0.7032  0.1098
 9423SOL    HW139731   0.177   2.604  13.610 -0.3443  0.0920  1.3681
 9423SOL    HW239732   0.121   2.553  13.492 -0.2583 -0.9248 -0.2906
 9424SOL     OW39733   3.433   2.732  16.540 -0.3527 -0.7904 -0.6600
 9424SOL    HW139734   3.404   2.787  16.467  1.4770  0.1994 -0.6263
 9424SOL    HW239735   3.467   2.659  16.487 -0.4052  0.0414 -1.8370
 9425SOL     OW39736   0.939   0.139   8.984 -0.2015  0.4228  0.1599
 9425SOL    HW139737   1.000   0.184   8.926 -1.3189  1.7810  0.0482
 9425SOL    HW239738   0.961   0.189   9.062 -0.6537  1.5710 -0.4575
 9426SOL     OW39739   1.818   4.372   4.331 -0.4227 -0.2958  0.0276
 9426SOL    HW139740   1.904   4.407   4.310 -0.9984  0.2979 -1.3747
 9426SOL    HW239741   1.755   4.426   4.284  0.1479  1.5967  1.4419
 9427SOL     OW39742   1.587   0.324   5.086 -0.7248 -0.5074 -0.3782
 9427SOL    HW139743   1.502   0.341   5.045 -0.0646  2.9052 -0.3522
 9427SOL    HW239744   1.596   0.413   5.121  1.1016 -1.1577  0.7623
 9428SOL     OW39745   1.848   2.646  13.786 -0.4091  0.4179  0.2003
 9428SOL    HW139746   1.919   2.586  13.811 -0.1708 -1.5680 -5.2559
 9428SOL    HW239747   1.781   2.621  13.850 -0.0191 -0.5532  0.2303
 9429SOL     OW39748   2.540   1.978  15.829 -0.4361  0.1813 -0.0804
 9429SOL    HW139749   2.453   1.982  15.790 -0.6688 -0.3806  0.3827
 9429SOL    HW239750   2.590   1.963  15.749  1.5120  2.0061  0.7885
 9430SOL     OW39751   1.954   0.020   1.775  0.1962 -0.3437 -0.0804
 9430SOL    HW139752   2.039   4.709   1.802  1.6554  2.4679 -1.1742
 9430SOL    HW239753   1.989   0.100   1.737 -0.7791 -1.2514 -2.9253
 9431SOL     OW39754   2.446   3.679   8.396  0.7439 -0.3246 -0.2427
 9431SOL    HW139755   2.397   3.760   8.393  2.2664  0.5575 -1.7124
 9431SOL    HW239756   2.378   3.613   8.410  1.1312 -1.2358 -2.6795
 9432SOL     OW39757   4.537   2.668   3.818 -0.3334  0.0736 -0.2584
 9432SOL    HW139758   4.457   2.615   3.808 -1.4009  1.6141  0.2688
 9432SOL    HW239759   4.510   2.751   3.779 -0.6885  0.9772  1.9420
 9433SOL     OW39760   0.547   4.098   5.528  0.2307  0.0855  0.1942
 9433SOL    HW139761   0.580   4.069   5.613 -0.6418  1.2261  0.9107
 9433SOL    HW239762   0.617   4.072   5.468  0.9514 -0.2389  1.1728
 9434SOL     OW39763   2.951   2.642   0.762  0.1401  0.3630 -0.3735
 9434SOL    HW139764   2.923   2.648   0.853  1.5958  0.1086  0.0963
 9434SOL    HW239765   2.865   2.620   0.727  0.9528 -0.8275 -1.6291
 9435SOL     OW39766   3.377   2.914   7.452 -0.3555 -0.1068  0.1984
 9435SOL    HW139767   3.311   2.856   7.492  0.0397 -1.4309 -1.0544
 9435SOL    HW239768   3.369   2.985   7.516  3.3467 -0.9443  1.5611
 9436SOL     OW39769   1.796   2.870  17.445  0.0821 -0.0362 -0.6948
 9436SOL    HW139770   1.864   2.906  17.388  1.3611  1.7520  1.9661
 9436SOL    HW239771   1.796   2.929  17.520  1.6279  1.0782 -1.5724
 9437SOL     OW39772   0.735   4.197   0.682 -0.2082  0.3191  0.4308
 9437SOL    HW139773   0.808   4.164   0.735 -2.0699 -1.0689  2.1698
 9437SOL    HW239774   0.733   4.122   0.623  0.6245  0.9047 -0.3364
 9438SOL     OW39775   0.587   2.579   0.695  0.2427  0.0144 -0.4308
 9438SOL    HW139776   0.622   2.623   0.772  0.5075 -0.3766 -0.3298
 9438SOL    HW239777   0.597   2.491   0.732 -2.2735 -0.6802 -1.3547
 9439SOL     OW39778   4.519   1.815   6.497  0.2129 -0.2376  0.2565
 9439SOL    HW139779   4.490   1.882   6.559  0.5226  1.0205 -0.9482
 9439SOL    HW239780   4.451   1.750   6.514  0.6079 -0.4773  0.8847
 9440SOL     OW39781   3.189   3.965   3.851 -1.0145  1.2934 -0.1700
 9440SOL    HW139782   3.207   3.872   3.840  0.0674  1.4171  0.5143
 9440SOL    HW239783   3.245   3.989   3.777 -0.6956  2.1587  0.3472
 9441SOL     OW39784   3.782   2.793  13.161 -0.8208 -0.3498 -0.1484
 9441SOL    HW139785   3.779   2.763  13.070  1.2198  0.0088 -0.3303
 9441SOL    HW239786   3.706   2.851  13.162 -1.8640 -1.7814  2.3850
 9442SOL     OW39787   3.387   3.989   8.811  0.0594  0.0385  0.6614
 9442SOL    HW139788   3.333   3.915   8.838  1.4770 -1.1159  0.3413
 9442SOL    HW239789   3.364   4.061   8.869 -2.6177 -0.4928  0.2259
 9443SOL     OW39790   3.132   4.575   1.603  0.6640 -0.4106  0.0955
 9443SOL    HW139791   3.116   4.544   1.514  0.3257 -2.7555  0.9893
 9443SOL    HW239792   3.101   4.505   1.660 -2.5161  0.7663 -0.1761
 9444SOL     OW39793   0.906   1.261  16.861 -0.4465 -0.1828  0.1616
 9444SOL    HW139794   0.901   1.167  16.842  0.2259 -1.1106  4.4690
 9444SOL    HW239795   0.826   1.276  16.911 -0.8343  1.6862 -1.0440
 9445SOL     OW39796   3.653   0.940   5.177 -0.0955 -0.2672  0.4367
 9445SOL    HW139797   3.746   0.948   5.195  0.4575 -1.4169 -1.8404
 9445SOL    HW239798   3.654   0.917   5.084  3.3204  2.5958 -0.2326
 9446SOL     OW39799   1.867   2.951   0.769  0.7255 -0.3701  0.4568
 9446SOL    HW139800   1.779   2.966   0.804 -0.0662 -0.8772 -1.2919
 9446SOL    HW239801   1.841   2.935   0.678  0.3692  1.7690  0.1911
 9447SOL     OW39802   1.430   0.848  11.704 -0.0010 -0.2024  0.1992
 9447SOL    HW139803   1.438   0.795  11.625  0.1791 -0.8943  0.6879
 9447SOL    HW239804   1.411   0.776  11.764 -1.4957 -2.3155 -2.8343
 9448SOL     OW39805   4.177   3.489   6.265 -0.4899  0.1139  0.0389
 9448SOL    HW139806   4.143   3.426   6.201  0.2927 -0.0654 -0.2064
 9448SOL    HW239807   4.245   3.535   6.216 -1.3721 -0.8330 -2.0736
 9449SOL     OW39808   1.496   3.660  10.921  0.0986  0.2325  0.4011
 9449SOL    HW139809   1.539   3.661  11.007 -0.3423 -0.5237  0.6311
 9449SOL    HW239810   1.543   3.724  10.867 -1.0765  1.1295  0.4502
 9450SOL     OW39811   0.467   4.602   6.129  0.2392  0.4233 -0.1230
 9450SOL    HW139812   0.372   4.595   6.138  0.3642  0.5589  1.2711
 9450SOL    HW239813   0.476   4.599   6.034  0.2469  0.8082 -0.1350
 9451SOL     OW39814   1.252   2.455   6.116  0.1131 -0.0771  0.0647
 9451SOL    HW139815   1.296   2.528   6.161  1.9500 -1.0892 -0.0864
 9451SOL    HW239816   1.246   2.398   6.192 -1.0923 -0.8551 -0.6194
 9452SOL     OW39817   2.116   0.726   7.203 -0.0666  0.2021  0.6358
 9452SOL    HW139818   2.048   0.664   7.229  1.4274 -1.0015  1.6876
 9452SOL    HW239819   2.193   0.669   7.196 -1.1867 -1.3053  0.4623
 9453SOL     OW39820   3.124   4.346  10.864  0.4411  0.2690 -0.3784
 9453SOL    HW139821   3.195   4.351  10.800 -0.5422  0.5222 -1.4402
 9453SOL    HW239822   3.164   4.288  10.929  1.4465  2.2105  0.7332
 9454SOL     OW39823   1.816   0.710  10.902 -0.1733  0.4635  0.2024
 9454SOL    HW139824   1.737   0.703  10.955 -0.9365  1.7102 -0.7935
 9454SOL    HW239825   1.827   0.625  10.858  1.4061 -0.0711  1.5972
 9455SOL     OW39826   2.257   2.347   7.147  0.4150 -0.0817  0.2887
 9455SOL    HW139827   2.186   2.284   7.149 -0.0068  0.3677 -0.6041
 9455SOL    HW239828   2.206   2.425   7.125  0.7567 -0.5010 -1.9647
 9456SOL     OW39829   2.582   3.045  17.370 -0.2878 -0.4009  0.0055
 9456SOL    HW139830   2.669   3.006  17.376  0.1796  0.3626 -1.7329
 9456SOL    HW239831   2.561   3.004  17.286 -1.6717 -1.3731  0.8246
 9457SOL     OW39832   2.499   3.075   7.588 -0.3001 -1.2038 -0.1838
 9457SOL    HW139833   2.529   2.990   7.619 -1.6881 -0.3302  3.5478
 9457SOL    HW239834   2.478   3.116   7.672 -0.5336  0.2298 -0.9409
 9458SOL     OW39835   4.547   1.650   5.829 -0.4451  0.3919 -0.4490
 9458SOL    HW139836   4.587   1.724   5.874  0.4655 -0.2414 -0.2256
 9458SOL    HW239837   4.595   1.571   5.853 -0.3363  0.7284  0.4271
 9459SOL     OW39838   1.436   2.626  15.824 -0.8840 -0.0195  0.2857
 9459SOL    HW139839   1.371   2.585  15.767  0.9541 -1.7590 -0.5510
 9459SOL    HW239840   1.508   2.564  15.829 -0.0037  0.8768 -1.2495
 9460SOL     OW39841   3.761   4.575   1.829  0.1417  0.1917 -0.7912
 9460SOL    HW139842   3.825   4.620   1.884 -1.1069 -1.7908  2.3454
 9460SOL    HW239843   3.730   4.502   1.884 -1.8756  0.6754 -1.2691
 9461SOL     OW39844   0.888   0.878   1.393 -0.4395 -0.2281  0.3586
 9461SOL    HW139845   0.945   0.887   1.317  0.6353 -0.4300  1.1257
 9461SOL    HW239846   0.851   0.965   1.403  0.6456 -0.0234  2.6881
 9462SOL     OW39847   1.148   2.728   5.143 -0.3610 -0.4231  0.0702
 9462SOL    HW139848   1.062   2.769   5.130 -0.3410  0.6616  3.4458
 9462SOL    HW239849   1.121   2.637   5.134 -0.3800 -0.5906  1.8502
 9463SOL     OW39850   4.322   4.494   5.037  0.2998  0.1739 -0.2467
 9463SOL    HW139851   4.277   4.475   4.955  0.7008  2.9979 -1.1385
 9463SOL    HW239852   4.269   4.569   5.065 -0.9731 -0.7236 -0.2835
 9464SOL     OW39853   4.316   3.872   2.165 -0.4354 -0.0660  0.1523
 9464SOL    HW139854   4.246   3.932   2.140  0.0659  0.6874  0.5748
 9464SOL    HW239855   4.357   3.916   2.240 -0.2884 -0.3406  0.2339
 9465SOL     OW39856   3.190   1.367   2.660  0.2184 -0.7876 -0.1336
 9465SOL    HW139857   3.127   1.300   2.633  0.4276 -1.1797  0.3456
 9465SOL    HW239858   3.173   1.440   2.601  0.7781 -0.2908  0.3120
 9466SOL     OW39859   2.834   4.043  16.851  0.2976 -0.7269 -0.0974
 9466SOL    HW139860   2.833   4.133  16.884  0.2718 -0.4297 -0.9108
 9466SOL    HW239861   2.928   4.032  16.863  0.4443  1.2259  0.6519
 9467SOL     OW39862   1.682   4.011  15.506 -0.6232 -0.3398 -0.0289
 9467SOL    HW139863   1.711   4.094  15.470  1.5937 -1.9060 -1.8818
 9467SOL    HW239864   1.683   3.939  15.442 -2.4656 -0.0850 -0.3702
 9468SOL     OW39865   1.497   0.703   7.662 -0.0617 -0.1779  0.3649
 9468SOL    HW139866   1.484   0.669   7.573 -0.1413  0.8716 -0.0220
 9468SOL    HW239867   1.473   0.621   7.706  0.9806  0.3185  1.8757
 9469SOL     OW39868   3.299   0.894   3.201 -0.0008 -0.2592  0.7878
 9469SOL    HW139869   3.379   0.867   3.156  0.1312  1.9905 -0.3376
 9469SOL    HW239870   3.230   0.876   3.138 -0.0315  2.4527  0.0730
 9470SOL     OW39871   3.252   0.241   0.313  0.2217  0.2168 -0.0964
 9470SOL    HW139872   3.203   0.324   0.312 -1.4354 -0.7413  1.0080
 9470SOL    HW239873   3.309   0.252   0.238  0.7113  0.4433  0.3094
 9471SOL     OW39874   0.626   0.104   7.864  0.4163  0.0550 -0.2509
 9471SOL    HW139875   0.537   0.102   7.899 -0.3084  1.3730 -2.0100
 9471SOL    HW239876   0.598   0.120   7.774  0.3690  0.4077 -0.1722
 9472SOL     OW39877   1.497   2.461   3.318 -0.4947 -0.2424 -0.3700
 9472SOL    HW139878   1.412   2.471   3.275 -0.3566  2.2391 -0.0681
 9472SOL    HW239879   1.508   2.539   3.373  1.1981 -0.6252 -0.1827
 9473SOL     OW39880   3.838   3.260   5.957 -0.0561  0.3959  0.0336
 9473SOL    HW139881   3.866   3.297   5.873  1.1051  1.0165  0.6953
 9473SOL    HW239882   3.783   3.187   5.928 -1.2721  0.3669  2.4529
 9474SOL     OW39883   3.512   2.771   8.472  0.6458 -0.2785 -0.9996
 9474SOL    HW139884   3.568   2.848   8.465  0.7606 -0.2157  0.6101
 9474SOL    HW239885   3.572   2.697   8.462  0.3196 -0.7629  0.6410
 9475SOL     OW39886   1.438   1.171  11.259 -0.1599 -0.0065 -0.4420
 9475SOL    HW139887   1.488   1.223  11.322 -1.0488 -1.9776  1.9251
 9475SOL    HW239888   1.488   1.188  11.180  0.8052  1.6876  0.5310
 9476SOL     OW39889   3.863   3.987   6.764 -0.2867  0.3175  0.2322
 9476SOL    HW139890   3.779   3.974   6.807  0.6825 -2.6126  1.2478
 9476SOL    HW239891   3.836   4.004   6.674  1.9465  0.3177 -0.4469
 9477SOL     OW39892   3.612   0.121  13.391  0.2450 -0.4669  0.3657
 9477SOL    HW139893   3.552   0.047  13.379  2.2159 -1.9797 -0.2156
 9477SOL    HW239894   3.698   0.087  13.365  1.0939  1.7378  0.3153
 9478SOL     OW39895   4.333   0.033   1.274  0.1066  0.0710  0.0151
 9478SOL    HW139896   4.327   0.127   1.258  0.1282 -0.0347 -0.6077
 9478SOL    HW239897   4.263   4.722   1.219 -0.2514 -0.5771  0.8648
 9479SOL     OW39898   1.171   3.665   6.431 -0.2391 -0.2902  0.1466
 9479SOL    HW139899   1.104   3.656   6.363 -0.3246  1.9941 -0.0629
 9479SOL    HW239900   1.194   3.574   6.447  2.7064  0.6274  1.0908
 9480SOL     OW39901   2.408   2.635   7.354  0.6330  0.1646 -0.3889
 9480SOL    HW139902   2.487   2.653   7.304  0.4550  1.4620 -0.1981
 9480SOL    HW239903   2.347   2.697   7.314  0.3971 -0.8474 -1.6114
 9481SOL     OW39904   2.667   2.736   5.438  0.0356 -0.2598 -0.0703
 9481SOL    HW139905   2.741   2.689   5.399  0.6999 -0.5813  1.5903
 9481SOL    HW239906   2.627   2.777   5.361 -0.4019  1.4488  1.0414
 9482SOL     OW39907   1.458   0.432   5.617  0.1227  0.4512 -0.0982
 9482SOL    HW139908   1.552   0.445   5.633  0.2454 -0.3106 -0.1830
 9482SOL    HW239909   1.428   0.523   5.619 -1.9148 -0.1574 -2.6760
 9483SOL     OW39910   2.883   4.167   2.195 -0.0673 -0.2193  0.4893
 9483SOL    HW139911   2.851   4.120   2.272  0.6094  0.2192  1.0328
 9483SOL    HW239912   2.895   4.253   2.236  2.6140 -1.3738  2.1118
 9484SOL     OW39913   3.069   2.217   1.801 -0.2187  0.1203 -0.0749
 9484SOL    HW139914   3.021   2.218   1.718 -0.7244 -0.4761  0.2142
 9484SOL    HW239915   3.101   2.127   1.797 -2.0564 -0.3532 -3.8787
 9485SOL     OW39916   2.955   4.022   3.772  0.0170 -0.0185 -0.4289
 9485SOL    HW139917   2.981   4.090   3.710 -0.3700 -1.0727 -1.7375
 9485SOL    HW239918   3.041   3.994   3.804 -0.3818 -1.5635 -0.7004
 9486SOL     OW39919   2.159   2.498  11.768  0.4403  0.4143 -0.4998
 9486SOL    HW139920   2.135   2.584  11.802  0.5433  1.2380 -2.5188
 9486SOL    HW239921   2.086   2.476  11.711  0.3738  3.3150 -1.5102
 9487SOL     OW39922   3.573   4.482   7.176 -0.2682  0.6310 -0.4731
 9487SOL    HW139923   3.664   4.496   7.152 -0.2151 -0.6070 -0.9913
 9487SOL    HW239924   3.539   4.568   7.154 -0.3703  1.4436  2.8977
 9488SOL     OW39925   3.843   0.674   6.536 -0.5492 -0.0279  0.2127
 9488SOL    HW139926   3.861   0.598   6.481 -1.7770  0.4602 -0.8649
 9488SOL    HW239927   3.777   0.634   6.591 -0.9727 -1.5874 -1.4383
 9489SOL     OW39928   1.528   2.773   7.330 -0.1035  0.4445 -0.0239
 9489SOL    HW139929   1.533   2.748   7.423  2.6369 -0.2713 -0.3754
 9489SOL    HW239930   1.440   2.742   7.310  0.5153  0.2263 -2.4010
 9490SOL     OW39931   2.911   0.717   8.975  0.0225 -0.3571  0.0401
 9490SOL    HW139932   2.927   0.794   8.920 -0.6853 -0.6215 -0.5336
 9490SOL    HW239933   2.985   0.662   8.949 -1.9861 -1.6663 -2.8668
 9491SOL     OW39934   3.095   3.932   0.303 -0.3979  0.1912 -0.4150
 9491SOL    HW139935   3.006   3.909   0.329  0.4650 -0.7611  1.7446
 9491SOL    HW239936   3.107   4.002   0.366 -1.4220  0.1648 -0.1937
 9492SOL     OW39937   4.151   3.191  14.924  0.2318 -0.2161 -0.0653
 9492SOL    HW139938   4.158   3.180  14.829  2.2246  1.3782 -0.1008
 9492SOL    HW239939   4.075   3.134  14.939 -0.6971  0.7773 -0.9347
 9493SOL     OW39940   2.186   3.784   8.959 -0.2445  0.1695 -0.3738
 9493SOL    HW139941   2.125   3.783   8.885  0.7730 -0.3698 -1.2103
 9493SOL    HW239942   2.210   3.692   8.972  3.0696  0.8931 -1.2138
 9494SOL     OW39943   2.392   0.077   0.578  0.3653 -0.1197 -0.3300
 9494SOL    HW139944   2.395   0.001   0.520  0.2440  1.1250 -1.9549
 9494SOL    HW239945   2.382   0.043   0.667 -1.0843 -0.2934 -0.5594
 9495SOL     OW39946   2.878   0.956   5.937 -0.2422  0.2527 -0.0167
 9495SOL    HW139947   2.941   0.950   5.865 -0.3584  1.6381 -0.2192
 9495SOL    HW239948   2.866   1.048   5.961 -0.0417  0.6178 -1.3048
 9496SOL     OW39949   3.146   2.481   2.520 -0.0958  0.4821  0.1087
 9496SOL    HW139950   3.090   2.510   2.448  0.2636  1.7137  0.3326
 9496SOL    HW239951   3.086   2.485   2.595 -0.2380 -1.0625  0.0848
 9497SOL     OW39952   4.411   3.418  10.254 -0.3635 -0.0648  0.5839
 9497SOL    HW139953   4.439   3.475  10.183  0.9563 -0.9921  0.3578
 9497SOL    HW239954   4.326   3.459  10.274 -1.3358 -2.3497  1.1617
 9498SOL     OW39955   1.284   1.781  14.305  0.6488  0.4230  0.4438
 9498SOL    HW139956   1.293   1.688  14.326 -2.0856 -0.0921 -0.7634
 9498SOL    HW239957   1.249   1.786  14.216 -1.7870 -0.3236  1.3657
 9499SOL     OW39958   4.520   0.243  15.534  0.7936  0.3113  0.5065
 9499SOL    HW139959   4.615   0.240  15.542  0.8580  0.6108 -0.1966
 9499SOL    HW239960   4.509   0.338  15.541  1.2658  0.4053 -0.1030
 9500SOL     OW39961   1.763   4.167   6.843  0.2979  0.6838 -0.4619
 9500SOL    HW139962   1.686   4.205   6.801  1.0949  1.7216 -1.0057
 9500SOL    HW239963   1.821   4.243   6.850 -1.8222  2.3390 -0.8725
 9501SOL     OW39964   3.992   0.272  15.487 -0.6807 -0.3771 -0.2686
 9501SOL    HW139965   4.009   0.189  15.531  2.0429  0.9542  1.1994
 9501SOL    HW239966   4.079   0.312  15.489 -0.3858 -1.0348  0.1780
 9502SOL     OW39967   1.071   2.273  12.693  0.1841 -0.3299  0.1708
 9502SOL    HW139968   1.082   2.184  12.659 -1.4233 -0.8151  0.9653
 9502SOL    HW239969   1.166   2.289  12.691 -0.1279  1.3285 -2.3184
 9503SOL     OW39970   0.701   1.213   5.152  0.1301 -0.1397  0.0595
 9503SOL    HW139971   0.703   1.235   5.059  0.4337 -0.2127  0.0481
 9503SOL    HW239972   0.607   1.219   5.171 -0.3636  1.0772 -2.8160
 9504SOL     OW39973   0.625   2.186  15.821 -0.9334  0.3902  0.5725
 9504SOL    HW139974   0.567   2.213  15.892  0.1127  0.6542  1.3218
 9504SOL    HW239975   0.565   2.138  15.764  2.1515 -1.0420 -1.4437
 9505SOL     OW39976   3.634   1.074   3.490  0.3056 -0.5158 -0.3277
 9505SOL    HW139977   3.707   1.046   3.435  0.6186  1.6245 -0.9998
 9505SOL    HW239978   3.686   1.121   3.556  1.6934 -1.2206 -0.9256
 9506SOL     OW39979   4.713   4.317   8.733 -0.1398  0.0704 -0.0829
 9506SOL    HW139980   0.041   4.384   8.688  1.6309 -1.2936 -0.1087
 9506SOL    HW239981   0.049   4.244   8.714  2.0209  1.4542  1.3178
 9507SOL     OW39982   1.620   4.238   5.865  0.6692 -0.2887  0.0055
 9507SOL    HW139983   1.537   4.271   5.829  2.8726  1.0420 -3.8462
 9507SOL    HW239984   1.674   4.220   5.787  1.7466 -1.2437  0.9796
 9508SOL     OW39985   0.496   1.029  14.732 -0.3530  0.2931 -0.2823
 9508SOL    HW139986   0.552   0.980  14.793  0.0282 -0.7516 -1.4702
 9508SOL    HW239987   0.430   0.964  14.711  0.4564 -1.5188  2.6838
 9509SOL     OW39988   3.217   4.579   9.588  0.7936 -0.4078  0.2914
 9509SOL    HW139989   3.296   4.557   9.538 -0.3516  0.5251 -1.9391
 9509SOL    HW239990   3.257   4.605   9.671  1.5994  0.6564 -0.4204
 9510SOL     OW39991   0.184   1.920  15.748 -0.1334 -0.3093 -0.3371
 9510SOL    HW139992   0.274   1.892  15.766 -0.0691  0.1540  0.0570
 9510SOL    HW239993   0.160   1.852  15.685  0.8684 -0.5437 -0.4650
 9511SOL     OW39994   0.383   3.722   9.354 -0.6193 -0.5028 -0.6816
 9511SOL    HW139995   0.320   3.725   9.282  0.9627 -1.2914 -2.0940
 9511SOL    HW239996   0.321   3.703   9.424 -0.0875  1.6758  0.3955
 9512SOL     OW39997   0.556   4.719   4.994  0.3355 -0.0279 -0.0149
 9512SOL    HW139998   0.544   4.655   4.924 -2.7157  3.5116 -2.7283
 9512SOL    HW239999   0.521   4.668   5.068 -0.8439  0.9447  0.0933
 9513SOL     OW40000   0.160   3.287   6.561 -0.1039  0.3254  0.2315
 9513SOL    HW140001   0.152   3.220   6.629  1.7421  1.9262  2.0350
 9513SOL    HW240002   0.208   3.232   6.499  2.0727  1.0062  1.2988
 9514SOL     OW40003   3.497   3.847   3.356 -0.1143  0.3315  0.0537
 9514SOL    HW140004   3.530   3.759   3.341  0.9775  0.2278  3.0700
 9514SOL    HW240005   3.483   3.873   3.265  0.2930 -0.3054 -0.1807
 9515SOL     OW40006   0.886   1.838   3.959 -0.3465  0.2515  0.2292
 9515SOL    HW140007   0.955   1.775   3.981  2.2135  2.4018 -1.7430
 9515SOL    HW240008   0.858   1.802   3.875 -1.7890 -2.6422  1.9511
 9516SOL     OW40009   3.200   4.048   1.961  0.2563  0.1899 -0.3888
 9516SOL    HW140010   3.107   4.028   1.955  0.2446  0.8236 -2.2658
 9516SOL    HW240011   3.198   4.143   1.954  2.2327  0.1110 -2.0525
 9517SOL     OW40012   0.449   3.761   4.855 -0.9658 -0.1965 -0.1534
 9517SOL    HW140013   0.370   3.811   4.876  0.0007  0.3622  2.1479
 9517SOL    HW240014   0.497   3.820   4.798 -0.0983 -0.9157 -0.1586
 9518SOL     OW40015   3.878   3.856   5.219  0.1105  0.3171 -0.1834
 9518SOL    HW140016   3.802   3.852   5.278 -0.9425 -0.9215 -1.6236
 9518SOL    HW240017   3.835   3.884   5.138 -1.2119  2.2613  1.1628
 9519SOL     OW40018   4.314   1.281  13.814 -0.0219  0.5653  0.4351
 9519SOL    HW140019   4.395   1.311  13.854  0.0103  0.3377  0.5412
 9519SOL    HW240020   4.317   1.326  13.729 -1.5064  1.0420  0.6361
 9520SOL     OW40021   3.640   0.430  12.048 -0.1023 -0.5084  0.2182
 9520SOL    HW140022   3.607   0.514  12.081 -0.2209 -1.1118  1.6345
 9520SOL    HW240023   3.726   0.456  12.015 -0.4190  1.2490  0.7712
 9521SOL     OW40024   0.660   2.815   2.107 -0.3581  0.1179  0.1161
 9521SOL    HW140025   0.662   2.901   2.150 -0.2103  0.3985 -0.4544
 9521SOL    HW240026   0.637   2.758   2.180 -0.9190 -0.0308 -0.1786
 9522SOL     OW40027   0.367   1.335   7.383 -0.0647  0.3375  0.2849
 9522SOL    HW140028   0.277   1.359   7.361 -0.0131 -1.0742 -1.4546
 9522SOL    HW240029   0.386   1.393   7.457  0.8736 -0.2111  0.4770
 9523SOL     OW40030   0.148   4.427   6.566 -0.2563 -0.1044  0.2999
 9523SOL    HW140031   0.095   4.386   6.498 -0.8181 -0.7078  1.1187
 9523SOL    HW240032   0.143   4.368   6.641  2.2039 -1.4769 -0.5890
 9524SOL     OW40033   1.445   3.642   5.195  0.3449  0.3755 -0.2484
 9524SOL    HW140034   1.419   3.561   5.151  0.3957 -0.3826  1.1342
 9524SOL    HW240035   1.496   3.620   5.273  0.3313  0.2281 -0.2812
 9525SOL     OW40036   4.650   3.751   7.905 -0.3211  0.2189  0.3226
 9525SOL    HW140037   4.655   3.705   7.988 -4.3420  2.7284  1.9469
 9525SOL    HW240038   4.572   3.805   7.918 -0.6016 -0.5413  1.8143
 9526SOL     OW40039   0.517   2.903   8.985  0.5140  1.1620 -0.5037
 9526SOL    HW140040   0.525   2.860   9.070  0.5903 -0.8590 -1.5179
 9526SOL    HW240041   0.558   2.837   8.928 -0.9791 -0.3072  0.1298
 9527SOL     OW40042   3.280   0.297  10.046 -0.2335  0.0519 -0.1759
 9527SOL    HW140043   3.365   0.341  10.035  0.1963 -0.6879  0.1755
 9527SOL    HW240044   3.296   0.205  10.026  0.2740  0.4733 -1.7422
 9528SOL     OW40045   1.186   3.449   5.750 -0.3800  0.1931 -0.7127
 9528SOL    HW140046   1.097   3.482   5.738  0.5943  3.1875  0.3225
 9528SOL    HW240047   1.168   3.356   5.766 -0.0175  0.2841  0.2517
 9529SOL     OW40048   3.538   4.585   1.666 -0.7058  0.1750 -0.5940
 9529SOL    HW140049   3.614   4.599   1.722 -1.2074 -0.4982  0.2668
 9529SOL    HW240050   3.467   4.617   1.722 -1.7277 -0.7707 -1.3650
 9530SOL     OW40051   1.560   4.005   8.407 -0.2336  0.2341 -0.5369
 9530SOL    HW140052   1.629   3.943   8.383 -0.9726 -0.4184 -1.0132
 9530SOL    HW240053   1.548   4.057   8.328 -1.7558  0.6732 -0.0234
 9531SOL     OW40054   2.305   0.320   9.413  0.5893 -0.8215 -0.2542
 9531SOL    HW140055   2.352   0.359   9.339 -1.5221  1.6213 -0.2994
 9531SOL    HW240056   2.219   0.363   9.407  0.6101 -0.4955  2.0044
 9532SOL     OW40057   3.497   3.787   0.901 -0.3102 -0.5300 -0.7050
 9532SOL    HW140058   3.562   3.718   0.914  1.6091  1.5079  0.5332
 9532SOL    HW240059   3.420   3.751   0.945  0.3224  0.2488  1.0107
 9533SOL     OW40060   4.097   2.917   3.716 -0.1150 -0.2141  0.1309
 9533SOL    HW140061   4.047   2.986   3.760  0.7403 -0.7601  1.9562
 9533SOL    HW240062   4.041   2.906   3.638 -1.3309 -0.9266  1.1022
 9534SOL     OW40063   1.551   2.691   7.579  0.4301  0.0829 -0.6270
 9534SOL    HW140064   1.559   2.731   7.666  0.2176  0.3549 -0.7306
 9534SOL    HW240065   1.497   2.612   7.582  1.2763 -0.4281  1.0326
 9535SOL     OW40066   2.486   4.264   9.455 -0.3330  0.1923  0.6173
 9535SOL    HW140067   2.504   4.355   9.431  1.0615 -0.4477 -0.7543
 9535SOL    HW240068   2.522   4.268   9.544 -1.1885 -0.6488  0.9923
 9536SOL     OW40069   1.448   2.455   8.227  0.3911 -0.2127  0.8686
 9536SOL    HW140070   1.512   2.462   8.298 -0.0220  1.6285  1.0730
 9536SOL    HW240071   1.444   2.359   8.228  0.0516 -0.1926  1.6245
 9537SOL     OW40072   0.091   3.412   1.590  0.6213 -0.5894 -0.1482
 9537SOL    HW140073   0.044   3.337   1.555 -0.0618 -0.0415 -0.3844
 9537SOL    HW240074   0.160   3.427   1.525 -1.1129  1.2580 -1.5234
 9538SOL     OW40075   1.797   0.323   7.387 -0.1343  0.0749 -0.7662
 9538SOL    HW140076   1.715   0.324   7.438 -0.2828  0.0615 -1.0053
 9538SOL    HW240077   1.770   0.289   7.302  2.0225 -1.9435 -0.6074
 9539SOL     OW40078   4.158   4.222   6.611  0.7111  0.0310  0.3396
 9539SOL    HW140079   4.245   4.263   6.610  0.9913 -0.5505  1.1199
 9539SOL    HW240080   4.182   4.129   6.611 -1.1537 -0.4388  1.2923
 9540SOL     OW40081   1.202   2.341   8.049 -0.6061  0.2758  0.8162
 9540SOL    HW140082   1.253   2.303   8.120  0.3763 -1.1812 -0.6783
 9540SOL    HW240083   1.270   2.342   7.982  0.0041  1.2861  1.4468
 9541SOL     OW40084   3.492   0.039   4.415 -0.2535 -0.2087 -0.2993
 9541SOL    HW140085   3.492   0.119   4.363  0.3552  0.4366  0.6894
 9541SOL    HW240086   3.472   0.072   4.502  0.0010 -1.0525  0.0880
 9542SOL     OW40087   1.975   3.298  13.053  0.3269  0.1469 -0.3409
 9542SOL    HW140088   2.064   3.320  13.080 -0.0758 -0.9060  1.8367
 9542SOL    HW240089   1.976   3.326  12.962 -0.7736 -1.5624 -0.8760
 9543SOL     OW40090   0.030   0.967   8.781  0.5190  0.1069  0.4399
 9543SOL    HW140091   4.660   0.990   8.774  0.4250 -0.8418 -1.5143
 9543SOL    HW240092   0.033   0.938   8.872  2.8907  2.1007  0.9676
 9544SOL     OW40093   3.099   2.064   4.452  0.2030 -0.2788  0.0341
 9544SOL    HW140094   3.011   2.085   4.421  0.5216  1.2685  0.1539
 9544SOL    HW240095   3.084   1.984   4.502 -1.1356 -0.6549 -0.9903
 9545SOL     OW40096   3.780   1.880  15.660 -0.7042 -0.4687  0.2240
 9545SOL    HW140097   3.771   1.793  15.698  5.4451 -1.0473  0.3449
 9545SOL    HW240098   3.721   1.935  15.710  1.3987  0.0098  2.1797
 9546SOL     OW40099   4.245   3.615  17.552 -0.2870 -0.1180  0.2352
 9546SOL    HW140100   4.158   3.587  17.579 -0.2067  0.4090  1.0482
 9546SOL    HW240101   4.290   3.533  17.572 -1.3193  0.0073  3.1736
 9547SOL     OW40102   3.945   0.488   5.155 -0.4677 -0.2979  0.0426
 9547SOL    HW140103   3.943   0.483   5.251 -1.6583  2.9063  0.1721
 9547SOL    HW240104   3.990   0.408   5.127 -0.3582 -0.1624 -0.1670
 9548SOL     OW40105   3.383   0.151   5.105  0.2378  0.0549 -0.2790
 9548SOL    HW140106   3.297   0.138   5.065 -0.0048  0.0458  0.2404
 9548SOL    HW240107   3.361   0.227   5.158  3.0990 -0.3454  1.4807
 9549SOL     OW40108   1.605   1.674   4.665 -0.3294 -0.0090 -0.0024
 9549SOL    HW140109   1.593   1.596   4.610  0.1995 -0.1082  0.0192
 9549SOL    HW240110   1.562   1.744   4.616 -1.8578 -0.4100  0.7763
 9550SOL     OW40111   3.043   4.473  12.424 -0.8521 -0.3175  0.2878
 9550SOL    HW140112   2.997   4.429  12.496 -0.3108  0.2148  0.9670
 9550SOL    HW240113   2.995   4.437  12.349 -0.7637 -0.5807  0.3575
 9551SOL     OW40114   4.186   0.386   3.256 -0.1149 -0.5399  0.5718
 9551SOL    HW140115   4.279   0.376   3.276 -0.4417 -2.4830  1.1254
 9551SOL    HW240116   4.177   0.299   3.218 -0.1883 -0.4000  0.2740
 9552SOL     OW40117   0.194   3.444   5.231  0.1846  0.5209  0.2939
 9552SOL    HW140118   0.272   3.388   5.237 -0.1497 -0.0751 -0.9255
 9552SOL    HW240119   0.208   3.497   5.309 -2.2038 -0.5982  1.4661
 9553SOL     OW40120   0.711   1.646   8.014 -0.6579 -0.0162  0.3293
 9553SOL    HW140121   0.645   1.704   8.052 -0.9786  0.9693 -1.7531
 9553SOL    HW240122   0.659   1.610   7.942 -0.4047 -1.4723  0.8633
 9554SOL     OW40123   1.474   1.419   6.625 -0.0614  0.3620  0.4213
 9554SOL    HW140124   1.412   1.418   6.552 -0.1820  4.0216  0.4846
 9554SOL    HW240125   1.554   1.404   6.574  0.2409 -0.3032  1.0843
 9555SOL     OW40126   2.085   2.621  11.021  0.6790  0.2352  0.2897
 9555SOL    HW140127   2.055   2.531  11.009  2.0040  0.0352 -1.4652
 9555SOL    HW240128   2.179   2.607  11.029  0.1170 -1.7770  3.1352
 9556SOL     OW40129   3.118   0.157   8.192 -0.0550  0.7724 -0.1976
 9556SOL    HW140130   3.105   0.062   8.200 -1.0395  1.0495  1.4559
 9556SOL    HW240131   3.088   0.173   8.102 -0.1105 -1.8583 -0.6788
 9557SOL     OW40132   1.557   3.685   2.095 -0.4765 -0.3771 -0.0854
 9557SOL    HW140133   1.586   3.673   2.186 -4.0181  1.1810  1.2514
 9557SOL    HW240134   1.637   3.661   2.048  0.4862  2.4383  0.1402
 9558SOL     OW40135   3.819   3.313   6.693  0.3008 -0.3395  0.1970
 9558SOL    HW140136   3.845   3.304   6.601 -0.1385 -0.0601  0.0449
 9558SOL    HW240137   3.730   3.276   6.695  0.2762 -0.2844  0.1077
 9559SOL     OW40138   0.180   3.203   8.146 -0.3102  0.2614 -0.2150
 9559SOL    HW140139   0.139   3.121   8.175  0.8258 -0.3939 -0.4737
 9559SOL    HW240140   0.269   3.184   8.174 -0.4169  0.4951  0.2842
 9560SOL     OW40141   1.951   1.420   4.020  0.3819 -0.1162 -0.2342
 9560SOL    HW140142   2.010   1.349   4.048  0.5375 -0.5695 -1.7020
 9560SOL    HW240143   1.922   1.385   3.936  1.6596  0.3194 -0.8661
 9561SOL     OW40144   2.433   4.094   9.219  0.1526  0.1514  0.4143
 9561SOL    HW140145   2.449   4.129   9.307 -2.3311  0.4740  0.7350
 9561SOL    HW240146   2.429   4.180   9.176 -2.4427 -1.2137 -2.0887
 9562SOL     OW40147   4.638   0.807  17.545  0.5439  0.2213 -0.4257
 9562SOL    HW140148   0.001   0.796  17.503  1.4431  0.8915  1.2497
 9562SOL    HW240149   4.677   0.851  17.621 -0.2034 -2.0739  1.2780
 9563SOL     OW40150   2.226   3.411   5.774  0.0791  0.0459 -0.8308
 9563SOL    HW140151   2.280   3.487   5.750  0.7516  0.5822  2.2846
 9563SOL    HW240152   2.231   3.358   5.695  1.3125  0.6506 -1.1669
 9564SOL     OW40153   0.932   1.911   9.977 -0.1252 -0.0985  0.4269
 9564SOL    HW140154   0.886   1.948  10.053 -1.6870  0.3874 -0.7479
 9564SOL    HW240155   0.920   1.816   9.974  0.5202 -0.1204 -1.1195
 9565SOL     OW40156   2.340   1.741  12.587 -0.1091  0.0007  0.0454
 9565SOL    HW140157   2.277   1.764  12.655  0.4391  0.1477  0.5109
 9565SOL    HW240158   2.362   1.830  12.559 -0.9271  0.2963  0.3526
 9566SOL     OW40159   3.539   0.678  12.620 -0.2895 -0.4128  0.2209
 9566SOL    HW140160   3.612   0.631  12.579  1.5102  1.5892  1.1385
 9566SOL    HW240161   3.588   0.735  12.679  0.5486 -0.5871 -0.2889
 9567SOL     OW40162   3.664   1.703  11.205 -0.3861 -0.2704 -0.3038
 9567SOL    HW140163   3.631   1.622  11.245 -1.6417 -0.7048 -2.2511
 9567SOL    HW240164   3.738   1.706  11.266 -0.3023 -0.3001 -0.4049
 9568SOL     OW40165   3.968   2.924   6.378 -0.8700  0.2110  0.0102
 9568SOL    HW140166   3.891   2.907   6.431 -1.8768  0.0482 -1.4920
 9568SOL    HW240167   4.006   2.836   6.373  0.8403  0.9115  0.7512
   4.72296   4.72296  17.69378
