Membrane in water
40167
    1TCq1    O1    1   0.282   1.631  10.936  0.3720  0.0068  0.0817
    1TCq1    C1    2   0.311   1.580  11.056 -0.3876  0.4345  0.1903
    1TCq1    O2    3   0.380   1.640  11.138 -0.4429 -0.0730  0.1045
    1TCq1    C2    4   0.207   1.490  11.086  0.0811 -0.0849 -0.5167
    1TCq1    C3    5   0.173   1.388  10.998  0.4133 -0.0110  0.6282
    1TCq1    C4    6   0.072   1.302  11.027 -0.0178 -0.8646 -0.0570
    1TCq1    C5    7   0.008   1.314  11.146 -0.3423  0.6776  0.6751
    1TCq1    C6    8   0.052   1.411  11.235 -0.0090 -0.3474  0.8143
    1TCq1    C7    9   0.146   1.504  11.203 -0.2389  0.3084  0.3727
    1TCq1    C8   10   0.011   1.401  11.374  0.4291  0.0383  0.5316
    1TCq1    O4   11   4.637   1.333  11.408  0.3165 -0.1724  0.2201
    1TCq1    C9   12   0.033   1.198  10.936 -0.3839  0.8831 -0.0366
    1TCq1    O5   13   0.086   1.188  10.825  0.6398 -0.4317 -0.7653
    1TCq1    O6   14   4.676   1.110  10.989  0.5550 -0.2858 -0.3612
    1TCq1    H1   15   0.206   1.584  10.895  2.1140 -1.8555 -1.0334
    1TCq1    H2   16   0.217   1.380  10.900  0.2902  1.5955  0.4532
    1TCq1    H3   17   4.648   1.245  11.162 -0.0752  0.5225  1.3622
    1TCq1    H4   18   0.179   1.584  11.268  0.2450 -0.6183  1.2642
    2MPD2     C   19   0.111   1.494  11.863  0.1457 -0.5944 -0.2770
    2MPD2    C1   20   4.714   1.476  11.797  0.4287 -0.1709  1.2004
    2MPD2    C2   21   4.715   1.466  11.659 -0.4645 -0.9723 -0.5126
    2MPD2    C3   22   0.111   1.443  11.594  0.0676 -0.0784  0.4988
    2MPD2    C4   23   0.227   1.445  11.660  0.6896 -0.0326 -0.3755
    2MPD2    C5   24   0.233   1.475  11.795 -0.1518  0.2720  0.3953
    2MPD2     H   25   4.623   1.474  11.601 -0.4142  1.2602 -0.2688
    2MPD2    H1   26   0.322   1.431  11.609 -0.2060 -0.5058 -1.9156
    2MPD2    H2   27   0.113   1.523  11.967  0.9922  1.6202 -0.9098
    2MPD2    H3   28   0.327   1.489  11.847 -0.2510 -1.0192  0.9163
    2MPD2     N   29   0.115   1.438  11.453 -1.0095 -0.3165 -0.2871
    2MPD2    H5   30   0.201   1.451  11.400 -0.3749 -0.8423  0.6242
    2MPD2    N1   31   4.595   1.505  11.871  0.3249 -0.3999  0.4695
    2MPD2    H7   32   4.506   1.509  11.822 -0.0749  0.1812  1.2530
    3TCq1    O1   33   4.230   1.637  10.195 -0.0908 -0.0367 -0.2120
    3TCq1    C1   34   4.156   1.680  10.297  0.5816 -0.5285 -0.1438
    3TCq1    O2   35   4.056   1.625  10.342  0.1494  0.4373 -0.6769
    3TCq1    C2   36   4.238   1.773  10.373 -0.7425 -0.8726 -0.0237
    3TCq1    C3   37   4.307   1.870  10.299  0.5669 -0.0349 -0.0287
    3TCq1    C4   38   4.324   1.987  10.363  0.3952  0.8589  0.2008
    3TCq1    C5   39   4.276   2.018  10.487  0.9787 -0.5081 -0.6709
    3TCq1    C6   40   4.209   1.919  10.554 -0.3374 -0.2734 -0.5555
    3TCq1    C7   41   4.193   1.797  10.502  0.1736  0.5821  0.2788
    3TCq1    C8   42   4.139   1.957  10.676  0.1641 -0.0420 -0.0252
    3TCq1    O4   43   4.091   1.868  10.748  0.0271  0.3430 -0.0869
    3TCq1    C9   44   4.406   2.083  10.295  0.3066  0.6251  0.4479
    3TCq1    O5   45   4.387   2.202  10.334  0.5758 -0.3781 -0.0857
    3TCq1    O6   46   4.474   2.051  10.191  0.1068 -0.4230  0.0798
    3TCq1    H1   47   4.325   1.657  10.186 -0.2832  0.5652 -0.8299
    3TCq1    H2   48   4.343   1.854  10.197  0.8446 -1.1683  0.2481
    3TCq1    H3   49   4.308   2.106  10.543  2.7448 -0.0711 -2.3935
    3TCq1    H4   50   4.123   1.726  10.545  1.9213 -2.3787 -1.7190
    4MPD2     C   51   3.928   2.283  11.008 -0.4623 -0.5342 -0.2077
    4MPD2    C1   52   3.984   2.362  10.909  0.2412 -0.0204 -0.1212
    4MPD2    C2   53   4.053   2.296  10.809 -0.7128  1.4056 -0.0871
    4MPD2    C3   54   4.059   2.159  10.802  0.7607 -0.2505 -0.2143
    4MPD2    C4   55   4.000   2.081  10.904 -0.9192 -0.2896 -0.1448
    4MPD2    C5   56   3.934   2.149  11.001  1.1732 -0.1798 -0.0112
    4MPD2     H   57   4.095   2.351  10.726 -1.5633  0.6432 -1.0097
    4MPD2    H1   58   3.996   1.973  10.913  0.5723 -0.2084  1.4534
    4MPD2    H2   59   3.862   2.328  11.082  3.7050  0.9352  2.6527
    4MPD2    H3   60   3.890   2.098  11.086 -1.1382  1.3073 -0.3526
    4MPD2     N   61   4.121   2.094  10.689  0.0573 -0.1954 -0.4844
    4MPD2    H5   62   4.154   2.158  10.617 -1.1897 -2.3249 -2.9415
    4MPD2    N1   63   3.965   2.502  10.922  0.2756 -0.6878  0.1697
    4MPD2    H7   64   3.897   2.530  10.992  1.8881  1.1156  0.9899
    5TCq1    O1   65   0.300   3.674  11.845 -0.3208  0.0586 -0.1932
    5TCq1    C1   66   0.254   3.788  11.800 -0.6198 -0.1028  0.5830
    5TCq1    O2   67   0.267   3.903  11.849 -0.1291 -0.3624 -0.1211
    5TCq1    C2   68   0.141   3.766  11.713  0.0216 -0.2195  0.7932
    5TCq1    C3   69   0.023   3.826  11.750  0.6422  1.0238  0.0345
    5TCq1    C4   70   4.632   3.805  11.682 -0.0786 -0.8742 -1.1994
    5TCq1    C5   71   4.627   3.730  11.567 -0.2601 -0.5312  0.5273
    5TCq1    C6   72   0.026   3.681  11.526  0.6177  0.5333  0.3145
    5TCq1    C7   73   0.138   3.678  11.604  0.5800 -0.3777  0.1438
    5TCq1    C8   74   0.044   3.655  11.382  0.3103  0.3613 -0.9577
    5TCq1    O4   75   0.145   3.591  11.345 -0.3850 -0.2745  0.4389
    5TCq1    C9   76   4.507   3.859  11.734  0.2893  0.6053 -0.3888
    5TCq1    O5   77   4.408   3.859  11.657  0.3348  0.2003  0.6502
    5TCq1    O6   78   4.515   3.944  11.829  0.0640  0.1400 -0.0022
    5TCq1    H1   79   0.252   3.599  11.805 -1.4869 -0.5563  2.3627
    5TCq1    H2   80   0.031   3.888  11.838  2.8069  2.2145 -1.0000
    5TCq1    H3   81   4.534   3.719  11.512 -0.8637 -0.2030  1.4877
    5TCq1    H4   82   0.226   3.624  11.571 -0.5919 -2.1959  0.0204
    6MPD2     C   83   4.551   3.790  11.122 -0.7071 -0.2127  0.1624
    6MPD2    C1   84   4.659   3.720  11.172 -1.1120  0.6552  0.4870
    6MPD2    C2   85   0.026   3.650  11.087 -0.4691  0.9045 -0.1475
    6MPD2    C3   86   4.713   3.651  10.952  1.0070 -0.3310 -0.0741
    6MPD2    C4   87   4.601   3.713  10.903  0.4247 -0.3252 -0.0057
    6MPD2    C5   88   4.524   3.795  10.985 -0.4200  0.8668 -0.2494
    6MPD2     H   89   0.118   3.610  11.128 -1.8453 -0.3090  1.7774
    6MPD2    H1   90   4.575   3.716  10.797 -1.6780  0.3294  0.5318
    6MPD2    H2   91   4.498   3.844  11.199 -0.1062  0.0447  0.3885
    6MPD2    H3   92   4.440   3.849  10.941 -1.0651  0.8138  0.9251
    6MPD2     N   93   0.075   3.568  10.874 -0.2359  0.6498  0.1258
    6MPD2    H5   94   0.144   3.510  10.919  0.6232  2.2755  0.9122
    6MPD2    N1   95   4.666   3.722  11.311  0.4722 -0.2084  0.3391
    6MPD2    H7   96   4.597   3.770  11.367  0.3242 -1.7855  1.4950
    7TCq1    O1   97   2.962   3.103  13.689  0.4803 -0.0496  0.6167
    7TCq1    C1   98   2.905   3.225  13.681  0.3239 -0.2883 -0.7631
    7TCq1    O2   99   2.965   3.331  13.690 -0.2107  0.7018  0.1836
    7TCq1    C2  100   2.764   3.206  13.713 -0.0829  0.0345  0.0936
    7TCq1    C3  101   2.726   3.283  13.823  0.1693 -0.1957 -0.3228
    7TCq1    C4  102   2.605   3.257  13.887  0.0581 -0.1733  0.3833
    7TCq1    C5  103   2.516   3.165  13.834 -0.6128 -0.1737  0.1394
    7TCq1    C6  104   2.555   3.106  13.714 -0.7789 -0.2789 -1.1080
    7TCq1    C7  105   2.680   3.119  13.655  0.3410 -0.1569  0.1209
    7TCq1    C8  106   2.450   3.033  13.640  0.2716  0.7773  0.7289
    7TCq1    O4  107   2.347   3.004  13.695 -0.3589  0.0758  0.6898
    7TCq1    C9  108   2.589   3.317  14.015 -0.1494 -0.9997 -0.1279
    7TCq1    O5  109   2.679   3.403  14.038 -0.4530  0.0673  0.7632
    7TCq1    O6  110   2.477   3.297  14.076 -0.1319  0.1557 -0.0311
    7TCq1    H1  111   2.902   3.032  13.722 -1.0498  0.1328 -1.8317
    7TCq1    H2  112   2.804   3.348  13.862 -0.1531  0.6265 -1.0433
    7TCq1    H3  113   2.421   3.140  13.880  0.0330 -0.4661  1.3144
    7TCq1    H4  114   2.721   3.058  13.576  0.5501  2.5153 -1.8584
    8MPD2     C  115   2.282   2.809  13.210 -0.4664 -0.0532  0.8712
    8MPD2    C1  116   2.245   2.791  13.340 -0.4319  0.1305  0.4934
    8MPD2    C2  117   2.319   2.848  13.438  0.5929 -0.1873  1.0354
    8MPD2    C3  118   2.420   2.940  13.414 -0.3153  0.0623 -1.3461
    8MPD2    C4  119   2.459   2.955  13.283 -0.1231  0.7489  0.3164
    8MPD2    C5  120   2.388   2.894  13.180  0.3416  0.2782  0.6162
    8MPD2     H  121   2.294   2.831  13.542 -1.2371  1.0941  0.7905
    8MPD2    H1  122   2.548   3.013  13.260  0.4903 -0.3636 -0.1472
    8MPD2    H2  123   2.221   2.772  13.128 -1.6145 -0.9759  2.1500
    8MPD2    H3  124   2.422   2.898  13.077 -1.3404 -1.4786  0.0108
    8MPD2     N  125   2.491   3.014  13.507  0.0534  0.0326  0.6785
    8MPD2    H5  126   2.561   3.080  13.475 -0.1888 -0.3243 -0.5609
    8MPD2    N1  127   2.136   2.704  13.370 -0.0224  0.2135  0.2356
    8MPD2    H7  128   2.088   2.665  13.290 -0.1453  1.1227 -0.1251
    9TCq1    O1  129   0.702   1.781  10.495 -0.3730 -0.6149 -0.2937
    9TCq1    C1  130   0.823   1.804  10.559 -0.8862  0.3117  0.3885
    9TCq1    O2  131   0.911   1.721  10.559  0.0006  0.6963 -0.1204
    9TCq1    C2  132   0.848   1.946  10.537 -0.1856 -0.1339  0.3190
    9TCq1    C3  133   0.968   1.975  10.481  0.1796  0.2790  0.2968
    9TCq1    C4  134   0.996   2.105  10.454  0.1249 -1.0319 -0.2647
    9TCq1    C5  135   0.904   2.198  10.490 -0.2359  0.0293  0.3708
    9TCq1    C6  136   0.785   2.168  10.548  0.3889  0.1740 -0.5534
    9TCq1    C7  137   0.754   2.039  10.570  0.1460  0.4527 -0.0380
    9TCq1    C8  138   0.697   2.282  10.587  0.0663 -0.1812  0.7533
    9TCq1    O4  139   0.732   2.394  10.552 -0.2236 -0.4972 -0.0833
    9TCq1    C9  140   1.124   2.147  10.392  0.0657 -0.3715 -0.1446
    9TCq1    O5  141   1.173   2.078  10.298 -0.1959 -0.4104  0.0212
    9TCq1    O6  142   1.154   2.264  10.400  0.5140  0.0762 -0.5345
    9TCq1    H1  143   0.647   1.862  10.504  1.0138  0.1616  1.0570
    9TCq1    H2  144   1.044   1.899  10.465 -0.9708 -0.9119  0.4691
    9TCq1    H3  145   0.926   2.302  10.471 -0.2867  0.4640  2.6457
    9TCq1    H4  146   0.666   2.003  10.622 -0.8543  1.9229 -0.7085
   10MPD2     C  147   0.461   2.446  10.676 -0.0682  0.2320 -0.4785
   10MPD2    C1  148   0.476   2.314  10.707  0.1636  0.6432  0.5693
   10MPD2    C2  149   0.387   2.252  10.791 -0.2120 -0.4519 -0.2603
   10MPD2    C3  150   0.283   2.319  10.844 -0.2180  0.2808  0.1119
   10MPD2    C4  151   0.265   2.449  10.814 -0.0976  0.7319 -1.2447
   10MPD2    C5  152   0.349   2.512  10.729 -0.7608 -1.0320  0.1962
   10MPD2     H  153   0.399   2.146  10.810 -0.2629 -0.9621 -3.0327
   10MPD2    H1  154   0.187   2.503  10.866 -0.8516 -1.7134  0.1633
   10MPD2    H2  155   0.538   2.494  10.618 -0.1820 -0.6857 -1.3923
   10MPD2    H3  156   0.333   2.618  10.720 -1.7108 -1.1189  0.8997
   10MPD2     N  157   0.188   2.256  10.931  0.0036 -0.1740  0.4804
   10MPD2    H5  158   0.119   2.315  10.976 -1.6371 -1.6555 -0.1054
   10MPD2    N1  159   0.588   2.240  10.661 -0.4762 -0.4336 -0.8587
   10MPD2    H7  160   0.587   2.141  10.682  2.0552 -0.2760  0.1005
   11TCq1    O1  161   0.680   2.602  14.852 -0.0223 -0.2979  0.8080
   11TCq1    C1  162   0.669   2.470  14.881 -0.1389 -0.6514  0.0468
   11TCq1    O2  163   0.610   2.427  14.979 -0.5093  0.1118  0.3030
   11TCq1    C2  164   0.622   2.419  14.750  0.6130 -0.2099 -0.9044
   11TCq1    C3  165   0.688   2.451  14.632 -0.0274 -0.0460 -0.2093
   11TCq1    C4  166   0.635   2.406  14.514  0.7716  0.3364  0.5308
   11TCq1    C5  167   0.516   2.346  14.498 -0.3244  0.3820  0.7730
   11TCq1    C6  168   0.455   2.320  14.622  0.4378 -0.3572 -0.1412
   11TCq1    C7  169   0.504   2.349  14.743 -0.0654  1.0431  0.1338
   11TCq1    C8  170   0.311   2.300  14.620  0.0404 -0.7848 -0.0182
   11TCq1    O4  171   0.250   2.331  14.718 -0.1606  0.3881 -0.5587
   11TCq1    C9  172   0.694   2.456  14.391 -0.1476 -0.1757 -0.1459
   11TCq1    O5  173   0.749   2.566  14.387 -0.2887  0.2944 -0.7593
   11TCq1    O6  174   0.653   2.396  14.288  0.4749  0.1661  0.6416
   11TCq1    H1  175   0.705   2.617  14.759  1.2045 -0.3981  1.1269
   11TCq1    H2  176   0.791   2.485  14.627 -0.8588  2.1515 -2.6360
   11TCq1    H3  177   0.467   2.329  14.402 -0.4533  1.7558  0.5937
   11TCq1    H4  178   0.463   2.310  14.835  0.6650  1.4128  0.6157
   12MPD2     C  179   0.040   2.286  14.524 -0.0372  0.2479 -0.3039
   12MPD2    C1  180   0.138   2.214  14.460 -0.6724  0.2398 -0.4612
   12MPD2    C2  181   0.107   2.120  14.363 -0.4852 -0.6253  0.4258
   12MPD2    C3  182   4.694   2.097  14.329  0.0257 -0.8237 -0.7373
   12MPD2    C4  183   4.604   2.186  14.374  0.1835 -0.2109 -0.3223
   12MPD2    C5  184   4.633   2.271  14.477 -0.0216  0.8352 -0.5780
   12MPD2     H  185   0.185   2.066  14.311  1.2081  1.6540  0.6193
   12MPD2    H1  186   4.500   2.168  14.351 -0.4822 -1.1535  3.5477
   12MPD2    H2  187   0.054   2.352  14.609 -3.0225 -1.9572  1.8829
   12MPD2    H3  188   4.556   2.340  14.510  0.9681  2.2194 -1.1343
   12MPD2     N  189   4.653   1.997  14.239  0.4404 -0.1412  0.8661
   12MPD2    H5  190   0.010   1.939  14.211 -1.9241 -2.3327 -1.3355
   12MPD2    N1  191   0.271   2.246  14.497  0.9315 -0.8610 -0.1167
   12MPD2    H7  192   0.353   2.218  14.445  1.0504 -1.1815  0.2414
   13TCq1    O1  193   0.272   1.081  10.311  0.3136  0.4419 -0.4164
   13TCq1    C1  194   0.320   1.159  10.411  0.3383 -0.2106 -0.3207
   13TCq1    O2  195   0.325   1.130  10.527 -0.4400  0.2932 -0.3815
   13TCq1    C2  196   0.247   1.280  10.374 -0.2805 -0.7344  0.2821
   13TCq1    C3  197   0.248   1.338  10.250 -0.3490  0.4381  0.0872
   13TCq1    C4  198   0.149   1.423  10.205 -0.1524  0.2685 -0.7201
   13TCq1    C5  199   0.054   1.463  10.290  0.3202 -0.0949  0.1025
   13TCq1    C6  200   0.060   1.414  10.416  1.0967  0.3476  0.4769
   13TCq1    C7  201   0.146   1.320  10.462  0.6006 -0.2615 -0.0208
   13TCq1    C8  202   4.660   1.418  10.495 -0.0861 -0.1557  0.2501
   13TCq1    O4  203   4.669   1.420  10.617 -0.0268 -0.3559  0.3302
   13TCq1    C9  204   0.138   1.469  10.070 -0.1869  0.3606 -0.3521
   13TCq1    O5  205   0.190   1.395   9.980 -0.2012 -0.4195 -0.1630
   13TCq1    O6  206   0.116   1.591  10.057 -0.2166  0.0065  0.1083
   13TCq1    H1  207   0.262   1.130  10.227 -1.1809 -0.7539 -0.9283
   13TCq1    H2  208   0.328   1.313  10.181 -0.4365  0.7416 -0.1213
   13TCq1    H3  209   4.695   1.529  10.258  0.1700  0.2966  1.2766
   13TCq1    H4  210   0.127   1.271  10.557 -1.7327 -1.1119 -0.9313
   14MPD2     C  211   4.324   1.331  10.395  0.1396 -0.7182 -0.5668
   14MPD2    C1  212   4.421   1.387  10.474 -0.5317 -0.4602 -0.3076
   14MPD2    C2  213   4.378   1.451  10.595 -0.0088  0.2040  0.5227
   14MPD2    C3  214   4.245   1.443  10.634  0.2572  0.1582 -0.1859
   14MPD2    C4  215   4.150   1.384  10.551 -0.1077 -0.2627  0.5400
   14MPD2    C5  216   4.192   1.332  10.432  0.2341  0.1836 -0.2323
   14MPD2     H  217   4.448   1.497  10.663 -0.9506  0.1673  1.5185
   14MPD2    H1  218   4.046   1.368  10.578  0.2062 -1.5204  1.0161
   14MPD2    H2  219   4.358   1.297  10.298  0.7949  0.4984 -0.7716
   14MPD2    H3  220   4.118   1.285  10.368  0.5895 -0.6182 -0.0506
   14MPD2     N  221   4.219   1.481  10.772 -0.4931 -0.1755 -0.2840
   14MPD2    H5  222   4.288   1.544  10.812  0.9485 -1.2508 -1.0916
   14MPD2    N1  223   4.548   1.399  10.421  0.5448  0.1332 -0.2953
   14MPD2    H7  224   4.550   1.379  10.322  1.2092 -3.9060  0.5707
   15TCq1    O1  225   0.969   1.539   2.199  0.5869  0.6039 -0.1137
   15TCq1    C1  226   1.023   1.430   2.131 -0.1797 -0.3495  0.3349
   15TCq1    O2  227   1.087   1.339   2.185 -0.2138 -0.0846  0.6428
   15TCq1    C2  228   1.015   1.461   1.989 -0.3419  0.0792 -0.3001
   15TCq1    C3  229   0.899   1.522   1.942 -0.5584 -0.1717  0.0265
   15TCq1    C4  230   0.873   1.538   1.810 -0.3519  0.6097 -0.4918
   15TCq1    C5  231   0.967   1.499   1.722  0.4029 -0.5287 -0.1285
   15TCq1    C6  232   1.078   1.435   1.769  0.2211  0.1541 -0.0191
   15TCq1    C7  233   1.112   1.419   1.902 -0.1158  0.3666  0.2159
   15TCq1    C8  234   1.165   1.363   1.669  0.4346  0.3773 -0.0284
   15TCq1    O4  235   1.268   1.316   1.713 -0.1741  0.3430  0.4084
   15TCq1    C9  236   0.765   1.616   1.772 -0.1762  0.0493  0.2877
   15TCq1    O5  237   0.766   1.693   1.669  0.2240  0.3167 -0.2921
   15TCq1    O6  238   0.681   1.639   1.863  0.0566 -0.1200  0.0410
   15TCq1    H1  239   0.976   1.610   2.131  0.3458  2.7471  2.1196
   15TCq1    H2  240   0.825   1.562   2.009  1.3924  2.5247  0.5885
   15TCq1    H3  241   0.952   1.519   1.617  3.2399 -0.1363 -0.4551
   15TCq1    H4  242   1.209   1.381   1.933 -0.0321  1.0296  0.7705
   16MPD2     C  243   1.059   1.201   1.347 -0.9860  0.7840  0.2112
   16MPD2    C1  244   1.146   1.236   1.452 -0.3285 -0.4057 -0.2879
   16MPD2    C2  245   1.274   1.186   1.450 -0.0064  0.1633  0.0254
   16MPD2    C3  246   1.315   1.091   1.364  0.0764 -0.3701 -0.8516
   16MPD2    C4  247   1.235   1.059   1.258  1.0077 -0.1455 -0.7948
   16MPD2    C5  248   1.110   1.114   1.250  0.1013 -0.5357 -0.4951
   16MPD2     H  249   1.351   1.223   1.517  0.7172 -0.9262 -0.2037
   16MPD2    H1  250   1.254   0.986   1.179 -2.1846  0.4649 -2.1059
   16MPD2    H2  251   0.967   1.254   1.328 -0.2808  2.0346  0.3055
   16MPD2    H3  252   1.050   1.088   1.164 -0.3352  2.3000 -1.0539
   16MPD2     N  253   1.447   1.047   1.374 -0.8891  0.0185  0.6965
   16MPD2    H5  254   1.495   1.089   1.453  0.1837  0.5166 -0.2206
   16MPD2    N1  255   1.106   1.345   1.545  0.1442 -0.4139  0.5241
   16MPD2    H7  256   1.023   1.398   1.521 -0.7316 -1.8540  0.3674
   17TCq1    O1  257   0.105   1.143  11.669 -0.0730  0.4986 -0.0553
   17TCq1    C1  258   0.067   1.042  11.593  0.0740 -0.4251 -0.1743
   17TCq1    O2  259   4.678   1.009  11.553 -0.0031 -0.4362 -0.3210
   17TCq1    C2  260   0.178   1.016  11.499  0.2544  0.4026 -1.0602
   17TCq1    C3  261   0.151   0.927  11.392  0.0444 -0.0233  0.3007
   17TCq1    C4  262   0.206   0.947  11.265 -0.9819 -0.8214  0.4075
   17TCq1    C5  263   0.288   1.055  11.242  0.0685  0.4455 -0.9045
   17TCq1    C6  264   0.312   1.138  11.345 -0.7347  0.1485  0.4269
   17TCq1    C7  265   0.264   1.117  11.470 -0.0755  0.7662 -0.9948
   17TCq1    C8  266   0.398   1.252  11.336  0.0170  0.5317 -0.2241
   17TCq1    O4  267   0.391   1.351  11.409 -0.0073 -0.5287  0.7018
   17TCq1    C9  268   0.154   0.881  11.149  0.0987 -0.1136  0.2767
   17TCq1    O5  269   0.029   0.855  11.149 -0.2003  0.5754  0.3203
   17TCq1    O6  270   0.219   0.894  11.040 -0.2096  0.1579  0.1343
   17TCq1    H1  271   0.202   1.154  11.679 -0.0343  0.1756 -0.0724
   17TCq1    H2  272   0.074   0.851  11.397 -0.0004 -0.0928 -1.4580
   17TCq1    H3  273   0.311   1.074  11.138  0.6036 -2.4786 -1.3240
   17TCq1    H4  274   0.300   1.190  11.542 -1.3488  0.3578  0.0583
   18MPD2     C  275   0.628   1.427  11.233 -0.2932  0.2183  0.2049
   18MPD2    C1  276   0.604   1.300  11.194  0.1903 -0.3726  1.0434
   18MPD2    C2  277   0.670   1.237  11.090  0.4364 -0.4369  0.7637
   18MPD2    C3  278   0.773   1.314  11.033  0.3165 -0.5480 -0.2896
   18MPD2    C4  279   0.807   1.435  11.086 -0.3853 -0.4843 -0.1449
   18MPD2    C5  280   0.732   1.499  11.183 -0.2209  0.2552 -0.3892
   18MPD2     H  281   0.646   1.138  11.053 -1.6558 -0.3841  2.0039
   18MPD2    H1  282   0.894   1.490  11.051  0.0294 -0.7006  0.5531
   18MPD2    H2  283   0.567   1.474  11.309 -3.0043 -0.2259 -1.6845
   18MPD2    H3  284   0.770   1.589  11.230 -0.3300  0.3460 -0.4779
   18MPD2     N  285   0.842   1.264  10.925  0.5599 -0.0381 -0.2420
   18MPD2    H5  286   0.902   1.331  10.877  1.4294 -1.5421 -1.2510
   18MPD2    N1  287   0.495   1.222  11.239  0.1493  0.0246 -0.5857
   18MPD2    H7  288   0.496   1.127  11.203  1.0324 -1.4583  3.4134
   19TMC2    C1  289   1.292   1.764  13.744 -0.8298  0.1200 -0.3148
   19TMC2    C2  290   1.288   1.726  13.612 -0.3775  0.6953  0.2708
   19TMC2    C3  291   1.212   1.618  13.581 -0.1898  0.0478  0.2468
   19TMC2    C4  292   1.216   1.700  13.836 -0.3880  0.3763  0.6996
   19TMC2    C5  293   1.134   1.600  13.790  0.0383 -0.5554  0.6201
   19TMC2    C6  294   1.137   1.547  13.664 -1.2395  0.6539 -0.4086
   19TMC2     C  295   1.411   1.832  13.786  0.6889  0.2782 -0.3924
   19TMC2     O  296   1.469   1.904  13.706 -0.1374  0.0279 -0.0221
   19TMC2     H  297   1.355   1.773  13.541 -0.0182  0.0042  0.1525
   19TMC2    H1  298   1.213   1.735  13.939  1.7649  1.1834  0.4798
   19TMC2    H2  299   1.073   1.463  13.640 -0.5834  0.2610 -0.7793
   19TMC2    C7  300   1.068   1.514  13.888  0.4737 -0.3101  0.9512
   19TMC2    C8  301   1.228   1.579  13.442  0.0473 -0.4511  0.3365
   19TMC2    O1  302   0.975   1.448  13.852 -0.2874 -0.4294 -0.8582
   19TMC2    O2  303   1.228   1.660  13.346  0.1457  0.1004 -0.3823
   19TMC2    O5  304   1.298   1.463  13.447  0.2730 -0.2452 -0.4852
   19TMC2    H5  305   1.302   1.432  13.540 -2.7535  0.6028 -0.0807
   20MPD2     C  306   1.567   2.005  13.962  0.2610 -0.0688 -0.0591
   20MPD2    C1  307   1.513   1.885  14.001  0.7666 -0.5846  0.0106
   20MPD2    C2  308   1.550   1.825  14.117 -1.0540 -0.5521 -0.3184
   20MPD2    C3  309   1.616   1.902  14.211  1.1139 -0.1136 -0.2149
   20MPD2    C4  310   1.658   2.028  14.178 -0.7282 -0.2997 -0.2325
   20MPD2    C5  311   1.640   2.077  14.054 -0.4311  0.0791  0.7670
   20MPD2     H  312   1.513   1.725  14.133  1.5567 -1.7108 -1.4690
   20MPD2    H1  313   1.701   2.088  14.258  1.7215 -1.7105 -0.4901
   20MPD2    H2  314   1.562   2.041  13.860  2.0514 -1.5355 -0.6670
   20MPD2    H3  315   1.690   2.168  14.023 -1.3194  0.3891  0.2598
   20MPD2     N  316   1.642   1.859  14.337 -0.4280 -0.4205 -0.4839
   20MPD2    H5  317   1.665   1.921  14.415  2.1103 -1.4276 -0.4433
   20MPD2    N1  318   1.445   1.803  13.913  0.7725  0.2889  0.3397
   20MPD2    H7  319   1.395   1.722  13.949  0.2750  0.5142  0.1553
   21MPD2     C  320   3.421   2.318  14.312  0.4131  0.3192  0.0711
   21MPD2    C1  321   3.493   2.268  14.416  0.0173 -0.0305  0.0306
   21MPD2    C2  322   3.455   2.297  14.540 -0.9414  0.4603 -0.0761
   21MPD2    C3  323   3.351   2.386  14.566 -0.0816 -0.2432 -0.1936
   21MPD2    C4  324   3.285   2.451  14.466  0.6211 -0.5996  0.3436
   21MPD2    C5  325   3.323   2.416  14.336 -0.0992 -0.6989 -0.5557
   21MPD2     H  326   3.516   2.263  14.624  0.7981 -0.3824 -1.6754
   21MPD2    H1  327   3.213   2.532  14.471 -0.0852 -1.1315 -1.1865
   21MPD2    H2  328   3.447   2.297  14.209 -0.5714 -0.1165 -0.0861
   21MPD2    H3  329   3.292   2.473  14.249 -2.7111  0.3075  1.0518
   21MPD2     N  330   3.316   2.440  14.691  0.4057 -0.2776 -0.0207
   21MPD2    H5  331   3.248   2.515  14.687 -0.7116 -1.3134 -0.5688
   21MPD2    N1  332   3.610   2.182  14.399  0.3282  0.0571 -0.1961
   21MPD2    H7  333   3.669   2.160  14.478  0.4163  1.4861  0.1327
   22TCq2    C1  334   3.359   2.389  14.814 -0.3789  0.4220  0.0795
   22TCq2    O2  335   3.427   2.293  14.838  0.4741  0.3582 -0.0548
   22TCq2    C2  336   3.339   2.485  14.916 -0.0545 -0.3358 -0.1121
   22TCq2    C3  337   3.316   2.430  15.045  0.0231 -0.1350 -1.2911
   22TCq2    C4  338   3.291   2.520  15.152 -0.3800 -0.2452 -0.2874
   22TCq2    C5  339   3.286   2.657  15.135 -0.1496 -0.2551  0.0491
   22TCq2    C6  340   3.326   2.704  15.015  0.2974 -0.3697 -0.8172
   22TCq2    C7  341   3.352   2.622  14.907 -0.3624 -0.7106 -0.4241
   22TCq2    C8  342   3.312   2.849  14.993 -0.0077 -0.1236  0.0623
   22TCq2    O4  343   3.366   2.918  15.079 -0.5879 -0.0487 -0.3844
   22TCq2    C9  344   3.209   2.473  15.267  0.5919  0.3603  0.8635
   22TCq2    O5  345   3.157   2.558  15.343  0.5029 -0.4351 -0.6296
   22TCq2    O6  346   3.174   2.352  15.260  0.8153  0.6119  0.0551
   22TCq2    H2  347   3.305   2.324  15.062 -0.5272  0.1907  0.4101
   22TCq2    H3  348   3.251   2.722  15.215  2.5439  1.3348 -0.0728
   22TCq2    H4  349   3.386   2.672  14.817 -3.0154  0.3641 -0.8236
   23MPD2     C  350   0.713   3.301  14.923 -0.3167 -0.1217 -0.6760
   23MPD2    C1  351   0.576   3.299  14.960 -0.6143  0.7148  0.1521
   23MPD2    C2  352   0.492   3.391  14.890  0.0198  0.3738  0.7631
   23MPD2    C3  353   0.548   3.472  14.788  0.6360 -0.3108  0.7254
   23MPD2    C4  354   0.681   3.468  14.764 -0.4318 -0.9592  0.2592
   23MPD2    C5  355   0.765   3.379  14.826 -0.0172 -0.0375 -0.8308
   23MPD2     H  356   0.385   3.394  14.909  0.0180  1.6799  0.5646
   23MPD2    H1  357   0.726   3.537  14.693  0.9006 -2.0393  0.0614
   23MPD2    H2  358   0.776   3.220  14.956 -1.7373 -1.5184 -1.3703
   23MPD2    H3  359   0.865   3.362  14.788 -0.0286  0.5977 -1.1400
   23MPD2     N  360   0.478   3.567  14.705 -0.3014 -0.7284  0.8705
   23MPD2    H5  361   0.537   3.617  14.639  0.7418 -1.1365  1.4975
   23MPD2    N1  362   0.528   3.200  15.047  0.0635 -0.7273 -0.2785
   23MPD2    H7  363   0.428   3.206  15.058 -0.0514 -2.3212 -0.5596
   24TCq2    C1  364   0.339   3.595  14.714  0.6519 -0.4675 -0.0304
   24TCq2    O2  365   0.250   3.528  14.762  0.5244 -0.1994 -0.2128
   24TCq2    C2  366   0.301   3.718  14.646  0.3105  0.5111 -0.3882
   24TCq2    C3  367   0.381   3.826  14.661 -0.2485  0.6252  0.2967
   24TCq2    C4  368   0.342   3.938  14.600  0.4882  0.1634 -0.3809
   24TCq2    C5  369   0.219   3.953  14.535  0.5030 -0.3448  0.5282
   24TCq2    C6  370   0.139   3.849  14.526 -0.3101  0.1955  0.2642
   24TCq2    C7  371   0.174   3.730  14.587 -0.2226  0.0280 -0.0115
   24TCq2    C8  372   0.007   3.862  14.475  0.8788 -0.1041  0.0673
   24TCq2    O4  373   4.698   3.966  14.422  0.0637  0.3158  0.2341
   24TCq2    C9  374   0.434   4.045  14.585  0.2498  0.3434  0.3207
   24TCq2    O5  375   0.377   4.156  14.560  0.1322  0.0120  0.4313
   24TCq2    O6  376   0.559   4.025  14.606 -0.4326  0.1626 -0.3957
   24TCq2    H2  377   0.478   3.810  14.706 -0.5731  1.8169  1.4120
   24TCq2    H3  378   0.195   4.045  14.483 -1.0092 -1.0153  0.0346
   24TCq2    H4  379   0.107   3.645  14.585 -0.7503  0.4564 -0.3748
   25TMC2    C1  380   4.436   0.442  11.539  0.3608 -0.4616 -0.5240
   25TMC2    C2  381   4.559   0.434  11.603  0.1692  0.4789  0.0941
   25TMC2    C3  382   4.553   0.422  11.738  0.2217  0.4977 -0.9450
   25TMC2    C4  383   4.319   0.473  11.609 -0.4540  0.5150  0.2556
   25TMC2    C5  384   4.330   0.485  11.745 -0.2360 -0.4720 -0.5705
   25TMC2    C6  385   4.444   0.447  11.811 -0.6875 -0.6609 -0.6203
   25TMC2     C  386   4.431   0.379  11.407 -0.2920 -0.0246 -0.0731
   25TMC2     O  387   4.538   0.370  11.346  0.5968  0.0006 -0.4778
   25TMC2     H  388   4.639   0.407  11.535  2.1223  3.5560  1.2058
   25TMC2    H1  389   4.233   0.506  11.552 -0.1889 -1.2080 -1.1109
   25TMC2    H2  390   4.452   0.458  11.919 -0.9062  2.2989 -0.9117
   25TMC2    C7  391   4.207   0.497  11.822  0.2253 -0.4514  0.1646
   25TMC2    C8  392   4.671   0.371  11.809 -0.1383 -0.9311  0.0313
   25TMC2    O1  393   4.220   0.468  11.942 -0.3942  0.0578 -0.6063
   25TMC2    O2  394   4.674   0.277  11.887 -0.2302  0.2467  0.4534
   25TMC2    O5  395   0.058   0.394  11.732  0.0112 -0.3593  0.2463
   25TMC2    H5  396   0.047   0.465  11.664  0.8912 -0.5000 -0.0485
   26MPD2     C  397   4.232   0.081  11.048  0.2952  0.4248  0.3582
   26MPD2    C1  398   4.132   0.091  11.149 -0.1601 -0.6479 -0.0236
   26MPD2    C2  399   4.165   0.168  11.262  0.2777 -0.0328 -0.4261
   26MPD2    C3  400   4.279   0.251  11.261  0.1632 -0.1485 -0.6163
   26MPD2    C4  401   4.374   0.242  11.156 -0.2375 -0.4310  0.0408
   26MPD2    C5  402   4.345   0.158  11.048 -1.0372 -0.6049  0.6420
   26MPD2     H  403   4.105   0.174  11.352  0.4155  1.7325 -0.4442
   26MPD2    H1  404   4.466   0.300  11.151  0.1156 -1.1080 -1.3358
   26MPD2    H2  405   4.210   0.017  10.964  0.2989  2.0630 -0.8930
   26MPD2    H3  406   4.425   0.151  10.976 -1.8901 -1.6905 -0.2097
   26MPD2     N  407   4.308   0.317  11.382  1.0138 -0.1506  0.2976
   26MPD2    H5  408   4.242   0.312  11.460  1.2608  1.5924  0.6144
   26MPD2    N1  409   4.021   0.004  11.142  0.4063 -0.2233  0.0170
   26MPD2    H7  410   4.016   4.669  11.058  0.2196  1.0415 -0.8417
   27TMC2    C1  411   2.326   2.866  11.889 -0.0180 -0.4225  0.2079
   27TMC2    C2  412   2.248   2.973  11.905  0.0575  0.6707 -0.1493
   27TMC2    C3  413   2.310   3.099  11.919  0.2049 -0.0019  0.5311
   27TMC2    C4  414   2.455   2.873  11.848 -0.0241  0.2136 -1.1316
   27TMC2    C5  415   2.504   2.997  11.844  0.2010 -0.4417  0.3153
   27TMC2    C6  416   2.441   3.106  11.893  0.3389 -0.2987  0.0527
   27TMC2     C  417   2.271   2.742  11.923 -0.0321  0.1768 -0.3536
   27TMC2     O  418   2.311   2.636  11.881  0.8822  0.2081  0.3579
   27TMC2     H  419   2.140   2.966  11.900  0.0974 -0.0637  0.1240
   27TMC2    H1  420   2.503   2.777  11.831 -1.0023 -0.7463  1.5105
   27TMC2    H2  421   2.491   3.202  11.891  1.0300 -0.6325  1.4093
   27TMC2    C7  422   2.646   2.994  11.879  0.3276  0.0943  0.0453
   27TMC2    C8  423   2.230   3.206  11.867  0.0037  0.4138 -0.6239
   27TMC2    O1  424   2.677   3.087  11.956  0.6713  0.7171 -0.1151
   27TMC2    O2  425   2.151   3.186  11.778  0.9950 -0.1701 -0.4588
   27TMC2    O5  426   2.228   3.303  11.965 -0.0867  0.2849  0.4431
   27TMC2    H5  427   2.303   3.297  12.027  0.1315  0.2818  0.1803
   28MPD2     C  428   2.048   2.430  12.286 -0.2879  0.3142 -0.2950
   28MPD2    C1  429   2.058   2.564  12.334 -0.2609 -0.4231  0.0551
   28MPD2    C2  430   2.110   2.669  12.251 -0.3280 -0.0612 -0.3843
   28MPD2    C3  431   2.142   2.643  12.122 -1.0491  0.2834 -0.9656
   28MPD2    C4  432   2.131   2.518  12.071  0.5683  0.0461 -0.1732
   28MPD2    C5  433   2.076   2.418  12.147  0.5113  0.4176 -0.3691
   28MPD2     H  434   2.115   2.770  12.290  1.3519 -0.1079 -0.4941
   28MPD2    H1  435   2.155   2.502  11.966 -3.0594 -0.1571 -0.9777
   28MPD2    H2  436   2.022   2.350  12.353 -0.7802  0.1475 -0.6871
   28MPD2    H3  437   2.071   2.318  12.105 -0.7037  0.5224 -0.4632
   28MPD2     N  438   2.200   2.749  12.047  0.4183  0.7703  0.7334
   28MPD2    H5  439   2.202   2.837  12.099  0.5521  1.8207 -1.0434
   28MPD2    N1  440   2.039   2.576  12.470 -0.4561  0.1444  0.3115
   28MPD2    H7  441   1.990   2.503  12.522  0.1941 -0.2376  0.3927
   29MPD2     C  442   1.850   0.265  14.245 -0.2122  0.8308 -0.3373
   29MPD2    C1  443   1.917   0.227  14.363  0.8723 -0.1562 -0.2774
   29MPD2    C2  444   1.966   0.329  14.442  0.2700  0.0399  0.2036
   29MPD2    C3  445   1.954   0.461  14.408 -0.6541  0.1927 -0.2279
   29MPD2    C4  446   1.894   0.498  14.289  0.1180  0.6198  0.1373
   29MPD2    C5  447   1.840   0.395  14.213 -0.2390  0.4630  0.6596
   29MPD2     H  448   2.017   0.304  14.534  0.7534  2.5911  0.6049
   29MPD2    H1  449   1.898   0.599  14.249 -0.6960  0.4297 -0.4138
   29MPD2    H2  450   1.814   0.199  14.166 -1.0903 -0.7267  1.3660
   29MPD2    H3  451   1.800   0.417  14.115  1.1611  2.4486  0.5175
   29MPD2     N  452   2.014   0.566  14.475 -0.5931 -0.0744  0.1514
   29MPD2    H5  453   2.009   0.653  14.423  0.8972 -1.0746 -1.6347
   29MPD2    N1  454   1.935   0.092  14.403  0.7330 -0.4158  0.1907
   29MPD2    H7  455   1.992   0.085  14.487  0.3678 -0.8879  0.3978
   30TCq2    C1  456   2.059   0.571  14.598  0.1025  0.4273 -0.1421
   30TCq2    O2  457   2.051   0.483  14.678  0.6802  0.0040  0.2813
   30TCq2    C2  458   2.133   0.698  14.625  0.0029  0.2188 -0.4218
   30TCq2    C3  459   2.139   0.724  14.761  0.1820  0.4795 -0.0555
   30TCq2    C4  460   2.216   0.831  14.800  0.1462 -0.9739  0.4170
   30TCq2    C5  461   2.284   0.911  14.717 -0.4381  0.1742  0.1295
   30TCq2    C6  462   2.263   0.887  14.582  0.4492  0.1948  0.0021
   30TCq2    C7  463   2.189   0.781  14.530 -0.3062  0.1134 -0.3788
   30TCq2    C8  464   2.299   0.980  14.485  0.2668 -0.0846  1.3077
   30TCq2    O4  465   2.225   0.984  14.389 -0.1084 -0.6145 -0.1955
   30TCq2    C9  466   2.206   0.864  14.942  0.7640  0.0300 -0.0841
   30TCq2    O5  467   2.285   0.950  14.984 -0.0237 -0.5924  0.0757
   30TCq2    O6  468   2.120   0.804  15.017 -0.8201 -0.1102  0.4582
   30TCq2    H2  469   2.085   0.667  14.837  0.3392  1.0822  0.5128
   30TCq2    H3  470   2.318   1.005  14.757 -2.3963  1.1593 -0.4966
   30TCq2    H4  471   2.193   0.748  14.427 -0.1081  0.2264 -0.4061
   31MPD2     C  472   0.331   4.129  14.912 -0.5584 -0.4063  0.5101
   31MPD2    C1  473   0.222   4.170  14.984 -0.9776 -0.0417  0.4289
   31MPD2    C2  474   0.169   4.081  15.078 -0.2446  1.2939  0.6195
   31MPD2    C3  475   0.221   3.951  15.107 -0.5734 -0.4405  0.4739
   31MPD2    C4  476   0.328   3.921  15.027  0.5240  0.6321 -0.4182
   31MPD2    C5  477   0.387   4.005  14.931 -0.6447 -0.4994 -0.1662
   31MPD2     H  478   0.079   4.114  15.129 -0.3983 -0.3459  1.4229
   31MPD2    H1  479   0.387   3.831  15.038  2.0073  1.8252  1.3510
   31MPD2    H2  480   0.372   4.180  14.825  1.4528 -1.8285  0.6085
   31MPD2    H3  481   0.473   3.970  14.875 -0.5325  0.8806 -0.8599
   31MPD2     N  482   0.173   3.851  15.200  0.1942  1.2510  0.2195
   31MPD2    H5  483   0.224   3.763  15.199  0.7693  1.5798  1.6433
   31MPD2    N1  484   0.160   4.291  14.940 -0.5981 -0.1463 -0.3092
   31MPD2    H7  485   0.203   4.340  14.862  0.5664 -1.3138 -0.4073
   32TCq2    C1  486   0.052   3.848  15.264 -0.3253  0.8679  0.6848
   32TCq2    O2  487   4.682   3.926  15.271  0.1131 -0.0041  0.5238
   32TCq2    C2  488   0.030   3.716  15.322  0.0031  0.0450 -0.5545
   32TCq2    C3  489   4.668   3.631  15.258  0.5622 -0.1167 -0.1316
   32TCq2    C4  490   4.651   3.505  15.305  1.2246 -0.7398 -0.7007
   32TCq2    C5  491   4.705   3.466  15.426 -0.4507  0.0151  0.4152
   32TCq2    C6  492   0.053   3.558  15.491  0.4193 -0.2966 -0.1116
   32TCq2    C7  493   0.095   3.679  15.436 -0.0681  0.2813  0.4905
   32TCq2    C8  494   0.096   3.520  15.628  0.3683  0.6761  0.1192
   32TCq2    O4  495   0.121   3.399  15.647 -0.5295  0.0822  0.1374
   32TCq2    C9  496   4.570   3.415  15.224  0.6659  0.1146  0.2551
   32TCq2    O5  497   4.493   3.470  15.141  0.2550  0.0803 -0.1304
   32TCq2    O6  498   4.580   3.290  15.250 -0.3803  0.6393 -0.7142
   32TCq2    H2  499   4.623   3.665  15.165 -1.0210 -1.2276  0.2270
   32TCq2    H3  500   4.682   3.367  15.465  0.5978 -0.1467  0.6257
   32TCq2    H4  501   0.173   3.742  15.476  2.0994 -1.9939 -0.1073
   33MPD2     C  502   0.489   1.508  10.538  0.2896 -0.4965 -0.3830
   33MPD2    C1  503   0.571   1.444  10.442  0.4408 -0.2451 -0.2742
   33MPD2    C2  504   0.566   1.489  10.312  0.3432  1.0754 -0.3920
   33MPD2    C3  505   0.480   1.589  10.275 -0.0283 -0.0601 -0.2501
   33MPD2    C4  506   0.383   1.633  10.358  1.0063  0.3542  0.2418
   33MPD2    C5  507   0.391   1.590  10.489  0.9061  0.2211  0.5259
   33MPD2     H  508   0.639   1.442  10.247 -1.2760  0.4266 -1.7517
   33MPD2    H1  509   0.305   1.706  10.340 -0.6907 -1.0711  1.8342
   33MPD2    H2  510   0.488   1.495  10.645  1.3515 -0.4368 -0.3611
   33MPD2    H3  511   0.328   1.625  10.570 -0.7644 -0.2458 -0.5971
   33MPD2     N  512   0.466   1.645  10.142  0.2014  0.0498  0.4051
   33MPD2    H5  513   0.389   1.706  10.120 -0.4929 -1.6068 -1.8668
   33MPD2    N1  514   0.650   1.337  10.492  0.5371 -0.0552  0.0474
   33MPD2    H7  515   0.644   1.323  10.593  1.0873 -2.3599 -0.2360
   34TCq2    C1  516   0.561   1.629  10.042 -0.5630 -0.7457  0.3903
   34TCq2    O2  517   0.683   1.603  10.059  0.1108 -0.7414 -0.1654
   34TCq2    C2  518   0.521   1.711   9.928  0.8385 -0.3057  1.0227
   34TCq2    C3  519   0.390   1.720   9.880  0.4781  0.3615  0.3397
   34TCq2    C4  520   0.373   1.783   9.766  0.2154 -0.1090 -0.3749
   34TCq2    C5  521   0.476   1.844   9.701 -1.0210 -0.9369 -0.4035
   34TCq2    C6  522   0.608   1.832   9.752 -0.0335 -0.5413  0.7587
   34TCq2    C7  523   0.626   1.762   9.868 -0.5677 -0.5797  0.1852
   34TCq2    C8  524   0.713   1.917   9.711  0.2307  0.2300 -0.4741
   34TCq2    O4  525   0.819   1.902   9.765 -0.3600 -0.1734  0.3316
   34TCq2    C9  526   0.237   1.814   9.737  0.0272 -0.2037 -0.0756
   34TCq2    O5  527   0.143   1.754   9.803  0.1498  0.0581  0.2661
   34TCq2    O6  528   0.210   1.912   9.658  0.7673  0.6659  0.2306
   34TCq2    H2  529   0.304   1.680   9.932  1.0189 -0.5670  0.5150
   34TCq2    H3  530   0.451   1.905   9.616  2.0706  0.0719 -0.5986
   34TCq2    H4  531   0.722   1.770   9.918 -0.4451  1.3989 -0.3580
   35MPD2     C  532   1.766   2.768  11.732  0.7923 -0.0272  0.0430
   35MPD2    C1  533   1.831   2.665  11.671  0.2635 -0.5894 -0.4395
   35MPD2    C2  534   1.872   2.682  11.540  0.0958  0.4270  0.0293
   35MPD2    C3  535   1.877   2.811  11.488  0.1780  0.4424 -0.1255
   35MPD2    C4  536   1.829   2.918  11.555 -0.7321  0.7139  0.3418
   35MPD2    C5  537   1.774   2.899  11.682  0.0390 -1.0042 -0.1990
   35MPD2     H  538   1.894   2.593  11.482 -1.0623 -0.1979  0.5493
   35MPD2    H1  539   1.830   3.021  11.521  0.0765  1.2027  1.8431
   35MPD2    H2  540   1.727   2.751  11.832  0.0528  1.2043 -0.0410
   35MPD2    H3  541   1.725   2.983  11.730  0.0104 -0.9280 -0.3632
   35MPD2     N  542   1.932   2.820  11.360 -0.6980  0.1412  0.2003
   35MPD2    H5  543   1.966   2.737  11.312  1.0152  1.2045 -0.4292
   35MPD2    N1  544   1.835   2.543  11.739 -0.1878  1.0521 -0.0369
   35MPD2    H7  545   1.799   2.547  11.834  0.8954 -2.0231  0.4976
   36TCq2    C1  546   1.924   2.932  11.281  0.0921 -0.5475 -0.1614
   36TCq2    O2  547   1.928   3.049  11.313 -0.9951 -0.3684  0.9483
   36TCq2    C2  548   1.909   2.897  11.143  0.0716  0.3212  0.5297
   36TCq2    C3  549   1.972   2.978  11.054  0.2552  0.1671  0.2827
   36TCq2    C4  550   1.946   2.944  10.923 -0.0948  0.2245  0.4981
   36TCq2    C5  551   1.861   2.843  10.875  0.6623  0.4968 -0.0600
   36TCq2    C6  552   1.806   2.766  10.978  0.1913  0.3012  0.2720
   36TCq2    C7  553   1.832   2.791  11.109  0.6831  0.2342  0.2447
   36TCq2    C8  554   1.709   2.663  10.948  0.1597 -0.4220  0.4269
   36TCq2    O4  555   1.666   2.601  11.044 -0.4789  0.1016 -0.2367
   36TCq2    C9  556   2.003   3.025  10.832 -0.2653 -0.1910 -0.6386
   36TCq2    O5  557   2.075   3.121  10.871  0.4187 -0.7253  0.3954
   36TCq2    O6  558   1.969   3.007  10.711  0.3723  0.0713 -0.8727
   36TCq2    H2  559   2.048   3.048  11.086  1.6685 -0.9855 -0.5066
   36TCq2    H3  560   1.874   2.817  10.771  0.6013 -0.1889  0.1074
   36TCq2    H4  561   1.782   2.736  11.189 -2.9469  0.3685 -1.9299
   37TMC2    C1  562   3.788   2.861  11.845  0.4009  0.9304  0.2167
   37TMC2    C2  563   3.726   2.821  11.739  0.4326  0.7392  0.0297
   37TMC2    C3  564   3.793   2.803  11.621  0.3643  0.3030  0.3609
   37TMC2    C4  565   3.917   2.895  11.838  0.2977  0.0487  0.5783
   37TMC2    C5  566   3.987   2.863  11.721  0.0081 -0.6394 -0.3895
   37TMC2    C6  567   3.926   2.812  11.608  0.1356 -0.3498 -0.4227
   37TMC2     C  568   3.709   2.889  11.965  0.2054 -0.0414  0.1288
   37TMC2     O  569   3.590   2.915  11.947  0.0445  0.2589  0.1751
   37TMC2     H  570   3.621   2.795  11.748  0.6297  0.9412  3.0363
   37TMC2    H1  571   3.962   2.954  11.917 -0.9234  1.3893  0.2594
   37TMC2    H2  572   3.979   2.762  11.528 -2.4420 -2.9745 -0.4916
   37TMC2    C7  573   4.129   2.907  11.715  0.5628  0.6825  0.4124
   37TMC2    C8  574   3.729   2.749  11.501 -0.1799  0.6882  0.0108
   37TMC2    O1  575   4.177   2.926  11.827 -0.3405 -0.1557 -0.3364
   37TMC2    O2  576   3.629   2.677  11.510  0.3769  0.4233 -0.0018
   37TMC2    O5  577   3.760   2.836  11.404 -0.3294  0.2425  0.1198
   37TMC2    H5  578   3.843   2.883  11.425  0.1184  0.2479 -1.6316
   38MPD2     C  579   3.712   3.006  12.472  0.1362 -0.1934 -0.2915
   38MPD2    C1  580   3.837   3.001  12.422 -0.0656 -0.4834  0.2074
   38MPD2    C2  581   3.857   2.949  12.293 -0.0811  0.8022  0.3048
   38MPD2    C3  582   3.756   2.927  12.205 -0.5078  0.3868 -0.7181
   38MPD2    C4  583   3.628   2.945  12.251 -0.4789  0.0021  0.4705
   38MPD2    C5  584   3.610   2.976  12.390  0.7737  0.6085 -0.0699
   38MPD2     H  585   3.956   2.939  12.251  0.0502  0.8945  0.5895
   38MPD2    H1  586   3.540   2.932  12.189 -1.3685  0.6730  1.5980
   38MPD2    H2  587   3.682   3.051  12.566  0.8718  1.4007 -0.8213
   38MPD2    H3  588   3.512   2.996  12.433  0.8858 -1.6369  1.2678
   38MPD2     N  589   3.789   2.883  12.070  0.4498 -0.5087 -0.2337
   38MPD2    H5  590   3.889   2.876  12.050  0.1337  0.1561 -2.0173
   38MPD2    N1  591   3.955   3.025  12.502  0.3441 -0.7947 -0.3980
   38MPD2    H7  592   4.040   2.998  12.454  0.8091 -2.7170  1.4938
   39MPD2     C  593   2.246   0.469   1.844 -0.4674 -0.6337 -0.1551
   39MPD2    C1  594   2.169   0.555   1.919 -0.0183  0.2293 -1.1810
   39MPD2    C2  595   2.039   0.582   1.875  0.5562  0.5222 -0.5826
   39MPD2    C3  596   1.993   0.518   1.762 -0.5536 -0.5149 -0.4360
   39MPD2    C4  597   2.074   0.436   1.685  0.6473 -0.1786  0.2253
   39MPD2    C5  598   2.201   0.415   1.732 -0.7300 -0.8471  0.1248
   39MPD2     H  599   1.977   0.653   1.929  0.4140 -0.4449  0.5198
   39MPD2    H1  600   2.035   0.370   1.608  1.6993 -0.3525 -0.1628
   39MPD2    H2  601   2.346   0.446   1.879 -1.7092 -4.3224  0.9052
   39MPD2    H3  602   2.265   0.340   1.687 -0.7081 -0.6427 -0.1834
   39MPD2     N  603   1.866   0.541   1.706 -0.2245 -0.9156 -0.1052
   39MPD2    H5  604   1.850   0.488   1.621  0.4671 -1.5459  0.1585
   39MPD2    N1  605   2.218   0.592   2.042  0.4881 -0.2518 -0.0913
   39MPD2    H7  606   2.310   0.555   2.066  0.7434  0.7525  0.4874
   40TCq2    C1  607   2.151   0.661   2.136 -0.0412 -0.4701  0.7633
   40TCq2    O2  608   2.033   0.687   2.145  0.0824  0.4816  0.2736
   40TCq2    C2  609   2.238   0.677   2.254  0.6240 -0.4071 -0.0838
   40TCq2    C3  610   2.171   0.678   2.375  0.0775 -0.1321 -0.3801
   40TCq2    C4  611   2.242   0.697   2.486  0.6559 -0.2461 -0.3304
   40TCq2    C5  612   2.383   0.710   2.481  0.0938 -0.0095 -0.0086
   40TCq2    C6  613   2.446   0.719   2.360  0.3181  0.1207 -0.4629
   40TCq2    C7  614   2.375   0.698   2.245 -0.0442 -0.1633  0.3229
   40TCq2    C8  615   2.588   0.753   2.362 -0.0416  0.2316 -0.0008
   40TCq2    O4  616   2.656   0.709   2.453 -0.3501  0.1539 -0.0194
   40TCq2    C9  617   2.178   0.692   2.615  0.5568 -0.4707 -0.1304
   40TCq2    O5  618   2.058   0.702   2.610 -0.5846 -0.6964 -0.6548
   40TCq2    O6  619   2.252   0.671   2.719  0.3666 -0.3716 -0.1884
   40TCq2    H2  620   2.062   0.673   2.376  0.0397  0.2383 -2.3440
   40TCq2    H3  621   2.440   0.695   2.571 -0.5495 -1.4974  0.1542
   40TCq2    H4  622   2.429   0.684   2.152 -0.4687 -1.9178  0.3373
   41TMC2    C1  623   1.596   3.177  13.551 -0.2069 -0.0349 -0.7971
   41TMC2    C2  624   1.645   3.231  13.669  0.5509 -0.5398 -0.8180
   41TMC2    C3  625   1.744   3.323  13.671 -0.3339 -0.2633  0.6341
   41TMC2    C4  626   1.652   3.213  13.431  0.0737  0.2994 -0.4761
   41TMC2    C5  627   1.766   3.288  13.436  0.4437  0.9529  0.4038
   41TMC2    C6  628   1.815   3.353  13.552  0.8555 -0.2659 -0.8348
   41TMC2     C  629   1.451   3.161  13.544 -0.2968 -0.1847  1.3798
   41TMC2     O  630   1.408   3.172  13.428  0.1146  0.4636  0.7820
   41TMC2     H  631   1.595   3.208  13.763  0.1266  0.1193 -0.8840
   41TMC2    H1  632   1.602   3.198  13.335  3.3992 -0.0682 -2.1586
   41TMC2    H2  633   1.888   3.433  13.554 -0.4610  0.9739 -2.5329
   41TMC2    C7  634   1.804   3.363  13.310  0.0938 -0.3159  1.0795
   41TMC2    C8  635   1.801   3.365  13.799 -1.5918 -0.1668  0.0349
   41TMC2    O1  636   1.858   3.474  13.325 -0.3192 -0.1729  0.2406
   41TMC2    O2  637   1.917   3.401  13.797  0.1803 -0.6010 -0.0577
   41TMC2    O5  638   1.700   3.413  13.880  0.1075  0.8581  0.0886
   41TMC2    H5  639   1.606   3.413  13.853  0.1718  0.7149 -0.1415
   42MPD2     C  640   1.146   3.140  13.579  0.3846  0.7789  0.2362
   42MPD2    C1  641   1.244   3.141  13.681  0.1878  0.2113  0.4651
   42MPD2    C2  642   1.208   3.139  13.811  0.5906 -0.1617  0.3552
   42MPD2    C3  643   1.068   3.149  13.837  0.1422  0.3898 -0.3493
   42MPD2    C4  644   0.970   3.144  13.733  0.0610  0.7935  0.3049
   42MPD2    C5  645   1.013   3.149  13.602 -0.3454 -0.1742  0.1906
   42MPD2     H  646   1.286   3.159  13.883  2.0839 -0.7853 -1.0967
   42MPD2    H1  647   0.866   3.158  13.760 -0.0217  2.1167 -0.6897
   42MPD2    H2  648   1.179   3.132  13.476 -2.5253  1.4297 -0.7515
   42MPD2    H3  649   0.945   3.153  13.518 -0.7690 -1.1755  0.4914
   42MPD2     N  650   1.012   3.160  13.962 -0.3397 -0.2713 -0.0982
   42MPD2    H5  651   0.913   3.184  13.963 -0.6529 -1.4353 -3.0017
   42MPD2    N1  652   1.391   3.135  13.662  0.4103  0.1409  0.3955
   42MPD2    H7  653   1.447   3.123  13.746  0.8083  1.3863  0.2968
   43MPD2     C  654   2.282   1.550   0.940 -0.0478  0.8102  0.5839
   43MPD2    C1  655   2.385   1.565   1.024 -0.6174  0.2454 -0.2589
   43MPD2    C2  656   2.359   1.605   1.147  0.5367 -0.2217 -0.0020
   43MPD2    C3  657   2.229   1.613   1.203 -0.4398 -0.5843 -0.3760
   43MPD2    C4  658   2.121   1.586   1.122 -0.1597 -0.5389  0.6141
   43MPD2    C5  659   2.150   1.572   0.985 -0.8679 -0.6804  0.9707
   43MPD2     H  660   2.448   1.621   1.207  0.6241  0.3190 -0.2765
   43MPD2    H1  661   2.017   1.588   1.154  0.0289  1.9883  1.0754
   43MPD2    H2  662   2.296   1.525   0.836  0.9393 -0.3808  0.9958
   43MPD2    H3  663   2.070   1.571   0.912  0.5789  2.1836 -0.6408
   43MPD2     N  664   2.206   1.657   1.333  0.0704 -0.4416  0.3603
   43MPD2    H5  665   2.110   1.679   1.357 -0.1030 -2.4530  1.4664
   43MPD2    N1  666   2.521   1.536   0.987 -0.2975  0.0674  0.0874
   43MPD2    H7  667   2.592   1.522   1.058  2.8840  0.7638 -2.9619
   44TCq2    C1  668   2.071   1.976   1.708 -0.3355  0.0228  0.1472
   44TCq2    O2  669   2.145   2.046   1.643 -0.5083 -0.3179 -0.2265
   44TCq2    C2  670   2.104   1.835   1.703  0.0998  0.8104  0.2037
   44TCq2    C3  671   2.157   1.772   1.813 -0.5340  0.0978  0.4997
   44TCq2    C4  672   2.235   1.659   1.798 -0.3260 -0.2534 -0.2835
   44TCq2    C5  673   2.280   1.623   1.676 -0.8812  0.5075 -0.1817
   44TCq2    C6  674   2.234   1.694   1.564 -0.5921  0.3334  0.5519
   44TCq2    C7  675   2.144   1.802   1.576  0.3321 -0.3886 -0.2736
   44TCq2    C8  676   2.302   1.659   1.433 -0.6835  0.4808  0.2499
   44TCq2    O4  677   2.412   1.610   1.441  0.7912 -0.5533 -0.3942
   44TCq2    C9  678   2.278   1.582   1.913 -0.0634  0.1523  0.4468
   44TCq2    O5  679   2.242   1.621   2.029 -0.5941  0.2388 -0.1785
   44TCq2    O6  680   2.354   1.482   1.891 -0.7628 -0.3309  0.0600
   44TCq2    H2  681   2.115   1.787   1.912 -1.4012 -1.8037  0.4115
   44TCq2    H3  682   2.356   1.549   1.655 -0.5346  0.5532  0.9239
   44TCq2    H4  683   2.114   1.847   1.482 -1.9696 -0.9819  0.1778
   45TMC2    C1  684   3.640   2.964   9.632 -0.3663 -0.2406  0.6090
   45TMC2    C2  685   3.665   2.980   9.500 -0.3934 -0.2879  0.1725
   45TMC2    C3  686   3.755   3.073   9.466  0.4428 -0.6063 -0.6437
   45TMC2    C4  687   3.694   3.043   9.729  0.3469  0.0300  0.2440
   45TMC2    C5  688   3.788   3.132   9.688 -0.1808  0.1760  0.4003
   45TMC2    C6  689   3.830   3.140   9.558  0.4159 -0.8863 -0.0503
   45TMC2     C  690   3.572   2.850   9.684  0.2379  0.1423  0.5908
   45TMC2     O  691   3.626   2.804   9.783 -0.0144  0.3672  0.5001
   45TMC2     H  692   3.623   2.914   9.424 -0.3435 -2.2063  1.7927
   45TMC2    H1  693   3.669   3.030   9.834 -1.1388  1.2809  0.0488
   45TMC2    H2  694   3.915   3.203   9.533  0.8639 -1.3766  0.2553
   45TMC2    C7  695   3.848   3.213   9.792  0.1509 -0.3716 -0.1795
   45TMC2    C8  696   3.785   3.094   9.320  0.5631  0.2105 -0.0099
   45TMC2    O1  697   3.814   3.194   9.910  0.3290  0.2398  0.0350
   45TMC2    O2  698   3.699   3.074   9.236 -0.0876 -0.2342  1.0372
   45TMC2    O5  699   3.917   3.098   9.295  0.0990  0.4697  0.5089
   45TMC2    H5  700   3.975   3.098   9.375  0.8339 -0.8024 -0.0234
   46MPD2     C  701   3.475   2.564   9.686  0.1935  0.6672  0.0958
   46MPD2    C1  702   3.419   2.664   9.607 -0.7795  0.7009  0.2610
   46MPD2    C2  703   3.309   2.637   9.529  0.0066 -0.3596  0.4713
   46MPD2    C3  704   3.239   2.509   9.535 -0.1963 -0.3028  0.2184
   46MPD2    C4  705   3.282   2.420   9.628 -0.0037 -0.8058  0.1485
   46MPD2    C5  706   3.397   2.449   9.695  0.2673  0.1113 -0.1381
   46MPD2     H  707   3.254   2.715   9.476 -1.3082 -1.6477 -0.0582
   46MPD2    H1  708   3.236   2.323   9.645  1.8063 -1.5572  0.8104
   46MPD2    H2  709   3.563   2.579   9.747 -0.8116 -1.3874  2.0115
   46MPD2    H3  710   3.438   2.365   9.750 -0.6264  0.1066  0.5363
   46MPD2     N  711   3.117   2.491   9.466  0.1721  0.0946 -0.3258
   46MPD2    H5  712   3.073   2.563   9.409 -2.5840 -0.9309  0.5522
   46MPD2    N1  713   3.468   2.800   9.601  0.4312  0.8134 -0.1662
   46MPD2    H7  714   3.426   2.855   9.527 -2.3250 -1.2473 -0.1296
   47TMC2    C1  715   1.139   3.324   9.521  0.1433  0.0319 -0.1507
   47TMC2    C2  716   1.198   3.234   9.441 -0.5848 -0.0786 -0.7556
   47TMC2    C3  717   1.125   3.175   9.340 -0.4354  0.5552  0.1474
   47TMC2    C4  718   1.011   3.356   9.503  0.2372  0.8570  0.5286
   47TMC2    C5  719   0.948   3.317   9.389 -0.3952 -0.4050  0.3109
   47TMC2    C6  720   1.000   3.224   9.307  0.2705  0.1451 -0.1103
   47TMC2     C  721   1.220   3.412   9.603  0.3025  0.0699  0.1211
   47TMC2     O  722   1.172   3.511   9.659 -0.2022  0.0127 -0.4942
   47TMC2     H  723   1.294   3.195   9.472  0.5183  0.3716 -3.6089
   47TMC2    H1  724   0.969   3.433   9.567 -0.6928 -0.3337  1.3499
   47TMC2    H2  725   0.946   3.197   9.217  1.1218  0.9762 -0.8818
   47TMC2    C7  726   0.835   3.395   9.349  0.0092 -0.6950 -0.6857
   47TMC2    C8  727   1.205   3.111   9.237 -0.0649  0.0530 -0.1465
   47TMC2    O1  728   0.799   3.412   9.233  0.0108  0.5910 -0.2243
   47TMC2    O2  729   1.318   3.151   9.215 -0.5161 -0.3602  0.6298
   47TMC2    O5  730   1.120   3.071   9.139  0.7361 -0.1092 -0.4864
   47TMC2    H5  731   1.036   3.032   9.170 -0.7094  2.9317 -0.5607
   48MPD2     C  732   1.460   3.576   9.717  0.9062 -0.1654  0.3838
   48MPD2    C1  733   1.465   3.449   9.660  1.0281 -0.5956  0.0760
   48MPD2    C2  734   1.583   3.375   9.665 -0.2534  0.2432  0.5946
   48MPD2    C3  735   1.699   3.430   9.719 -0.0626  0.1557 -0.0284
   48MPD2    C4  736   1.691   3.550   9.789 -0.0908 -0.7664 -0.7861
   48MPD2    C5  737   1.573   3.620   9.787  0.4569  0.1057 -0.8267
   48MPD2     H  738   1.590   3.287   9.603 -0.8977  0.1142  0.7064
   48MPD2    H1  739   1.775   3.595   9.841 -0.1674  0.3168 -1.6040
   48MPD2    H2  740   1.367   3.631   9.728 -1.5805 -4.6065  1.5387
   48MPD2    H3  741   1.571   3.717   9.835  2.0586 -0.5447  0.5410
   48MPD2     N  742   1.821   3.362   9.704  0.1853  0.0445  0.2018
   48MPD2    H5  743   1.813   3.262   9.690 -0.4738  0.3294 -1.4109
   48MPD2    N1  744   1.354   3.378   9.608  0.2552 -0.2768  0.0312
   48MPD2    H7  745   1.375   3.291   9.561 -2.1736 -0.4311 -0.7214
   49MPD2     C  746   4.020   0.985  10.010 -0.3604 -0.5864  0.1694
   49MPD2    C1  747   4.145   1.020  10.041  0.5003  0.0187  0.0471
   49MPD2    C2  748   4.178   1.011  10.175  0.8393  0.5468  1.0885
   49MPD2    C3  749   4.100   0.964  10.275 -0.3660 -0.2632 -0.4627
   49MPD2    C4  750   3.976   0.925  10.239 -0.6520 -0.0211  0.1263
   49MPD2    C5  751   3.936   0.936  10.105 -0.2882  0.9009 -0.4034
   49MPD2     H  752   4.281   1.033  10.201  0.0924  1.4330  3.2316
   49MPD2    H1  753   3.910   0.884  10.315  1.8996 -1.6222  1.4722
   49MPD2    H2  754   3.983   0.983   9.908  1.7174  2.2597 -0.6258
   49MPD2    H3  755   3.835   0.909  10.078 -0.6099  1.2003  0.4750
   49MPD2     N  756   4.132   0.967  10.415  0.5599  0.5514  0.4149
   49MPD2    H5  757   4.058   0.968  10.484 -0.9299 -2.3362 -1.1701
   49MPD2    N1  758   4.237   1.080   9.945 -0.2277  0.3035  0.2215
   49MPD2    H7  759   4.330   1.101   9.979  0.3582  0.3182 -1.4045
   50TCq2    C1  760   4.200   1.112   9.820  0.4358  0.3555  0.0697
   50TCq2    O2  761   4.100   1.085   9.753 -0.6371  0.1437  0.1001
   50TCq2    C2  762   4.305   1.165   9.733 -0.3003 -0.1558  0.2020
   50TCq2    C3  763   4.413   1.226   9.791  0.5029  0.4157 -0.1293
   50TCq2    C4  764   4.487   1.309   9.715  0.6729 -0.2569 -0.3999
   50TCq2    C5  765   4.466   1.335   9.586  0.1543 -0.4427 -0.1017
   50TCq2    C6  766   4.360   1.269   9.526  0.2507 -0.5391 -0.2726
   50TCq2    C7  767   4.273   1.191   9.606 -0.4927 -0.4240  0.6426
   50TCq2    C8  768   4.355   1.278   9.383  0.5642  0.0262 -0.7908
   50TCq2    O4  769   4.462   1.303   9.326 -0.6714  0.2936 -0.1485
   50TCq2    C9  770   4.596   1.388   9.776 -0.3877  0.2459 -0.3076
   50TCq2    O5  771   4.639   1.346   9.891 -0.1160 -0.2406 -0.3477
   50TCq2    O6  772   4.664   1.470   9.703 -0.8512 -0.4640  0.1142
   50TCq2    H2  773   4.433   1.221   9.898  1.2505  0.4322 -0.2667
   50TCq2    H3  774   4.537   1.398   9.532  0.3088  0.5195  1.2131
   50TCq2    H4  775   4.193   1.134   9.561 -0.7357  0.0567  0.4637
   51MPD2     C  776   4.006   4.127   1.520  0.1468 -0.3941 -0.2822
   51MPD2    C1  777   4.134   4.062   1.520 -0.0354 -0.0912  0.0858
   51MPD2    C2  778   4.193   4.048   1.646  0.2725 -0.3742  0.4183
   51MPD2    C3  779   4.151   4.104   1.756 -0.2465  0.8296  0.1948
   51MPD2    C4  780   4.044   4.186   1.747 -0.0373 -0.7791 -0.3580
   51MPD2    C5  781   3.966   4.197   1.634  0.0437 -0.2146  0.4147
   51MPD2     H  782   4.283   3.988   1.641  0.3553 -0.1907 -0.2572
   51MPD2    H1  783   4.009   4.235   1.837  1.0454 -2.1222  0.7758
   51MPD2    H2  784   3.948   4.154   1.432 -0.5262  0.6301  0.4775
   51MPD2    H3  785   3.868   4.243   1.628 -0.8545 -2.2341 -0.5447
   51MPD2     N  786   4.225   4.089   1.872  0.4636  0.5872 -0.5477
   51MPD2    H5  787   4.221   4.169   1.935 -3.4621 -0.0842  0.0733
   51MPD2    N1  788   4.197   4.018   1.402 -0.0472  0.0610 -0.4505
   51MPD2    H7  789   4.293   3.988   1.412  0.2845  1.3389  0.2070
   52TCq2    C1  790   4.324   3.996   1.887 -0.1271 -0.2190 -0.4785
   52TCq2    O2  791   4.317   3.879   1.855  0.3231 -0.3780 -0.5068
   52TCq2    C2  792   4.414   4.028   2.001 -0.3324  0.1722 -0.0608
   52TCq2    C3  793   4.462   3.925   2.071  0.5502 -0.2061 -0.3341
   52TCq2    C4  794   4.551   3.947   2.166 -1.2376 -0.1868  0.3597
   52TCq2    C5  795   4.591   4.077   2.191 -0.4401 -0.0947 -0.3762
   52TCq2    C6  796   4.532   4.179   2.119  0.6101 -0.0048 -0.1224
   52TCq2    C7  797   4.436   4.163   2.020 -0.7719 -0.2695  0.5836
   52TCq2    C8  798   4.598   4.311   2.123  0.3419  0.3791  0.3707
   52TCq2    O4  799   4.709   4.315   2.173 -0.6949  0.0212 -0.3242
   52TCq2    C9  800   4.603   3.838   2.241 -0.0419 -0.5364  0.0382
   52TCq2    O5  801   4.541   3.724   2.238  0.0949 -0.2728  0.4820
   52TCq2    O6  802   4.720   3.851   2.289  0.5340  0.0860 -0.0302
   52TCq2    H2  803   4.434   3.826   2.037 -0.6902  0.7036 -1.9824
   52TCq2    H3  804   4.673   4.099   2.258  1.0990 -1.1341 -1.9057
   52TCq2    H4  805   4.414   4.233   1.940  0.1889 -0.2407  0.3421
   53TMC2    C1  806   0.093   3.127  11.835  0.5456  0.3280  0.3629
   53TMC2    C2  807   0.203   3.071  11.886  0.7663 -0.5982  0.6972
   53TMC2    C3  808   0.230   3.076  12.024  0.7150 -0.7603  0.6078
   53TMC2    C4  809   4.719   3.184  11.918  0.4274 -0.3373 -0.2092
   53TMC2    C5  810   0.027   3.190  12.052 -0.4241 -0.2317  0.0559
   53TMC2    C6  811   0.143   3.142  12.102  0.3774 -0.1878  0.2581
   53TMC2     C  812   0.048   3.049  11.724  0.1223  0.0308  0.3504
   53TMC2     O  813   0.134   3.018  11.639  0.1730 -0.1033  0.1193
   53TMC2     H  814   0.273   3.028  11.815 -0.0234 -1.7779  0.6457
   53TMC2    H1  815   4.631   3.231  11.876 -0.7073 -1.4081  1.0007
   53TMC2    H2  816   0.159   3.138  12.209  2.0004 -1.0273 -0.0257
   53TMC2    C7  817   4.623   3.199  12.123  0.6146 -0.2739  0.2077
   53TMC2    C8  818   0.350   3.028  12.081 -0.3077  0.6102 -0.4258
   53TMC2    O1  819   4.516   3.193  12.065  0.7796 -0.2249 -0.1471
   53TMC2    O2  820   0.422   3.093  12.157  0.0431 -0.6440  0.5625
   53TMC2    O5  821   0.350   2.893  12.055  0.5444  0.0047 -0.5682
   53TMC2    H5  822   0.268   2.864  12.010  0.3774  1.7002 -1.3913
   54MPD2     C  823   4.602   2.943  11.497 -0.7235 -0.1740 -1.2420
   54MPD2    C1  824   4.560   2.979  11.625 -0.0568 -0.3764 -0.0603
   54MPD2    C2  825   4.426   2.968  11.654  0.1619  0.1973 -0.3362
   54MPD2    C3  826   4.336   2.909  11.567 -0.7003  0.0653 -0.0337
   54MPD2    C4  827   4.379   2.873  11.438 -0.0667 -0.1644  0.7837
   54MPD2    C5  828   4.510   2.891  11.409  0.5145 -1.1230 -0.0963
   54MPD2     H  829   4.393   3.014  11.747 -0.0290  1.4262 -1.0096
   54MPD2    H1  830   4.315   2.824  11.366  0.1192 -1.9177  1.8108
   54MPD2    H2  831   4.706   2.939  11.467 -0.4694  1.5235 -0.5619
   54MPD2    H3  832   4.551   2.850  11.318 -0.1334 -2.3722  0.1704
   54MPD2     N  833   4.195   2.896  11.592  0.5847 -0.3306  0.6408
   54MPD2    H5  834   4.139   2.874  11.510  0.1350  2.0826  0.3065
   54MPD2    N1  835   4.640   3.039  11.723 -0.0234  0.6137 -0.3276
   54MPD2    H7  836   4.594   3.080  11.804 -1.1368 -0.0417 -0.6356
   55MPD2     C  837   0.353   1.414   0.043  0.6356 -0.1344  0.1542
   55MPD2    C1  838   0.339   1.312   0.132 -0.0153  0.4173 -0.3655
   55MPD2    C2  839   0.235   1.316   0.223  0.2620 -0.3490  0.1139
   55MPD2    C3  840   0.149   1.419   0.215 -0.7440  0.3464  0.0835
   55MPD2    C4  841   0.162   1.523   0.125  0.7101 -0.5953  0.4543
   55MPD2    C5  842   0.265   1.524   0.046  0.3983 -0.8137  0.4679
   55MPD2     H  843   0.215   1.240   0.298  0.4745  0.6174  1.1528
   55MPD2    H1  844   0.095   1.608   0.118  0.3194 -0.9497 -0.0955
   55MPD2    H2  845   0.437   1.412  17.663 -0.8406  1.0824 -1.6859
   55MPD2    H3  846   0.277   1.600  17.658  0.0602 -0.0973  1.1272
   55MPD2     N  847   0.030   1.412   0.296  0.2130  0.1637 -0.4856
   55MPD2    H5  848   0.025   1.329   0.354 -0.1324 -0.4796 -1.4450
   55MPD2    N1  849   0.428   1.205   0.121  0.0603 -0.6138 -0.2950
   55MPD2    H7  850   0.483   1.201   0.035  0.0482  0.6363 -0.3522
   56TCq2    C1  851   0.426   1.091   0.198  0.2935  0.2752 -0.0502
   56TCq2    O2  852   0.371   1.083   0.305  0.2653 -0.8324 -0.4549
   56TCq2    C2  853   0.517   0.991   0.142 -0.2611  0.2328  0.7191
   56TCq2    C3  854   0.612   1.026   0.043 -0.3046 -0.5733 -0.4771
   56TCq2    C4  855   0.687   0.924  17.688 -0.0002 -0.2437 -0.1942
   56TCq2    C5  856   0.685   0.800   0.053 -0.6487  0.4432  0.3890
   56TCq2    C6  857   0.596   0.767   0.150  0.3745 -0.2956  0.4147
   56TCq2    C7  858   0.516   0.869   0.204 -0.1716 -0.0874 -0.0169
   56TCq2    C8  859   0.618   0.647   0.224  0.5085 -0.0959 -0.1870
   56TCq2    O4  860   0.713   0.579   0.203  0.5295 -0.0385 -0.0824
   56TCq2    C9  861   0.790   0.953  17.592 -0.3329 -0.3276 -0.4810
   56TCq2    O5  862   0.862   0.855  17.556  0.2882  0.1316  0.3469
   56TCq2    O6  863   0.786   1.062  17.532  0.3390 -0.0967 -0.3346
   56TCq2    H2  864   0.638   1.127   0.014  1.4286 -0.7968  0.2673
   56TCq2    H3  865   0.753   0.725   0.017  1.1783  1.1317  2.4073
   56TCq2    H4  866   0.449   0.853   0.288 -2.3259 -1.0413 -1.9168
   57TMC2    C1  867   4.552   2.235  13.823 -0.2159 -0.7568 -0.2436
   57TMC2    C2  868   4.654   2.188  13.901  0.4233  0.3401 -0.0038
   57TMC2    C3  869   0.024   2.109  13.836  0.4350 -1.1256 -0.4912
   57TMC2    C4  870   4.543   2.201  13.688 -0.0585 -0.7344 -0.4342
   57TMC2    C5  871   4.634   2.114  13.634  0.6672  0.3767  0.1388
   57TMC2    C6  872   0.013   2.063  13.704 -0.2426  0.6019 -0.4958
   57TMC2     C  873   4.424   2.260  13.882  0.0829 -0.5081  0.2393
   57TMC2     O  874   4.414   2.324  13.986  0.8620  0.0694 -0.4447
   57TMC2     H  875   4.663   2.222  14.004 -1.2865  0.7365  0.0264
   57TMC2    H1  876   4.462   2.250  13.636 -1.6018 -1.9597  0.8217
   57TMC2    H2  877   0.093   2.009  13.654  1.5399  2.9739 -0.2199
   57TMC2    C7  878   4.625   2.104  13.492 -0.7341 -0.3237  0.4690
   57TMC2    C8  879   0.116   2.040  13.926  0.2367  0.0618 -1.2436
   57TMC2    O1  880   4.539   2.175  13.440 -0.1220 -0.0717  0.7699
   57TMC2    O2  881   0.155   2.085  14.032 -0.0694 -0.6672  0.0025
   57TMC2    O5  882   0.096   1.908  13.900 -0.9336  0.3448 -0.4341
   57TMC2    H5  883   0.064   1.891  13.808 -2.5618  1.0038  0.0024
   58MPD2     C  884   3.915   2.201  13.871 -0.5724  0.1842 -0.2100
   58MPD2    C1  885   3.985   2.290  13.946 -0.3465  0.2189  0.0411
   58MPD2    C2  886   4.124   2.282  13.939  0.5376 -0.5738  0.2783
   58MPD2    C3  887   4.184   2.194  13.841  0.3056 -0.2879  0.2595
   58MPD2    C4  888   4.103   2.116  13.766  0.1901 -0.6145  0.8364
   58MPD2    C5  889   3.968   2.115  13.783 -1.4680 -0.3533  0.4848
   58MPD2     H  890   4.179   2.356  13.996  0.3569 -0.0325 -0.2533
   58MPD2    H1  891   4.149   2.045  13.697  3.0060  0.0848  1.9973
   58MPD2    H2  892   3.807   2.213  13.863 -0.5039 -0.0557 -1.4257
   58MPD2    H3  893   3.896   2.048  13.736 -1.5740  0.0957  0.0019
   58MPD2     N  894   4.326   2.197  13.818 -0.3697  0.0119 -0.1890
   58MPD2    H5  895   4.351   2.130  13.747  0.8545 -0.5131  0.7482
   58MPD2    N1  896   3.936   2.393  14.035 -0.3865  0.4859  0.6779
   58MPD2    H7  897   3.999   2.443  14.097  0.3641  2.5501 -1.7504
   59MPD2     C  898   2.045   1.960  13.421  0.2881 -0.4219 -0.2687
   59MPD2    C1  899   2.076   2.041  13.309  0.1620  0.0022  0.2504
   59MPD2    C2  900   2.144   2.157  13.338 -0.4518  0.4340 -0.1385
   59MPD2    C3  901   2.197   2.187  13.459 -0.0407 -0.1614 -0.4449
   59MPD2    C4  902   2.185   2.098  13.558 -0.6147  0.0288 -0.0076
   59MPD2    C5  903   2.100   1.987  13.545 -0.4452 -0.1071  0.5144
   59MPD2     H  904   2.156   2.232  13.261  0.3447  0.5559  0.1046
   59MPD2    H1  905   2.240   2.116  13.650  1.4119  1.0681 -1.4354
   59MPD2    H2  906   1.980   1.873  13.424 -0.5583  0.2108 -0.1504
   59MPD2    H3  907   2.097   1.910  13.621 -0.9894  1.2317  1.8418
   59MPD2     N  908   2.283   2.300  13.483  0.0229  0.2283  0.1632
   59MPD2    H5  909   2.317   2.319  13.577  3.9741  2.2342 -1.6512
   59MPD2    N1  910   2.019   2.017  13.183  0.4330  0.5667 -0.0195
   59MPD2    H7  911   2.011   2.094  13.116  0.8951 -0.0415 -0.7739
   60TCq2    C1  912   1.971   1.899  13.141 -0.3417 -0.2599  0.7046
   60TCq2    O2  913   1.987   1.793  13.198  0.6243  0.2843  0.3120
   60TCq2    C2  914   1.912   1.886  13.012  0.2066  0.5598  0.1603
   60TCq2    C3  915   1.806   1.795  12.984 -0.0972  0.1746  1.1950
   60TCq2    C4  916   1.741   1.801  12.864  0.7327  0.1952 -0.5751
   60TCq2    C5  917   1.779   1.885  12.769 -0.1595 -0.2171  0.8174
   60TCq2    C6  918   1.886   1.966  12.798  0.1366  1.0969 -0.3753
   60TCq2    C7  919   1.952   1.969  12.918 -0.1052  0.1407  0.5006
   60TCq2    C8  920   1.982   1.983  12.688 -0.1000 -0.3616 -0.6208
   60TCq2    O4  921   2.100   1.971  12.708 -0.1902  0.8053 -0.0945
   60TCq2    C9  922   1.620   1.721  12.841  0.7614  0.5431  0.3494
   60TCq2    O5  923   1.571   1.664  12.944 -0.2014 -0.0477 -0.1607
   60TCq2    O6  924   1.562   1.745  12.731  0.0385 -0.4473 -0.3435
   60TCq2    H2  925   1.770   1.726  13.060  0.9841 -0.1479  1.4111
   60TCq2    H3  926   1.723   1.888  12.676 -0.1481 -1.0763  0.7851
   60TCq2    H4  927   2.041   2.030  12.919 -0.0844  0.1462 -0.9696
   61MPD2     C  928   1.599   3.508  15.815 -0.1797  0.9701 -0.3935
   61MPD2    C1  929   1.513   3.600  15.754  0.2737  0.5491  0.9772
   61MPD2    C2  930   1.488   3.592  15.622 -0.4757 -0.1331  0.1146
   61MPD2    C3  931   1.542   3.500  15.532  0.0314 -0.3162  0.0102
   61MPD2    C4  932   1.620   3.406  15.589 -0.0512  0.7766 -0.8249
   61MPD2    C5  933   1.652   3.411  15.725 -0.0048 -0.1998 -0.4635
   61MPD2     H  934   1.428   3.675  15.587  2.1449 -0.0144 -4.1554
   61MPD2    H1  935   1.676   3.338  15.526  0.1659 -0.9711  1.2324
   61MPD2    H2  936   1.631   3.513  15.918 -0.1348 -1.6860 -0.2823
   61MPD2    H3  937   1.718   3.337  15.769  1.0893  0.2710 -1.3171
   61MPD2     N  938   1.532   3.516  15.387  0.6854 -0.7510  0.2169
   61MPD2    H5  939   1.592   3.459  15.328  0.0390 -0.1431 -1.0086
   61MPD2    N1  940   1.445   3.703  15.824 -0.0148 -0.0853 -0.3178
   61MPD2    H7  941   1.383   3.766  15.774  0.6108  2.0249  1.5384
   62TCq2    C1  942   1.442   3.714  15.960 -0.1262 -0.3441  0.5839
   62TCq2    O2  943   1.501   3.649  16.042 -0.5943  0.1322 -0.3441
   62TCq2    C2  944   1.359   3.819  16.002  0.9434  0.0555 -0.4649
   62TCq2    C3  945   1.338   3.828  16.140 -0.3290 -0.3123  0.3312
   62TCq2    C4  946   1.243   3.909  16.188  0.8059  0.8626 -0.7495
   62TCq2    C5  947   1.156   3.978  16.108  0.0145 -0.1331 -0.3857
   62TCq2    C6  948   1.194   3.982  15.975  0.4714  0.0630 -0.0000
   62TCq2    C7  949   1.297   3.911  15.923 -0.5877  0.1725 -0.5558
   62TCq2    C8  950   1.124   4.069  15.880 -0.2311 -0.4613  0.3751
   62TCq2    O4  951   1.172   4.090  15.771  0.0990  0.4632  0.3199
   62TCq2    C9  952   1.214   3.889  16.331 -0.4683 -0.2168  0.5386
   62TCq2    O5  953   1.277   3.793  16.385  0.3896  0.0818  0.0402
   62TCq2    O6  954   1.143   3.970  16.392  0.4569  0.1698 -0.3724
   62TCq2    H2  955   1.393   3.756  16.201 -1.3109  0.1097  1.7103
   62TCq2    H3  956   1.061   4.019  16.140 -0.0487  1.3505 -2.4179
   62TCq2    H4  957   1.329   3.925  15.820  2.5914  0.2386  0.4102
   63TMC2    C1  958   1.409   3.339  10.649  0.5150 -0.1559 -0.1291
   63TMC2    C2  959   1.522   3.345  10.728  0.0038 -0.1592 -0.3057
   63TMC2    C3  960   1.637   3.395  10.678  0.5077 -0.0981 -0.7706
   63TMC2    C4  961   1.402   3.408  10.531  0.0479 -0.1838 -0.3713
   63TMC2    C5  962   1.517   3.479  10.491  0.4829 -0.3335  0.3494
   63TMC2    C6  963   1.637   3.463  10.555 -0.5949 -0.6992 -0.0173
   63TMC2     C  964   1.301   3.254  10.693 -0.5038 -0.3163  0.8013
   63TMC2     O  965   1.303   3.226  10.811 -0.3931 -0.1018 -0.3064
   63TMC2     H  966   1.524   3.303  10.828 -2.6637 -1.7462 -0.9128
   63TMC2    H1  967   1.307   3.407  10.480  0.5631  1.7131 -1.3515
   63TMC2    H2  968   1.735   3.483  10.515 -1.8294 -0.6802 -3.0170
   63TMC2    C7  969   1.508   3.558  10.369  0.1387  0.5783 -0.0797
   63TMC2    C8  970   1.761   3.370  10.743  0.2270  0.1003  0.2545
   63TMC2    O1  971   1.412   3.534  10.295 -0.2084  0.0822 -0.2176
   63TMC2    O2  972   1.863   3.428  10.710  0.1166 -0.2016 -0.6440
   63TMC2    O5  973   1.766   3.242  10.777  0.6378 -0.3075 -0.4731
   63TMC2    H5  974   1.684   3.198  10.809  1.0926 -1.9685 -1.6168
   64MPD2     C  975   0.913   2.933  10.627 -0.5869  0.4329 -0.8353
   64MPD2    C1  976   0.976   2.959  10.505 -0.0240  0.0926  0.1728
   64MPD2    C2  977   1.068   3.061  10.497  0.5713 -0.5663  0.3779
   64MPD2    C3  978   1.116   3.126  10.605 -0.2698 -0.6127 -0.4963
   64MPD2    C4  979   1.058   3.096  10.724 -0.1213 -0.7839 -0.4441
   64MPD2    C5  980   0.960   2.999  10.734 -0.2401  0.0626 -0.2473
   64MPD2     H  981   1.117   3.080  10.402 -0.4328 -0.5938 -0.1461
   64MPD2    H1  982   1.088   3.142  10.818 -1.0599 -0.7088 -0.1821
   64MPD2    H2  983   0.843   2.850  10.637 -0.4381  0.5785  1.4843
   64MPD2    H3  984   0.925   2.985  10.835  1.7551  1.7382  0.6830
   64MPD2     N  985   1.219   3.215  10.588 -0.2364  0.7849 -0.1802
   64MPD2    H5  986   1.231   3.255  10.495 -1.7790  0.8188 -0.3595
   64MPD2    N1  987   0.975   2.868  10.396  0.1856  0.5406  0.8630
   64MPD2    H7  988   1.040   2.885  10.320  0.1798  3.3375  1.4851
   65MPD2     C  989   1.971   3.202  16.043  0.1735 -0.4825 -0.8908
   65MPD2    C1  990   1.998   3.235  15.912 -0.2363 -0.3442 -0.0986
   65MPD2    C2  991   2.056   3.138  15.824  0.6043 -0.1445 -0.2879
   65MPD2    C3  992   2.071   3.001  15.863 -0.1689 -0.1103  0.0993
   65MPD2    C4  993   2.038   2.970  15.994 -0.3422 -0.2443 -0.1517
   65MPD2    C5  994   1.990   3.068  16.081  0.0886  0.5253 -0.0256
   65MPD2     H  995   2.095   3.170  15.729 -0.7736  0.6966 -0.5671
   65MPD2    H1  996   2.047   2.870  16.034  0.1946 -0.3468 -0.5236
   65MPD2    H2  997   1.937   3.268  16.122  1.5149  0.6594 -1.2652
   65MPD2    H3  998   1.963   3.039  16.182 -0.5811 -0.0501 -0.3722
   65MPD2     N  999   2.103   2.893  15.774 -0.2671 -0.2917 -0.0807
   65MPD2    H5 1000   2.090   2.797  15.804 -0.5553 -0.3397 -0.3611
   65MPD2    N1 1001   1.976   3.361  15.863 -0.2005 -0.5255 -0.0109
   65MPD2    H7 1002   1.990   3.369  15.763 -3.5728  0.9713 -0.3894
   66TCq2    C1 1003   1.931   3.478  15.923 -0.0531  0.4269  0.3647
   66TCq2    O2 1004   1.869   3.486  16.026  0.0088  0.2759  0.5065
   66TCq2    C2 1005   1.959   3.595  15.847  0.3856 -0.0719 -0.7021
   66TCq2    C3 1006   2.031   3.572  15.736 -0.2637 -0.7324  0.6903
   66TCq2    C4 1007   2.025   3.667  15.637 -1.0357  0.5168 -1.0499
   66TCq2    C5 1008   1.930   3.772  15.640  0.1932  0.2078  0.0739
   66TCq2    C6 1009   1.854   3.783  15.753 -0.1606  0.0780 -0.7015
   66TCq2    C7 1010   1.875   3.700  15.863 -0.4785  0.0547  0.5761
   66TCq2    C8 1011   1.763   3.896  15.754 -0.3488 -1.0647 -0.2095
   66TCq2    O4 1012   1.709   3.916  15.644  0.0299  0.2727 -0.7460
   66TCq2    C9 1013   2.107   3.650  15.519  0.1974  0.0627  0.3097
   66TCq2    O5 1014   2.173   3.540  15.502  0.0994 -0.6078  0.0056
   66TCq2    O6 1015   2.098   3.736  15.431 -0.5043 -0.4839  0.6156
   66TCq2    H2 1016   2.108   3.498  15.717  0.6632  0.5179 -0.5325
   66TCq2    H3 1017   1.940   3.847  15.562  0.3246  0.9338  0.7934
   66TCq2    H4 1018   1.804   3.704  15.944 -1.3456  0.5558 -0.2071
   67MPD2     C 1019   1.597   2.496  14.023  0.4171 -0.3272  0.8157
   67MPD2    C1 1020   1.567   2.611  14.101  0.0920  0.5758 -0.0373
   67MPD2    C2 1021   1.442   2.664  14.087  0.7333 -0.1851 -0.4641
   67MPD2    C3 1022   1.355   2.611  13.986 -0.4465  0.3397 -0.2138
   67MPD2    C4 1023   1.394   2.506  13.905 -0.7316 -0.3119 -0.4890
   67MPD2    C5 1024   1.508   2.441  13.936  0.1969  0.1576 -0.7356
   67MPD2     H 1025   1.412   2.752  14.142 -2.0387 -1.5115  0.1829
   67MPD2    H1 1026   1.319   2.464  13.839 -0.5950 -2.4105  0.7129
   67MPD2    H2 1027   1.695   2.450  14.033  0.9465  0.8813  1.2675
   67MPD2    H3 1028   1.538   2.352  13.882  0.6374  0.6964 -1.3765
   67MPD2     N 1029   1.229   2.661  13.947  0.1313  0.2916 -0.1237
   67MPD2    H5 1030   1.186   2.624  13.863 -1.3556  1.0446  0.2972
   67MPD2    N1 1031   1.667   2.689  14.169  0.1395 -0.2161  0.1361
   67MPD2    H7 1032   1.640   2.783  14.198  2.6168  0.4987  0.1266
   68TCq2    C1 1033   1.804   2.659  14.186  0.0580 -0.2180  0.3949
   68TCq2    O2 1034   1.871   2.571  14.137  0.3385 -0.1734 -0.5106
   68TCq2    C2 1035   1.867   2.736  14.287  0.1977 -0.7837  0.2656
   68TCq2    C3 1036   1.820   2.857  14.319 -0.2885  0.4364 -0.2166
   68TCq2    C4 1037   1.881   2.934  14.415  0.1733 -0.2395 -0.2808
   68TCq2    C5 1038   1.990   2.884  14.477 -0.1227 -0.2090 -1.3158
   68TCq2    C6 1039   2.038   2.757  14.441 -0.0371  0.6767 -0.7931
   68TCq2    C7 1040   1.977   2.685  14.342 -0.0565  0.0036  0.5649
   68TCq2    C8 1041   2.180   2.720  14.475 -0.4754 -0.3586 -0.3324
   68TCq2    O4 1042   2.233   2.630  14.414  0.0874 -0.1795  0.3864
   68TCq2    C9 1043   1.835   3.076  14.439 -0.3322 -0.5366  0.5357
   68TCq2    O5 1044   1.742   3.120  14.366  0.3770  0.2511  0.0296
   68TCq2    O6 1045   1.855   3.115  14.560 -0.1333  0.0592  0.6292
   68TCq2    H2 1046   1.742   2.902  14.258 -0.5300 -0.5754 -0.6519
   68TCq2    H3 1047   2.037   2.960  14.539  2.0958 -2.6356 -0.0579
   68TCq2    H4 1048   2.014   2.586  14.318  2.6733  1.2947 -0.5453
   69TMC2    C1 1049   4.299   3.644  12.164 -0.2879 -0.6648 -0.1929
   69TMC2    C2 1050   4.169   3.653  12.113  0.3427  0.1461  0.0231
   69TMC2    C3 1051   4.151   3.600  11.984 -0.0877 -0.1920  0.0128
   69TMC2    C4 1052   4.407   3.592  12.088  0.6378 -0.5661 -0.0870
   69TMC2    C5 1053   4.375   3.545  11.965  0.3863  0.4209 -0.3988
   69TMC2    C6 1054   4.248   3.543  11.911 -0.1015 -0.1324 -0.0372
   69TMC2     C 1055   4.310   3.687  12.295 -0.0467  0.2660 -0.5224
   69TMC2     O 1056   4.214   3.697  12.366  0.3461 -0.0523  0.5058
   69TMC2     H 1057   4.084   3.695  12.164 -0.9308 -2.5220  0.1341
   69TMC2    H1 1058   4.504   3.588  12.135 -0.5484 -2.2758  2.2467
   69TMC2    H2 1059   4.215   3.482  11.828 -0.2673  2.2071 -1.6951
   69TMC2    C7 1060   4.483   3.511  11.876 -0.4469 -0.0817 -1.0936
   69TMC2    C8 1061   4.017   3.609  11.921  0.0200 -1.0798 -0.0768
   69TMC2    O1 1062   4.594   3.508  11.928 -0.0784 -0.2614 -0.1170
   69TMC2    O2 1063   3.983   3.532  11.832 -0.4292 -0.4055  0.0364
   69TMC2    O5 1064   3.932   3.694  11.987  0.1494  0.0040 -0.1429
   69TMC2    H5 1065   3.982   3.769  12.024  0.2935 -0.2325  0.1364
   70MPD2     C 1066   4.625   3.808  12.430 -0.3628 -0.0429  0.8728
   70MPD2    C1 1067   4.506   3.746  12.436  0.2422  0.0286 -0.0746
   70MPD2    C2 1068   4.473   3.686  12.555  0.2571  0.0192  0.2666
   70MPD2    C3 1069   4.553   3.692  12.670  0.4091  0.2832  0.2246
   70MPD2    C4 1070   4.674   3.759  12.667  0.2158 -0.7587  0.9831
   70MPD2    C5 1071   4.705   3.817  12.543  0.6626  0.7767  0.5761
   70MPD2     H 1072   4.394   3.611  12.552  0.2533  0.0349  0.0016
   70MPD2    H1 1073   0.022   3.747  12.749  0.2947  0.9946  1.1571
   70MPD2    H2 1074   4.662   3.848  12.336 -2.7124 -1.6735 -0.7374
   70MPD2    H3 1075   0.068   3.880  12.520  2.7769 -1.3788  2.3935
   70MPD2     N 1076   4.526   3.633  12.789  0.2488  0.2732  0.2533
   70MPD2    H5 1077   4.606   3.631  12.851  0.8044  0.9802 -0.4371
   70MPD2    N1 1078   4.437   3.735  12.313 -0.3141 -0.2776  0.0386
   70MPD2    H7 1079   4.489   3.762  12.230 -0.1344 -0.7219  0.0042
   71TMC2    C1 1080   1.985   0.177   1.939 -0.5430  0.8346  0.2669
   71TMC2    C2 1081   2.088   0.198   2.027  0.4212  0.5115  0.6106
   71TMC2    C3 1082   2.051   0.267   2.137 -0.2807 -1.0506  0.2861
   71TMC2    C4 1083   1.862   0.227   1.953  0.0914  0.4025  0.4392
   71TMC2    C5 1084   1.846   0.318   2.058 -0.4762  0.4510  0.1942
   71TMC2    C6 1085   1.943   0.346   2.147 -0.1906 -0.1186  0.2411
   71TMC2     C 1086   2.003   0.106   1.819  0.4250  0.1079 -0.6681
   71TMC2     O 1087   1.920   0.108   1.725  0.6585  0.3254 -0.4079
   71TMC2     H 1088   2.180   0.142   2.019 -0.0588 -0.0240 -1.3325
   71TMC2    H1 1089   1.786   0.205   1.878  0.9877 -0.9728 -0.0536
   71TMC2    H2 1090   1.926   0.395   2.242  1.5441 -0.9316  0.9875
   71TMC2    C7 1091   1.726   0.393   2.066  0.1607 -0.2407  0.2141
   71TMC2    C8 1092   2.147   0.263   2.243  0.8975  0.3036  0.2470
   71TMC2    O1 1093   1.713   0.463   2.170  0.7773  0.1959 -0.2319
   71TMC2    O2 1094   2.270   0.248   2.222  0.4020 -0.1962 -0.4828
   71TMC2    O5 1095   2.084   0.273   2.358  0.2636  0.3335  0.0929
   71TMC2    H5 1096   1.989   0.250   2.356  0.3841 -0.1544  0.1428
   72MPD2     C 1097   2.238   4.517   1.487  0.0764 -0.6310  0.5253
   72MPD2    C1 1098   2.151   4.623   1.462  0.6549 -0.0465  0.2062
   72MPD2    C2 1099   2.117   4.697   1.573 -0.0067  0.6801  0.0697
   72MPD2    C3 1100   2.161   4.667   1.697  0.3044  0.6268 -0.3423
   72MPD2    C4 1101   2.256   4.573   1.719  0.3585  0.6029 -0.1556
   72MPD2    C5 1102   2.294   4.498   1.609 -0.2033 -0.0207  0.3022
   72MPD2     H 1103   2.062   0.066   1.551  0.3901  0.5602 -1.4092
   72MPD2    H1 1104   2.307   4.549   1.811 -0.1638  1.3448  0.3248
   72MPD2    H2 1105   2.285   4.455   1.411  1.8080  1.0340  0.2322
   72MPD2    H3 1106   2.370   4.421   1.615  0.4790  0.3346 -3.8704
   72MPD2     N 1107   2.121   0.028   1.813  0.2145 -0.0552  0.4890
   72MPD2    H5 1108   2.184   0.016   1.892 -2.4527 -1.6963  2.3859
   72MPD2    N1 1109   2.117   4.668   1.326  0.4194 -0.1213 -0.1719
   72MPD2    H7 1110   2.062   0.031   1.320  0.2829 -0.2580 -0.8499
   73TMC2    C1 1111   1.833   0.609  13.195  0.2413  0.0588  0.3438
   73TMC2    C2 1112   1.971   0.620  13.215 -0.1234 -0.1854 -0.2164
   73TMC2    C3 1113   2.058   0.549  13.136  1.2753  0.3679 -0.4633
   73TMC2    C4 1114   1.790   0.514  13.103  0.2660 -0.3573 -0.4514
   73TMC2    C5 1115   1.873   0.437  13.024  0.1967 -0.7875 -0.6915
   73TMC2    C6 1116   2.014   0.452  13.043 -0.3207  0.2947 -0.2668
   73TMC2     C 1117   1.764   0.733  13.160  0.4662  0.5704  0.1032
   73TMC2     O 1118   1.684   0.713  13.071 -0.1076 -0.3320  0.5447
   73TMC2     H 1119   2.001   0.699  13.283 -0.6173 -0.6820  0.5843
   73TMC2    H1 1120   1.686   0.490  13.088 -0.3331 -0.4845  4.0079
   73TMC2    H2 1121   2.086   0.403  12.978 -2.1000 -0.3303 -1.7505
   73TMC2    C7 1122   1.836   0.444  12.882 -0.6030 -1.2995  0.3535
   73TMC2    C8 1123   2.203   0.562  13.155 -0.3995  0.6878 -0.6422
   73TMC2    O1 1124   1.890   0.364  12.808 -0.2490  0.1887  0.3655
   73TMC2    O2 1125   2.239   0.580  13.270  0.6937 -0.3047  0.3904
   73TMC2    O5 1126   2.280   0.500  13.069  0.2582  0.0159  0.1155
   73TMC2    H5 1127   2.252   0.538  12.983  2.4738 -0.3133 -0.7768
   74MPD2     C 1128   1.695   1.243  13.150  1.1184  0.7215  0.6038
   74MPD2    C1 1129   1.639   1.144  13.077  0.0569  0.6027 -1.1354
   74MPD2    C2 1130   1.674   1.014  13.097  0.0619 -0.2778 -0.2752
   74MPD2    C3 1131   1.748   0.978  13.206  0.6348 -0.6912  0.1977
   74MPD2    C4 1132   1.796   1.081  13.291  0.3375  0.7785 -0.2495
   74MPD2    C5 1133   1.771   1.214  13.258  0.2320  0.9075 -0.1256
   74MPD2     H 1134   1.631   0.931  13.044  0.3552  0.3461 -1.4917
   74MPD2    H1 1135   1.858   1.060  13.378 -2.1471 -0.8078  1.1273
   74MPD2    H2 1136   1.666   1.347  13.140 -0.0278  0.1700 -1.8636
   74MPD2    H3 1137   1.818   1.298  13.307  1.8903 -0.1247  0.0285
   74MPD2     N 1138   1.794   0.848  13.236 -0.2216  0.1986  0.3236
   74MPD2    H5 1139   1.855   0.843  13.317  1.4930  0.4102 -0.9524
   74MPD2    N1 1140   1.555   1.188  12.973 -0.3612  0.0685 -0.2056
   74MPD2    H7 1141   1.534   1.286  12.959 -1.4228  0.0967  1.5266
   75TCq2    C1 1142   1.162   2.756  14.017  0.2101 -0.0116  0.2489
   75TCq2    O2 1143   1.176   2.788  14.136 -0.5130 -0.1431 -0.5902
   75TCq2    C2 1144   1.028   2.777  13.961  0.8704 -0.4594 -0.4893
   75TCq2    C3 1145   0.920   2.797  14.037 -0.1258 -0.1047  0.1438
   75TCq2    C4 1146   0.796   2.806  13.982 -0.5139 -0.2401  0.5681
   75TCq2    C5 1147   0.784   2.836  13.850 -0.3105 -0.2788  0.5342
   75TCq2    C6 1148   0.903   2.823  13.769 -0.5481  0.2587 -0.5578
   75TCq2    C7 1149   1.019   2.781  13.823 -0.6987 -0.1636 -0.2149
   75TCq2    C8 1150   0.887   2.826  13.623 -0.1720 -0.0887  0.1365
   75TCq2    O4 1151   0.979   2.778  13.556  0.5676  0.0576 -0.0312
   75TCq2    C9 1152   0.684   2.808  14.075  0.3662 -0.1201  0.3354
   75TCq2    O5 1153   0.564   2.827  14.034  0.5615  0.8745 -0.2634
   75TCq2    O6 1154   0.709   2.738  14.172 -0.7282  0.1821 -0.1859
   75TCq2    H2 1155   0.934   2.789  14.144  1.2915  1.2782  0.0633
   75TCq2    H3 1156   0.690   2.873  13.811  0.7789  1.0910 -0.8010
   75TCq2    H4 1157   1.104   2.758  13.761 -0.5249  1.5326 -0.5969
   76MPD2     C 1158   0.847   3.162  12.044 -0.2146 -0.2430 -0.0272
   76MPD2    C1 1159   0.805   3.082  11.941  0.2278  0.0358 -0.2638
   76MPD2    C2 1160   0.863   2.955  11.925 -1.3976  0.8816  0.6662
   76MPD2    C3 1161   0.962   2.915  12.009  0.1587 -0.0350 -0.3778
   76MPD2    C4 1162   1.008   2.997  12.110 -0.4579  0.0928 -0.3684
   76MPD2    C5 1163   0.947   3.116  12.129  0.2207 -0.5364 -0.3389
   76MPD2     H 1164   0.839   2.899  11.835 -1.0835  1.9474 -0.0858
   76MPD2    H1 1165   1.090   2.963  12.172  1.0850 -0.2022 -2.5681
   76MPD2    H2 1166   0.805   3.260  12.064 -1.3785 -0.8408  0.4036
   76MPD2    H3 1167   0.988   3.177  12.209  2.7189 -2.9687  0.2229
   76MPD2     N 1168   1.016   2.784  11.999 -0.3740  0.3009  0.7052
   76MPD2    H5 1169   1.079   2.766  12.075  0.9290  1.8053 -0.0193
   76MPD2    N1 1170   0.714   3.123  11.844 -0.1607  0.1400  0.5092
   76MPD2    H7 1171   0.687   3.051  11.778  0.5865  1.2220 -0.9794
   77TCq2    C1 1172   1.007   2.698  11.895 -0.4794  0.3873  0.3424
   77TCq2    O2 1173   0.957   2.721  11.789  0.4470 -0.0837 -0.6252
   77TCq2    C2 1174   1.055   2.565  11.923 -0.0079 -0.0006  0.8956
   77TCq2    C3 1175   0.994   2.464  11.856 -1.0921 -0.7523 -0.2460
   77TCq2    C4 1176   1.016   2.334  11.893 -0.1451 -0.2376 -0.4669
   77TCq2    C5 1177   1.090   2.299  12.005  0.2518  0.7125 -0.1393
   77TCq2    C6 1178   1.151   2.404  12.068  0.2845  0.1619  0.8032
   77TCq2    C7 1179   1.137   2.538  12.030 -0.2491  1.1637 -0.2082
   77TCq2    C8 1180   1.228   2.366  12.186 -0.3095  0.1012 -0.2772
   77TCq2    O4 1181   1.211   2.255  12.234 -0.3456  0.0231 -0.7832
   77TCq2    C9 1182   0.937   2.241  11.827 -0.3684  0.1351 -0.8088
   77TCq2    O5 1183   0.880   2.279  11.719 -0.0645 -0.4424 -0.1614
   77TCq2    O6 1184   0.918   2.134  11.893 -0.4621  0.0820 -0.1372
   77TCq2    H2 1185   0.934   2.481  11.767  0.5610  0.7789 -1.0639
   77TCq2    H3 1186   1.104   2.200  12.047 -2.3599  0.3147 -0.2003
   77TCq2    H4 1187   1.183   2.620  12.083  0.1693  1.0588 -0.4093
   78MPD1     C 1188   3.163   2.683   2.343  0.2607  0.1343  0.3352
   78MPD1    C1 1189   3.206   2.813   2.334  0.9382 -0.5955 -0.3149
   78MPD1    C2 1190   3.334   2.846   2.373  0.3571  0.4578 -0.2141
   78MPD1    C3 1191   3.423   2.749   2.413  0.3017  0.2847 -0.2578
   78MPD1    C4 1192   3.376   2.622   2.415 -0.4936  0.1957  0.1345
   78MPD1    C5 1193   3.254   2.588   2.376 -0.1055  0.4488 -0.2375
   78MPD1     H 1194   3.358   2.952   2.372 -0.3892  0.6282 -0.0196
   78MPD1    H1 1195   3.443   2.540   2.439  1.2911  1.2188 -1.3588
   78MPD1    H2 1196   3.061   2.662   2.315  1.7843 -3.1252 -2.8200
   78MPD1    H3 1197   3.223   2.485   2.375 -1.8331  0.9434  1.8733
   78MPD1     N 1198   3.560   2.771   2.444 -1.2684  0.9623  0.1421
   78MPD1    H5 1199   3.622   2.691   2.444 -1.4601  0.8187  0.6246
   78MPD1    N1 1200   3.111   2.912   2.306  0.3155  0.2042  0.2559
   78MPD1    H6 1201   3.049   2.891   2.228  0.3552  2.2491 -0.3197
   78MPD1    H7 1202   3.144   3.007   2.288 -0.2472  0.2976 -0.2577
   79TCq2    C1 1203   3.620   2.899   2.440  0.7529 -0.8087 -0.0884
   79TCq2    O2 1204   3.572   3.007   2.411  0.3725  0.4303 -0.1595
   79TCq2    C2 1205   3.766   2.895   2.449  0.2850 -0.2708  0.1702
   79TCq2    C3 1206   3.822   2.786   2.514  0.6908 -0.4981 -0.3858
   79TCq2    C4 1207   3.959   2.793   2.532  0.1714  0.3398 -0.1228
   79TCq2    C5 1208   4.038   2.900   2.479 -0.1198 -0.0468 -0.3604
   79TCq2    C6 1209   3.968   3.007   2.427  0.2011 -0.1319  0.5098
   79TCq2    C7 1210   3.838   3.008   2.418  0.7075  0.3245 -0.6326
   79TCq2    C8 1211   4.041   3.127   2.376  0.7100 -0.9265  0.6935
   79TCq2    O4 1212   3.968   3.225   2.362 -0.0133 -0.1643 -0.4755
   79TCq2    C9 1213   4.028   2.674   2.584 -0.3186  0.3263 -0.6146
   79TCq2    O5 1214   4.151   2.674   2.608 -0.3525  0.3159 -0.5900
   79TCq2    O6 1215   3.944   2.592   2.633  0.4997  0.3183  0.6618
   79TCq2    H2 1216   3.772   2.696   2.547  3.1109 -1.6890  0.0816
   79TCq2    H3 1217   4.146   2.905   2.483 -0.1934  1.8232 -0.8125
   79TCq2    H4 1218   3.782   3.089   2.372  0.5747  0.9090  0.5826
   80MPD2     C 1219   0.086   2.846  12.259 -0.9953  0.2780  1.0142
   80MPD2    C1 1220   4.680   2.822  12.215 -0.1537  0.6015  0.3407
   80MPD2    C2 1221   4.585   2.860  12.303  0.3770 -0.4784  0.6425
   80MPD2    C3 1222   4.616   2.917  12.428 -0.2579 -0.0146 -0.4334
   80MPD2    C4 1223   0.025   2.936  12.472  0.2653 -0.3254 -0.1036
   80MPD2    C5 1224   0.116   2.899  12.387  0.0588  0.6377  0.3325
   80MPD2     H 1225   4.481   2.843  12.279  0.0600  2.2943  0.0976
   80MPD2    H1 1226   0.045   2.984  12.568 -0.0928 -0.5432  0.0793
   80MPD2    H2 1227   0.177   2.813  12.210  0.4026  2.5954  2.0754
   80MPD2    H3 1228   0.219   2.894  12.420  0.0144 -2.3627  0.0688
   80MPD2     N 1229   4.517   2.950  12.518  0.6720 -0.4776 -0.3517
   80MPD2    H5 1230   4.539   2.987  12.610  1.6190 -0.9596 -0.3816
   80MPD2    N1 1231   4.649   2.765  12.084 -0.5420 -0.3783 -0.3550
   80MPD2    H7 1232   4.551   2.750  12.067 -0.5482 -0.6344 -0.0807
   81TCq2    C1 1233   0.008   2.746  11.981 -0.6828  0.0711  0.9648
   81TCq2    O2 1234   0.129   2.773  11.975 -0.1380  0.3310  0.8946
   81TCq2    C2 1235   4.664   2.692  11.851  0.2790 -0.1656  0.4213
   81TCq2    C3 1236   0.018   2.697  11.738 -0.4732  0.6011  0.1942
   81TCq2    C4 1237   4.702   2.644  11.623 -0.3739  0.1640  0.0835
   81TCq2    C5 1238   4.579   2.576  11.621  0.3105  0.4003  0.6131
   81TCq2    C6 1239   4.499   2.582  11.728  0.5422 -0.0939  0.2069
   81TCq2    C7 1240   4.535   2.642  11.845  0.0099 -1.0617  0.0265
   81TCq2    C8 1241   4.368   2.547  11.708  0.1303  0.4022  0.1381
   81TCq2    O4 1242   4.336   2.504  11.597  0.3402 -0.9292 -0.0768
   81TCq2    C9 1243   0.074   2.641  11.512 -0.3853  0.8103  0.2035
   81TCq2    O5 1244   0.052   2.563  11.415 -0.4562 -0.5290  0.1319
   81TCq2    O6 1245   0.180   2.709  11.523 -0.0204  0.1260  0.1287
   81TCq2    H2 1246   0.120   2.734  11.744 -0.9011  1.7657  0.2607
   81TCq2    H3 1247   4.563   2.520  11.529  2.4233  0.5797  0.1420
   81TCq2    H4 1248   4.486   2.609  11.936  0.1006  2.6671  1.4055
   82MPD2     C 1249   2.694   2.429  10.539 -0.1526 -0.0068  0.2572
   82MPD2    C1 1250   2.679   2.305  10.483  0.3497  1.1080 -0.0176
   82MPD2    C2 1251   2.772   2.207  10.513  0.3440  0.3744 -0.4332
   82MPD2    C3 1252   2.877   2.227  10.596  0.2110 -0.6347 -0.3501
   82MPD2    C4 1253   2.894   2.359  10.646  0.0278 -0.6912  0.1790
   82MPD2    C5 1254   2.804   2.453  10.618  0.9371 -0.3944  0.0538
   82MPD2     H 1255   2.767   2.112  10.462 -0.3281 -0.3389  0.9616
   82MPD2    H1 1256   2.982   2.375  10.708 -0.2017  0.2901  0.2539
   82MPD2    H2 1257   2.633   2.512  10.507  3.4651  2.2884 -0.7919
   82MPD2    H3 1258   2.810   2.553  10.661  0.0175  1.0619 -3.2054
   82MPD2     N 1259   2.972   2.132  10.621  0.1217  0.3353  0.1992
   82MPD2    H5 1260   3.049   2.159  10.682  0.8587  0.6078 -0.8517
   82MPD2    N1 1261   2.569   2.278  10.400  0.8630 -0.3586  0.4017
   82MPD2    H7 1262   2.495   2.347  10.390  0.0319 -1.2610  0.2788
   83TCq2    C1 1263   2.970   1.996  10.580  0.1102 -0.2868  0.5369
   83TCq2    O2 1264   2.900   1.938  10.504 -0.6751  0.3058 -0.3925
   83TCq2    C2 1265   3.059   1.917  10.667 -0.8187 -0.8656  0.1709
   83TCq2    C3 1266   3.173   1.973  10.709  0.2663 -0.2379 -0.0416
   83TCq2    C4 1267   3.231   1.920  10.824  0.5343 -0.7320  0.2503
   83TCq2    C5 1268   3.172   1.809  10.880 -0.1188 -0.5048 -0.3252
   83TCq2    C6 1269   3.057   1.755  10.829 -0.4171  0.4020 -0.2451
   83TCq2    C7 1270   2.998   1.806  10.720 -0.4671 -0.3363  0.2034
   83TCq2    C8 1271   3.003   1.635  10.877 -0.4764 -0.3139  0.1697
   83TCq2    O4 1272   3.009   1.610  10.998  0.1669  0.1912  0.0066
   83TCq2    C9 1273   3.354   1.980  10.878 -0.3916 -0.1376  0.6607
   83TCq2    O5 1274   3.399   1.937  10.987  0.3990  0.2333 -0.1616
   83TCq2    O6 1275   3.414   2.066  10.806  0.5753  0.3373  0.5071
   83TCq2    H2 1276   3.215   2.056  10.655  0.1985 -0.2998 -0.1889
   83TCq2    H3 1277   3.216   1.766  10.969  0.8795  0.2725 -0.4418
   83TCq2    H4 1278   2.903   1.776  10.677 -1.9041  0.8477  2.5836
   84TCq2    C1 1279   4.254   0.965  10.468 -1.0153  0.0874 -0.1379
   84TCq2    O2 1280   4.361   0.937  10.407  0.5035  0.0613  0.0304
   84TCq2    C2 1281   4.252   0.959  10.612 -1.2563  0.2423 -0.2945
   84TCq2    C3 1282   4.366   0.907  10.668 -0.0780  0.6357 -0.4586
   84TCq2    C4 1283   4.376   0.907  10.800 -0.5061  0.1955 -0.5465
   84TCq2    C5 1284   4.274   0.939  10.885 -0.5199  0.4434 -0.7617
   84TCq2    C6 1285   4.170   0.999  10.831  0.3707  0.0194 -0.2427
   84TCq2    C7 1286   4.151   1.007  10.693 -0.3260 -0.7480  0.2432
   84TCq2    C8 1287   4.059   1.022  10.916  0.2487  0.9242  0.2620
   84TCq2    O4 1288   4.082   1.053  11.030 -0.4220 -0.3409  0.4271
   84TCq2    C9 1289   4.491   0.876  10.862 -0.2830  0.3993  0.7149
   84TCq2    O5 1290   4.501   0.852  10.987  0.4897  0.1022 -0.5984
   84TCq2    O6 1291   4.591   0.884  10.792 -0.0806  0.1427  0.4164
   84TCq2    H2 1292   4.455   0.906  10.606  1.4490 -1.5744  1.7707
   84TCq2    H3 1293   4.285   0.942  10.993  2.0416 -1.9535 -0.9484
   84TCq2    H4 1294   4.079   1.074  10.646  0.0116 -0.8741 -0.4561
   85MPD2     C 1295   3.964   4.356  16.458  0.0891  0.8097 -0.7884
   85MPD2    C1 1296   4.039   4.281  16.369  0.0475  0.1472  0.3840
   85MPD2    C2 1297   4.125   4.344  16.285  0.1577  1.1113 -0.3334
   85MPD2    C3 1298   4.132   4.479  16.275  0.0851 -0.1529 -0.2860
   85MPD2    C4 1299   4.037   4.552  16.351  0.0568  0.0309  0.3726
   85MPD2    C5 1300   3.965   4.492  16.448 -0.0684  0.5260  0.1122
   85MPD2     H 1301   4.200   4.289  16.230 -1.6700  1.4374 -3.1087
   85MPD2    H1 1302   4.037   4.660  16.355 -0.9406  0.0439 -0.1169
   85MPD2    H2 1303   3.896   4.317  16.532  1.4505  0.1710  0.1428
   85MPD2    H3 1304   3.894   4.548  16.508  1.5311  3.7162 -0.9979
   85MPD2     N 1305   4.224   4.534  16.188 -0.0585  0.1450 -0.2688
   85MPD2    H5 1306   4.297   4.469  16.163 -2.1626 -2.0693 -0.6645
   85MPD2    N1 1307   4.020   4.143  16.364  0.1272 -0.5178  0.6466
   85MPD2    H7 1308   4.091   4.092  16.311 -0.3753 -1.4386  0.8615
   86TCq2    C1 1309   4.228   4.661  16.135 -0.3944  0.2636  0.4070
   86TCq2    O2 1310   4.151   0.034  16.156 -0.2973  0.4370  0.1618
   86TCq2    C2 1311   4.311   4.671  16.019 -0.1262 -0.6736  0.4002
   86TCq2    C3 1312   4.319   0.075  15.967  0.3666 -0.2394 -0.1830
   86TCq2    C4 1313   4.400   0.106  15.858  0.4446 -0.2238  0.5827
   86TCq2    C5 1314   4.492   0.015  15.807 -0.2930  0.0805  0.2000
   86TCq2    C6 1315   4.481   4.614  15.864 -0.5373  0.3493  0.0132
   86TCq2    C7 1316   4.402   4.578  15.968 -0.3354  0.4552 -0.2569
   86TCq2    C8 1317   4.539   4.503  15.794 -0.2690 -0.0178 -0.4321
   86TCq2    O4 1318   4.559   4.401  15.857 -0.9507  0.8323 -0.2027
   86TCq2    C9 1319   4.366   0.225  15.786  0.7366 -0.3027 -0.2038
   86TCq2    O5 1320   4.310   0.326  15.836 -0.2479 -0.8322 -0.1475
   86TCq2    O6 1321   4.412   0.213  15.669  0.0568  0.0403  0.1455
   86TCq2    H2 1322   4.248   0.154  15.990 -0.9728 -1.2763 -0.7189
   86TCq2    H3 1323   4.561   0.053  15.733  1.1949 -2.5229  0.2634
   86TCq2    H4 1324   4.404   4.478  16.010 -2.4388  0.9002  0.8746
   87MPD2     C 1325   1.862   2.860   1.358  0.1546  0.2616 -0.0264
   87MPD2    C1 1326   1.947   2.971   1.364 -0.0338 -0.1907 -0.4115
   87MPD2    C2 1327   1.899   3.104   1.346  0.8798 -0.6509  0.1048
   87MPD2    C3 1328   1.768   3.115   1.299  0.7303 -0.0420  0.2705
   87MPD2    C4 1329   1.686   3.005   1.299 -0.0972 -0.1556 -0.7120
   87MPD2    C5 1330   1.731   2.881   1.327  0.1079  0.2478 -0.0346
   87MPD2     H 1331   1.966   3.188   1.357 -2.0422  1.6254  0.5037
   87MPD2    H1 1332   1.583   3.019   1.267 -0.2116  1.5617  0.3892
   87MPD2    H2 1333   1.885   2.754   1.367 -1.9728 -0.1427  0.8599
   87MPD2    H3 1334   1.656   2.803   1.316  0.6246 -0.6477  2.5406
   87MPD2     N 1335   1.710   3.236   1.258  0.3143  0.7370 -0.0330
   87MPD2    H5 1336   1.611   3.227   1.236  0.7117  0.0777 -1.5965
   87MPD2    N1 1337   2.087   2.946   1.404 -0.3757  0.0408  0.6120
   87MPD2    H7 1338   2.118   2.850   1.413 -0.4016  0.1259  1.6484
   88TCq2    C1 1339   2.176   3.043   1.430  0.3341  0.4569  0.4993
   88TCq2    O2 1340   2.168   3.164   1.422  0.7851  0.4113  0.0500
   88TCq2    C2 1341   2.307   2.992   1.465  0.0085 -0.1041  0.7757
   88TCq2    C3 1342   2.381   3.073   1.543 -0.7877  0.7538  0.5604
   88TCq2    C4 1343   2.517   3.057   1.557  0.0701  0.0570  0.7594
   88TCq2    C5 1344   2.575   2.948   1.500  0.2074  1.1554  0.6960
   88TCq2    C6 1345   2.501   2.864   1.419  0.2559 -0.0636 -0.7337
   88TCq2    C7 1346   2.370   2.894   1.390  0.4328 -0.0077 -0.1181
   88TCq2    C8 1347   2.571   2.785   1.319 -0.6082  0.5241  1.0344
   88TCq2    O4 1348   2.688   2.818   1.302 -0.2613  0.1068  0.2741
   88TCq2    C9 1349   2.593   3.137   1.644 -0.2065 -0.1629  0.1600
   88TCq2    O5 1350   2.545   3.239   1.698 -0.2301  0.0230  0.5279
   88TCq2    O6 1351   2.713   3.106   1.656  0.2808  0.0032  0.1544
   88TCq2    H2 1352   2.337   3.157   1.595 -2.5939  0.4698 -0.5044
   88TCq2    H3 1353   2.676   2.917   1.525 -0.5734 -0.8997  1.3794
   88TCq2    H4 1354   2.321   2.837   1.312  0.2113 -1.4551  1.0814
   89MPD2     C 1355   2.881   0.776   2.278  0.8583 -0.8735 -0.5793
   89MPD2    C1 1356   2.766   0.821   2.205  0.2656  0.5628 -0.0364
   89MPD2    C2 1357   2.800   0.902   2.091  0.2038 -0.0766  0.2023
   89MPD2    C3 1358   2.922   0.915   2.040  0.4858 -0.9140 -1.2570
   89MPD2    C4 1359   3.023   0.848   2.104  0.6509  0.2066  0.4413
   89MPD2    C5 1360   3.006   0.790   2.225 -0.3165 -0.0335 -0.2539
   89MPD2     H 1361   2.712   0.938   2.039  1.3197  0.7518 -1.0841
   89MPD2    H1 1362   3.122   0.837   2.062  0.0062 -0.9538 -0.7486
   89MPD2    H2 1363   2.874   0.707   2.362 -1.0243 -0.2375 -0.2117
   89MPD2    H3 1364   3.088   0.740   2.274 -1.2989 -1.8173 -0.4192
   89MPD2     N 1365   2.934   0.984   1.915 -0.6036 -0.3552 -0.5952
   89MPD2    H5 1366   2.857   1.045   1.888  0.5096  1.7566  1.0488
   89MPD2    N1 1367   2.632   0.812   2.244 -0.3798 -0.2511 -0.3467
   89MPD2    H7 1368   2.567   0.845   2.174 -0.8549  2.1441  1.2285
   90TCq2    C1 1369   3.050   1.002   1.851  0.5194  0.4687  0.0741
   90TCq2    O2 1370   3.158   0.939   1.863 -0.1319  0.0399  0.4561
   90TCq2    C2 1371   3.033   1.092   1.738  0.0172  0.5920 -0.2720
   90TCq2    C3 1372   2.914   1.159   1.729 -0.2003  0.4710 -0.4742
   90TCq2    C4 1373   2.894   1.219   1.610 -0.2152 -0.0353 -0.0165
   90TCq2    C5 1374   2.988   1.223   1.503 -0.1355 -0.3118  0.3378
   90TCq2    C6 1375   3.098   1.151   1.515 -1.2122  1.0254 -0.8560
   90TCq2    C7 1376   3.134   1.092   1.639  0.2676  0.3684  0.2022
   90TCq2    C8 1377   3.200   1.143   1.410 -0.1699  0.1649 -0.1872
   90TCq2    O4 1378   3.267   1.042   1.402 -0.0192  0.0897  0.3109
   90TCq2    C9 1379   2.768   1.283   1.589 -0.6337 -0.8129 -0.3933
   90TCq2    O5 1380   2.742   1.325   1.475 -0.3257 -0.5953  0.1215
   90TCq2    O6 1381   2.672   1.252   1.666  0.2072 -0.0757  0.1865
   90TCq2    H2 1382   2.841   1.164   1.809 -0.7580  1.9051 -1.0839
   90TCq2    H3 1383   2.954   1.266   1.409 -0.3927 -1.4270 -0.0796
   90TCq2    H4 1384   3.222   1.029   1.648 -0.1419  0.0238  1.9330
   91TMC2    C1 1385   3.966   0.453  16.677 -0.0262  0.3510 -0.0531
   91TMC2    C2 1386   4.036   0.337  16.672  0.1649  0.7350  0.3599
   91TMC2    C3 1387   3.982   0.219  16.723  0.3980 -0.5692  0.0825
   91TMC2    C4 1388   3.847   0.469  16.734  0.0958 -0.0531 -0.6653
   91TMC2    C5 1389   3.797   0.350  16.783  0.4937 -0.1320 -0.5103
   91TMC2    C6 1390   3.860   0.227  16.782  0.5516  0.1471  0.3695
   91TMC2     C 1391   4.025   0.574  16.617 -0.4161 -0.1378 -0.6619
   91TMC2     O 1392   3.945   0.668  16.594 -0.4425 -0.4980  0.2733
   91TMC2     H 1393   4.130   0.319  16.623  0.9080  0.9639  1.6919
   91TMC2    H1 1394   3.785   0.558  16.730 -0.3851 -0.2304  2.6071
   91TMC2    H2 1395   3.799   0.144  16.816 -0.6016  1.2366  0.9393
   91TMC2    C7 1396   3.656   0.334  16.783 -0.2239  0.1879 -0.3010
   91TMC2    C8 1397   4.015   0.098  16.661  0.7445  0.4778  0.0012
   91TMC2    O1 1398   3.593   0.301  16.888  0.0179  0.3283  0.4089
   91TMC2    O2 1399   4.051   0.090  16.545 -0.0354  0.3706  0.7177
   91TMC2    O5 1400   3.975   4.715  16.736  0.1684 -0.0705 -0.9942
   91TMC2    H5 1401   3.963   0.019  16.830 -0.1301 -2.7017 -0.3180
   92MPD2     C 1402   4.190   0.767  16.466  0.1606  0.1535  0.0042
   92MPD2    C1 1403   4.243   0.657  16.537  0.2625  0.4594 -0.1729
   92MPD2    C2 1404   4.382   0.651  16.543 -0.8732  0.2016 -0.2200
   92MPD2    C3 1405   4.459   0.744  16.470 -0.2628 -0.2294  0.3358
   92MPD2    C4 1406   4.398   0.845  16.400  0.0495  0.4451 -0.1149
   92MPD2    C5 1407   4.268   0.860  16.403  0.5621  0.3843  0.3410
   92MPD2     H 1408   4.415   0.568  16.604  1.2850  0.4410 -1.0328
   92MPD2    H1 1409   4.443   0.924  16.343  0.9687 -0.7663 -1.0658
   92MPD2    H2 1410   4.084   0.789  16.466  0.2580  0.6026 -0.7176
   92MPD2    H3 1411   4.228   0.948  16.354  0.3254 -0.0551 -0.2568
   92MPD2     N 1412   4.601   0.747  16.466  0.4922 -0.0524 -0.8226
   92MPD2    H5 1413   4.644   0.821  16.410 -1.8927  1.7106 -0.3077
   92MPD2    N1 1414   4.158   0.567  16.600 -0.6864  0.4895 -0.3771
   92MPD2    H7 1415   4.197   0.475  16.620 -1.1829 -0.1578 -2.3543
   93MPD2     C 1416   0.916   0.865  14.205 -0.2968 -0.1982  0.3778
   93MPD2    C1 1417   0.932   0.924  14.086  0.6349  0.5521  0.5723
   93MPD2    C2 1418   0.821   0.930  14.004 -0.3091 -0.6166  0.7971
   93MPD2    C3 1419   0.700   0.882  14.039  0.4380 -0.1445  0.0518
   93MPD2    C4 1420   0.689   0.821  14.163 -1.1163  0.2710  0.3087
   93MPD2    C5 1421   0.797   0.813  14.241 -0.2491  0.6055  0.3861
   93MPD2     H 1422   0.829   0.976  13.906  0.5447  1.1407  1.6759
   93MPD2    H1 1423   0.603   0.767  14.201 -1.4316  0.7680  0.2995
   93MPD2    H2 1424   0.996   0.852  14.278 -0.7311  2.7168  1.3741
   93MPD2    H3 1425   0.786   0.775  14.342 -0.2304 -0.2304  0.0752
   93MPD2     N 1426   0.599   0.871  13.938 -0.1931  0.1056  0.4380
   93MPD2    H5 1427   0.623   0.915  13.850  1.3292 -0.3056  0.6412
   93MPD2    N1 1428   1.051   0.994  14.048  0.2603  0.0230  0.3065
   93MPD2    H7 1429   1.052   1.034  13.955  1.5741 -0.5830  0.0707
   94TCq2    C1 1430   1.171   0.998  14.116 -0.1380  0.2095  0.5525
   94TCq2    O2 1431   1.192   0.951  14.225 -0.0568  0.1857  0.0909
   94TCq2    C2 1432   1.274   1.077  14.040 -0.0216 -0.3873 -0.5304
   94TCq2    C3 1433   1.223   1.153  13.933 -0.0098  0.9306  0.2116
   94TCq2    C4 1434   1.318   1.204  13.846  0.8014 -0.0401 -0.4173
   94TCq2    C5 1435   1.451   1.175  13.867  0.1186 -0.3996 -0.2040
   94TCq2    C6 1436   1.482   1.104  13.971 -0.2827  0.6322  0.3347
   94TCq2    C7 1437   1.397   1.053  14.063 -0.2676 -0.1022  0.1653
   94TCq2    C8 1438   1.626   1.080  13.992 -0.4620  0.5718 -0.1025
   94TCq2    O4 1439   1.660   0.965  14.021 -0.0004 -0.1228  0.4783
   94TCq2    C9 1440   1.272   1.267  13.724 -0.8764 -0.6088  0.1727
   94TCq2    O5 1441   1.162   1.228  13.680  0.2695  0.4881 -0.3753
   94TCq2    O6 1442   1.366   1.315  13.651 -0.6537 -0.2409 -0.2343
   94TCq2    H2 1443   1.121   1.173  13.902  0.8208  3.9047 -0.6539
   94TCq2    H3 1444   1.525   1.210  13.796 -0.6231  1.1282 -0.2399
   94TCq2    H4 1445   1.436   1.008  14.154 -0.1197 -0.3229 -0.0067
   95TMC2    C1 1446   1.405   2.497  16.252  0.2668 -0.0866 -0.1289
   95TMC2    C2 1447   1.403   2.618  16.317  0.1874 -0.0996 -0.2725
   95TMC2    C3 1448   1.328   2.626  16.433 -0.3822  0.2250 -0.1175
   95TMC2    C4 1449   1.339   2.385  16.298  0.1007 -0.5403  0.9395
   95TMC2    C5 1450   1.283   2.393  16.417 -0.7434  0.6105  0.3468
   95TMC2    C6 1451   1.286   2.509  16.488 -0.2893 -0.7247  0.5139
   95TMC2     C 1452   1.430   2.509  16.107  0.0808 -0.0818 -0.8523
   95TMC2     O 1453   1.481   2.616  16.078 -0.1136 -0.1471  0.1987
   95TMC2     H 1454   1.460   2.702  16.277 -1.8395  1.7986  0.8193
   95TMC2    H1 1455   1.358   2.290  16.250  0.6031  0.6015 -1.1465
   95TMC2    H2 1456   1.246   2.508  16.589 -3.3471  1.0823 -0.7062
   95TMC2    C7 1457   1.281   2.268  16.491  0.1115 -0.4333 -0.1832
   95TMC2    C8 1458   1.354   2.731  16.534  0.0186  0.1885  0.1931
   95TMC2    O1 1459   1.326   2.265  16.605 -0.3594 -0.6052  0.2468
   95TMC2    O2 1460   1.333   2.708  16.653 -0.0765 -0.0182 -0.2205
   95TMC2    O5 1461   1.380   2.851  16.472 -0.4830  0.0444  0.0572
   95TMC2    H5 1462   1.380   2.863  16.374 -0.6576  0.2349  0.0801
   96MPD2     C 1463   1.486   2.340  15.625  0.2176 -0.7719  0.3508
   96MPD2    C1 1464   1.556   2.440  15.693 -0.5382 -0.0815  0.0234
   96MPD2    C2 1465   1.538   2.469  15.827  0.9226  0.3191 -0.5407
   96MPD2    C3 1466   1.444   2.385  15.894 -0.2526  0.4942 -0.1003
   96MPD2    C4 1467   1.376   2.290  15.823  0.6360  0.0431 -0.5344
   96MPD2    C5 1468   1.394   2.267  15.693 -0.2011  0.4388  0.0132
   96MPD2     H 1469   1.596   2.546  15.877  1.6690 -0.8943  0.4733
   96MPD2    H1 1470   1.315   2.212  15.869  0.9940 -0.1616 -0.4075
   96MPD2    H2 1471   1.505   2.306  15.524  0.0249  0.5150 -0.1231
   96MPD2    H3 1472   1.338   2.185  15.651  2.2491 -1.0500 -0.3402
   96MPD2     N 1473   1.400   2.405  16.026 -0.5551  0.3454 -0.2498
   96MPD2    H5 1474   1.327   2.341  16.056 -0.3213 -0.3047 -1.0618
   96MPD2    N1 1475   1.650   2.518  15.611  0.1260 -0.1332 -0.1119
   96MPD2    H7 1476   1.668   2.471  15.523  1.7751  1.5370 -0.6856
   97MPD2     C 1477   3.914   4.484   1.425  0.2540 -0.1740  0.3366
   97MPD2    C1 1478   3.793   4.544   1.412 -0.0888 -0.6443  0.1460
   97MPD2    C2 1479   3.726   4.539   1.291  0.3587  0.3526  0.7720
   97MPD2    C3 1480   3.787   4.471   1.184 -0.7438 -0.1830  0.4729
   97MPD2    C4 1481   3.915   4.423   1.199  0.5714 -0.0927  0.2000
   97MPD2    C5 1482   3.979   4.421   1.319 -0.3625  0.1593  0.3509
   97MPD2     H 1483   3.625   4.580   1.289  0.7764  1.2936 -1.1696
   97MPD2    H1 1484   3.964   4.375   1.115  1.6690 -0.6654  1.1484
   97MPD2    H2 1485   3.968   4.476   1.518 -0.2375 -0.1166  0.6236
   97MPD2    H3 1486   4.075   4.376   1.338 -0.8003 -1.7859 -2.0397
   97MPD2     N 1487   3.728   4.457   1.054 -0.5911  0.6146 -0.5634
   97MPD2    H5 1488   3.773   4.387   0.995  2.7722  3.6931 -1.6305
   97MPD2    N1 1489   3.743   4.600   1.530 -0.1502 -0.5424 -0.2198
   97MPD2    H7 1490   3.800   4.572   1.610 -1.3094 -0.7764  0.5308
   98TCq2    C1 1491   3.608   4.513   1.011  0.2372  0.2776  0.1119
   98TCq2    O2 1492   3.522   4.576   1.073 -0.0854 -0.5395 -0.3136
   98TCq2    C2 1493   3.574   4.465   0.876 -0.1954 -0.0332  0.4262
   98TCq2    C3 1494   3.440   4.457   0.859 -0.3901 -0.3488 -0.1748
   98TCq2    C4 1495   3.393   4.451   0.732  0.7234 -0.1950  0.3467
   98TCq2    C5 1496   3.481   4.444   0.629  0.8911 -0.1545  0.4870
   98TCq2    C6 1497   3.615   4.463   0.645 -0.3046  0.7570  0.2095
   98TCq2    C7 1498   3.660   4.475   0.776  0.0762  0.7940 -0.2259
   98TCq2    C8 1499   3.709   4.499   0.546 -0.7532  0.8085  0.6447
   98TCq2    O4 1500   3.821   4.534   0.581 -0.6809  0.2446 -0.1071
   98TCq2    C9 1501   3.253   4.456   0.699  0.2103 -0.4324  0.3269
   98TCq2    O5 1502   3.206   4.505   0.591 -0.2175 -0.1399  0.3833
   98TCq2    O6 1503   3.175   4.426   0.793  1.2507  0.3670  0.4004
   98TCq2    H2 1504   3.366   4.462   0.938  1.4058  0.9927  1.4266
   98TCq2    H3 1505   3.439   4.419   0.532  0.1704  3.3266 -0.0944
   98TCq2    H4 1506   3.767   4.479   0.796  0.1348  0.1877 -0.4066
   99MPD2     C 1507   1.846   2.380   1.930 -0.1623  0.0544 -0.1235
   99MPD2    C1 1508   1.833   2.269   2.007 -0.9604  0.2771  0.0312
   99MPD2    C2 1509   1.885   2.145   1.970  0.1115 -0.1325 -0.2291
   99MPD2    C3 1510   1.950   2.131   1.850 -0.4342  0.0386 -0.1811
   99MPD2    C4 1511   1.977   2.245   1.777 -0.6192  0.2159 -0.4101
   99MPD2    C5 1512   1.923   2.366   1.820  0.1162  0.2804 -0.7098
   99MPD2     H 1513   1.854   2.052   2.017 -2.1397 -0.6356 -2.6721
   99MPD2    H1 1514   2.028   2.251   1.681 -0.1744 -0.5809 -0.2186
   99MPD2    H2 1515   1.806   2.478   1.953  2.7304  1.4415 -0.9884
   99MPD2    H3 1516   1.945   2.455   1.763  0.9656  0.6981  0.2757
   99MPD2     N 1517   1.982   2.003   1.808  0.3072 -0.0090 -0.8588
   99MPD2    H5 1518   1.933   1.929   1.856 -0.1534  1.4595  0.9475
   99MPD2    N1 1519   1.781   2.277   2.141  0.4861  0.5012 -0.0021
   99MPD2    H7 1520   1.783   2.195   2.200 -2.1016  0.5029  0.0658
  100TCq2    C1 1521   1.731   2.393   2.201 -0.6227 -0.7388 -0.4313
  100TCq2    O2 1522   1.726   2.514   2.165 -0.1942  0.7851  0.3971
  100TCq2    C2 1523   1.672   2.376   2.333 -0.2397 -0.3038 -0.1562
  100TCq2    C3 1524   1.683   2.473   2.425 -0.1903  0.0537  0.0912
  100TCq2    C4 1525   1.621   2.453   2.545  0.0451 -0.2680 -0.0102
  100TCq2    C5 1526   1.545   2.348   2.565 -0.2122 -0.4442 -0.6886
  100TCq2    C6 1527   1.542   2.250   2.471  0.5008  0.0731 -0.3500
  100TCq2    C7 1528   1.611   2.261   2.354  0.0474  0.1794 -0.4712
  100TCq2    C8 1529   1.469   2.133   2.505  0.0159  0.0473 -0.0471
  100TCq2    O4 1530   1.447   2.113   2.623 -0.0816  0.0937  0.0915
  100TCq2    C9 1531   1.634   2.547   2.653 -0.3337  0.6567  0.1341
  100TCq2    O5 1532   1.616   2.504   2.770  0.0385  0.1396 -0.1084
  100TCq2    O6 1533   1.726   2.627   2.629  0.5905  0.7901 -0.0199
  100TCq2    H2 1534   1.743   2.561   2.408  0.1604 -0.2243 -0.1225
  100TCq2    H3 1535   1.502   2.340   2.664 -0.1427 -1.3015 -0.7339
  100TCq2    H4 1536   1.610   2.181   2.281  1.8819 -0.7455  0.4960
  101MPD2     C 1537   2.938   2.816  12.872 -0.1749 -0.1180 -0.3013
  101MPD2    C1 1538   2.899   2.890  12.979 -0.4963 -0.1206 -0.0895
  101MPD2    C2 1539   2.815   2.841  13.084 -0.1525  0.1088  0.2077
  101MPD2    C3 1540   2.783   2.705  13.083 -0.1016  0.0465  0.1062
  101MPD2    C4 1541   2.836   2.631  12.977  0.3037  0.0478 -0.8004
  101MPD2    C5 1542   2.909   2.689  12.877 -0.3699  0.3102 -0.3918
  101MPD2     H 1543   2.783   2.903  13.167 -0.3836  1.4358 -0.8810
  101MPD2    H1 1544   2.802   2.528  12.971 -1.8241  0.6888  0.2612
  101MPD2    H2 1545   3.002   2.864  12.798 -2.7223  2.8560 -0.5600
  101MPD2    H3 1546   2.948   2.628  12.795  0.1986 -0.2150  0.2654
  101MPD2     N 1547   2.694   2.652  13.181  0.7904 -0.4421  0.2053
  101MPD2    H5 1548   2.644   2.567  13.156 -0.8625  0.7617 -0.5917
  101MPD2    N1 1549   2.944   3.026  12.973  0.0160 -0.2952 -0.3959
  101MPD2    H7 1550   3.013   3.062  12.908  0.2112 -0.0052 -0.0269
  102TCq2    C1 1551   3.149   3.404  12.749 -0.6275  0.7008 -0.3120
  102TCq2    O2 1552   3.269   3.395  12.786  0.1904  0.3383  0.4214
  102TCq2    C2 1553   3.050   3.405  12.854  0.3323  0.0662 -0.9987
  102TCq2    C3 1554   2.947   3.491  12.833 -0.2363 -0.2480 -0.2009
  102TCq2    C4 1555   2.827   3.465  12.897  0.6789 -0.0671 -0.2634
  102TCq2    C5 1556   2.816   3.365  12.990  0.5902 -0.9716 -1.1663
  102TCq2    C6 1557   2.914   3.269  13.002 -0.2455  0.1533 -0.4046
  102TCq2    C7 1558   3.030   3.290  12.931  0.4183 -0.2211 -0.8706
  102TCq2    C8 1559   2.872   3.132  13.036  0.2169  0.2668 -0.4109
  102TCq2    O4 1560   2.776   3.122  13.116  0.2573 -0.1654 -0.2291
  102TCq2    C9 1561   2.711   3.537  12.873  0.6921  1.1961  0.4669
  102TCq2    O5 1562   2.601   3.491  12.910  0.7442  0.5082 -0.5411
  102TCq2    O6 1563   2.730   3.620  12.780  0.1721 -0.1887  0.1747
  102TCq2    H2 1564   2.955   3.574  12.765  0.0413  0.4644  0.7040
  102TCq2    H3 1565   2.718   3.348  13.034  0.5993  1.8474 -0.0347
  102TCq2    H4 1566   3.099   3.207  12.935  1.3642  0.6936  1.7935
  103TMC2    C1 1567   1.771   2.899  12.415 -0.3015  0.1324  0.8022
  103TMC2    C2 1568   1.868   2.938  12.333 -0.1424 -0.3446 -0.1600
  103TMC2    C3 1569   1.957   3.034  12.365  0.4168  0.0065 -0.7728
  103TMC2    C4 1570   1.757   2.952  12.540 -0.3625  0.2650 -0.7529
  103TMC2    C5 1571   1.851   3.048  12.579  0.4750  0.5945 -0.7142
  103TMC2    C6 1572   1.944   3.093  12.489  0.6155  0.2709 -0.5253
  103TMC2     C 1573   1.693   2.779  12.376 -0.6796 -0.0213 -0.2286
  103TMC2     O 1574   1.720   2.728  12.266 -0.3299  0.6775  0.7988
  103TMC2     H 1575   1.883   2.886  12.240 -0.8706  0.2117 -0.5896
  103TMC2    H1 1576   1.666   2.934  12.596 -2.0704  0.8145 -3.3470
  103TMC2    H2 1577   2.013   3.169  12.524 -2.7238  2.4800  1.2302
  103TMC2    C7 1578   1.848   3.098  12.712  0.0255 -0.1978  0.4633
  103TMC2    C8 1579   2.066   3.071  12.275 -0.0340 -0.1841  0.2294
  103TMC2    O1 1580   1.792   3.032  12.795  0.3721  0.2750 -0.3474
  103TMC2    O2 1581   2.074   3.041  12.158  0.5461 -0.0678 -0.4085
  103TMC2    O5 1582   2.172   3.120  12.352  0.9110  0.6836 -0.1430
  103TMC2    H5 1583   2.165   3.124  12.450 -0.5461  0.9707 -0.2621
  104MPD2     C 1584   1.497   2.543  12.586  0.5990  0.1771 -0.2851
  104MPD2    C1 1585   1.533   2.614  12.470 -0.4210 -0.3747  0.0789
  104MPD2    C2 1586   1.476   2.581  12.347 -0.1682 -0.9795 -0.4804
  104MPD2    C3 1587   1.380   2.485  12.346  0.9052  0.0433  0.1146
  104MPD2    C4 1588   1.343   2.415  12.455 -0.9448  0.4461  0.6542
  104MPD2    C5 1589   1.404   2.448  12.570 -0.7939 -0.9062 -0.1723
  104MPD2     H 1590   1.492   2.649  12.265 -1.5019 -0.5647 -0.4029
  104MPD2    H1 1591   1.267   2.338  12.463 -0.6337  0.1776  1.0354
  104MPD2    H2 1592   1.540   2.568  12.682 -1.0647  1.3593  0.1494
  104MPD2    H3 1593   1.374   2.391  12.657 -1.0139  1.6570  1.4391
  104MPD2     N 1594   1.317   2.462  12.218 -0.7044  0.0506 -0.1442
  104MPD2    H5 1595   1.343   2.527  12.145  1.5111 -1.2286 -0.5106
  104MPD2    N1 1596   1.623   2.724  12.483  0.3206 -0.1154 -0.4512
  104MPD2    H7 1597   1.640   2.760  12.576  0.1251  1.4392 -1.0135
  105MPD2     C 1598   3.075   2.465  17.622 -0.0557 -0.1070 -0.4905
  105MPD2    C1 1599   2.966   2.546  17.665  0.4870  0.4028 -0.2654
  105MPD2    C2 1600   2.965   2.595   0.104  0.4275  0.4070 -1.0005
  105MPD2    C3 1601   3.063   2.565   0.191 -0.0791  0.0234 -0.0031
  105MPD2    C4 1602   3.169   2.475   0.158  0.5914  0.3425  0.4722
  105MPD2    C5 1603   3.174   2.439   0.022  0.2081  0.7202  0.6160
  105MPD2     H 1604   2.874   2.651   0.123 -0.4551 -1.3874  0.0602
  105MPD2    H1 1605   3.240   2.430   0.226  2.1078  2.5714  0.3899
  105MPD2    H2 1606   3.076   2.433  17.518 -2.5006 -3.3260  0.4491
  105MPD2    H3 1607   3.243   2.363  17.675  1.4437  0.9860  2.4330
  105MPD2     N 1608   3.039   2.620   0.317 -0.2022 -0.6561 -0.8776
  105MPD2    H5 1609   2.970   2.693   0.334 -0.1040 -1.0476  1.1821
  105MPD2    N1 1610   2.864   2.587  17.575  0.4952 -0.0968  0.0389
  105MPD2    H7 1611   2.788   2.641  17.614  1.7759  3.3226 -2.2253
  106TCq2    C1 1612   3.098   2.573   0.431  0.1743 -0.4221 -0.5111
  106TCq2    O2 1613   3.165   2.475   0.448  0.3287 -0.3451  0.3610
  106TCq2    C2 1614   3.035   2.636   0.543  0.2447 -0.1101 -0.3579
  106TCq2    C3 1615   2.997   2.768   0.521 -0.1001  0.2682 -0.4955
  106TCq2    C4 1616   2.900   2.812   0.615  0.1004 -0.9576  0.0310
  106TCq2    C5 1617   2.836   2.726   0.694 -0.2435 -0.0547  0.1314
  106TCq2    C6 1618   2.879   2.595   0.705 -0.0092 -0.0592  0.1318
  106TCq2    C7 1619   2.975   2.545   0.624 -0.4732  0.1040  0.3902
  106TCq2    C8 1620   2.824   2.505   0.799 -0.4548 -0.5682  0.1472
  106TCq2    O4 1621   2.844   2.377   0.798 -0.2369 -0.2895  0.1132
  106TCq2    C9 1622   2.843   2.941   0.607  0.2999  0.5274  0.4647
  106TCq2    O5 1623   2.910   3.021   0.536 -0.3659 -0.1196  0.7206
  106TCq2    O6 1624   2.752   2.976   0.685  0.1033 -0.1957  0.2247
  106TCq2    H2 1625   3.051   2.829   0.450  0.4393 -1.6211 -1.7183
  106TCq2    H3 1626   2.753   2.764   0.753  0.3223  0.3677  0.6545
  106TCq2    H4 1627   3.015   2.447   0.648  1.3830  0.1766 -2.4453
  107TMC2    C1 1628   3.453   1.318  11.614  0.7404 -0.1052 -0.3208
  107TMC2    C2 1629   3.487   1.210  11.688  0.1791  0.6093 -0.6084
  107TMC2    C3 1630   3.558   1.111  11.627 -0.7401  0.3686 -0.0373
  107TMC2    C4 1631   3.495   1.337  11.487  0.8160  0.1072 -0.3238
  107TMC2    C5 1632   3.574   1.239  11.434 -0.3712 -0.0150  0.6837
  107TMC2    C6 1633   3.598   1.124  11.498  0.6987  0.3440  0.1319
  107TMC2     C 1634   3.386   1.431  11.676  0.2840  0.7441 -0.4369
  107TMC2     O 1635   3.346   1.426  11.789  0.1623  0.3710 -0.4731
  107TMC2     H 1636   3.467   1.208  11.794  0.3409  0.5135 -0.5794
  107TMC2    H1 1637   3.485   1.424  11.422  2.6342 -0.1945 -0.9961
  107TMC2    H2 1638   3.649   1.040  11.452 -0.8167 -0.9895  0.8701
  107TMC2    C7 1639   3.564   1.234  11.295 -0.1481  0.6378 -0.7767
  107TMC2    C8 1640   3.605   0.998  11.705  0.4895  0.4666 -0.5189
  107TMC2    O1 1641   3.472   1.297  11.242 -0.5316 -0.2013  0.1718
  107TMC2    O2 1642   3.546   0.950  11.800 -0.2679  0.3881  0.0364
  107TMC2    O5 1643   3.741   0.994  11.676 -0.0901  0.7025  0.4325
  107TMC2    H5 1644   3.752   1.054  11.599 -0.2078  0.9591  0.6138
  108MPD2     C 1645   3.325   1.770  11.527 -0.3874  0.2709  0.1817
  108MPD2    C1 1646   3.325   1.668  11.620 -0.1898  0.2079  0.3242
  108MPD2    C2 1647   3.264   1.696  11.740  0.4255  0.3418 -0.8402
  108MPD2    C3 1648   3.187   1.808  11.762 -0.0960  0.6577  0.5557
  108MPD2    C4 1649   3.181   1.901  11.661  0.7381 -0.7422  0.1349
  108MPD2    C5 1650   3.253   1.886  11.547 -0.4479  0.4555 -0.1621
  108MPD2     H 1651   3.260   1.620  11.817 -3.7280  0.1677 -1.2077
  108MPD2    H1 1652   3.122   1.992  11.668 -1.0555 -1.7569 -1.6968
  108MPD2    H2 1653   3.375   1.754  11.432  0.6276 -2.4265  1.1926
  108MPD2    H3 1654   3.255   1.965  11.472  1.5940  0.3367 -0.2256
  108MPD2     N 1655   3.115   1.833  11.877  0.5281  0.4429 -0.7903
  108MPD2    H5 1656   3.057   1.916  11.880 -1.4339 -0.9189 -1.1247
  108MPD2    N1 1657   3.390   1.543  11.593 -0.1514  0.1315  0.3829
  108MPD2    H7 1658   3.427   1.532  11.499 -0.6817  0.2688  0.1567
  109MPD2     C 1659   4.517   4.041   2.575 -0.5556  0.0042 -0.1290
  109MPD2    C1 1660   4.413   4.093   2.507  0.1182  0.4373  0.3479
  109MPD2    C2 1661   4.419   4.218   2.464  0.6394  0.0531 -0.0311
  109MPD2    C3 1662   4.517   4.306   2.508 -0.3883  0.2003 -0.3602
  109MPD2    C4 1663   4.618   4.256   2.589 -0.4794 -0.3537  0.5088
  109MPD2    C5 1664   4.615   4.124   2.622  0.8481  0.2704  0.2450
  109MPD2     H 1665   4.370   4.239   2.369  4.3169  1.0687 -1.7136
  109MPD2    H1 1666   4.694   4.309   2.645 -1.2395  3.3510 -1.9980
  109MPD2    H2 1667   4.508   3.938   2.608  1.5784 -0.4500 -0.9757
  109MPD2    H3 1668   4.694   4.079   2.680  2.2598  2.5002  0.0599
  109MPD2     N 1669   4.516   4.435   2.456 -0.2756  0.5488  0.2907
  109MPD2    H5 1670   4.450   4.463   2.384  0.6449 -1.1457 -1.2108
  109MPD2    N1 1671   4.306   4.011   2.467 -0.0214  0.1339 -0.1605
  109MPD2    H7 1672   4.313   3.912   2.486 -2.6138  0.2593  1.4831
  110TCq2    C1 1673   4.602   4.534   2.501  0.9224 -1.0276  0.0455
  110TCq2    O2 1674   4.704   4.525   2.566 -0.3082  0.0078  0.1178
  110TCq2    C2 1675   4.562   4.663   2.450 -0.0336 -1.2178 -0.0748
  110TCq2    C3 1676   4.654   0.039   2.450  0.5828  0.0481 -1.1585
  110TCq2    C4 1677   4.615   0.158   2.399  0.3715 -0.5203  0.0409
  110TCq2    C5 1678   4.492   0.182   2.338  0.2517 -0.0811 -0.0281
  110TCq2    C6 1679   4.409   0.075   2.336  0.4234 -1.1041  0.1847
  110TCq2    C7 1680   4.438   4.680   2.399 -0.1945 -0.9086 -0.1909
  110TCq2    C8 1681   4.276   0.089   2.276  0.2120  0.3951 -0.7275
  110TCq2    O4 1682   4.214   4.709   2.255  0.0279 -0.3344 -0.2034
  110TCq2    C9 1683   4.709   0.260   2.424 -0.3538 -0.1290  0.3175
  110TCq2    O5 1684   0.089   0.232   2.493 -0.3154 -0.4320 -0.0441
  110TCq2    O6 1685   4.673   0.372   2.373 -0.1692  0.0643 -0.3654
  110TCq2    H2 1686   0.027   0.023   2.500 -0.1089 -3.3923 -0.9307
  110TCq2    H3 1687   4.466   0.281   2.303 -1.4362 -0.6865 -0.4746
  110TCq2    H4 1688   4.358   4.607   2.407  1.5609 -2.4047  3.7645
  111TMC2    C1 1689   3.095   3.366  11.454  0.5532 -0.2506 -0.3035
  111TMC2    C2 1690   2.992   3.272  11.429  0.2936  0.6170 -0.5880
  111TMC2    C3 1691   3.013   3.146  11.486  0.7659 -0.1738  0.0488
  111TMC2    C4 1692   3.207   3.338  11.527 -0.3635 -0.4958 -0.1880
  111TMC2    C5 1693   3.223   3.209  11.568 -0.7427 -1.0834 -0.0511
  111TMC2    C6 1694   3.127   3.114  11.552 -0.9208 -0.2943  0.1549
  111TMC2     C 1695   3.087   3.483  11.375 -0.0042 -0.0525 -0.7661
  111TMC2     O 1696   3.015   3.476  11.278  0.5480 -0.0339  0.3923
  111TMC2     H 1697   2.898   3.304  11.387  0.6440  1.8363 -0.4426
  111TMC2    H1 1698   3.291   3.403  11.549 -1.2975  1.4892 -2.4810
  111TMC2    H2 1699   3.144   3.009  11.575 -1.8422 -0.3881  0.4240
  111TMC2    C7 1700   3.336   3.171  11.646  0.1543  0.3012  0.1584
  111TMC2    C8 1701   2.930   3.032  11.450 -0.1155  0.6859 -0.4603
  111TMC2    O1 1702   3.322   3.113  11.752  0.5045  0.2732  0.0867
  111TMC2    O2 1703   2.983   2.929  11.410  0.2873  0.2791  0.1791
  111TMC2    O5 1704   2.809   3.082  11.405  0.0491  0.1773  0.5958
  111TMC2    H5 1705   2.787   3.154  11.468  0.7124  1.1833 -0.3351
  112MPD2     C 1706   3.258   3.933  11.200  0.4081 -0.1321  0.2851
  112MPD2    C1 1707   3.177   3.835  11.138  0.0615 -0.3840 -0.0530
  112MPD2    C2 1708   3.158   3.712  11.201 -0.6248 -0.3350  0.0677
  112MPD2    C3 1709   3.213   3.691  11.325 -0.3472  0.1438  0.2546
  112MPD2    C4 1710   3.275   3.796  11.385 -0.4405  0.0668 -0.3797
  112MPD2    C5 1711   3.306   3.910  11.319  0.1179  0.6567 -0.2932
  112MPD2     H 1712   3.115   3.625  11.154 -0.7157  0.5004 -1.4023
  112MPD2    H1 1713   3.312   3.780  11.485 -0.4068 -1.0822 -0.5785
  112MPD2    H2 1714   3.283   4.031  11.163 -1.4674 -0.6714 -2.4102
  112MPD2    H3 1715   3.369   3.984  11.366  0.7233  0.4393 -0.7625
  112MPD2     N 1716   3.181   3.580  11.406 -0.4260 -0.2053 -0.2493
  112MPD2    H5 1717   3.236   3.571  11.491  1.9332 -3.0692 -2.0755
  112MPD2    N1 1718   3.124   3.855  11.010 -0.2710 -0.0729  0.5580
  112MPD2    H7 1719   3.090   3.773  10.960 -0.1998 -0.2331  0.7734
  113MPD2     C 1720   1.535   1.751   1.290  0.0759  0.5640 -0.2117
  113MPD2    C1 1721   1.509   1.882   1.260 -0.0516 -0.1663  0.1677
  113MPD2    C2 1722   1.386   1.922   1.205  0.1497 -0.0612 -0.0572
  113MPD2    C3 1723   1.288   1.834   1.183 -0.2854  0.2778  0.2696
  113MPD2    C4 1724   1.322   1.701   1.212 -0.3636 -0.4267 -0.3537
  113MPD2    C5 1725   1.437   1.658   1.261 -0.4340 -0.4566  0.3178
  113MPD2     H 1726   1.378   2.026   1.178 -0.3707  0.4906  2.3056
  113MPD2    H1 1727   1.253   1.620   1.191  1.9402 -2.5973  0.5176
  113MPD2    H2 1728   1.630   1.711   1.324  0.6658  2.2280  0.0661
  113MPD2    H3 1729   1.446   1.554   1.289  0.2929 -0.4689  0.0394
  113MPD2     N 1730   1.164   1.864   1.127 -0.1550  0.7435  0.0150
  113MPD2    H5 1731   1.100   1.785   1.117  2.1674 -1.2975  1.1334
  113MPD2    N1 1732   1.589   1.993   1.288 -0.5600 -0.0571  0.2463
  113MPD2    H7 1733   1.560   2.085   1.258 -0.7196 -0.5007 -0.9625
  114TCq2    C1 1734   1.114   1.992   1.106  0.0596 -0.5044  0.2031
  114TCq2    O2 1735   1.159   2.104   1.136  0.2004 -0.0269 -0.0208
  114TCq2    C2 1736   0.984   1.989   1.029 -0.4170  0.4649  0.0964
  114TCq2    C3 1737   0.935   2.112   0.996 -0.0111 -0.7321 -0.4289
  114TCq2    C4 1738   0.808   2.121   0.955 -0.1699 -1.2995  0.8512
  114TCq2    C5 1739   0.743   2.006   0.916 -0.3748 -0.1449  0.7573
  114TCq2    C6 1740   0.797   1.888   0.951  0.6158 -0.3667 -0.5548
  114TCq2    C7 1741   0.911   1.873   1.016  0.6625 -0.2577 -0.8606
  114TCq2    C8 1742   0.714   1.773   0.928 -0.1000 -0.0924  0.4026
  114TCq2    O4 1743   0.617   1.786   0.856  0.4380  0.4552 -0.3988
  114TCq2    C9 1744   0.752   2.251   0.929  0.0942  0.4264 -0.2785
  114TCq2    O5 1745   0.803   2.349   0.996 -0.4037 -0.0340  0.1956
  114TCq2    O6 1746   0.631   2.252   0.885  0.4974  0.3485  1.0235
  114TCq2    H2 1747   0.997   2.200   1.004  1.9632 -2.1950  0.2503
  114TCq2    H3 1748   0.643   2.012   0.874  0.3858  0.8665 -0.8779
  114TCq2    H4 1749   0.957   1.777   1.037 -0.9852 -0.9479 -0.4141
  115TMC2    C1 1750   2.441   4.435  17.530  0.0415  0.2913  0.2331
  115TMC2    C2 1751   2.549   4.364  17.490 -0.4642 -0.2093  0.4477
  115TMC2    C3 1752   2.666   4.430  17.493 -0.4309 -0.6075 -0.0917
  115TMC2    C4 1753   2.447   4.566  17.565 -1.0920  0.4030 -1.0251
  115TMC2    C5 1754   2.568   4.631  17.559  0.4151 -0.4438  0.1868
  115TMC2    C6 1755   2.684   4.556  17.538 -0.3020  0.2900 -0.1921
  115TMC2     C 1756   2.328   4.357  17.562 -1.2382  0.6885 -0.2837
  115TMC2     O 1757   2.316   4.246  17.516  0.1575 -0.4415  0.3034
  115TMC2     H 1758   2.536   4.266  17.446 -1.5882  0.6472 -1.1462
  115TMC2    H1 1759   2.362   4.633  17.561 -1.7304 -0.4554 -1.6468
  115TMC2    H2 1760   2.781   4.603  17.522  0.0551  0.0023  1.1784
  115TMC2    C7 1761   2.584   0.053  17.574 -0.4852  0.1243  0.0217
  115TMC2    C8 1762   2.785   4.372  17.441  0.5785 -0.3827  0.6930
  115TMC2    O1 1763   2.689   0.081  17.630  0.8714  0.7607 -0.0992
  115TMC2    O2 1764   2.861   4.442  17.374 -0.4080  0.0731 -0.2226
  115TMC2    O5 1765   2.832   4.284  17.531 -0.0156 -0.2176 -0.0458
  115TMC2    H5 1766   2.758   4.226  17.559  0.5223 -0.6964  0.3939
  116MPD2     C 1767   1.854   4.337   0.054  0.3337 -0.6222  0.6004
  116MPD2    C1 1768   1.933   4.239   0.003  0.7147 -0.4410 -0.1203
  116MPD2    C2 1769   2.064   4.261  17.661  0.7560  0.1941 -0.4174
  116MPD2    C3 1770   2.116   4.389  17.685 -0.2364  0.1623 -1.0268
  116MPD2    C4 1771   2.047   4.490   0.057 -0.2624 -0.0675 -0.6550
  116MPD2    C5 1772   1.916   4.456   0.091 -0.3441  0.3895 -0.5804
  116MPD2     H 1773   2.121   4.187  17.606  0.4298  0.0247 -0.5284
  116MPD2    H1 1774   2.078   4.592   0.077  2.3038 -0.3390 -3.2219
  116MPD2    H2 1775   1.748   4.323   0.071  0.3260 -0.7481  0.4480
  116MPD2    H3 1776   1.853   4.534   0.133 -2.1375 -0.6249 -1.4467
  116MPD2     N 1777   2.240   4.434  17.633  0.4945 -0.1212 -0.8073
  116MPD2    H5 1778   2.267   4.529  17.656 -0.3052 -0.8950  3.2492
  116MPD2    N1 1779   1.864   4.124  17.641  0.3939  0.0128 -0.2491
  116MPD2    H7 1780   1.766   4.138  17.619  0.2952 -1.3418 -0.6503
  117TMC2    C1 1781   0.437   1.145  14.326 -0.6610  0.1897 -0.3783
  117TMC2    C2 1782   0.396   1.034  14.389  0.3201 -0.1628  0.7146
  117TMC2    C3 1783   0.485   0.960  14.455  0.3522 -0.4059 -0.6787
  117TMC2    C4 1784   0.568   1.185  14.308 -0.1166 -0.4733  0.3695
  117TMC2    C5 1785   0.661   1.112  14.379 -0.4297  0.0395 -0.1705
  117TMC2    C6 1786   0.618   0.998  14.453 -0.1182 -0.8820  0.5078
  117TMC2     C 1787   0.348   1.203  14.228  0.0203  0.3222  0.7680
  117TMC2     O 1788   0.367   1.316  14.197 -0.3024  0.9902 -0.3713
  117TMC2     H 1789   0.291   1.015  14.405  0.2327 -0.9658 -0.8851
  117TMC2    H1 1790   0.592   1.282  14.265 -1.5803  0.3307  1.3437
  117TMC2    H2 1791   0.684   0.954  14.527  0.2952 -1.5317 -0.2609
  117TMC2    C7 1792   0.799   1.134  14.364 -0.2202 -0.4236 -0.4006
  117TMC2    C8 1793   0.440   0.871  14.558 -0.2701 -0.1478  0.4319
  117TMC2    O1 1794   0.871   1.084  14.448 -0.6397 -0.1592 -0.2292
  117TMC2    O2 1795   0.482   0.860  14.673 -0.0623 -0.2241  0.3994
  117TMC2    O5 1796   0.334   0.804  14.509 -0.1901  0.0663 -0.2705
  117TMC2    H5 1797   0.307   0.830  14.418  0.3645 -2.1623 -1.0736
  118MPD2     C 1798   1.072   1.262  14.338  0.4021 -0.7225 -0.2679
  118MPD2    C1 1799   0.971   1.277  14.249  0.3736 -0.1791  0.4874
  118MPD2    C2 1800   0.985   1.363  14.141  0.6709 -0.0921 -0.6596
  118MPD2    C3 1801   1.110   1.421  14.110 -0.6384 -0.2700 -0.2210
  118MPD2    C4 1802   1.210   1.409  14.204  0.3625 -0.2510  0.0588
  118MPD2    C5 1803   1.186   1.338  14.320 -0.2013  0.8070  0.3478
  118MPD2     H 1804   0.905   1.356  14.068  0.2743  0.6513 -0.2919
  118MPD2    H1 1805   1.307   1.454  14.189  0.7781 -1.3188 -0.4203
  118MPD2    H2 1806   1.066   1.188  14.417  1.3383 -2.4489 -1.7941
  118MPD2    H3 1807   1.265   1.325  14.393 -1.3305  2.2832  1.8310
  118MPD2     N 1808   1.139   1.498  14.002  0.3349  0.5669 -0.1305
  118MPD2    H5 1809   1.238   1.522  13.996  0.4464  0.4011  1.0275
  118MPD2    N1 1810   0.838   1.217  14.264  0.7925  0.4833 -0.0745
  118MPD2    H7 1811   0.765   1.241  14.198 -0.6981 -1.0703  1.0106
  119MPD2     C 1812   4.266   2.736  14.114 -0.4821  0.0594  0.6245
  119MPD2    C1 1813   4.131   2.767  14.088  0.1768  0.1178 -0.0198
  119MPD2    C2 1814   4.069   2.723  13.972 -0.1487  0.5908  0.3024
  119MPD2    C3 1815   4.140   2.652  13.882 -0.0958  0.2204 -0.0868
  119MPD2    C4 1816   4.266   2.610  13.909  0.5791  0.3341  0.1682
  119MPD2    C5 1817   4.327   2.653  14.027  0.9990  0.2821  0.8460
  119MPD2     H 1818   3.967   2.759  13.959  0.0443  0.6874 -0.9027
  119MPD2    H1 1819   4.306   2.529  13.849 -2.6069 -2.0968  1.3149
  119MPD2    H2 1820   4.320   2.782  14.195 -0.4596 -0.1805  0.7476
  119MPD2    H3 1821   4.431   2.632  14.048  0.6275 -1.3604  1.0924
  119MPD2     N 1822   4.076   2.588  13.774 -0.8370  0.0770  0.5951
  119MPD2    H5 1823   4.134   2.529  13.715 -0.6763  0.3948  0.4383
  119MPD2    N1 1824   4.061   2.838  14.199  0.1184  0.5307  0.3852
  119MPD2    H7 1825   4.125   2.866  14.273 -0.5632 -1.5146  1.7413
  120TCq2    C1 1826   3.945   2.600  13.733 -0.2874  0.2214  0.2774
  120TCq2    O2 1827   3.850   2.674  13.764 -0.4388  0.1358 -0.1652
  120TCq2    C2 1828   3.910   2.486  13.645  0.1278  0.2696 -0.3250
  120TCq2    C3 1829   4.003   2.428  13.578  0.0669  0.2116 -0.4659
  120TCq2    C4 1830   3.972   2.313  13.510  0.1470  0.4751  0.2893
  120TCq2    C5 1831   3.845   2.258  13.514  0.3138  0.3214  0.6898
  120TCq2    C6 1832   3.753   2.314  13.600  0.2102 -0.4955  0.0944
  120TCq2    C7 1833   3.780   2.431  13.661 -0.3138 -0.0446  0.1564
  120TCq2    C8 1834   3.616   2.275  13.598  0.3005 -0.1402 -0.2777
  120TCq2    O4 1835   3.569   2.225  13.495  0.6603 -0.4796  1.0284
  120TCq2    C9 1836   4.071   2.253  13.418 -0.4468  0.1343  0.0103
  120TCq2    O5 1837   4.186   2.308  13.409  0.0243  0.0924 -0.0738
  120TCq2    O6 1838   4.048   2.142  13.356 -0.0326 -0.2741  0.3063
  120TCq2    H2 1839   4.096   2.469  13.540 -0.3653  2.7639  1.2696
  120TCq2    H3 1840   3.820   2.165  13.464  1.1603  0.5996 -0.2414
  120TCq2    H4 1841   3.701   2.491  13.703  1.1071  1.6595  0.3798
  121TMC2    C1 1842   0.848   4.561  13.929  0.4844 -0.6587 -0.5560
  121TMC2    C2 1843   0.851   4.567  14.065  0.2826  0.6248 -0.2544
  121TMC2    C3 1844   0.750   4.512  14.132  0.6448  0.2246 -0.0912
  121TMC2    C4 1845   0.751   4.495  13.859 -0.0025  0.3468  0.0029
  121TMC2    C5 1846   0.653   4.450  13.933  0.0311  0.7110  0.1574
  121TMC2    C6 1847   0.652   4.449  14.066  0.6586 -0.2467  0.5041
  121TMC2     C 1848   0.975   4.584  13.865  0.4257  1.0841 -0.7237
  121TMC2     O 1849   1.068   4.568  13.942  0.2558 -0.4898 -0.4850
  121TMC2     H 1850   0.937   4.609  14.117 -0.3484 -1.8863  2.7956
  121TMC2    H1 1851   0.736   4.485  13.752 -0.2255  0.0191  0.0635
  121TMC2    H2 1852   0.573   4.394  14.116 -0.3007 -0.5166 -1.3136
  121TMC2    C7 1853   0.543   4.369  13.866  0.7683  0.7301  0.3771
  121TMC2    C8 1854   0.763   4.499  14.276  0.3595  0.1501 -0.3478
  121TMC2    O1 1855   0.554   4.323  13.753 -0.4565 -0.2625 -0.2120
  121TMC2    O2 1856   0.861   4.493  14.351 -0.2134  0.1639  0.1213
  121TMC2    O5 1857   0.646   4.542  14.319 -0.3903 -0.2373 -0.3508
  121TMC2    H5 1858   0.577   4.548  14.250  0.1120  0.7957 -0.7560
  122MPD2     C 1859   1.224   4.592  13.680  0.8870  0.3099 -0.2702
  122MPD2    C1 1860   1.092   4.597  13.639  0.0681 -0.1885  0.4441
  122MPD2    C2 1861   1.071   4.615  13.496  0.5617  0.5023 -0.3665
  122MPD2    C3 1862   1.177   4.606  13.401  0.4384  0.2645  0.4057
  122MPD2    C4 1863   1.297   4.556  13.450 -0.5405  0.1799 -0.6063
  122MPD2    C5 1864   1.324   4.564  13.587  0.3811 -0.3561  0.5836
  122MPD2     H 1865   0.970   4.616  13.457  1.2746 -1.4389 -2.2404
  122MPD2    H1 1866   1.383   4.546  13.385  1.5893  0.5435  2.1608
  122MPD2    H2 1867   1.249   4.600  13.785  0.2442 -1.5947  0.0304
  122MPD2    H3 1868   1.421   4.542  13.629  0.7339  0.9879  0.4691
  122MPD2     N 1869   1.168   4.628  13.264  0.5330  0.3029 -0.3119
  122MPD2    H5 1870   1.242   4.595  13.203  1.7512  0.4717  1.0796
  122MPD2    N1 1871   0.976   4.593  13.724  0.0634  0.2500 -0.3464
  122MPD2    H7 1872   0.886   4.598  13.676  0.0807  0.6548 -0.3401
  123MPD2     C 1873   3.410   1.301   8.979  0.3325 -0.6192  0.1918
  123MPD2    C1 1874   3.481   1.396   9.059  0.6210 -0.3372  0.3632
  123MPD2    C2 1875   3.604   1.436   9.002 -0.0919  0.4412  0.7063
  123MPD2    C3 1876   3.668   1.376   8.890  0.6151  0.2463  0.0369
  123MPD2    C4 1877   3.596   1.279   8.824 -0.3987  0.0253  0.5005
  123MPD2    C5 1878   3.466   1.244   8.866  0.5526 -0.0899  0.0831
  123MPD2     H 1879   3.642   1.530   9.040  1.7814  0.0018 -0.0715
  123MPD2    H1 1880   3.639   1.235   8.735 -1.1127 -1.4827  0.8957
  123MPD2    H2 1881   3.322   1.256   9.023 -0.1169 -0.2412 -0.3202
  123MPD2    H3 1882   3.411   1.165   8.817  0.7261 -0.2409  0.1305
  123MPD2     N 1883   3.791   1.430   8.849 -0.6123 -0.3200 -0.1458
  123MPD2    H5 1884   3.820   1.515   8.896 -1.0892 -0.1429 -0.1673
  123MPD2    N1 1885   3.421   1.453   9.170 -0.3571 -0.2722 -0.1408
  123MPD2    H7 1886   3.323   1.440   9.189 -0.3925  0.3150  0.0873
  124TCq2    C1 1887   3.881   1.377   8.761  0.0835  0.6142 -0.8940
  124TCq2    O2 1888   3.870   1.270   8.701 -0.5061  0.2364  0.1937
  124TCq2    C2 1889   4.015   1.433   8.768  0.2410  0.0984  0.0360
  124TCq2    C3 1890   4.106   1.412   8.669 -0.6169  0.0759  0.0467
  124TCq2    C4 1891   4.235   1.461   8.679 -0.2326  0.3250  0.2261
  124TCq2    C5 1892   4.268   1.520   8.792 -0.5555 -0.6987  0.2841
  124TCq2    C6 1893   4.179   1.534   8.891  0.8799  0.4057 -0.4788
  124TCq2    C7 1894   4.055   1.476   8.885 -0.2968  0.3101  0.6351
  124TCq2    C8 1895   4.212   1.610   9.008 -0.4615 -0.2785 -0.3040
  124TCq2    O4 1896   4.130   1.608   9.096 -0.0194  0.0214  0.4853
  124TCq2    C9 1897   4.336   1.442   8.574  0.2216 -0.6176 -0.1189
  124TCq2    O5 1898   4.325   1.345   8.491  0.3074  0.3804 -0.0056
  124TCq2    O6 1899   4.443   1.513   8.585  0.5049 -0.0309  0.0692
  124TCq2    H2 1900   4.075   1.367   8.576  1.1355  1.2145 -1.0994
  124TCq2    H3 1901   4.367   1.563   8.787  0.1572 -2.4421 -0.7387
  124TCq2    H4 1902   3.986   1.485   8.968  0.1855  1.3029  0.9158
  125TMC2    C1 1903   0.073   3.715   8.899  0.2573 -0.0918  0.1986
  125TMC2    C2 1904   0.111   3.612   8.818 -0.7306 -0.3527  0.5858
  125TMC2    C3 1905   0.195   3.512   8.880  0.6497 -0.3266  0.4874
  125TMC2    C4 1906   0.109   3.725   9.033 -0.8787  0.2614 -0.2357
  125TMC2    C5 1907   0.171   3.615   9.090 -0.3266 -0.1738  0.0495
  125TMC2    C6 1908   0.213   3.511   9.015 -0.2976 -0.5889 -0.1297
  125TMC2     C 1909   4.703   3.812   8.844  0.1666 -0.0302 -0.2228
  125TMC2     O 1910   4.693   3.818   8.724 -0.0493  0.4848 -0.5050
  125TMC2     H 1911   0.081   3.597   8.715  0.0938  0.7240  0.2057
  125TMC2    H1 1912   0.081   3.809   9.095  2.2269  1.9309 -1.1334
  125TMC2    H2 1913   0.251   3.418   9.055  0.6268 -0.4866 -0.7521
  125TMC2    C7 1914   0.221   3.618   9.226 -0.8350  0.0804 -0.2939
  125TMC2    C8 1915   0.215   3.389   8.802  0.0588 -0.1972 -0.2545
  125TMC2    O1 1916   0.174   3.687   9.313 -0.2128 -0.0511  0.3553
  125TMC2    O2 1917   0.162   3.365   8.693  0.8865 -0.1204 -1.1125
  125TMC2    O5 1918   0.311   3.320   8.864  0.6885 -0.5405  0.0744
  125TMC2    H5 1919   0.370   3.377   8.918 -0.6190  0.8152  0.0813
  126MPD1     C 1920   4.396   4.220   8.860  0.4772  0.5474  0.0370
  126MPD1    C1 1921   4.449   4.203   8.989 -0.4812 -0.3330  0.0042
  126MPD1    C2 1922   4.515   4.084   9.009 -1.1555 -0.3815 -0.0085
  126MPD1    C3 1923   4.550   4.000   8.904 -1.0104 -0.5046 -0.6004
  126MPD1    C4 1924   4.499   4.019   8.779 -0.0174  0.6358 -0.2536
  126MPD1    C5 1925   4.417   4.131   8.762  0.2751  0.2875  0.1626
  126MPD1     H 1926   4.549   4.053   9.107 -0.4035  1.4146  0.2840
  126MPD1    H1 1927   4.510   3.951   8.695  0.4509  0.1191  0.2184
  126MPD1    H2 1928   4.331   4.302   8.830  1.8098  2.2724  1.8608
  126MPD1    H3 1929   4.387   4.152   8.660  0.1520 -0.5399  0.0322
  126MPD1     N 1930   4.640   3.890   8.941  0.3638  0.4230  0.4438
  126MPD1    H5 1931   4.667   3.874   9.037 -0.5236  1.5829  0.8915
  126MPD1    N1 1932   4.405   4.285   9.097  0.6670 -0.2519 -0.1675
  126MPD1    H6 1933   4.382   4.379   9.066  2.8715  0.7220  1.1826
  126MPD1    H7 1934   4.474   4.292   9.171 -1.4230  1.1262  1.6731
  127MPD2     C 1935   1.943   2.502   9.728 -0.1822  0.4879 -0.3262
  127MPD2    C1 1936   1.840   2.588   9.727  0.3473 -0.0550 -0.2097
  127MPD2    C2 1937   1.864   2.727   9.702  0.1840 -0.2295  0.7769
  127MPD2    C3 1938   1.998   2.774   9.683  0.1826  0.7517  0.1270
  127MPD2    C4 1939   2.100   2.675   9.687 -0.3984  0.9431  0.1886
  127MPD2    C5 1940   2.067   2.540   9.710 -0.1901  0.2181  0.1043
  127MPD2     H 1941   1.781   2.797   9.699 -0.3117 -0.9469 -1.8261
  127MPD2    H1 1942   2.205   2.701   9.675  0.1293 -1.0911  0.4088
  127MPD2    H2 1943   1.926   2.395   9.735 -0.5021  0.4785 -1.2135
  127MPD2    H3 1944   2.145   2.465   9.714  0.2971  0.7219  0.0251
  127MPD2     N 1945   2.025   2.916   9.685  0.2342 -0.4342 -0.1165
  127MPD2    H5 1946   1.951   2.985   9.684  0.1486 -0.5346 -0.7166
  127MPD2    N1 1947   1.715   2.527   9.754 -0.4751 -0.5492  0.1279
  127MPD2    H7 1948   1.711   2.431   9.784 -1.6913 -0.1660  1.2255
  128TCq2    C1 1949   1.592   2.579   9.726 -0.0864 -0.0865 -0.1406
  128TCq2    O2 1950   1.566   2.684   9.671  0.7487 -0.1212 -0.3984
  128TCq2    C2 1951   1.490   2.480   9.752  0.3731 -0.1541 -0.0686
  128TCq2    C3 1952   1.488   2.415   9.872  0.3306  0.6250  0.0299
  128TCq2    C4 1953   1.393   2.315   9.893 -0.6320  0.6367  0.2809
  128TCq2    C5 1954   1.295   2.288   9.803  0.0514  1.4528 -0.6249
  128TCq2    C6 1955   1.304   2.353   9.683 -0.0731 -0.1322  0.1470
  128TCq2    C7 1956   1.403   2.444   9.651  0.0284  0.1319  0.9121
  128TCq2    C8 1957   1.208   2.327   9.575 -0.1256  0.1600  0.0282
  128TCq2    O4 1958   1.226   2.374   9.463 -0.0309 -0.6795 -0.5726
  128TCq2    C9 1959   1.399   2.240  10.016  0.0835  0.6962 -0.2750
  128TCq2    O5 1960   1.500   2.272  10.087 -0.1684  0.1706 -0.1864
  128TCq2    O6 1961   1.285   2.208  10.066 -0.3151 -0.0502  0.2666
  128TCq2    H2 1962   1.550   2.447   9.956  1.8485 -0.2172 -0.7700
  128TCq2    H3 1963   1.229   2.206   9.827  0.9782  0.9595  0.2691
  128TCq2    H4 1964   1.389   2.501   9.560  0.9374 -1.8347 -0.4577
  129MPD2     C 1965   0.148   3.549   1.435 -0.1974  0.3270  0.5394
  129MPD2    C1 1966   0.021   3.554   1.481  0.7993 -0.2792  0.4244
  129MPD2    C2 1967   4.643   3.612   1.407 -0.0251  0.5910  0.0329
  129MPD2    C3 1968   4.666   3.674   1.287 -0.5653 -0.5261  0.4778
  129MPD2    C4 1969   0.075   3.666   1.242 -0.0769  0.0650  0.1539
  129MPD2    C5 1970   0.174   3.602   1.309  0.0777 -0.0029  0.1339
  129MPD2     H 1971   4.540   3.598   1.439 -0.1992 -2.3400 -1.7960
  129MPD2    H1 1972   0.104   3.704   1.145  1.3140  0.8347  0.8757
  129MPD2    H2 1973   0.228   3.501   1.489 -2.3305 -2.4421  1.2149
  129MPD2    H3 1974   0.275   3.610   1.270  0.0490 -0.8477 -0.0972
  129MPD2     N 1975   4.562   3.749   1.228 -0.0031  0.6868  0.6007
  129MPD2    H5 1976   4.480   3.765   1.285 -1.4007 -0.2844 -1.1227
  129MPD2    N1 1977   4.715   3.462   1.592 -0.3282 -0.0877 -0.2236
  129MPD2    H7 1978   0.078   3.420   1.632 -0.4595 -2.4819 -2.4377
  130TCq2    C1 1979   4.588   3.418   1.633 -0.0801 -0.0328 -0.0683
  130TCq2    O2 1980   4.479   3.446   1.584  0.3804  0.1760 -0.1587
  130TCq2    C2 1981   4.600   3.326   1.743  0.1207  0.2376  0.7958
  130TCq2    C3 1982   4.713   3.306   1.817 -0.0932 -0.0530 -0.2232
  130TCq2    C4 1983   4.697   3.220   1.924  0.1244 -0.7659 -0.2710
  130TCq2    C5 1984   4.578   3.166   1.962 -0.0151 -0.0480 -0.0242
  130TCq2    C6 1985   4.470   3.199   1.887 -0.8821  1.1157 -0.2485
  130TCq2    C7 1986   4.477   3.284   1.777 -0.2609  0.9277 -0.4533
  130TCq2    C8 1987   4.333   3.153   1.929  0.6406  0.7176 -0.2253
  130TCq2    O4 1988   4.243   3.198   1.864 -0.2453 -0.3502  0.3567
  130TCq2    C9 1989   0.087   3.201   2.014  0.1309  0.0635  0.3004
  130TCq2    O5 1990   0.074   3.109   2.097  0.1717  0.3223 -0.2503
  130TCq2    O6 1991   0.180   3.281   2.000 -0.2178 -0.2196  0.8565
  130TCq2    H2 1992   0.089   3.351   1.801 -0.0419  0.3078  1.1624
  130TCq2    H3 1993   4.573   3.120   2.060 -0.5342  0.8297  0.3644
  130TCq2    H4 1994   4.389   3.298   1.714 -0.5533  0.2086 -0.2019
  131MPD2     C 1995   3.757   2.214   9.809  0.5560 -0.2794  0.0219
  131MPD2    C1 1996   3.711   2.250   9.688  0.5375 -0.3672  0.0594
  131MPD2    C2 1997   3.625   2.169   9.616  0.1574 -0.1103 -0.3879
  131MPD2    C3 1998   3.590   2.044   9.664  0.2870  0.1718 -0.2910
  131MPD2    C4 1999   3.628   2.013   9.792 -0.0791 -0.3006  0.1586
  131MPD2    C5 2000   3.708   2.099   9.862 -0.0007  0.7148 -0.0115
  131MPD2     H 2001   3.583   2.201   9.522 -0.3704 -3.3483 -1.2631
  131MPD2    H1 2002   3.579   1.933   9.847  0.2434 -0.6902 -0.1211
  131MPD2    H2 2003   3.816   2.288   9.863  0.1070  0.4717 -0.5226
  131MPD2    H3 2004   3.737   2.083   9.965  0.2604  2.6792  0.2233
  131MPD2     N 2005   3.505   1.959   9.594 -0.1270 -0.1378 -0.1855
  131MPD2    H5 2006   3.456   2.004   9.517 -1.4005 -2.1208 -0.5182
  131MPD2    N1 2007   3.757   2.369   9.633  0.0586 -0.4650 -0.2082
  131MPD2    H7 2008   3.820   2.415   9.699 -1.2624 -0.1942  0.8592
  132TCq2    C1 2009   3.825   2.759   9.192 -0.0914  0.4630 -0.6966
  132TCq2    O2 2010   3.708   2.781   9.169 -0.7177 -0.5102 -0.3122
  132TCq2    C2 2011   3.851   2.703   9.328 -1.0615  0.8947 -1.8201
  132TCq2    C3 2012   3.969   2.740   9.389 -0.1023 -0.0551 -0.2859
  132TCq2    C4 2013   3.995   2.679   9.509 -0.5396  0.1822  0.1030
  132TCq2    C5 2014   3.912   2.586   9.569 -0.0078  1.4330  0.2526
  132TCq2    C6 2015   3.791   2.559   9.498 -0.5991 -0.3178  0.2749
  132TCq2    C7 2016   3.759   2.622   9.378  0.5485 -0.2364  0.0918
  132TCq2    C8 2017   3.727   2.430   9.510 -0.2492 -1.1575  0.1102
  132TCq2    O4 2018   3.652   2.390   9.421 -0.3375  0.2572 -0.3071
  132TCq2    C9 2019   4.124   2.706   9.568 -0.8110  0.6448  0.0788
  132TCq2    O5 2020   4.164   2.625   9.656 -0.0166 -0.6427  0.0925
  132TCq2    O6 2021   4.199   2.780   9.501  0.6985  0.1866 -0.3055
  132TCq2    H2 2022   4.049   2.798   9.344  0.5967 -1.5017 -0.8881
  132TCq2    H3 2023   3.935   2.539   9.664  0.3210  0.6860 -0.1941
  132TCq2    H4 2024   3.668   2.592   9.327  0.7331 -0.0365 -0.3559
  133MPD2     C 2025   2.449   1.753   9.667  0.5838 -0.1684 -0.1303
  133MPD2    C1 2026   2.381   1.830   9.573  0.2788 -0.1294 -0.4139
  133MPD2    C2 2027   2.454   1.933   9.509  0.6633 -0.7118  0.7504
  133MPD2    C3 2028   2.584   1.969   9.539  0.3658  0.3508 -0.5156
  133MPD2    C4 2029   2.647   1.882   9.625 -0.3243 -0.4630 -0.0415
  133MPD2    C5 2030   2.584   1.785   9.691  0.1264 -0.4514 -0.2063
  133MPD2     H 2031   2.396   1.995   9.442  3.2194 -0.0814 -0.8610
  133MPD2    H1 2032   2.742   1.912   9.667 -0.1023 -2.3531  0.7808
  133MPD2    H2 2033   2.413   1.666   9.720 -0.5240  1.0304  1.0902
  133MPD2    H3 2034   2.641   1.720   9.756 -1.8475 -2.3126 -0.3262
  133MPD2     N 2035   2.654   2.079   9.482 -0.2108 -0.9560 -0.0691
  133MPD2    H5 2036   2.747   2.097   9.517 -0.7475  2.3530 -0.3756
  133MPD2    N1 2037   2.251   1.785   9.542 -0.0913 -0.1617 -0.2978
  133MPD2    H7 2038   2.211   1.713   9.601  1.4288 -0.6808  0.1031
  134TCq2    C1 2039   2.171   1.822   9.441  0.1824 -0.0383  0.0142
  134TCq2    O2 2040   2.201   1.869   9.335  0.1207  0.4154  0.5853
  134TCq2    C2 2041   2.037   1.806   9.482 -0.3093  0.6856  0.1759
  134TCq2    C3 2042   1.946   1.796   9.379 -0.5734 -0.4545  0.2788
  134TCq2    C4 2043   1.820   1.768   9.411  0.0076 -0.1908  0.1404
  134TCq2    C5 2044   1.773   1.748   9.541  0.1623 -0.2246 -0.0186
  134TCq2    C6 2045   1.868   1.761   9.638  0.1187 -0.5304 -0.0101
  134TCq2    C7 2046   2.006   1.785   9.613  0.0465  0.4934 -0.4486
  134TCq2    C8 2047   1.809   1.779   9.774  0.0402  0.6975 -0.6227
  134TCq2    O4 2048   1.690   1.751   9.785 -0.3415  0.7665  0.3178
  134TCq2    C9 2049   1.726   1.756   9.301  0.0864 -0.1947  0.3795
  134TCq2    O5 2050   1.614   1.701   9.327  0.4566  0.2758 -0.2756
  134TCq2    O6 2051   1.761   1.821   9.199  0.0467 -0.4254 -0.5754
  134TCq2    H2 2052   1.975   1.805   9.275 -2.2933 -0.6984 -0.2206
  134TCq2    H3 2053   1.668   1.733   9.564 -0.0882 -1.3172 -1.8413
  134TCq2    H4 2054   2.077   1.813   9.690 -0.2189  0.6757 -0.2696
  135MPD2     C 2055   1.047   3.593   9.121 -0.3630  0.0866 -0.9363
  135MPD2    C1 2056   1.089   3.718   9.161 -0.2031 -0.4019 -0.5001
  135MPD2    C2 2057   1.215   3.729   9.217  0.4929  0.5672 -0.2268
  135MPD2    C3 2058   1.288   3.614   9.244  0.0511  0.3755  0.1163
  135MPD2    C4 2059   1.244   3.494   9.207  0.1184  0.3454  0.0060
  135MPD2    C5 2060   1.122   3.487   9.145  0.1939 -0.0468 -0.0277
  135MPD2     H 2061   1.230   3.829   9.257 -0.7232  1.4501 -1.9538
  135MPD2    H1 2062   1.308   3.407   9.211 -0.7311 -0.2409  0.8881
  135MPD2    H2 2063   0.953   3.588   9.067 -0.5638  0.8695 -0.6686
  135MPD2    H3 2064   1.085   3.393   9.106 -1.6016  0.4424  0.5260
  135MPD2     N 2065   1.422   3.618   9.296 -0.3375 -0.1550  0.2746
  135MPD2    H5 2066   1.468   3.528   9.299 -0.2028 -0.0538  1.3575
  135MPD2    N1 2067   1.016   3.838   9.148  0.1784 -0.0631  0.0637
  135MPD2    H7 2068   1.056   3.929   9.170 -0.6505  0.5352 -0.9362
  136TCq2    C1 2069   0.878   3.844   9.129 -0.4752 -0.2104 -0.1391
  136TCq2    O2 2070   0.794   3.755   9.129  0.1548  0.6191  0.2523
  136TCq2    C2 2071   0.834   3.981   9.118 -0.6505 -0.2005 -0.6769
  136TCq2    C3 2072   0.890   4.062   9.022 -0.3727  0.3944  0.2395
  136TCq2    C4 2073   0.835   4.186   8.996 -0.2328 -0.1424 -0.6995
  136TCq2    C5 2074   0.727   4.231   9.070  0.4408 -0.8449 -0.6030
  136TCq2    C6 2075   0.658   4.137   9.143  0.0630 -0.3474 -0.1351
  136TCq2    C7 2076   0.708   4.013   9.168 -0.4894 -0.1791  1.4838
  136TCq2    C8 2077   0.557   4.193   9.239 -0.0395 -0.0500 -1.1027
  136TCq2    O4 2078   0.552   4.313   9.255  0.2784  0.3007  0.0942
  136TCq2    C9 2079   0.897   4.272   8.893 -0.6212 -0.3061 -0.2594
  136TCq2    O5 2080   0.985   4.222   8.827  0.4941  0.4350  0.8747
  136TCq2    O6 2081   0.865   4.393   8.897 -0.4780 -0.2974 -0.1706
  136TCq2    H2 2082   0.976   4.029   8.965  0.3453  0.0030  1.5509
  136TCq2    H3 2083   0.676   4.327   9.062 -0.4298 -1.1030  1.8969
  136TCq2    H4 2084   0.652   3.939   9.225  0.0441 -2.5442 -1.0562
  137MPD2     C 2085   1.039   2.607   9.715 -0.2667  0.2127  0.1307
  137MPD2    C1 2086   0.908   2.568   9.724  0.0934 -0.0202  0.0101
  137MPD2    C2 2087   0.834   2.629   9.825 -0.5093  0.1967 -0.2222
  137MPD2    C3 2088   0.888   2.726   9.912  0.4010  0.5785 -0.3289
  137MPD2    C4 2089   1.026   2.752   9.905  0.1195 -0.2213 -0.5524
  137MPD2    C5 2090   1.101   2.683   9.816 -0.1981 -0.1072  0.1258
  137MPD2     H 2091   0.726   2.618   9.831 -0.7400  1.1770 -2.5586
  137MPD2    H1 2092   1.079   2.822   9.968 -0.2762  0.3042 -0.8061
  137MPD2    H2 2093   1.099   2.562   9.637 -1.0019 -0.5586  0.0082
  137MPD2    H3 2094   1.208   2.702   9.812 -0.6959  2.4073 -1.5934
  137MPD2     N 2095   0.800   2.804   9.993  0.4549 -0.2232  0.8438
  137MPD2    H5 2096   0.704   2.774   9.981  0.0922  0.9457  0.8074
  137MPD2    N1 2097   0.843   2.500   9.619  0.5904  0.6157  0.2173
  137MPD2    H7 2098   0.886   2.502   9.527  3.1853 -0.6271  1.4093
  138TCq2    C1 2099   0.710   2.466   9.630  0.3580 -0.4943  0.0709
  138TCq2    O2 2100   0.646   2.430   9.722  0.1995  0.1010  0.1938
  138TCq2    C2 2101   0.653   2.443   9.499  0.5724 -0.5692  0.2765
  138TCq2    C3 2102   0.550   2.361   9.488  0.0259 -0.1430 -0.7483
  138TCq2    C4 2103   0.480   2.371   9.372  0.3083  1.5450 -0.3252
  138TCq2    C5 2104   0.502   2.464   9.279  0.0236  0.1483 -0.2393
  138TCq2    C6 2105   0.617   2.539   9.287 -0.9519  0.3617 -0.2751
  138TCq2    C7 2106   0.685   2.537   9.408  0.6615 -0.5272  0.5711
  138TCq2    C8 2107   0.637   2.649   9.197  0.8953 -0.1699  0.9134
  138TCq2    O4 2108   0.729   2.730   9.217  0.6336 -0.5896  0.1358
  138TCq2    C9 2109   0.362   2.293   9.363  0.1124  0.4023  0.2827
  138TCq2    O5 2110   0.269   2.338   9.292 -0.7163  0.9328  0.3235
  138TCq2    O6 2111   0.355   2.198   9.443  0.2460 -0.1574  0.2118
  138TCq2    H2 2112   0.520   2.290   9.563  1.4154 -1.0523 -1.0415
  138TCq2    H3 2113   0.429   2.466   9.199 -0.0100  2.7554 -0.1401
  138TCq2    H4 2114   0.753   2.619   9.426 -0.7533  0.4500  1.4058
  139TMC2    C1 2115   0.374   2.049  13.144 -0.3181  0.0384 -0.2567
  139TMC2    C2 2116   0.366   2.089  13.016 -0.2714  0.3085  0.2056
  139TMC2    C3 2117   0.271   2.189  12.992  0.4033  0.1775  0.1230
  139TMC2    C4 2118   0.317   2.108  13.253  0.7824  0.3696 -0.2504
  139TMC2    C5 2119   0.220   2.202  13.220 -1.0994 -0.4590  0.3498
  139TMC2    C6 2120   0.202   2.246  13.097  0.0654 -0.5227 -0.2002
  139TMC2     C 2121   0.478   1.955  13.167  0.1122 -0.0032  0.1131
  139TMC2     O 2122   0.489   1.875  13.074  0.0778 -0.5068  0.0901
  139TMC2     H 2123   0.400   2.030  12.931  0.1580  1.6058 -0.5291
  139TMC2    H1 2124   0.312   2.051  13.345 -3.0153 -0.0428 -0.7235
  139TMC2    H2 2125   0.127   2.323  13.082  1.6384  1.1127  0.3334
  139TMC2    C7 2126   0.159   2.273  13.331  0.3332  0.4018  1.2688
  139TMC2    C8 2127   0.236   2.222  12.855  0.1131 -0.4321  0.5142
  139TMC2    O1 2128   0.066   2.343  13.300 -0.2158 -0.0309 -0.0846
  139TMC2    O2 2129   0.130   2.269  12.821 -0.4573  0.6749 -0.0068
  139TMC2    O5 2130   0.352   2.238  12.785  0.2884 -0.0259  0.1820
  139TMC2    H5 2131   0.432   2.206  12.831 -1.1620 -0.1477  2.5995
  140MPD2     C 2132   0.654   1.879  13.474  0.2353 -0.0646  0.5109
  140MPD2    C1 2133   0.622   1.858  13.342 -1.0007 -0.4670  0.7546
  140MPD2    C2 2134   0.683   1.757  13.271  0.3502 -0.4399  0.3720
  140MPD2    C3 2135   0.786   1.678  13.320 -0.1614  0.0636  0.1161
  140MPD2    C4 2136   0.806   1.686  13.456  0.0616  0.1838 -0.4048
  140MPD2    C5 2137   0.741   1.783  13.526 -0.2600  0.5574  0.4762
  140MPD2     H 2138   0.672   1.749  13.164 -0.9441 -3.2108  0.7062
  140MPD2    H1 2139   0.879   1.628  13.511 -1.8658 -0.1861  1.7542
  140MPD2    H2 2140   0.614   1.962  13.530 -0.6325  0.9198 -1.5514
  140MPD2    H3 2141   0.759   1.780  13.633 -1.7118 -1.1297  0.6709
  140MPD2     N 2142   0.850   1.587  13.234 -0.1336  0.6817  0.3626
  140MPD2    H5 2143   0.814   1.593  13.139  0.7145 -0.7199 -0.0514
  140MPD2    N1 2144   0.532   1.955  13.293  0.0924  0.3929  0.0400
  140MPD2    H7 2145   0.505   2.036  13.347 -0.5553  0.6905 -0.7252
  141TCq2    C1 2146   1.079   3.137  14.078 -0.1647 -0.2045  0.4147
  141TCq2    O2 2147   1.189   3.084  14.093  0.5426 -0.4715  0.6825
  141TCq2    C2 2148   0.993   3.142  14.192  0.1522 -0.1658 -0.7794
  141TCq2    C3 2149   1.006   3.046  14.292 -0.0334  0.4227  0.0745
  141TCq2    C4 2150   0.941   3.063  14.414 -0.8232 -0.3053 -0.6332
  141TCq2    C5 2151   0.872   3.180  14.436 -0.5223 -0.2194 -0.5689
  141TCq2    C6 2152   0.870   3.274  14.338  0.3764  0.1253  0.0286
  141TCq2    C7 2153   0.921   3.254  14.209  0.5608 -0.8744 -0.0830
  141TCq2    C8 2154   0.869   3.412  14.383  0.2531 -0.1499  0.4396
  141TCq2    O4 2155   0.818   3.495  14.313 -1.0008  0.0039 -0.1707
  141TCq2    C9 2156   0.955   2.948  14.504  0.4216 -0.1115  0.5633
  141TCq2    O5 2157   0.966   2.833  14.452  0.2644  0.0246  0.3741
  141TCq2    O6 2158   0.917   2.965  14.623  0.2517  0.1453 -0.5466
  141TCq2    H2 2159   1.077   2.965  14.280 -0.5470 -0.0036 -0.0920
  141TCq2    H3 2160   0.822   3.200  14.530  1.3462  0.9617  0.1759
  141TCq2    H4 2161   0.912   3.329  14.131  2.1729  1.6561  2.1711
  142MPD2     C 2162   3.756   1.220  10.137  0.3782  0.2096  0.5620
  142MPD2    C1 2163   3.763   1.222  10.001 -0.5092  0.1792  0.1109
  142MPD2    C2 2164   3.864   1.296   9.939 -0.4395  0.1711 -0.0593
  142MPD2    C3 2165   3.948   1.379  10.012 -0.2364 -0.5347 -0.0056
  142MPD2    C4 2166   3.937   1.378  10.153  1.1379 -0.2544  1.0510
  142MPD2    C5 2167   3.842   1.300  10.202  0.2244 -0.6452 -0.4363
  142MPD2     H 2168   3.883   1.283   9.833  1.2787 -0.1469  0.2918
  142MPD2    H1 2169   4.001   1.443  10.211  2.7399 -1.0227  0.1679
  142MPD2    H2 2170   3.686   1.154  10.188 -1.2404  1.8550  0.4623
  142MPD2    H3 2171   3.838   1.301  10.310 -0.0928 -1.1791 -0.4422
  142MPD2     N 2172   4.051   1.455   9.956 -0.0824 -0.4627 -0.1141
  142MPD2    H5 2173   4.120   1.505  10.011 -0.5845  0.6334 -0.4762
  142MPD2    N1 2174   3.679   1.123   9.939 -0.5018 -0.3862 -0.3448
  142MPD2    H7 2175   3.617   1.058   9.987 -1.0598 -0.6405 -1.4000
  143TCq2    C1 2176   4.079   1.455   9.821 -0.9779 -1.3068 -0.2533
  143TCq2    O2 2177   4.008   1.423   9.725  0.0209 -0.0710 -0.0706
  143TCq2    C2 2178   4.196   1.533   9.793 -0.5690  0.1067 -0.4412
  143TCq2    C3 2179   4.278   1.576   9.891 -0.1539 -0.4177 -0.3944
  143TCq2    C4 2180   4.371   1.672   9.858  0.2196 -0.1463  0.2406
  143TCq2    C5 2181   4.374   1.727   9.729 -0.6388  0.0583 -0.4431
  143TCq2    C6 2182   4.279   1.684   9.643  0.7639 -0.4678  0.0740
  143TCq2    C7 2183   4.190   1.596   9.676  0.2452  0.0564 -0.0529
  143TCq2    C8 2184   4.276   1.735   9.501  0.1811 -0.1181 -0.8089
  143TCq2    O4 2185   4.181   1.707   9.434 -0.3226  0.1467  0.5263
  143TCq2    C9 2186   4.475   1.708   9.953  0.1772  0.5872 -0.5321
  143TCq2    O5 2187   4.467   1.671  10.075 -0.5194 -0.2269  0.1792
  143TCq2    O6 2188   4.550   1.800   9.907  0.0399  0.0893  0.3508
  143TCq2    H2 2189   4.280   1.517   9.982  0.2819  3.2047  1.9468
  143TCq2    H3 2190   4.438   1.811   9.704 -0.8639  0.4392  0.2613
  143TCq2    H4 2191   4.113   1.583   9.600  0.1452  0.1413  0.0350
  144MPD2     C 2192   1.407   1.166   0.969  0.8127 -0.2278 -1.4672
  144MPD2    C1 2193   1.506   1.076   0.921  0.5043 -0.5969  0.4141
  144MPD2    C2 2194   1.641   1.100   0.953  0.3125 -0.3536 -0.2285
  144MPD2    C3 2195   1.680   1.205   1.024  0.0996 -0.4176  0.5520
  144MPD2    C4 2196   1.586   1.293   1.071 -0.9441 -0.1777  0.3010
  144MPD2    C5 2197   1.459   1.273   1.037 -0.3605  0.1430 -0.0114
  144MPD2     H 2198   1.703   1.020   0.913  1.0521 -0.1737  0.5603
  144MPD2    H1 2199   1.620   1.382   1.122 -0.0989 -0.0295 -0.5332
  144MPD2    H2 2200   1.305   1.166   0.935  0.1510  0.2413  0.5066
  144MPD2    H3 2201   1.387   1.350   1.061 -0.9920 -0.0535 -1.2108
  144MPD2     N 2202   1.814   1.225   1.072 -0.1994 -0.1150  0.1591
  144MPD2    H5 2203   1.823   1.303   1.137 -0.7177 -0.0692  0.1739
  144MPD2    N1 2204   1.466   0.972   0.833 -0.3817 -0.5358  0.3019
  144MPD2    H7 2205   1.542   0.913   0.798 -1.1447 -0.3478 -1.6816
  145TCq2    C1 2206   1.926   1.160   1.037 -1.1516  0.4363  0.1742
  145TCq2    O2 2207   1.931   1.056   0.971 -0.3455 -0.5667  0.0894
  145TCq2    C2 2208   2.041   1.207   1.119 -0.4017  0.3342 -0.1940
  145TCq2    C3 2209   2.161   1.198   1.061 -0.0062  0.0504  0.1669
  145TCq2    C4 2210   2.271   1.225   1.139 -0.5735 -0.1956 -0.3079
  145TCq2    C5 2211   2.255   1.277   1.263  0.3334 -0.0150  0.0237
  145TCq2    C6 2212   2.128   1.284   1.313  0.3778 -0.4800  0.0742
  145TCq2    C7 2213   2.019   1.248   1.240  0.1971  0.0098  0.1772
  145TCq2    C8 2214   2.107   1.293   1.456  0.1344 -0.5533 -0.9458
  145TCq2    O4 2215   2.193   1.254   1.533 -0.1484  0.4624 -0.6202
  145TCq2    C9 2216   2.406   1.207   1.092  0.1664  0.2784  0.0895
  145TCq2    O5 2217   2.507   1.197   1.170  0.5982  0.3845  0.3127
  145TCq2    O6 2218   2.403   1.164   0.975  0.8294 -0.4987  1.1430
  145TCq2    H2 2219   2.182   1.155   0.964  1.6101  0.8060  0.1699
  145TCq2    H3 2220   2.344   1.312   1.315 -1.1307  3.9636 -0.2055
  145TCq2    H4 2221   1.917   1.253   1.275  0.1443 -0.0188  0.0231
  146TMC2    C1 2222   3.041   3.875  12.230  0.0029 -0.0714 -0.1207
  146TMC2    C2 2223   2.963   3.808  12.136 -0.7734 -0.0199  0.1408
  146TMC2    C3 2224   3.033   3.721  12.061 -0.2484 -0.0552 -0.0687
  146TMC2    C4 2225   3.174   3.863  12.251  0.5365 -0.0531  0.5473
  146TMC2    C5 2226   3.232   3.763  12.177 -1.2051  0.1753 -0.8882
  146TMC2    C6 2227   3.167   3.695  12.080  0.5758  0.3859 -0.2451
  146TMC2     C 2228   2.973   3.981  12.297  0.1628 -0.1808 -0.4808
  146TMC2     O 2229   2.877   4.031  12.241  0.2945 -0.1203 -0.1408
  146TMC2     H 2230   2.856   3.821  12.129 -1.1540 -2.1685  2.1135
  146TMC2    H1 2231   3.232   3.938  12.304 -1.4286  0.9986  1.2275
  146TMC2    H2 2232   3.222   3.624  12.020 -1.1399  0.0276 -1.3761
  146TMC2    C7 2233   3.372   3.731  12.197  0.6733 -0.3625  0.2160
  146TMC2    C8 2234   2.964   3.617  12.000 -0.3563 -0.0370  0.3913
  146TMC2    O1 2235   3.417   3.655  12.115 -0.4299  0.7892  0.4816
  146TMC2    O2 2236   2.985   3.575  11.887 -0.1723 -0.2082 -0.3854
  146TMC2    O5 2237   2.870   3.568  12.083  0.1229  0.0517 -0.1483
  146TMC2    H5 2238   2.854   3.598  12.175  1.6552  0.6280 -0.0724
  147MPD2     C 2239   3.827   3.690  12.419 -0.0356 -0.4769  0.4761
  147MPD2    C1 2240   3.737   3.722  12.520  0.0239  0.7438  0.2403
  147MPD2    C2 2241   3.606   3.741  12.487  0.3719 -0.6831  0.0997
  147MPD2    C3 2242   3.562   3.730  12.351 -0.0076  0.4392  0.4023
  147MPD2    C4 2243   3.656   3.704  12.259 -0.4885  0.5714 -0.7173
  147MPD2    C5 2244   3.785   3.677  12.293  0.4008 -0.3048  0.5059
  147MPD2     H 2245   3.532   3.768  12.562 -0.6745  0.1113 -1.2144
  147MPD2    H1 2246   3.639   3.687  12.154  0.8722 -1.1570 -0.6475
  147MPD2    H2 2247   3.934   3.681  12.430  0.0878 -1.3357 -1.4641
  147MPD2    H3 2248   3.856   3.648  12.217 -1.9436  1.0361 -2.1884
  147MPD2     N 2249   3.425   3.756  12.324  0.7685 -0.6184  0.0320
  147MPD2    H5 2250   3.366   3.781  12.402  1.3210 -1.5129  0.7441
  147MPD2    N1 2251   3.787   3.731  12.650  0.6094  0.3689 -0.1361
  147MPD2    H7 2252   3.887   3.713  12.658  0.7001 -1.3612 -5.3821
  148MPD2     C 2253   3.437   2.605  10.625 -0.1274  0.5493 -0.2780
  148MPD2    C1 2254   3.476   2.490  10.552  0.4681  0.5315 -0.0963
  148MPD2    C2 2255   3.391   2.411  10.479  1.1135  0.1978  0.2121
  148MPD2    C3 2256   3.256   2.446  10.487  0.7180 -0.7343  0.4046
  148MPD2    C4 2257   3.218   2.558  10.561 -0.2393 -0.2553  0.0349
  148MPD2    C5 2258   3.305   2.630  10.640 -0.6232 -0.2978  0.1006
  148MPD2     H 2259   3.430   2.326  10.424  0.9500  0.9912 -1.1214
  148MPD2    H1 2260   3.113   2.583  10.570  0.1064  0.7258  1.3125
  148MPD2    H2 2261   3.501   2.672  10.683  0.1648  0.9134 -1.0179
  148MPD2    H3 2262   3.276   2.714  10.703 -2.2522  1.7751 -3.3619
  148MPD2     N 2263   3.159   2.382  10.413  0.0305 -1.0124  0.0522
  148MPD2    H5 2264   3.063   2.415  10.410  0.2507 -0.2204  1.5141
  148MPD2    N1 2265   3.610   2.459  10.542  0.0995 -0.1513  0.5795
  148MPD2    H7 2266   3.636   2.366  10.510 -0.7864 -0.5683  1.0842
  149TCq2    C1 2267   3.716   2.524  10.583 -1.1581  0.2103 -0.4794
  149TCq2    O2 2268   3.720   2.642  10.620  0.4668  0.8282  0.1838
  149TCq2    C2 2269   3.843   2.459  10.547 -0.2767  0.2747  0.0997
  149TCq2    C3 2270   3.941   2.546  10.508 -0.2495  0.1299 -0.0547
  149TCq2    C4 2271   4.047   2.494  10.439  0.1395 -0.2913  0.4147
  149TCq2    C5 2272   4.053   2.361  10.400 -0.9746  0.5325 -0.1871
  149TCq2    C6 2273   3.960   2.274  10.446  0.4217  0.0933  0.2637
  149TCq2    C7 2274   3.854   2.322  10.523 -0.6602 -0.7034 -0.5222
  149TCq2    C8 2275   3.939   2.147  10.373 -0.4652 -0.1437 -0.2505
  149TCq2    O4 2276   3.839   2.087  10.401 -0.4168  0.0174  0.1269
  149TCq2    C9 2277   4.119   2.587  10.357  0.0161  0.1159  0.2051
  149TCq2    O5 2278   4.068   2.696  10.311  0.0313  0.3809 -0.4038
  149TCq2    O6 2279   4.241   2.553  10.334  0.2404 -0.3921 -0.0734
  149TCq2    H2 2280   3.944   2.653  10.523 -0.0138 -0.0761  1.3940
  149TCq2    H3 2281   4.125   2.334  10.323 -0.4176 -0.9022  0.8399
  149TCq2    H4 2282   3.779   2.248  10.552 -1.1219  0.0029  0.0985
  150MPD2     C 2283   4.626   2.212  11.735 -0.0386 -0.4352 -1.1235
  150MPD2    C1 2284   0.000   2.232  11.635 -0.6530  0.0600  0.7929
  150MPD2    C2 2285   0.114   2.308  11.668 -0.4028 -0.0819 -0.6750
  150MPD2    C3 2286   0.121   2.363  11.791  0.1340 -0.0448 -0.1509
  150MPD2    C4 2287   0.022   2.345  11.883  0.5888 -0.0862  0.4266
  150MPD2    C5 2288   4.640   2.265  11.860 -0.2618 -0.6085  0.2146
  150MPD2     H 2289   0.201   2.317  11.605  0.4169  0.2227  0.4884
  150MPD2    H1 2290   0.023   2.404  11.975  0.3823  0.9627 -0.2470
  150MPD2    H2 2291   4.534   2.167  11.698 -2.0547  1.9002  1.0631
  150MPD2    H3 2292   4.570   2.260  11.943 -0.7453  0.1395 -0.1429
  150MPD2     N 2293   0.241   2.436  11.815  0.4547  0.1293  0.5266
  150MPD2    H5 2294   0.307   2.445  11.739  1.1987 -0.2360  1.1312
  150MPD2    N1 2295   4.699   2.168  11.509 -0.3206  0.6891  0.2353
  150MPD2    H7 2296   4.603   2.139  11.495 -0.2622  0.9200 -0.6266
  151TCq2    C1 2297   0.280   2.482  11.939  0.5272 -0.9346  0.8384
  151TCq2    O2 2298   0.250   2.447  12.055  0.5733  0.2669 -0.2224
  151TCq2    C2 2299   0.393   2.573  11.931  0.0113  0.4540 -0.3638
  151TCq2    C3 2300   0.390   2.663  11.830 -0.1603 -0.2025  0.3530
  151TCq2    C4 2301   0.497   2.741  11.813 -0.4642 -0.2828  0.5861
  151TCq2    C5 2302   0.601   2.738  11.910 -0.8101  0.2473 -0.4997
  151TCq2    C6 2303   0.599   2.650  12.011  0.1034  0.4720  0.2762
  151TCq2    C7 2304   0.487   2.568  12.030  0.2288  0.1911  0.6882
  151TCq2    C8 2305   0.701   2.655  12.115  0.3585 -0.1798  0.0387
  151TCq2    O4 2306   0.726   2.768  12.157 -0.6221  0.1366 -0.1004
  151TCq2    C9 2307   0.509   2.823  11.697 -0.3797 -0.0901 -0.0912
  151TCq2    O5 2308   0.416   2.820  11.609 -0.3532 -0.4621 -0.4799
  151TCq2    O6 2309   0.615   2.894  11.692 -0.0104 -0.2358 -0.3372
  151TCq2    H2 2310   0.309   2.667  11.758  1.0484  0.4794 -0.9700
  151TCq2    H3 2311   0.683   2.808  11.904 -0.3435 -0.1635  1.0438
  151TCq2    H4 2312   0.477   2.507  12.119  0.0361 -0.8119 -0.0214
  152MPD2     C 2313   4.138   1.887  12.570  0.4431 -0.2961 -0.5976
  152MPD2    C1 2314   4.192   2.006  12.532 -0.1182 -0.2483 -0.2298
  152MPD2    C2 2315   4.117   2.111  12.483  0.6047  0.5994  0.1396
  152MPD2    C3 2316   3.980   2.098  12.470  0.7297 -0.6695  0.0160
  152MPD2    C4 2317   3.925   1.975  12.501  0.1964  0.3939  0.2972
  152MPD2    C5 2318   4.007   1.869  12.540  0.4889  0.7357 -0.5374
  152MPD2     H 2319   4.155   2.213  12.478  0.3982  0.6869  0.3721
  152MPD2    H1 2320   3.818   1.958  12.503  0.5153 -1.6836  0.1625
  152MPD2    H2 2321   4.190   1.807  12.622 -0.2710 -0.7999 -0.6558
  152MPD2    H3 2322   3.957   1.778  12.570  0.3111  1.4380  1.3055
  152MPD2     N 2323   3.906   2.209  12.441 -0.4031  0.2855  0.5508
  152MPD2    H5 2324   3.953   2.294  12.413  0.5683  0.0662  1.5382
  152MPD2    N1 2325   4.321   2.039  12.580 -0.4967 -0.5450 -0.8125
  152MPD2    H7 2326   4.358   1.968  12.642  0.0797  0.8919  0.4728
  153TCq2    C1 2327   4.402   2.133  12.519 -0.0724 -0.1341  0.2888
  153TCq2    O2 2328   4.373   2.209  12.426 -0.0808  0.3027  0.2391
  153TCq2    C2 2329   4.542   2.126  12.549  0.8092  0.3935  0.0668
  153TCq2    C3 2330   4.601   2.011  12.590  0.1788 -0.1998 -0.2542
  153TCq2    C4 2331   0.013   2.012  12.589  0.4076  0.3880 -0.0724
  153TCq2    C5 2332   0.085   2.122  12.559 -0.3312 -0.2377  1.2358
  153TCq2    C6 2333   0.015   2.240  12.532  0.2934 -0.2384  0.1240
  153TCq2    C7 2334   4.596   2.247  12.525  0.8235  0.0004  0.3605
  153TCq2    C8 2335   0.092   2.357  12.489 -0.0694  0.1002 -0.0554
  153TCq2    O4 2336   0.040   2.453  12.435  0.0186 -0.4316 -0.3505
  153TCq2    C9 2337   0.082   1.886  12.614  0.2975  0.1065  0.1182
  153TCq2    O5 2338   0.028   1.798  12.692 -0.1733  0.4109 -0.2038
  153TCq2    O6 2339   0.204   1.896  12.584  0.4364 -0.1806  0.5562
  153TCq2    H2 2340   4.551   1.916  12.605 -0.7942  0.4765  0.7699
  153TCq2    H3 2341   0.193   2.116  12.568 -0.3073 -1.4121  0.1833
  153TCq2    H4 2342   4.550   2.343  12.504  0.2892 -0.9030 -2.6650
  154MPD2     C 2343   0.965   2.163   0.317 -0.1333  0.2017 -0.3938
  154MPD2    C1 2344   1.034   2.122   0.425 -0.2430 -0.0220 -0.2009
  154MPD2    C2 2345   1.037   2.208   0.535 -0.2130 -0.5888  0.1809
  154MPD2    C3 2346   0.987   2.337   0.531  0.2614  0.3664  0.8505
  154MPD2    C4 2347   0.923   2.377   0.415 -0.4463 -0.4816 -0.2150
  154MPD2    C5 2348   0.911   2.287   0.313  0.7124  0.3347 -0.0691
  154MPD2     H 2349   1.078   2.181   0.632  1.6736  0.1514 -0.3889
  154MPD2    H1 2350   0.896   2.479   0.392  1.0519  0.2580  1.3095
  154MPD2    H2 2351   0.950   2.093   0.236  1.5788  0.7153 -1.1376
  154MPD2    H3 2352   0.870   2.318   0.217 -1.0438 -1.2226  0.1816
  154MPD2     N 2353   1.005   2.417   0.645 -0.1585 -0.6348 -0.4446
  154MPD2    H5 2354   1.069   2.377   0.713  0.5637  2.8738  0.8902
  154MPD2    N1 2355   1.074   1.992   0.416  0.0268 -0.2393  0.0761
  154MPD2    H7 2356   1.056   1.939   0.331  0.4364 -0.1467 -0.0697
  155TCq2    C1 2357   1.174   1.942   0.494  0.2536  0.2175 -0.6124
  155TCq2    O2 2358   1.255   1.998   0.571 -0.1370  0.3173 -0.4505
  155TCq2    C2 2359   1.203   1.802   0.463 -0.2697  0.6341  0.9059
  155TCq2    C3 2360   1.334   1.764   0.470  0.0500  0.1996 -0.8226
  155TCq2    C4 2361   1.367   1.637   0.439 -0.6179 -0.4325 -0.0256
  155TCq2    C5 2362   1.290   1.557   0.367  0.5919  0.3325  0.1104
  155TCq2    C6 2363   1.159   1.601   0.343 -0.1097  0.3311 -0.5957
  155TCq2    C7 2364   1.116   1.726   0.381  0.0065  0.4330 -0.2410
  155TCq2    C8 2365   1.056   1.504   0.337  0.1498 -0.5111 -0.5635
  155TCq2    O4 2366   0.941   1.542   0.365  0.3033 -0.3766  0.1939
  155TCq2    C9 2367   1.506   1.596   0.465  0.2550  0.4244  0.0087
  155TCq2    O5 2368   1.590   1.683   0.491 -0.6476 -0.0821 -0.1033
  155TCq2    O6 2369   1.537   1.477   0.437  0.2495 -0.0523  0.3954
  155TCq2    H2 2370   1.406   1.821   0.528  2.0098 -0.7626 -2.3425
  155TCq2    H3 2371   1.343   1.469   0.331 -1.6418 -1.2724  0.7323
  155TCq2    H4 2372   1.014   1.759   0.365 -1.5281 -2.4304  3.5516
  156MPD2     C 2373   0.611   4.149  11.708 -0.2993  0.1471 -0.2599
  156MPD2    C1 2374   0.513   4.237  11.661  0.0642  0.2494 -0.1177
  156MPD2    C2 2375   0.441   4.310  11.756 -0.5454  0.6861  0.2356
  156MPD2    C3 2376   0.457   4.281  11.889 -0.1122  0.0272 -0.2571
  156MPD2    C4 2377   0.543   4.187  11.935 -0.4252 -0.1118 -0.1398
  156MPD2    C5 2378   0.627   4.127  11.842  0.3403 -0.2205  0.2976
  156MPD2     H 2379   0.378   4.393  11.727 -0.0274  1.1194  0.3385
  156MPD2    H1 2380   0.533   4.166  12.041  2.4838 -4.0835 -0.6677
  156MPD2    H2 2381   0.678   4.089  11.647 -0.7268  0.3395 -0.9265
  156MPD2    H3 2382   0.692   4.043  11.865  1.3802  0.2178 -1.0609
  156MPD2     N 2383   0.359   4.342  11.971  0.4149 -0.1533 -0.2096
  156MPD2    H5 2384   0.307   4.415  11.922  1.8075  0.3550 -0.9303
  156MPD2    N1 2385   0.496   4.267  11.525  0.0851  0.4520 -0.2910
  156MPD2    H7 2386   0.423   4.334  11.506  1.4229  1.9325 -0.2841
  157TCq2    C1 2387   0.562   4.213  11.415 -0.0082 -0.4221 -0.1397
  157TCq2    O2 2388   0.653   4.132  11.414  0.1712  0.0028 -0.2865
  157TCq2    C2 2389   0.522   4.272  11.287 -0.6447  0.5378 -0.1378
  157TCq2    C3 2390   0.541   4.190  11.180 -0.3032 -0.6065  0.9773
  157TCq2    C4 2391   0.495   4.238  11.056  0.5470  0.5870  0.8401
  157TCq2    C5 2392   0.423   4.358  11.049 -0.5923  0.6992  0.2427
  157TCq2    C6 2393   0.412   4.435  11.161  0.4810  0.5093  0.0829
  157TCq2    C7 2394   0.454   4.389  11.281 -0.2077 -0.8912 -0.1775
  157TCq2    C8 2395   0.342   4.558  11.152  1.0505 -0.6073 -0.0051
  157TCq2    O4 2396   0.352   4.619  11.047 -0.1661 -0.3183 -0.1186
  157TCq2    C9 2397   0.505   4.146  10.950  0.5354  0.5787  0.4339
  157TCq2    O5 2398   0.589   4.051  10.955  0.1621  0.1518  0.5875
  157TCq2    O6 2399   0.439   4.180  10.844 -0.1091 -0.2158 -0.2136
  157TCq2    H2 2400   0.600   4.099  11.178  3.0303  1.6064  0.0350
  157TCq2    H3 2401   0.404   4.389  10.947 -1.9561 -0.8534  0.0121
  157TCq2    H4 2402   0.456   4.459  11.364  1.8431 -1.3285  0.1552
  158TMC2    C1 2403   0.238   3.615  13.345 -0.1102 -0.2153 -0.4363
  158TMC2    C2 2404   0.258   3.668  13.218  0.3518 -0.2794 -0.2268
  158TMC2    C3 2405   0.159   3.742  13.161 -0.2567  0.0105 -0.6995
  158TMC2    C4 2406   0.123   3.626  13.406  0.5478  0.1851 -0.0767
  158TMC2    C5 2407   0.021   3.696  13.341  0.0232 -0.2280  0.5606
  158TMC2    C6 2408   0.038   3.758  13.220 -0.2935  0.9582  0.1323
  158TMC2     C 2409   0.364   3.587  13.412 -0.8183  0.0022 -0.9926
  158TMC2     O 2410   0.459   3.650  13.368  0.0091  0.0299 -0.6009
  158TMC2     H 2411   0.349   3.654  13.160  0.4662 -0.1220 -0.0837
  158TMC2    H1 2412   0.109   3.594  13.509 -0.7687 -0.0719 -0.3288
  158TMC2    H2 2413   4.679   3.813  13.172 -1.3076 -1.6083 -1.1018
  158TMC2    C7 2414   4.603   3.676  13.380  0.0211 -0.8251 -0.3172
  158TMC2    C8 2415   0.172   3.765  13.018  0.3550  0.0525  0.5203
  158TMC2    O1 2416   4.520   3.746  13.330  0.0119 -0.0366 -0.2530
  158TMC2    O2 2417   0.135   3.867  12.958 -0.2693 -0.0243  0.2277
  158TMC2    O5 2418   0.158   3.638  12.967 -0.4760  0.4899 -0.3561
  158TMC2    H5 2419   0.165   3.579  13.045 -1.0083  1.3614  0.3666
  159MPD2     C 2420   0.639   3.470  13.835 -0.1028  0.4398  0.3726
  159MPD2    C1 2421   0.506   3.465  13.863 -0.3978  0.2630  0.7308
  159MPD2    C2 2422   0.414   3.487  13.766 -0.3931 -0.0656  0.3226
  159MPD2    C3 2423   0.452   3.518  13.636 -0.0255  0.2119 -0.7912
  159MPD2    C4 2424   0.589   3.539  13.603  0.0229  0.1564  0.2063
  159MPD2    C5 2425   0.680   3.513  13.705  0.4696 -0.5751 -0.0611
  159MPD2     H 2426   0.309   3.487  13.792 -0.0062  0.8362  1.8463
  159MPD2    H1 2427   0.628   3.556  13.503 -0.8320 -0.5670 -0.2497
  159MPD2    H2 2428   0.710   3.452  13.915 -1.6707  0.4343  1.7581
  159MPD2    H3 2429   0.786   3.506  13.685  0.5521  0.1358  0.1248
  159MPD2     N 2430   0.352   3.533  13.537  0.2965  0.6584 -0.3320
  159MPD2    H5 2431   0.262   3.501  13.571  0.9069 -1.2613 -0.4894
  159MPD2    N1 2432   0.475   3.437  13.998  0.2628 -0.1474  0.2853
  159MPD2    H7 2433   0.550   3.454  14.064 -0.4265  0.6574  0.8698
  160TMC2    C1 2434   0.639   1.718   2.223  0.2381 -0.5362 -0.0962
  160TMC2    C2 2435   0.684   1.676   2.343 -0.2540 -0.1975 -0.5096
  160TMC2    C3 2436   0.683   1.544   2.364  0.4138  1.0025  0.4598
  160TMC2    C4 2437   0.590   1.634   2.127 -0.3898 -0.2092  0.8517
  160TMC2    C5 2438   0.599   1.498   2.145  1.3000 -0.0455  0.3494
  160TMC2    C6 2439   0.632   1.450   2.272  0.1348  0.1193  0.2065
  160TMC2     C 2440   0.621   1.865   2.209 -0.3574  0.1368  0.1194
  160TMC2     O 2441   0.669   1.924   2.303 -0.0370  0.6087  0.6638
  160TMC2     H 2442   0.721   1.748   2.414 -0.8337 -0.2363 -0.1685
  160TMC2    H1 2443   0.555   1.672   2.032 -0.2820  1.0630  1.3160
  160TMC2    H2 2444   0.640   1.344   2.290  0.9788  0.6466  2.9163
  160TMC2    C7 2445   0.523   1.402   2.056 -0.1099 -0.0418 -0.0064
  160TMC2    C8 2446   0.727   1.486   2.490  0.3932  0.4344 -0.1339
  160TMC2    O1 2447   0.468   1.301   2.105  0.4563  0.5445  0.0938
  160TMC2    O2 2448   0.677   1.383   2.534  0.2321  0.4835 -0.0681
  160TMC2    O5 2449   0.841   1.547   2.520  0.0273 -0.3098  0.6718
  160TMC2    H5 2450   0.863   1.617   2.455 -0.7353 -2.9820 -2.4024
  161MPD2     C 2451   0.538   2.143   2.124 -0.5725  0.6935  0.0357
  161MPD2    C1 2452   0.484   2.026   2.080  0.1684 -0.4570  0.5305
  161MPD2    C2 2453   0.372   2.032   1.998  0.5947  0.2732  0.5119
  161MPD2    C3 2454   0.320   2.160   1.965 -0.1106  0.1709  0.6950
  161MPD2    C4 2455   0.388   2.279   1.995 -0.3856  0.2625 -0.5833
  161MPD2    C5 2456   0.491   2.270   2.088  0.3822 -0.1701  0.2685
  161MPD2     H 2457   0.317   1.941   1.979  0.1517  0.2938  1.7206
  161MPD2    H1 2458   0.358   2.376   1.956 -2.0329  0.0176  0.1001
  161MPD2    H2 2459   0.621   2.136   2.192 -0.4447 -0.2510 -0.2102
  161MPD2    H3 2460   0.542   2.356   2.129  2.5441 -1.0810 -0.5262
  161MPD2     N 2461   0.205   2.177   1.881  0.1946 -0.0102 -0.4123
  161MPD2    H5 2462   0.187   2.272   1.851  1.2232 -0.1409 -1.4546
  161MPD2    N1 2463   0.536   1.902   2.114  0.1130 -0.5997  0.2357
  161MPD2    H7 2464   0.503   1.818   2.068 -2.1604  0.1689  0.4552
  162TMC2    C1 2465   3.277   3.904   1.435  0.3629 -0.2708 -0.3994
  162TMC2    C2 2466   3.207   4.022   1.431 -0.5259  0.6128 -0.1528
  162TMC2    C3 2467   3.194   4.084   1.552 -0.2119  0.2675 -0.2393
  162TMC2    C4 2468   3.319   3.856   1.555  0.1662  0.2415  0.3060
  162TMC2    C5 2469   3.296   3.925   1.667 -0.3050 -0.3796 -0.9035
  162TMC2    C6 2470   3.229   4.039   1.669 -0.7535  0.4806  0.3820
  162TMC2     C 2471   3.303   3.826   1.315 -0.0891  0.2916  0.2758
  162TMC2     O 2472   3.378   3.727   1.328  0.5535 -0.2794 -0.9038
  162TMC2     H 2473   3.197   4.076   1.337  1.3821  1.3129  0.0379
  162TMC2    H1 2474   3.368   3.759   1.553 -3.4288 -1.5985  1.8864
  162TMC2    H2 2475   3.209   4.091   1.762  1.3747  2.9870 -0.5635
  162TMC2    C7 2476   3.371   3.894   1.788  0.3457  0.4091  0.0862
  162TMC2    C8 2477   3.137   4.221   1.549 -0.4088  0.5872  0.5857
  162TMC2    O1 2478   3.353   3.973   1.880 -0.2525  0.3598  0.4555
  162TMC2    O2 2479   3.163   4.300   1.638 -0.2363  0.5281 -0.2729
  162TMC2    O5 2480   3.035   4.222   1.455  0.2624  0.0024 -0.7688
  162TMC2    H5 2481   3.021   4.135   1.410  0.6215 -0.0428 -0.7889
  163MPD2     C 2482   3.175   3.678   0.844  0.2783 -0.8354  0.5948
  163MPD2    C1 2483   3.270   3.628   0.927 -0.1936 -0.1910  1.5329
  163MPD2    C2 2484   3.288   3.688   1.053 -0.4526 -0.5474 -0.4731
  163MPD2    C3 2485   3.213   3.799   1.089 -0.1663  0.6194 -0.4123
  163MPD2    C4 2486   3.118   3.850   1.000 -0.2017 -0.2735  0.4331
  163MPD2    C5 2487   3.098   3.791   0.879 -0.0666 -0.1126  0.1974
  163MPD2     H 2488   3.361   3.647   1.123 -1.1001  1.2875  1.2762
  163MPD2    H1 2489   3.054   3.933   1.026 -0.6497  0.1152 -1.9235
  163MPD2    H2 2490   3.153   3.630   0.749 -2.6212 -0.6796  1.2022
  163MPD2    H3 2491   3.027   3.830   0.807  0.2089 -3.2569 -1.8044
  163MPD2     N 2492   3.224   3.863   1.210  0.9445 -0.5499 -0.1046
  163MPD2    H5 2493   3.149   3.926   1.237  1.4843  1.3183 -2.9392
  163MPD2    N1 2494   3.329   3.511   0.885  0.2442  0.1283  0.0928
  163MPD2    H7 2495   3.305   3.484   0.790 -0.2988  0.6313  0.0875
  164TCq2    C1 2496   4.034   2.592  10.849 -0.1690  0.3656 -0.0024
  164TCq2    O2 2497   4.128   2.573  10.772  0.4217  0.0679 -0.8582
  164TCq2    C2 2498   3.972   2.730  10.857  0.0664 -0.4717 -0.3332
  164TCq2    C3 2499   4.034   2.831  10.782 -0.4712  0.5017  0.2638
  164TCq2    C4 2500   3.966   2.947  10.764  0.4187  0.2064 -0.4633
  164TCq2    C5 2501   3.839   2.963  10.816 -0.3735 -0.3824  0.2629
  164TCq2    C6 2502   3.777   2.863  10.889 -0.9590 -0.5074  0.1983
  164TCq2    C7 2503   3.842   2.742  10.913 -0.2817 -0.2098 -0.1740
  164TCq2    C8 2504   3.646   2.889  10.948 -0.1546  0.0548 -0.2983
  164TCq2    O4 2505   3.589   2.987  10.903  0.4991 -0.2510  0.0022
  164TCq2    C9 2506   4.029   3.053  10.692  0.8077  0.4414 -0.5392
  164TCq2    O5 2507   3.958   3.156  10.673  0.0072  0.0398 -0.2000
  164TCq2    O6 2508   4.146   3.039  10.649 -0.1313 -0.3129 -0.0714
  164TCq2    H2 2509   4.135   2.819  10.745 -0.1052  0.9003  1.1434
  164TCq2    H3 2510   3.795   3.059  10.793  0.3388 -0.6576 -2.1914
  164TCq2    H4 2511   3.781   2.658  10.945 -0.6704 -0.1881 -0.8455
  165MPD2     C 2512   4.434   4.614   2.006  0.0421 -0.4500  0.0076
  165MPD2    C1 2513   4.533   4.542   2.068  0.3652  0.2055  0.0636
  165MPD2    C2 2514   4.654   4.597   2.090 -0.2954 -0.2894  0.0726
  165MPD2    C3 2515   4.677   0.016   2.062  0.0124 -0.2687 -0.2910
  165MPD2    C4 2516   4.574   0.090   2.001  0.3503 -0.5405  0.1935
  165MPD2    C5 2517   4.461   0.026   1.960  0.7095 -0.7927  0.0264
  165MPD2     H 2518   0.019   4.542   2.125 -1.5430 -2.9271 -1.0356
  165MPD2    H1 2519   4.588   0.190   1.964  3.5547 -0.7012  0.9510
  165MPD2    H2 2520   4.341   4.572   1.968  0.0738  0.1505 -0.7426
  165MPD2    H3 2521   4.388   0.091   1.914  0.7506 -0.7342  0.0440
  165MPD2     N 2522   0.077   0.086   2.083 -0.5659  0.3611 -0.8787
  165MPD2    H5 2523   0.078   0.188   2.077  2.2586  0.4341  0.2315
  165MPD2    N1 2524   4.511   4.408   2.092  0.0584  0.0087 -0.3621
  165MPD2    H7 2525   4.412   4.387   2.080  0.3008 -0.9226 -0.7230
  166TCq2    C1 2526   0.194   0.032   2.139  0.1885  0.0648  1.1218
  166TCq2    O2 2527   0.222   4.638   2.171 -0.1136  0.2878 -0.8030
  166TCq2    C2 2528   0.291   0.136   2.154 -0.1519 -0.2339 -0.5349
  166TCq2    C3 2529   0.409   0.097   2.216 -0.5147 -0.3438 -0.4157
  166TCq2    C4 2530   0.515   0.187   2.198 -0.1490  0.0531  0.2113
  166TCq2    C5 2531   0.499   0.322   2.168  0.4755 -0.0132  0.5715
  166TCq2    C6 2532   0.376   0.358   2.125  0.2663 -0.2032 -0.5003
  166TCq2    C7 2533   0.282   0.260   2.090  0.3806 -1.4319 -0.0956
  166TCq2    C8 2534   0.380   0.478   2.039  0.3165 -0.5180  0.1815
  166TCq2    O4 2535   0.488   0.517   2.001 -0.4577  0.4840 -0.6316
  166TCq2    C9 2536   0.634   0.151   2.263 -0.0385  0.3182 -0.2557
  166TCq2    O5 2537   0.730   0.230   2.258 -0.3619 -0.9608 -0.2102
  166TCq2    O6 2538   0.631   0.056   2.348  0.8947  0.4780 -0.5124
  166TCq2    H2 2539   0.428   0.002   2.264  0.8600 -1.2326 -2.7489
  166TCq2    H3 2540   0.584   0.383   2.195 -1.6242  2.4041  1.6798
  166TCq2    H4 2541   0.196   0.286   2.029 -0.4692  0.7954  2.0708
  167TMC2    C1 2542   3.156   2.952  12.270  0.5899 -0.5440  0.1464
  167TMC2    C2 2543   3.130   3.048  12.367 -0.0200  0.3532  0.3856
  167TMC2    C3 2544   3.169   3.025  12.498 -0.6166  0.0542 -0.7250
  167TMC2    C4 2545   3.223   2.837  12.303  0.2686  0.4071 -0.0443
  167TMC2    C5 2546   3.270   2.825  12.434  0.3807  0.2698  0.3817
  167TMC2    C6 2547   3.231   2.910  12.533  0.1913  0.2929 -0.4352
  167TMC2     C 2548   3.088   2.980  12.144 -0.7420 -0.5658  0.5998
  167TMC2     O 2549   3.003   3.068  12.144  0.3940  0.8329 -0.0096
  167TMC2     H 2550   3.054   3.122  12.348  1.9557  2.3309  0.1502
  167TMC2    H1 2551   3.226   2.752  12.236 -0.8907 -0.9980  1.6743
  167TMC2    H2 2552   3.253   2.888  12.637  0.5533 -0.3451 -0.6462
  167TMC2    C7 2553   3.324   2.699  12.491  0.3286 -0.6657 -0.2503
  167TMC2    C8 2554   3.088   3.093  12.599  0.3861 -0.2166 -0.1622
  167TMC2    O1 2555   3.348   2.691  12.612 -0.3829  0.7136 -0.1595
  167TMC2    O2 2556   2.967   3.096  12.589 -0.1587 -0.1647 -0.3275
  167TMC2    O5 2557   3.160   3.089  12.714 -0.1318 -0.8214 -0.6439
  167TMC2    H5 2558   3.255   3.073  12.695  0.7331  2.6385  0.7107
  168MPD2     C 2559   3.119   2.814  11.821 -0.4186  1.0893  0.5041
  168MPD2    C1 2560   3.064   2.884  11.922  0.0020 -0.1657  0.0078
  168MPD2    C2 2561   2.929   2.920  11.914 -0.0406 -0.3818  0.4661
  168MPD2    C3 2562   2.857   2.883  11.805  0.0457  0.1118 -0.3014
  168MPD2    C4 2563   2.912   2.815  11.707  0.5590 -1.0552  0.5474
  168MPD2    C5 2564   3.047   2.788  11.711  0.3386 -0.1010  0.7405
  168MPD2     H 2565   2.877   2.973  11.993  0.9640 -0.3784  1.1266
  168MPD2    H1 2566   2.850   2.772  11.630 -1.0121 -0.0533  1.2549
  168MPD2    H2 2567   3.219   2.777  11.840  0.2068  3.2642  1.4900
  168MPD2    H3 2568   3.104   2.732  11.639  2.8899  1.1290  1.8132
  168MPD2     N 2569   2.719   2.912  11.797  0.3965 -0.1865 -0.0743
  168MPD2    H5 2570   2.662   2.869  11.725  1.4267 -0.6606 -0.6041
  168MPD2    N1 2571   3.134   2.902  12.046 -0.1301 -0.1952 -0.1810
  168MPD2    H7 2572   3.215   2.842  12.058  0.7149  0.7610 -1.1048
  169MPD1     C 2573   0.919   0.904   8.823 -0.2238 -0.5527 -0.1362
  169MPD1    C1 2574   0.783   0.920   8.804 -0.0430  0.3122 -0.0211
  169MPD1    C2 2575   0.727   1.049   8.822  0.4721  0.7379 -0.0888
  169MPD1    C3 2576   0.802   1.154   8.864  0.8786 -0.1622 -0.9426
  169MPD1    C4 2577   0.940   1.136   8.894  0.4918 -0.2085 -0.2796
  169MPD1    C5 2578   0.993   1.008   8.869  0.4464 -0.9197 -0.2934
  169MPD1     H 2579   0.626   1.066   8.790  0.5331  0.5731 -0.3693
  169MPD1    H1 2580   1.009   1.203   8.943  0.3417  0.1250 -0.5306
  169MPD1    H2 2581   0.974   0.811   8.808  2.5741  0.6740  2.2943
  169MPD1    H3 2582   1.097   0.987   8.890  0.5390 -0.8534 -0.6769
  169MPD1     N 2583   0.741   1.282   8.888  0.7025  0.2772  0.6910
  169MPD1    H5 2584   0.641   1.274   8.878  0.6771  2.3850 -0.6433
  169MPD1    N1 2585   0.701   0.814   8.753  0.3951  0.2504 -0.6816
  169MPD1    H6 2586   0.606   0.813   8.788  0.5528  2.0130 -0.2207
  169MPD1    H7 2587   0.751   0.726   8.767 -1.2678 -0.3614  1.6163
  170MPD1     C 2588   3.304   0.432  12.974 -0.2667 -0.6359  0.2952
  170MPD1    C1 2589   3.437   0.453  12.962  1.0593 -0.0995 -0.7132
  170MPD1    C2 2590   3.508   0.490  13.071  0.6968  0.2936  0.3417
  170MPD1    C3 2591   3.452   0.533  13.191  0.0280 -0.0074 -0.3536
  170MPD1    C4 2592   3.312   0.521  13.204 -0.6195  0.1382  0.0635
  170MPD1    C5 2593   3.248   0.470  13.093  0.0073  0.0337 -0.9382
  170MPD1     H 2594   3.616   0.488  13.062  0.6026 -0.3073 -0.7088
  170MPD1    H1 2595   3.262   0.533  13.300  3.1782  1.8968  1.8565
  170MPD1    H2 2596   3.241   0.387  12.898 -0.8905  1.0513 -0.1832
  170MPD1    H3 2597   3.140   0.465  13.093  0.0078  0.0274 -1.0560
  170MPD1     N 2598   3.537   0.582  13.291  0.0950 -0.0612  0.0273
  170MPD1    H5 2599   3.636   0.597  13.272  0.5295 -0.6347  1.8323
  170MPD1    N1 2600   3.497   0.407  12.849  0.1948  0.0815  0.2668
  170MPD1    H6 2601   3.439   0.442  12.774 -2.1037 -2.8002  0.6624
  170MPD1    H7 2602   3.584   0.459  12.847  0.0851  0.2292 -0.5853
  171MPD1     C 2603   2.157   1.853  15.140  0.0792  0.1509  0.5229
  171MPD1    C1 2604   2.284   1.809  15.100  0.4752  0.0385  0.0566
  171MPD1    C2 2605   2.370   1.774  15.206  0.1936 -0.1847 -0.2961
  171MPD1    C3 2606   2.313   1.749  15.336 -0.0796 -0.3963 -0.1505
  171MPD1    C4 2607   2.182   1.796  15.370  0.4700 -0.8087  0.2493
  171MPD1    C5 2608   2.105   1.842  15.266 -0.1282 -0.1430  0.5290
  171MPD1     H 2609   2.476   1.757  15.188  0.5474  0.7296  0.9493
  171MPD1    H1 2610   2.137   1.777  15.467  2.4463 -0.5275  1.2051
  171MPD1    H2 2611   2.089   1.895  15.067  0.5134 -0.6535 -0.3560
  171MPD1    H3 2612   2.006   1.878  15.289  0.0155  0.2803  0.4904
  171MPD1     N 2613   2.395   1.701  15.446  0.7775 -0.0808 -0.2775
  171MPD1    H5 2614   2.352   1.711  15.537 -0.7754 -0.5454 -0.9606
  171MPD1    N1 2615   2.351   1.851  14.977  0.7826  0.8681  0.1832
  171MPD1    H6 2616   2.287   1.855  14.898  1.4380 -0.0492 -0.3938
  171MPD1    H7 2617   2.430   1.790  14.957 -1.4387 -1.1291 -2.5123
  172MPD1     C 2618   1.719   0.508   0.249  0.4623  0.2906  0.6920
  172MPD1    C1 2619   1.674   0.538   0.372 -0.0680  0.3866 -1.0335
  172MPD1    C2 2620   1.711   0.655   0.439 -0.1979  0.0365 -0.0341
  172MPD1    C3 2621   1.768   0.759   0.368  0.5919 -0.3204  0.7853
  172MPD1    C4 2622   1.797   0.737   0.238 -0.4069  0.3029  0.5542
  172MPD1    C5 2623   1.772   0.615   0.179 -0.0741  0.5895  0.0247
  172MPD1     H 2624   1.685   0.660   0.544 -0.6700 -0.3206 -0.1326
  172MPD1    H1 2625   1.853   0.809   0.178  0.9428 -0.2207  1.1912
  172MPD1    H2 2626   1.705   0.413   0.199 -1.3540  1.3015 -0.7263
  172MPD1    H3 2627   1.797   0.590   0.077  0.1969  0.7048  0.0637
  172MPD1     N 2628   1.809   0.883   0.418 -0.3546  0.0064  0.2543
  172MPD1    H5 2629   1.848   0.949   0.352  0.5657 -0.6546  0.1261
  172MPD1    N1 2630   1.616   0.426   0.441  0.6285  0.4904 -0.4722
  172MPD1    H6 2631   1.568   0.361   0.378  0.3703 -0.7429  0.9951
  172MPD1    H7 2632   1.567   0.455   0.525 -1.5438  0.6723 -1.8033
  173MPD1     C 2633   2.938   1.097  14.456 -0.1068  0.6039  0.1926
  173MPD1    C1 2634   2.910   1.000  14.362 -1.2584  0.5358  1.2232
  173MPD1    C2 2635   2.812   0.907  14.389 -0.0498 -0.1196 -0.2671
  173MPD1    C3 2636   2.741   0.910  14.508 -0.2869  0.1847 -0.1909
  173MPD1    C4 2637   2.777   1.002  14.604  0.3811 -0.5716 -0.0312
  173MPD1    C5 2638   2.882   1.089  14.577 -0.0961 -0.0400  0.5134
  173MPD1     H 2639   2.783   0.822  14.329  0.0953 -0.3309 -0.0399
  173MPD1    H1 2640   2.734   1.012  14.703  0.2120 -1.2612 -0.0336
  173MPD1    H2 2641   3.009   1.175  14.434 -1.8182  1.4729 -2.2333
  173MPD1    H3 2642   2.916   1.153  14.658 -1.9756  1.2194  0.3158
  173MPD1     N 2643   2.655   0.801  14.536  0.5326  0.1415 -0.0238
  173MPD1    H5 2644   2.654   0.731  14.463 -0.4479 -0.8594  0.9643
  173MPD1    N1 2645   2.981   0.994  14.236 -0.3381 -0.1469 -0.4454
  173MPD1    H6 2646   3.066   1.050  14.232 -0.0633 -0.3261  2.4885
  173MPD1    H7 2647   3.003   0.897  14.214  0.4063 -0.3629  1.2680
  174MPD1     C 2648   2.322   4.694  14.191 -0.0551  0.1891  0.9364
  174MPD1    C1 2649   2.260   0.097  14.172 -0.1735 -0.6458  0.0475
  174MPD1    C2 2650   2.275   0.185  14.280 -0.2719  0.4946 -0.1019
  174MPD1    C3 2651   2.340   0.160  14.393  0.0788 -0.0672  0.8316
  174MPD1    C4 2652   2.386   0.029  14.417 -0.6007 -0.1980  0.3912
  174MPD1    C5 2653   2.380   4.664  14.311 -0.7334  0.1578 -1.2911
  174MPD1     H 2654   2.245   0.287  14.259 -0.4371  0.2238 -1.1616
  174MPD1    H1 2655   2.442   0.004  14.507 -1.2114 -0.2245  0.7635
  174MPD1    H2 2656   2.331   4.616  14.117 -2.0816  0.5668  0.3049
  174MPD1    H3 2657   2.430   4.568  14.321 -0.9654  0.1805  0.1783
  174MPD1     N 2658   2.369   0.257  14.486 -0.6872 -0.3799  0.0381
  174MPD1    H5 2659   2.414   0.215  14.567  0.0922  0.6436  0.1378
  174MPD1    N1 2660   2.220   0.151  14.043 -0.7816  0.6651  0.1981
  174MPD1    H6 2661   2.145   0.219  14.048  0.8429  2.5171 -0.7009
  174MPD1    H7 2662   2.186   0.070  13.991 -0.4719 -0.0468  1.1136
  175MPD1     C 2663   0.943   1.829  15.903 -0.6205  0.5210 -0.6744
  175MPD1    C1 2664   1.082   1.825  15.914  0.2591  0.5134  0.2758
  175MPD1    C2 2665   1.136   1.718  15.980 -0.6509 -0.4643  0.8132
  175MPD1    C3 2666   1.065   1.605  16.020  0.5505  0.5336  0.2803
  175MPD1    C4 2667   0.927   1.614  16.012  0.0572 -0.1873  0.6753
  175MPD1    C5 2668   0.868   1.719  15.945  0.2833 -0.4539  0.4299
  175MPD1     H 2669   1.239   1.719  16.012 -0.8372 -0.1206  1.3939
  175MPD1    H1 2670   0.868   1.531  16.047 -0.1920  0.6034  2.1261
  175MPD1    H2 2671   0.887   1.906  15.851 -3.2031 -2.0659 -1.7503
  175MPD1    H3 2672   0.761   1.711  15.927 -0.0079  1.4096  1.3628
  175MPD1     N 2673   1.116   1.497  16.091 -1.1988 -0.6613 -0.5741
  175MPD1    H5 2674   1.052   1.432  16.135  0.4351 -1.8896 -0.0609
  175MPD1    N1 2675   1.159   1.941  15.894  0.2639  0.4332  0.0996
  175MPD1    H6 2676   1.116   1.991  15.817 -1.5010 -0.8099  0.2600
  175MPD1    H7 2677   1.254   1.928  15.861  1.1139  1.6124  2.0663
  176MPD1     C 2678   3.187   3.042  16.762 -0.0959  0.0936 -0.3792
  176MPD1    C1 2679   3.158   3.167  16.706 -0.5081  0.2645 -0.3531
  176MPD1    C2 2680   3.111   3.265  16.785 -0.2750 -0.3841 -0.0502
  176MPD1    C3 2681   3.093   3.247  16.915  0.3832 -0.3268 -0.4003
  176MPD1    C4 2682   3.118   3.123  16.972  0.3831  0.2405 -0.0943
  176MPD1    C5 2683   3.168   3.017  16.899 -0.7377  0.8778 -0.1824
  176MPD1     H 2684   3.089   3.361  16.739 -2.6046 -0.1183  1.5945
  176MPD1    H1 2685   3.108   3.101  17.078  1.2462  0.0219 -0.0591
  176MPD1    H2 2686   3.218   2.958  16.701 -0.4929 -0.1741 -0.2156
  176MPD1    H3 2687   3.185   2.916  16.935 -2.6611  0.4755 -0.4182
  176MPD1     N 2688   3.048   3.354  16.994 -0.2461 -0.0434  0.1058
  176MPD1    H5 2689   3.004   3.434  16.949  0.1044  1.3738  2.2833
  176MPD1    N1 2690   3.163   3.185  16.565 -0.2565  0.1123  0.2899
  176MPD1    H6 2691   3.208   3.120  16.501  0.3736 -0.8509  1.7084
  176MPD1    H7 2692   3.185   3.281  16.539 -1.3669  0.8009  1.9220
  177MPD1     C 2693   2.722   3.294  10.250 -0.4099  0.3168  0.4126
  177MPD1    C1 2694   2.709   3.173  10.188 -0.2042 -0.5756 -0.6895
  177MPD1    C2 2695   2.605   3.164  10.102  0.0476 -0.0396  0.0598
  177MPD1    C3 2696   2.545   3.283  10.049  0.5572  0.5649  0.5394
  177MPD1    C4 2697   2.576   3.401  10.101 -0.9232 -0.5935  0.0970
  177MPD1    C5 2698   2.651   3.402  10.210 -0.0168 -1.0077 -0.3517
  177MPD1     H 2699   2.581   3.067  10.060  2.2028 -1.0902  1.2582
  177MPD1    H1 2700   2.541   3.499  10.070 -1.1113 -0.2726  1.3174
  177MPD1    H2 2701   2.781   3.315  10.339  0.4612  1.7280 -0.4870
  177MPD1    H3 2702   2.678   3.496  10.257 -0.4364 -1.6668  1.2387
  177MPD1     N 2703   2.448   3.263   9.948  0.6080  0.4506  0.4860
  177MPD1    H5 2704   2.410   3.170   9.939  0.8404  0.2994  1.0566
  177MPD1    N1 2705   2.770   3.059  10.239  0.2992 -0.4030  0.0071
  177MPD1    H6 2706   2.767   2.989  10.165  2.3760 -0.8105  0.2991
  177MPD1    H7 2707   2.866   3.074  10.270  0.9846  0.1628 -2.3657
  178MPD1     C 2708   3.428   4.135   0.635 -0.0377  0.5582 -0.6634
  178MPD1    C1 2709   3.562   4.118   0.631 -0.0255  0.0385  0.1186
  178MPD1    C2 2710   3.632   4.125   0.514 -0.0157  0.4176 -0.3061
  178MPD1    C3 2711   3.562   4.148   0.397  0.1760 -0.3588 -0.4610
  178MPD1    C4 2712   3.424   4.162   0.404 -0.3801  0.4703  0.0705
  178MPD1    C5 2713   3.358   4.145   0.523  0.1243  0.0455 -0.0158
  178MPD1     H 2714   3.737   4.097   0.523 -0.6165 -1.9204 -0.6291
  178MPD1    H1 2715   3.371   4.168   0.310 -0.4999 -0.7053  0.0644
  178MPD1    H2 2716   3.366   4.138   0.724 -1.3776  2.5253 -1.6519
  178MPD1    H3 2717   3.250   4.141   0.529  0.3645 -1.2883  3.0654
  178MPD1     N 2718   3.631   4.169   0.278 -0.0506  0.7309 -0.0499
  178MPD1    H5 2719   3.586   4.188   0.188  1.4586  1.6343 -0.6100
  178MPD1    N1 2720   3.628   4.119   0.748 -0.2022  0.5161  0.2233
  178MPD1    H6 2721   3.564   4.085   0.820 -1.1716  1.6059 -0.1341
  178MPD1    H7 2722   3.715   4.065   0.752  1.0908  2.7224  1.6730
  179MPD1     C 2723   3.427   3.299  16.093  0.3339  0.5330 -0.1662
  179MPD1    C1 2724   3.340   3.206  16.129  0.2862 -0.2972  0.1453
  179MPD1    C2 2725   3.303   3.104  16.040 -0.3089 -0.2411  0.2564
  179MPD1    C3 2726   3.367   3.091  15.917 -0.2223  0.5948  0.1191
  179MPD1    C4 2727   3.464   3.192  15.890 -0.8480  0.1666  0.8022
  179MPD1    C5 2728   3.489   3.297  15.971  0.1931 -0.1360 -0.5817
  179MPD1     H 2729   3.229   3.034  16.077  0.5216 -0.9671  0.5449
  179MPD1    H1 2730   3.509   3.192  15.791 -1.4309 -3.2430  0.5432
  179MPD1    H2 2731   3.445   3.389  16.151 -1.2358  0.2792  0.7322
  179MPD1    H3 2732   3.569   3.367  15.950 -0.7756  0.2655 -2.9720
  179MPD1     N 2733   3.334   2.994  15.818 -0.6407 -0.2321  0.4813
  179MPD1    H5 2734   3.389   3.011  15.735 -0.3391  1.9394  1.1183
  179MPD1    N1 2735   3.303   3.200  16.266 -0.5378  0.7815 -0.3125
  179MPD1    H6 2736   3.270   3.115  16.309  0.1304  1.8921  2.3674
  179MPD1    H7 2737   3.369   3.249  16.326 -0.0716 -0.2195 -0.0183
  180MPD1     C 2738   4.109   3.912  15.227 -0.5703  0.5213  0.6894
  180MPD1    C1 2739   4.033   3.844  15.134  0.9271 -0.5742 -0.6437
  180MPD1    C2 2740   3.932   3.913  15.072 -0.7573  0.3080 -0.6126
  180MPD1    C3 2741   3.915   4.050  15.078 -0.2957 -0.2118  0.3811
  180MPD1    C4 2742   4.003   4.118  15.169  0.1529 -0.0556  0.3694
  180MPD1    C5 2743   4.087   4.048  15.247  1.1149 -0.0044 -0.2804
  180MPD1     H 2744   3.870   3.857  15.002  1.7900 -1.0802 -1.7347
  180MPD1    H1 2745   4.000   4.226  15.178  1.0249  0.1960 -2.4898
  180MPD1    H2 2746   4.189   3.865  15.282 -2.3589  0.4972  3.2580
  180MPD1    H3 2747   4.154   4.105  15.309  1.5407  0.3738 -1.0900
  180MPD1     N 2748   3.814   4.115  15.006 -0.7590 -0.2321  0.3638
  180MPD1    H5 2749   3.742   4.057  14.965 -0.6764 -1.3368  1.7884
  180MPD1    N1 2750   4.056   3.704  15.124 -0.1662 -0.3000  0.1920
  180MPD1    H6 2751   4.149   3.669  15.144  0.2619  0.7665  0.0017
  180MPD1    H7 2752   3.998   3.643  15.065 -2.1949  0.3240  1.5328
  181MPD1     C 2753   4.487   0.667   9.118 -0.0309  0.7908  0.5547
  181MPD1    C1 2754   4.560   0.781   9.092  0.2844  0.0180 -1.0899
  181MPD1    C2 2755   4.688   0.776   9.144 -0.0270 -0.3634 -1.2739
  181MPD1    C3 2756   0.025   0.658   9.188 -0.3891  0.7108  0.2037
  181MPD1    C4 2757   4.678   0.544   9.201 -0.9566 -0.1239 -0.3708
  181MPD1    C5 2758   4.547   0.552   9.169  0.2365 -0.1449  0.2744
  181MPD1     H 2759   0.025   0.867   9.153 -1.4114 -0.0722  4.5866
  181MPD1    H1 2760   0.000   0.451   9.237 -0.5234  0.7965  1.4967
  181MPD1    H2 2761   4.380   0.664   9.106  0.0154  0.5151  0.2209
  181MPD1    H3 2762   4.488   0.465   9.194 -0.8565  1.1375  2.2549
  181MPD1     N 2763   0.144   0.654   9.252 -0.1694  0.4253  0.6003
  181MPD1    H5 2764   0.165   0.569   9.302 -0.5579 -0.2351 -0.3510
  181MPD1    N1 2765   4.488   0.899   9.061  0.7490 -0.1260  0.0787
  181MPD1    H6 2766   4.539   0.971   9.011 -0.4636  0.4945 -0.2399
  181MPD1    H7 2767   4.405   0.882   9.005  0.0197  0.0135  1.1273
  182MPD1     C 2768   0.885   0.609   1.969 -0.0620 -0.2384 -0.7627
  182MPD1    C1 2769   0.842   0.509   1.888 -0.1960 -0.0078 -0.1497
  182MPD1    C2 2770   0.911   0.502   1.766  0.1297  0.7551 -0.2709
  182MPD1    C3 2771   1.001   0.600   1.726 -0.5901  0.5395  0.1354
  182MPD1    C4 2772   1.033   0.702   1.810  0.5815  0.0658 -0.3114
  182MPD1    C5 2773   0.979   0.697   1.933 -0.0201  0.0893  0.4631
  182MPD1     H 2774   0.885   0.424   1.695  1.3582  1.3698 -1.3748
  182MPD1    H1 2775   1.113   0.771   1.788  1.7898 -0.7063  1.6421
  182MPD1    H2 2776   0.854   0.601   2.073 -0.7819  0.1138 -0.9496
  182MPD1    H3 2777   1.006   0.768   2.010  0.3847 -1.0148  1.3414
  182MPD1     N 2778   1.073   0.588   1.601 -0.5951  0.2666 -0.1166
  182MPD1    H5 2779   1.123   0.669   1.567  0.5955 -0.7664 -0.8164
  182MPD1    N1 2780   0.757   0.407   1.936 -0.3900  0.1854  0.6883
  182MPD1    H6 2781   0.705   0.360   1.863  1.9907 -0.1619 -0.7829
  182MPD1    H7 2782   0.683   0.450   1.992 -1.9792 -1.9221  0.2096
  183MPD1     C 2783   0.976   4.573   9.140  0.8437  0.0668 -0.5537
  183MPD1    C1 2784   0.964   4.708   9.170  0.4141 -0.1546 -0.4977
  183MPD1    C2 2785   1.081   0.050   9.206  0.2338  0.2222  0.0348
  183MPD1    C3 2786   1.208   4.709   9.215 -0.2079 -0.2876 -0.0066
  183MPD1    C4 2787   1.217   4.572   9.200 -0.5995 -0.6875  0.2872
  183MPD1    C5 2788   1.097   4.508   9.159  0.7201  0.2066 -0.0610
  183MPD1     H 2789   1.076   0.156   9.228 -1.3661  0.3426 -0.8742
  183MPD1    H1 2790   1.299   4.505   9.221 -0.6619 -0.6105  0.7837
  183MPD1    H2 2791   0.888   4.516   9.113  0.5835 -0.0533  0.5491
  183MPD1    H3 2792   1.102   4.401   9.147 -0.0754 -0.0110  1.5140
  183MPD1     N 2793   1.318   0.067   9.256  0.6466  0.1993  0.2921
  183MPD1    H5 2794   1.300   0.166   9.268  0.6443  0.0827  1.2147
  183MPD1    N1 2795   0.845   0.053   9.155  0.3180 -0.3374  0.4045
  183MPD1    H6 2796   0.766   4.720   9.186 -0.5679  0.6117 -0.1837
  183MPD1    H7 2797   0.845   0.141   9.207  2.2565 -0.0745 -0.0118
  184MPD1     C 2798   1.156   2.347   8.606  0.0703  0.1959 -0.1097
  184MPD1    C1 2799   1.255   2.272   8.665 -0.1476  0.1951  0.2951
  184MPD1    C2 2800   1.323   2.324   8.775 -0.4013  0.2177 -0.4653
  184MPD1    C3 2801   1.284   2.435   8.845  0.1914  0.7103  0.1540
  184MPD1    C4 2802   1.185   2.510   8.783  0.0357  0.2766  0.5224
  184MPD1    C5 2803   1.122   2.462   8.671 -0.0321 -1.2345  0.1720
  184MPD1     H 2804   1.407   2.265   8.809 -0.0262  1.1381  0.2062
  184MPD1    H1 2805   1.153   2.609   8.815 -0.9024  0.8543 -2.1817
  184MPD1    H2 2806   1.102   2.308   8.520 -1.3276 -0.4741  1.0814
  184MPD1    H3 2807   1.041   2.518   8.627  0.7660 -0.5963 -0.4730
  184MPD1     N 2808   1.343   2.480   8.959  0.8550  0.2042  0.2842
  184MPD1    H5 2809   1.295   2.555   9.008  1.2336  1.7192 -1.7210
  184MPD1    N1 2810   1.298   2.151   8.608 -0.1129 -0.1678  0.0535
  184MPD1    H6 2811   1.311   2.079   8.679  1.0951  0.6835  0.7017
  184MPD1    H7 2812   1.231   2.113   8.543  0.6281  0.4526 -1.0909
  185MPD1     C 2813   2.299   2.519   9.331 -0.1182 -0.3106 -0.9766
  185MPD1    C1 2814   2.233   2.639   9.366 -0.2048 -0.2530  0.3390
  185MPD1    C2 2815   2.096   2.635   9.356  0.1554  0.2046 -0.9553
  185MPD1    C3 2816   2.022   2.526   9.311  0.1629 -0.0257  0.4491
  185MPD1    C4 2817   2.091   2.411   9.268  0.6104  0.0936  0.3287
  185MPD1    C5 2818   2.228   2.413   9.293 -0.0084 -0.7174  0.2176
  185MPD1     H 2819   2.040   2.725   9.378 -0.3524 -0.3104 -0.1477
  185MPD1    H1 2820   2.048   2.323   9.223  0.5394  0.3014 -0.0132
  185MPD1    H2 2821   2.407   2.514   9.337 -0.1729  0.6111  0.6316
  185MPD1    H3 2822   2.293   2.332   9.259  0.0263  0.5083 -2.6971
  185MPD1     N 2823   1.884   2.519   9.291  0.2797  0.4513  0.3566
  185MPD1    H5 2824   1.848   2.431   9.253 -0.7238  0.2450  1.7889
  185MPD1    N1 2825   2.312   2.752   9.390 -0.7322  0.1243  0.0878
  185MPD1    H6 2826   2.258   2.822   9.440 -0.4244  0.3504  0.1049
  185MPD1    H7 2827   2.407   2.734   9.421 -0.3590  0.5212 -0.8273
  186MPD1     C 2828   3.828   3.017  15.592  0.5381 -0.0411  0.0739
  186MPD1    C1 2829   3.734   2.935  15.649  0.3043  0.4743 -0.1829
  186MPD1    C2 2830   3.708   2.942  15.784 -0.2962 -0.2664 -1.0167
  186MPD1    C3 2831   3.782   3.021  15.865  0.3740 -0.4785 -0.4104
  186MPD1    C4 2832   3.877   3.098  15.812  0.8004 -0.9076  0.2646
  186MPD1    C5 2833   3.899   3.097  15.673  0.5851 -0.1806  0.1494
  186MPD1     H 2834   3.645   2.868  15.832  0.9264 -1.7577 -1.6858
  186MPD1    H1 2835   3.932   3.164  15.878 -1.6877  0.1762  1.2162
  186MPD1    H2 2836   3.845   3.013  15.485 -0.7599 -2.6720 -0.0334
  186MPD1    H3 2837   3.976   3.159  15.629  0.8035  0.9849  2.2005
  186MPD1     N 2838   3.778   3.023  16.006  0.3918 -0.0742 -0.2373
  186MPD1    H5 2839   3.850   3.077  16.052  2.1273 -1.8620 -0.8483
  186MPD1    N1 2840   3.657   2.851  15.569  0.0575  0.5297  0.0945
  186MPD1    H6 2841   3.686   2.835  15.473 -1.5359  3.0576 -0.7974
  186MPD1    H7 2842   3.629   2.766  15.617 -2.8305  1.8778  0.7528
  187MPD1     C 2843   3.368   4.237  17.446  0.3089 -0.3515 -0.2334
  187MPD1    C1 2844   3.417   4.364  17.442  0.7069  1.4067  0.2429
  187MPD1    C2 2845   3.331   4.468  17.423  0.1195 -0.7470  0.3939
  187MPD1    C3 2846   3.197   4.444  17.409  0.4589 -0.4441 -0.3809
  187MPD1    C4 2847   3.154   4.315  17.410 -0.2338 -0.8234  0.6729
  187MPD1    C5 2848   3.238   4.213  17.430  0.3578  0.1607 -0.7212
  187MPD1     H 2849   3.376   4.565  17.405  0.1082 -0.8498 -0.1839
  187MPD1    H1 2850   3.049   4.289  17.400 -0.4311  0.4707 -0.7333
  187MPD1    H2 2851   3.432   4.154  17.473 -2.0692 -2.3565 -0.8039
  187MPD1    H3 2852   3.196   4.116  17.453 -2.1675  1.2122 -0.8249
  187MPD1     N 2853   3.107   4.552  17.378  0.2205  0.2193 -0.0676
  187MPD1    H5 2854   3.015   4.519  17.351  0.0996  0.1675  0.3992
  187MPD1    N1 2855   3.555   4.390  17.467  0.2721 -0.1878 -0.1956
  187MPD1    H6 2856   3.601   4.309  17.425 -1.5482 -1.9049  1.0713
  187MPD1    H7 2857   3.593   4.479  17.438  0.8939 -0.4329 -0.1329
  188MPD1     C 2858   3.520   3.991  10.240  0.4680 -0.4913 -0.5782
  188MPD1    C1 2859   3.406   3.988  10.157 -0.1521  0.1231  0.4423
  188MPD1    C2 2860   3.368   3.863  10.111  0.4531 -0.5138  0.7949
  188MPD1    C3 2861   3.445   3.748  10.138 -0.6791  0.8701 -0.2185
  188MPD1    C4 2862   3.566   3.762  10.202 -0.2981 -0.3317 -0.1374
  188MPD1    C5 2863   3.603   3.883  10.252 -0.0559  0.7622 -0.2661
  188MPD1     H 2864   3.279   3.852  10.050  1.0486 -1.6563  0.1258
  188MPD1    H1 2865   3.629   3.680  10.234 -3.3394 -3.3241 -1.8181
  188MPD1    H2 2866   3.548   4.088  10.278 -3.6934 -0.8238  3.3413
  188MPD1    H3 2867   3.697   3.885  10.305 -0.6304  0.1187  0.7906
  188MPD1     N 2868   3.415   3.619  10.096 -0.2977 -0.7274 -0.4864
  188MPD1    H5 2869   3.487   3.549  10.111  0.0947 -0.7282 -2.4348
  188MPD1    N1 2870   3.320   4.099  10.148 -0.0078  0.5137  0.3506
  188MPD1    H6 2871   3.371   4.187  10.150  0.8455  0.0613 -1.2158
  188MPD1    H7 2872   3.260   4.091  10.066 -0.0773  0.5809  0.3950
  189MPD1     C 2873   0.183   0.183   0.548  0.3677  0.6562 -0.1421
  189MPD1    C1 2874   0.091   0.085   0.567 -0.0263  0.4304 -0.0724
  189MPD1    C2 2875   4.681   0.104   0.519 -0.5076  0.6522  0.0060
  189MPD1    C3 2876   4.652   0.226   0.461  0.1600 -0.6398 -0.2145
  189MPD1    C4 2877   0.022   0.328   0.452  0.1362  0.2795  0.0150
  189MPD1    C5 2878   0.146   0.306   0.496  0.4509 -0.0664 -0.1525
  189MPD1     H 2879   4.608   0.025   0.531 -0.7521  0.4267 -2.8769
  189MPD1    H1 2880   0.010   0.428   0.411 -1.0453  0.6886  1.3716
  189MPD1    H2 2881   0.288   0.173   0.575  0.6412  0.8594 -1.1238
  189MPD1    H3 2882   0.221   0.382   0.480  0.3748 -0.1196 -0.7632
  189MPD1     N 2883   4.526   0.240   0.404  0.0847  0.3627 -0.0568
  189MPD1    H5 2884   4.473   0.153   0.408  0.7736 -0.0927 -0.9835
  189MPD1    N1 2885   0.135   4.682   0.623 -0.3285  0.0983  0.0839
  189MPD1    H6 2886   0.211   4.700   0.688 -1.2137 -2.2465  1.7680
  189MPD1    H7 2887   0.062   4.619   0.657 -1.9107  2.3041  0.7652
  190MPD1     C 2888   3.502   0.096  15.647  0.3587  0.3373 -0.3984
  190MPD1    C1 2889   3.579   0.023  15.552  0.7170  0.2684  0.0660
  190MPD1    C2 2890   3.613   4.619  15.588  0.1787  0.0548  0.0848
  190MPD1    C3 2891   3.576   4.559  15.712  0.1433  0.1071  0.5973
  190MPD1    C4 2892   3.511   4.642  15.810 -0.5680 -0.0242  0.7612
  190MPD1    C5 2893   3.476   0.044  15.776  0.4678  0.4911 -0.4109
  190MPD1     H 2894   3.675   4.562  15.520  0.4112  0.3747  0.0250
  190MPD1    H1 2895   3.486   4.611  15.911 -0.9956  0.4397  0.7951
  190MPD1    H2 2896   3.469   0.197  15.624 -0.2331 -0.2372 -2.0654
  190MPD1    H3 2897   3.425   0.108  15.847 -0.4201 -1.2481  0.4929
  190MPD1     N 2898   3.620   4.432  15.737  0.5590  0.0911  0.3249
  190MPD1    H5 2899   3.678   4.386  15.667 -1.3320 -1.1969 -0.4367
  190MPD1    N1 2900   3.591   0.071  15.421 -0.0765  0.1196  0.1768
  190MPD1    H6 2901   3.592   0.173  15.418  0.5417  0.1042 -0.0392
  190MPD1    H7 2902   3.669   0.027  15.372 -0.2446 -1.2348  1.1299
  191MPD1     C 2903   3.185   1.171  13.286  0.0368 -0.0601 -0.1282
  191MPD1    C1 2904   3.235   1.077  13.205  0.2769 -0.0808  0.5740
  191MPD1    C2 2905   3.152   1.019  13.109 -0.5081 -0.5295  0.6688
  191MPD1    C3 2906   3.029   1.070  13.078  0.5307  0.0062 -0.6607
  191MPD1    C4 2907   2.988   1.185  13.153 -0.4317  0.6988 -1.0218
  191MPD1    C5 2908   3.061   1.223  13.263  0.9751 -0.0010 -0.2823
  191MPD1     H 2909   3.188   0.930  13.059  1.5629  1.8550 -2.1383
  191MPD1    H1 2910   2.892   1.233  13.141 -0.2177  1.4343  0.2154
  191MPD1    H2 2911   3.234   1.202  13.378  0.6313  1.6623 -1.0276
  191MPD1    H3 2912   3.022   1.304  13.323 -0.5788 -0.1700 -1.0681
  191MPD1     N 2913   2.961   1.022  12.964  0.5222  0.4251 -0.5841
  191MPD1    H5 2914   3.013   0.954  12.909 -0.2258  0.1700 -0.9786
  191MPD1    N1 2915   3.344   1.015  13.250  0.6852 -0.5926 -0.3238
  191MPD1    H6 2916   3.386   0.962  13.174 -2.0155 -3.8390  0.4494
  191MPD1    H7 2917   3.404   1.082  13.297  1.2790 -0.7851 -0.8152
  192MPD1     C 2918   2.769   1.490  12.055 -0.7884  0.0096 -0.0153
  192MPD1    C1 2919   2.675   1.486  12.158 -0.1823 -0.1567 -0.1735
  192MPD1    C2 2920   2.704   1.420  12.274 -0.3914  0.1353  0.6662
  192MPD1    C3 2921   2.822   1.356  12.289  0.1256 -0.2976  0.1235
  192MPD1    C4 2922   2.921   1.367  12.187  0.2723  0.5346 -0.5020
  192MPD1    C5 2923   2.895   1.433  12.069 -0.1082 -0.5384  0.5620
  192MPD1     H 2924   2.632   1.418  12.354 -0.9562 -0.7560  0.1402
  192MPD1    H1 2925   3.016   1.316  12.190  0.3587  0.7778  1.2404
  192MPD1    H2 2926   2.743   1.532  11.959  0.5451 -0.4756 -0.5974
  192MPD1    H3 2927   2.977   1.441  11.998 -0.8480 -0.2368 -0.2550
  192MPD1     N 2928   2.856   1.268  12.396 -0.1985  0.3895 -0.1608
  192MPD1    H5 2929   2.934   1.205  12.381  0.1577  0.6805  0.4833
  192MPD1    N1 2930   2.546   1.531  12.137 -0.8697  0.0280 -0.5635
  192MPD1    H6 2931   2.550   1.614  12.079 -2.7524  0.9449  0.6151
  192MPD1    H7 2932   2.493   1.552  12.221  0.2341  0.2266  0.0811
  193MPD1     C 2933   2.463   1.682  17.477  0.1997 -0.2446 -0.1069
  193MPD1    C1 2934   2.583   1.756  17.466  0.2134  0.2115  0.1399
  193MPD1    C2 2935   2.612   1.809  17.341 -0.2787 -0.0600 -0.5271
  193MPD1    C3 2936   2.529   1.787  17.235  0.1469  0.1393 -0.7110
  193MPD1    C4 2937   2.410   1.722  17.256 -0.4961  0.5586 -0.4275
  193MPD1    C5 2938   2.377   1.661  17.372  0.6819  0.1425 -0.1649
  193MPD1     H 2939   2.698   1.874  17.334  1.4709 -2.4875 -1.5350
  193MPD1    H1 2940   2.338   1.714  17.176  0.1522 -1.8924 -0.7551
  193MPD1    H2 2941   2.441   1.640  17.575  0.1095 -1.7369 -0.7774
  193MPD1    H3 2942   2.294   1.591  17.372 -0.3882  1.4070  2.7830
  193MPD1     N 2943   2.538   1.855  17.112 -0.0425 -1.3057  0.3944
  193MPD1    H5 2944   2.462   1.835  17.048 -0.9558 -0.4792  1.2468
  193MPD1    N1 2945   2.654   1.794  17.580 -0.3641  0.4298  0.3561
  193MPD1    H6 2946   2.753   1.787  17.556 -0.4722  1.5872 -0.4512
  193MPD1    H7 2947   2.629   1.739  17.662 -1.0517 -0.3880 -0.4006
  194MPD1     C 2948   1.149   3.204  16.666 -0.0137  0.9979  0.3369
  194MPD1    C1 2949   1.072   3.244  16.770 -0.3364 -0.8335 -0.3979
  194MPD1    C2 2950   1.030   3.156  16.869 -0.2640  0.0964 -0.5748
  194MPD1    C3 2951   1.083   3.023  16.867  0.5588  1.6548 -0.3817
  194MPD1    C4 2952   1.160   2.981  16.763  0.4498  0.1482  0.1344
  194MPD1    C5 2953   1.196   3.070  16.661  0.2688  0.0686 -0.6090
  194MPD1     H 2954   0.962   3.188  16.947 -0.3713 -2.7488  0.4896
  194MPD1    H1 2955   1.199   2.880  16.768 -0.8888 -0.3431  0.6175
  194MPD1    H2 2956   1.168   3.267  16.579 -1.9995  0.4739 -0.4797
  194MPD1    H3 2957   1.250   3.038  16.573  1.0846 -1.4465  0.4500
  194MPD1     N 2958   1.072   2.936  16.980  0.6156  0.1435 -0.5388
  194MPD1    H5 2959   1.109   2.842  16.972 -1.8897 -0.7453 -1.9669
  194MPD1    N1 2960   0.999   3.363  16.761  0.2082  0.4418 -0.6669
  194MPD1    H6 2961   1.050   3.451  16.767  2.3703 -0.6641 -3.1568
  194MPD1    H7 2962   0.941   3.378  16.844  1.2743  1.8165 -0.1727
  195MPD1     C 2963   3.490   0.403   0.090  0.0529 -0.0424  0.2360
  195MPD1    C1 2964   3.375   0.416   0.029  0.2227 -0.6850  0.7930
  195MPD1    C2 2965   3.277   0.318   0.060 -0.4213 -0.9977  0.6555
  195MPD1    C3 2966   3.310   0.199   0.124  0.1865  0.6117 -0.0273
  195MPD1    C4 2967   3.438   0.179   0.160  0.0442 -0.0033  0.1141
  195MPD1    C5 2968   3.527   0.280   0.144 -0.0155  0.1918  0.0772
  195MPD1     H 2969   3.177   0.334   0.021  0.1057  0.8490  0.0420
  195MPD1    H1 2970   3.462   0.082   0.203  1.1739 -0.1839 -0.9339
  195MPD1    H2 2971   3.568   0.478   0.081 -0.4009  0.0924 -2.4229
  195MPD1    H3 2972   3.629   0.259   0.175  0.4123  1.8745 -0.2166
  195MPD1     N 2973   3.219   0.088   0.134 -0.4692 -0.7656  0.3932
  195MPD1    H5 2974   3.257   0.005   0.177  0.4781  0.0963  1.2329
  195MPD1    N1 2975   3.352   0.541  17.659 -0.4000 -0.1002 -0.2991
  195MPD1    H6 2976   3.428   0.589  17.611  1.6309 -0.8613  2.1554
  195MPD1    H7 2977   3.276   0.535  17.591  0.4253  0.7733 -1.3036
  196MPD1     C 2978   1.613   4.159   0.633 -0.3494  0.7913 -0.2201
  196MPD1    C1 2979   1.656   4.272   0.560 -0.1954  0.2985 -0.3072
  196MPD1    C2 2980   1.740   4.361   0.630  0.7795 -0.5279 -0.2715
  196MPD1    C3 2981   1.774   4.347   0.766 -0.4612  0.7929  0.4861
  196MPD1    C4 2982   1.723   4.240   0.837  0.7541 -0.4955  0.5589
  196MPD1    C5 2983   1.648   4.148   0.759  1.3564  0.6398 -0.4657
  196MPD1     H 2984   1.799   4.432   0.573  1.4642 -0.8388  0.0558
  196MPD1    H1 2985   1.744   4.217   0.940 -0.2639  0.2157  0.9275
  196MPD1    H2 2986   1.555   4.087   0.576  2.8430 -1.9734  0.1148
  196MPD1    H3 2987   1.606   4.065   0.813  0.2376  0.6047 -1.3841
  196MPD1     N 2988   1.854   4.432   0.849  0.3174  0.0889  0.2765
  196MPD1    H5 2989   1.887   4.404   0.941  1.3810  1.4002  0.2978
  196MPD1    N1 2990   1.632   4.292   0.426 -0.2406 -0.2508 -0.1768
  196MPD1    H6 2991   1.544   4.253   0.391  0.0088 -0.1602 -0.9105
  196MPD1    H7 2992   1.629   4.390   0.400 -0.5032 -0.2517 -0.1475
  197MPD1     C 2993   1.294   1.595  17.576  0.2875 -0.7680 -0.2390
  197MPD1    C1 2994   1.348   1.715  17.617  0.0962  0.1104 -0.7121
  197MPD1    C2 2995   1.370   1.818  17.520  0.6922  0.0499  0.4611
  197MPD1    C3 2996   1.375   1.783  17.384  0.2919 -0.0684 -0.7049
  197MPD1    C4 2997   1.328   1.652  17.354 -0.0147 -0.0725  0.7230
  197MPD1    C5 2998   1.278   1.566  17.443  0.7014 -0.8202 -0.4016
  197MPD1     H 2999   1.404   1.913  17.560  2.6921 -1.6053  2.6520
  197MPD1    H1 3000   1.341   1.618  17.252 -2.3986  0.6952  0.1601
  197MPD1    H2 3001   1.248   1.524  17.644 -3.5941  2.5946  0.7395
  197MPD1    H3 3002   1.237   1.468  17.420 -1.3957 -0.1281  0.3921
  197MPD1     N 3003   1.401   1.881  17.289 -0.5118  0.0567 -0.3116
  197MPD1    H5 3004   1.412   1.853  17.192  1.4317  2.0188 -0.6292
  197MPD1    N1 3005   1.355   1.754   0.064 -0.0830  0.0296 -0.6945
  197MPD1    H6 3006   1.434   1.813   0.087  1.7409 -1.7304 -2.4667
  197MPD1    H7 3007   1.356   1.671   0.122 -1.3050 -1.3306 -2.6283
  198MPD1     C 3008   2.464   0.727  15.824 -0.1798  0.1922 -1.2576
  198MPD1    C1 3009   2.529   0.773  15.938 -0.2424  0.5594  0.2926
  198MPD1    C2 3010   2.645   0.712  15.974  0.0853  0.2097 -0.0724
  198MPD1    C3 3011   2.713   0.634  15.879  0.1283  0.5645 -0.7294
  198MPD1    C4 3012   2.647   0.593  15.763 -0.3418 -0.0251 -0.4301
  198MPD1    C5 3013   2.519   0.638  15.743  0.0037  0.4368 -0.2434
  198MPD1     H 3014   2.705   0.738  16.061 -2.2352  0.7151  1.3882
  198MPD1    H1 3015   2.698   0.532  15.690 -1.2745 -1.8082  0.3887
  198MPD1    H2 3016   2.366   0.764  15.796  1.0872  2.1632 -3.0260
  198MPD1    H3 3017   2.464   0.611  15.653  0.1360  1.0229 -0.5030
  198MPD1     N 3018   2.843   0.602  15.912 -0.0741  0.3422  0.3020
  198MPD1    H5 3019   2.879   0.640  15.999  2.4497  0.6940 -0.9125
  198MPD1    N1 3020   2.461   0.854  16.035 -0.2924  0.4678 -0.1861
  198MPD1    H6 3021   2.429   0.935  15.983 -2.0736 -0.1840 -0.1048
  198MPD1    H7 3022   2.520   0.896  16.107 -0.0992  0.4045 -0.3081
  199MPD1     C 3023   3.939   0.869   9.346  0.1575  0.6831 -0.2973
  199MPD1    C1 3024   3.991   0.881   9.475  0.3381 -0.1990  0.2139
  199MPD1    C2 3025   4.124   0.871   9.485  0.5676  0.4133  0.7130
  199MPD1    C3 3026   4.210   0.879   9.371  0.8978 -0.0813  0.7193
  199MPD1    C4 3027   4.153   0.880   9.244 -0.3127  0.0321 -0.5242
  199MPD1    C5 3028   4.016   0.871   9.238 -0.8304  0.5228  0.4449
  199MPD1     H 3029   4.157   0.858   9.587 -1.1817  1.7029  1.4525
  199MPD1    H1 3030   4.209   0.881   9.152  1.6099 -1.6863  0.6261
  199MPD1    H2 3031   3.833   0.873   9.323 -0.1177  0.4100  0.9290
  199MPD1    H3 3032   3.972   0.867   9.138  0.4071  0.9824 -0.1183
  199MPD1     N 3033   4.346   0.881   9.379  0.3465  0.2131 -0.0006
  199MPD1    H5 3034   4.391   0.883   9.288 -0.3936 -0.2095 -0.3739
  199MPD1    N1 3035   3.917   0.878   9.597 -0.2790 -0.5188  0.6025
  199MPD1    H6 3036   3.969   0.914   9.678  0.0443  1.0984 -0.3138
  199MPD1    H7 3037   3.838   0.942   9.594  1.0474  1.0603 -0.5201
  200MPD1     C 3038   4.051   1.532  15.134  0.2728  0.5646  0.1680
  200MPD1    C1 3039   4.180   1.544  15.164 -0.1586 -0.1537  0.5803
  200MPD1    C2 3040   4.279   1.530  15.071  0.0782 -1.3636 -0.5224
  200MPD1    C3 3041   4.247   1.480  14.948  0.0215  0.2904 -0.0554
  200MPD1    C4 3042   4.114   1.463  14.918  0.2158  0.2738 -0.3211
  200MPD1    C5 3043   4.012   1.504  15.004 -0.2513  0.1359 -0.2744
  200MPD1     H 3044   4.382   1.548  15.102 -0.4653 -1.3461  1.2972
  200MPD1    H1 3045   4.074   1.414  14.830  0.7960 -1.6196  0.4548
  200MPD1    H2 3046   3.971   1.545  15.206  0.7050 -1.3951  1.0176
  200MPD1    H3 3047   3.906   1.499  14.983  0.0550  1.8758 -2.1955
  200MPD1     N 3048   4.358   1.449  14.861  0.2519 -0.3911 -0.3488
  200MPD1    H5 3049   4.449   1.476  14.897 -0.4559  3.8297 -1.7169
  200MPD1    N1 3050   4.207   1.582  15.296  0.2267 -0.2526  0.4891
  200MPD1    H6 3051   4.165   1.525  15.369  0.9277 -0.5496  0.6614
  200MPD1    H7 3052   4.305   1.603  15.316  0.2181 -2.2802  2.6884
  201MPD1     C 3053   2.492   0.186  13.294  0.0782 -0.0164  0.3232
  201MPD1    C1 3054   2.449   0.235  13.417 -0.8823 -0.5015 -0.5632
  201MPD1    C2 3055   2.480   0.161  13.533 -0.4116  0.2793  0.3277
  201MPD1    C3 3056   2.556   0.047  13.525  0.2482  0.6668  0.6775
  201MPD1    C4 3057   2.599   0.001  13.402 -0.1005 -0.1776 -0.9181
  201MPD1    C5 3058   2.573   0.076  13.288  0.3848 -0.2362 -0.0036
  201MPD1     H 3059   2.447   0.186  13.633  0.9252  1.4620  0.4745
  201MPD1    H1 3060   2.660   4.635  13.385  0.7973  0.1802  0.4603
  201MPD1    H2 3061   2.464   0.241  13.205 -2.6819  0.9053  1.7818
  201MPD1    H3 3062   2.592   0.028  13.193 -3.1299 -1.0388 -0.2968
  201MPD1     N 3063   2.574   4.693  13.645 -0.2078  0.3817 -0.0306
  201MPD1    H5 3064   2.550   0.017  13.733  2.4583  0.8976  0.4276
  201MPD1    N1 3065   2.339   0.322  13.420  0.0448 -0.3602  0.6202
  201MPD1    H6 3066   2.330   0.388  13.343  0.3736  1.6396  2.3096
  201MPD1    H7 3067   2.334   0.383  13.501 -1.3676  2.5381 -1.6800
  202MPD1     C 3068   1.707   3.932   9.164  0.9076  0.0164 -0.3730
  202MPD1    C1 3069   1.820   3.847   9.168  0.3915 -0.3125 -1.0752
  202MPD1    C2 3070   1.928   3.901   9.235 -0.4224 -0.0491  0.9020
  202MPD1    C3 3071   1.917   4.001   9.329  0.6117  0.2089  0.0112
  202MPD1    C4 3072   1.808   4.073   9.327  0.0844  0.1888 -0.2150
  202MPD1    C5 3073   1.703   4.045   9.241  0.5158  0.5869  0.6797
  202MPD1     H 3074   2.019   3.843   9.243  1.3684  2.5239 -0.6221
  202MPD1    H1 3075   1.790   4.162   9.387  1.3435  0.4781 -0.2621
  202MPD1    H2 3076   1.625   3.908   9.098  0.6491  0.7914 -0.3324
  202MPD1    H3 3077   1.623   4.116   9.224 -0.0878 -0.7623 -2.0498
  202MPD1     N 3078   2.018   4.043   9.417 -0.0699 -0.5164  0.0676
  202MPD1    H5 3079   2.016   4.143   9.431 -0.2477 -0.3103 -1.4278
  202MPD1    N1 3080   1.841   3.763   9.056 -0.4127 -1.0117 -1.0065
  202MPD1    H6 3081   1.753   3.723   9.025 -0.7772 -0.6981 -0.3779
  202MPD1    H7 3082   1.912   3.692   9.076  1.1502  0.5582 -0.9485
  203MPD1     C 3083   0.139   0.772  11.751 -0.0842 -0.6201  0.6302
  203MPD1    C1 3084   0.192   0.675  11.663 -0.5826 -0.5530  0.5287
  203MPD1    C2 3085   0.307   0.615  11.709  0.4403 -0.3768 -0.3196
  203MPD1    C3 3086   0.367   0.649  11.833 -0.4083 -0.3125  0.1494
  203MPD1    C4 3087   0.326   0.764  11.903 -0.3982 -0.3974  0.0248
  203MPD1    C5 3088   0.212   0.820  11.859 -0.1918  0.0295 -0.5961
  203MPD1     H 3089   0.344   0.524  11.664 -3.1152 -0.9854 -2.0427
  203MPD1    H1 3090   0.368   0.798  11.997  2.0631 -0.8683 -0.9053
  203MPD1    H2 3091   0.042   0.814  11.726 -0.4844 -1.6406  0.4467
  203MPD1    H3 3092   0.159   0.903  11.904 -1.1334 -0.7098 -0.3462
  203MPD1     N 3093   0.466   0.558  11.881  0.1515  0.2357 -0.5336
  203MPD1    H5 3094   0.491   0.477  11.824 -0.3831  0.6379 -1.3376
  203MPD1    N1 3095   0.108   0.621  11.570  0.6952 -0.0701 -0.5649
  203MPD1    H6 3096   0.164   0.595  11.490  0.8442 -0.0467 -0.4691
  203MPD1    H7 3097   0.041   0.693  11.544  0.1223 -0.8739 -1.2978
  204MPD1     C 3098   4.097   1.887   0.096 -0.4016 -0.4833 -0.1861
  204MPD1    C1 3099   4.092   1.751   0.094  0.8550  0.0513  0.1414
  204MPD1    C2 3100   4.206   1.681   0.042 -0.1817  0.3576  0.4515
  204MPD1    C3 3101   4.321   1.752   0.015  0.0271  0.4872  0.0930
  204MPD1    C4 3102   4.327   1.890   0.034  0.9381  0.1527 -0.0860
  204MPD1    C5 3103   4.213   1.956   0.069 -0.4330  0.2505  0.1507
  204MPD1     H 3104   4.193   1.574   0.026  0.5343  0.0601  1.8094
  204MPD1    H1 3105   4.417   1.948   0.017  0.6972  0.6939  0.4909
  204MPD1    H2 3106   4.010   1.946   0.123 -1.6081 -3.2032  1.8216
  204MPD1    H3 3107   4.212   2.064   0.075  1.8312  0.3441 -1.1667
  204MPD1     N 3108   4.436   1.686  17.653 -0.3332 -0.4402  0.0137
  204MPD1    H5 3109   4.441   1.585  17.663 -2.5043 -0.4129  1.3125
  204MPD1    N1 3110   3.967   1.682   0.105  0.3216  0.5873  0.6292
  204MPD1    H6 3111   3.965   1.582   0.121  0.7453  0.5261  0.2920
  204MPD1    H7 3112   3.907   1.732   0.170 -0.2302 -0.5175  0.9565
  205MPD1     C 3113   1.261   0.490  16.922 -0.0693  0.5865 -0.3595
  205MPD1    C1 3114   1.229   0.617  16.954 -0.1997 -0.2798  0.0633
  205MPD1    C2 3115   1.104   0.644  17.001 -0.3372 -0.3172 -0.5896
  205MPD1    C3 3116   1.002   0.548  17.008 -0.9216 -0.6553 -0.2464
  205MPD1    C4 3117   1.036   0.423  16.965  0.2152  0.4167  0.2246
  205MPD1    C5 3118   1.164   0.392  16.929  0.9972 -0.3054  0.3017
  205MPD1     H 3119   1.084   0.748  17.025 -0.0234  0.2627 -2.8293
  205MPD1    H1 3120   0.965   0.341  16.956  1.2763 -0.6874  1.9684
  205MPD1    H2 3121   1.362   0.454  16.906 -0.4469 -0.9263  0.6567
  205MPD1    H3 3122   1.196   0.291  16.908  0.9026 -0.5507  1.3349
  205MPD1     N 3123   0.871   0.571  17.053 -1.1877 -0.0735  0.0956
  205MPD1    H5 3124   0.801   0.499  17.038 -0.1186 -1.3794  1.3483
  205MPD1    N1 3125   1.329   0.719  16.960 -0.4811  0.1895  0.1531
  205MPD1    H6 3126   1.292   0.812  16.943 -0.5215  0.0841 -0.3142
  205MPD1    H7 3127   1.405   0.709  16.893 -2.3893 -1.1453 -1.7866
  206MPD1     C 3128   0.716   3.478  17.023  0.2277  0.0591 -0.5176
  206MPD1    C1 3129   0.700   3.342  17.017  0.0347  0.3637 -0.4943
  206MPD1    C2 3130   0.638   3.292  16.898 -0.0822 -0.1319 -0.0237
  206MPD1    C3 3131   0.589   3.370  16.796  0.1102  0.6526 -0.4067
  206MPD1    C4 3132   0.605   3.505  16.810  0.2663  0.0529  0.9808
  206MPD1    C5 3133   0.669   3.552  16.919 -0.3222  0.4304  0.2877
  206MPD1     H 3134   0.630   3.184  16.906 -0.2883 -0.1384 -0.3196
  206MPD1    H1 3135   0.567   3.578  16.740  0.3250 -0.7407  0.1198
  206MPD1    H2 3136   0.756   3.526  17.112 -1.2051  0.9388 -0.3392
  206MPD1    H3 3137   0.684   3.660  16.917 -3.2775  0.8992  2.5996
  206MPD1     N 3138   0.520   3.329  16.679 -0.0682 -0.6992  0.1973
  206MPD1    H5 3139   0.484   3.400  16.616  2.7024 -1.1587 -1.9205
  206MPD1    N1 3140   0.744   3.264  17.128 -0.3073  0.0928  0.5950
  206MPD1    H6 3141   0.824   3.302  17.179  2.6535 -1.0713 -3.1920
  206MPD1    H7 3142   0.767   3.175  17.085 -1.9053  0.2498 -0.5935
  207MPD1     C 3143   3.532   0.844   8.960  0.3004 -0.2444  0.5268
  207MPD1    C1 3144   3.489   0.732   9.030 -0.3256 -0.3213  0.3083
  207MPD1    C2 3145   3.500   0.738   9.167 -0.7299 -0.1881 -0.3686
  207MPD1    C3 3146   3.556   0.851   9.231 -0.5958 -0.4900 -1.0281
  207MPD1    C4 3147   3.579   0.962   9.158 -0.6728  0.5132 -0.7954
  207MPD1    C5 3148   3.569   0.954   9.025  0.0250 -0.4369 -0.2425
  207MPD1     H 3149   3.477   0.649   9.223  2.8590  0.0401  1.4307
  207MPD1    H1 3150   3.603   1.053   9.211 -2.8880  0.6715 -0.0872
  207MPD1    H2 3151   3.535   0.854   8.852 -1.6374 -0.2451  0.4863
  207MPD1    H3 3152   3.617   1.032   8.966  0.5464  0.5580  1.5037
  207MPD1     N 3153   3.575   0.864   9.371  0.1677  0.6819 -0.0537
  207MPD1    H5 3154   3.580   0.959   9.407 -0.2721  1.1111 -1.1397
  207MPD1    N1 3155   3.457   0.610   8.965 -0.2666  1.0214 -0.1093
  207MPD1    H6 3156   3.394   0.622   8.887  0.1779 -1.4374 -0.8255
  207MPD1    H7 3157   3.417   0.537   9.023  0.5015  0.2385 -0.5783
  208MPD1     C 3158   1.621   0.276  17.393 -0.1080 -0.4464  0.2061
  208MPD1    C1 3159   1.486   0.235  17.378  0.4889  0.0162 -0.4478
  208MPD1    C2 3160   1.416   0.207  17.493  0.2315 -0.3812  0.2095
  208MPD1    C3 3161   1.479   0.207  17.622 -0.2119  0.2824  0.0489
  208MPD1    C4 3162   1.610   0.255  17.631  0.0066 -0.1169  0.4739
  208MPD1    C5 3163   1.674   0.289  17.517  0.4734  0.2056 -0.5364
  208MPD1     H 3164   1.315   0.167  17.484  0.0545  0.4597 -1.5154
  208MPD1    H1 3165   1.670   0.277   0.030 -0.0726  1.2814  0.1710
  208MPD1    H2 3166   1.678   0.316  17.310 -0.9540  2.0657  0.8332
  208MPD1    H3 3167   1.778   0.315  17.530  0.1788 -0.1065  2.4723
  208MPD1     N 3168   1.399   0.176   0.045 -0.0745 -0.5289 -0.3317
  208MPD1    H5 3169   1.308   0.138   0.019  0.6579 -2.1133 -0.5769
  208MPD1    N1 3170   1.426   0.235  17.251 -0.3054  0.7753  0.2083
  208MPD1    H6 3171   1.344   0.175  17.243  0.1412  0.3624 -1.2863
  208MPD1    H7 3172   1.490   0.186  17.189  0.0380 -1.3019  2.2109
  209MPD1     C 3173   3.507   4.078  10.582 -0.4572 -0.1300  0.8156
  209MPD1    C1 3174   3.638   4.120  10.585  0.4327  0.4614 -0.1582
  209MPD1    C2 3175   3.670   4.251  10.566 -0.3667  0.2747 -0.4914
  209MPD1    C3 3176   3.576   4.337  10.525  0.0616  0.1157 -0.1385
  209MPD1    C4 3177   3.444   4.293  10.511 -0.0462 -0.4566 -0.1205
  209MPD1    C5 3178   3.415   4.161  10.531 -0.2917 -0.1064  0.5974
  209MPD1     H 3179   3.771   4.287  10.584 -1.0439  1.8752  0.0659
  209MPD1    H1 3180   3.363   4.356  10.477 -0.4070  0.3973  2.2921
  209MPD1    H2 3181   3.475   3.976  10.599  1.6284 -0.4610  2.8459
  209MPD1    H3 3182   3.314   4.125  10.513 -0.5159  0.2531  1.1302
  209MPD1     N 3183   3.617   4.471  10.502 -0.5410  0.8986  0.4828
  209MPD1    H5 3184   3.716   4.489  10.515  0.4490 -3.0347 -1.7183
  209MPD1    N1 3185   3.746   4.041  10.642  0.5219  0.3697  0.6820
  209MPD1    H6 3186   3.726   3.942  10.647  2.7667 -0.1458 -0.8177
  209MPD1    H7 3187   3.835   4.053  10.594 -0.3824  0.9081 -0.8608
  210MPD1     C 3188   3.848   0.620  11.013 -0.6177  0.4784  0.3065
  210MPD1    C1 3189   3.910   0.495  11.025 -0.7193  0.0479 -0.3965
  210MPD1    C2 3190   3.858   0.394  10.942  0.3607 -0.2105  0.2801
  210MPD1    C3 3191   3.770   0.414  10.838  0.0776 -0.2788  0.6208
  210MPD1    C4 3192   3.718   0.539  10.828  0.0072 -0.3381  0.9501
  210MPD1    C5 3193   3.757   0.644  10.916  0.5154  0.2551  0.5438
  210MPD1     H 3194   3.905   0.297  10.952  0.7693 -0.1158 -0.7416
  210MPD1    H1 3195   3.651   0.559  10.744 -0.1220 -2.6507  0.4938
  210MPD1    H2 3196   3.891   0.703  11.069 -0.6566  1.5740 -1.2846
  210MPD1    H3 3197   3.728   0.745  10.888  0.1578 -0.5046 -1.7955
  210MPD1     N 3198   3.714   0.320  10.744 -0.7842  0.0514 -0.3590
  210MPD1    H5 3199   3.641   0.366  10.690 -0.4646 -2.4136 -2.9295
  210MPD1    N1 3200   4.008   0.470  11.126 -0.5641 -0.0925 -0.3752
  210MPD1    H6 3201   4.052   0.558  11.151 -1.8889  0.0581  1.4368
  210MPD1    H7 3202   4.083   0.403  11.108  2.3623  3.4136 -1.1421
  211MPD1     C 3203   0.544   0.056  16.176  0.3855 -0.2863 -0.0188
  211MPD1    C1 3204   0.403   0.060  16.178 -0.1374 -0.1706 -0.8100
  211MPD1    C2 3205   0.334   0.175  16.210 -0.0805  0.2261 -0.3524
  211MPD1    C3 3206   0.403   0.294  16.247  0.7074 -0.0646 -0.4115
  211MPD1    C4 3207   0.540   0.282  16.258  0.7616  0.3283  0.8088
  211MPD1    C5 3208   0.605   0.164  16.229 -0.2845 -0.2865  0.4094
  211MPD1     H 3209   0.227   0.187  16.200 -0.4149 -1.1106  1.6872
  211MPD1    H1 3210   0.610   0.352  16.304  1.7841  0.0981 -0.4020
  211MPD1    H2 3211   0.599   4.690  16.144 -1.2489 -0.8161 -1.4022
  211MPD1    H3 3212   0.713   0.170  16.234 -0.3371  0.6761  0.5396
  211MPD1     N 3213   0.328   0.411  16.294 -0.2117 -0.1954 -0.2567
  211MPD1    H5 3214   0.228   0.400  16.301 -0.0165 -1.5964  0.4208
  211MPD1    N1 3215   0.333   4.678  16.119 -0.2091 -0.1090  0.1875
  211MPD1    H6 3216   0.368   4.585  16.143 -1.8310 -1.4364 -2.4885
  211MPD1    H7 3217   0.232   4.688  16.128 -0.0509 -0.3510  2.1604
  212MPD1     C 3218   0.042   3.651  16.488  0.7107  0.0348  0.3199
  212MPD1    C1 3219   4.711   3.700  16.602 -0.3563 -0.1666 -0.6353
  212MPD1    C2 3220   4.618   3.624  16.675  0.8807 -0.3721 -0.2799
  212MPD1    C3 3221   4.576   3.500  16.633  0.4580 -0.1688 -0.2121
  212MPD1    C4 3222   4.616   3.459  16.509  0.4886 -0.3253  0.2715
  212MPD1    C5 3223   4.714   3.532  16.441 -0.4254 -0.0284 -0.4338
  212MPD1     H 3224   4.574   3.668  16.764  2.6472 -0.9014  0.8571
  212MPD1    H1 3225   4.577   3.369  16.463 -0.4209 -0.1113  0.6201
  212MPD1    H2 3226   0.123   3.705  16.439 -0.2372 -0.7283 -2.0720
  212MPD1    H3 3227   0.029   3.482  16.352  2.0049 -0.5732  0.8772
  212MPD1     N 3228   4.493   3.411  16.705 -0.6951 -0.2278 -0.4711
  212MPD1    H5 3229   4.502   3.315  16.671  1.5721 -0.6742  1.4095
  212MPD1    N1 3230   0.042   3.817  16.663 -0.1322 -0.0947  0.1504
  212MPD1    H6 3231   0.056   3.891  16.595  0.6422 -0.4125 -0.0300
  212MPD1    H7 3232   4.690   3.862  16.717  1.2594  1.1516  0.9745
  213MPD1     C 3233   3.144   4.500  15.928  0.1805 -0.4977 -0.5408
  213MPD1    C1 3234   3.022   4.544  15.978 -0.0901  0.1670 -0.1294
  213MPD1    C2 3235   2.924   4.569  15.876  0.4478 -0.1533  0.6648
  213MPD1    C3 3236   2.953   4.592  15.746 -0.1054  0.1687  0.0663
  213MPD1    C4 3237   3.088   4.577  15.706 -0.3015 -0.5690 -0.1334
  213MPD1    C5 3238   3.178   4.521  15.795 -1.3464  0.0024 -0.2471
  213MPD1     H 3239   2.820   4.560  15.905  0.6250 -0.0801  1.3292
  213MPD1    H1 3240   3.124   4.582  15.604 -0.3499  0.3485 -0.1085
  213MPD1    H2 3241   3.224   4.469  15.995  0.4816  2.6365  0.5662
  213MPD1    H3 3242   3.267   4.477  15.752 -0.7865 -1.8110  2.7759
  213MPD1     N 3243   2.847   4.626  15.654 -0.1825 -0.4242 -0.0235
  213MPD1    H5 3244   2.752   4.616  15.690 -0.2793 -1.2366 -0.5045
  213MPD1    N1 3245   2.978   4.496  16.106  0.4397 -0.2137 -0.3049
  213MPD1    H6 3246   2.896   4.539  16.148  1.2067  1.7761 -0.8670
  213MPD1    H7 3247   3.053   4.496  16.175 -1.0884  2.3596  1.3346
  214MPD1     C 3248   2.227   4.006  15.232 -0.7455 -0.0003 -0.3884
  214MPD1    C1 3249   2.229   4.064  15.352  0.6552 -0.1111 -0.0098
  214MPD1    C2 3250   2.286   4.192  15.368 -0.0309 -0.0854  0.4806
  214MPD1    C3 3251   2.342   4.256  15.260 -0.5921  0.1279  0.1173
  214MPD1    C4 3252   2.337   4.193  15.138 -0.2831 -0.1622  0.2593
  214MPD1    C5 3253   2.277   4.072  15.126 -0.1726 -0.0380 -0.0898
  214MPD1     H 3254   2.296   4.230  15.469  0.0638  0.9259  0.0831
  214MPD1    H1 3255   2.382   4.231  15.047 -2.1785 -0.1656 -0.6866
  214MPD1    H2 3256   2.191   3.905  15.217 -2.3837  0.2774  1.6134
  214MPD1    H3 3257   2.268   4.030  15.026 -0.3194 -1.0176  0.3386
  214MPD1     N 3258   2.411   4.374  15.269  0.1124  0.9220 -0.1790
  214MPD1    H5 3259   2.442   4.417  15.183  0.8114 -2.0397 -1.3942
  214MPD1    N1 3260   2.165   3.999  15.462 -0.4083  0.7194 -0.0171
  214MPD1    H6 3261   2.233   3.996  15.538 -0.2373 -3.3939 -0.3666
  214MPD1    H7 3262   2.137   3.902  15.456  3.0182 -0.2172 -0.6527
  215MPD1     C 3263   3.452   4.404  10.905  0.2781  0.2346  0.6994
  215MPD1    C1 3264   3.452   4.422  11.044 -0.3143 -0.2906  0.5677
  215MPD1    C2 3265   3.464   4.553  11.087  0.0893  0.1151  0.2985
  215MPD1    C3 3266   3.489   4.661  10.998 -0.5121 -0.0756  0.2681
  215MPD1    C4 3267   3.499   4.629  10.864  0.1717  0.2742  0.5418
  215MPD1    C5 3268   3.473   4.510  10.817  0.1355  0.7275 -0.4827
  215MPD1     H 3269   3.444   4.573  11.192 -0.6308  0.3629  0.1142
  215MPD1    H1 3270   3.518   4.708  10.792  2.3851  0.2593  1.1086
  215MPD1    H2 3271   3.428   4.307  10.862  0.9613  0.5304 -0.3478
  215MPD1    H3 3272   3.490   4.498  10.711  0.5473  2.0027 -0.5529
  215MPD1     N 3273   3.502   0.069  11.046  0.3793  0.1999 -0.1174
  215MPD1    H5 3274   3.488   0.079  11.146  2.1159  1.7651 -0.0267
  215MPD1    N1 3275   3.416   4.315  11.128 -0.0292  0.7087 -0.6818
  215MPD1    H6 3276   3.424   4.331  11.229 -1.3381 -1.2698 -0.2579
  215MPD1    H7 3277   3.457   4.227  11.095 -1.0973 -0.2193  0.4411
  216MPD1     C 3278   0.096   3.211  16.601  0.0625 -0.4114 -0.9238
  216MPD1    C1 3279   0.050   3.107  16.528  0.6489 -0.2132  0.7052
  216MPD1    C2 3280   0.012   2.988  16.597  0.2332  0.3329  0.4800
  216MPD1    C3 3281   0.027   2.981  16.731 -0.0883 -0.0874  0.0551
  216MPD1    C4 3282   0.063   3.095  16.801  0.5372  0.1786  0.1553
  216MPD1    C5 3283   0.099   3.208  16.733  0.0364 -0.0869 -0.0872
  216MPD1     H 3284   4.690   2.909  16.536 -1.9512 -0.2621  2.8000
  216MPD1    H1 3285   0.066   3.092  16.909 -0.9981 -2.2124  0.1230
  216MPD1    H2 3286   0.151   3.298  16.565  2.6016 -1.5331  0.2672
  216MPD1    H3 3287   0.142   3.292  16.787  0.6589 -0.5403  0.1175
  216MPD1     N 3288   4.720   2.859  16.798 -0.2562 -0.0395  0.5998
  216MPD1    H5 3289   4.691   2.779  16.743  0.0922  1.2018 -1.4055
  216MPD1    N1 3290   0.015   3.129  16.394 -0.1310  0.4866 -0.3075
  216MPD1    H6 3291   0.070   3.199  16.344 -0.0735  1.5508  1.2363
  216MPD1    H7 3292   0.009   3.047  16.334 -0.2492  0.6850 -0.5688
  217MPD1     C 3293   1.978   3.034   9.217  0.5270  0.8734 -0.4500
  217MPD1    C1 3294   2.064   3.107   9.301  0.2168 -1.1094  0.3047
  217MPD1    C2 3295   2.014   3.229   9.344 -0.0717 -0.8589  0.1311
  217MPD1    C3 3296   1.886   3.269   9.296  0.4275 -0.1919  0.2446
  217MPD1    C4 3297   1.806   3.192   9.219  0.8311  0.1683 -0.8708
  217MPD1    C5 3298   1.859   3.072   9.176 -0.3892  0.6167 -0.6184
  217MPD1     H 3299   2.070   3.289   9.415  0.6244  1.1113 -2.1018
  217MPD1    H1 3300   1.703   3.218   9.197  1.3788  2.5396 -0.5986
  217MPD1    H2 3301   2.011   2.937   9.181 -0.3783  0.8295 -1.1467
  217MPD1    H3 3302   1.800   3.007   9.112  0.9218  0.1262 -1.3384
  217MPD1     N 3303   1.828   3.394   9.335  0.2054  0.0488 -0.2816
  217MPD1    H5 3304   1.727   3.399   9.323  0.3774 -1.0644 -2.1378
  217MPD1    N1 3305   2.172   3.048   9.363  0.3309  0.3654 -0.1971
  217MPD1    H6 3306   2.228   2.992   9.300  1.9421  0.9715  0.6900
  217MPD1    H7 3307   2.233   3.109   9.417  0.9538 -1.0323  0.6965
  218MPD1     C 3308   2.098   0.988  13.678 -0.4897 -0.1519 -0.3067
  218MPD1    C1 3309   2.158   0.866  13.673  0.1345 -0.0929  0.1544
  218MPD1    C2 3310   2.230   0.830  13.557 -0.2091 -0.3247 -0.3004
  218MPD1    C3 3311   2.243   0.924  13.458  0.2249 -0.2938  0.3906
  218MPD1    C4 3312   2.191   1.051  13.466  0.1237  0.5189  0.0699
  218MPD1    C5 3313   2.124   1.079  13.578 -0.6283 -0.7996  0.5459
  218MPD1     H 3314   2.268   0.730  13.542 -0.0799 -0.5839  1.6823
  218MPD1    H1 3315   2.221   1.121  13.388  1.4041 -0.5918 -0.4262
  218MPD1    H2 3316   2.038   1.010  13.766  1.5007  0.7727  0.8170
  218MPD1    H3 3317   2.095   1.183  13.579 -0.1955 -0.6855  0.8888
  218MPD1     N 3318   2.303   0.877  13.342  0.1195 -0.0366  0.0396
  218MPD1    H5 3319   2.322   0.778  13.335  2.1294  0.2389  1.5253
  218MPD1    N1 3320   2.125   0.771  13.767 -0.4531  0.2383 -0.2122
  218MPD1    H6 3321   2.182   0.687  13.762 -2.0972 -1.0162  2.0245
  218MPD1    H7 3322   2.104   0.802  13.862 -1.5727  1.6656 -0.9317
  219MPD1     C 3323   2.567   0.948  12.269 -0.4685  0.0422 -0.5151
  219MPD1    C1 3324   2.532   1.053  12.358 -0.5120 -0.0129 -0.5776
  219MPD1    C2 3325   2.510   1.020  12.491  0.3257  0.7943  0.9730
  219MPD1    C3 3326   2.518   0.893  12.538  0.1946 -0.0309  0.2124
  219MPD1    C4 3327   2.561   0.792  12.454  0.0320 -0.5824  0.6421
  219MPD1    C5 3328   2.584   0.823  12.322  0.0820  0.0470 -0.1327
  219MPD1     H 3329   2.493   1.102  12.561 -1.6902  0.9470  0.3086
  219MPD1    H1 3330   2.574   0.689  12.485 -0.5452  0.0079  2.8099
  219MPD1    H2 3331   2.584   0.964  12.164  1.1336  2.3734  0.0998
  219MPD1    H3 3332   2.605   0.746  12.248 -0.2823  0.8326 -1.0627
  219MPD1     N 3333   2.501   0.857  12.673 -0.1128  0.4571  0.3927
  219MPD1    H5 3334   2.522   0.760  12.696  0.7778  0.9917  1.8375
  219MPD1    N1 3335   2.500   1.181  12.302  0.6659 -0.2938  0.3874
  219MPD1    H6 3336   2.557   1.194  12.218 -0.4585 -2.7792 -0.7408
  219MPD1    H7 3337   2.517   1.258  12.367  0.0868 -1.4671  1.9318
  220MPD1     C 3338   3.377   1.234   9.569 -0.5014 -0.4297  1.0015
  220MPD1    C1 3339   3.407   1.262   9.705  0.2359 -0.0405 -0.6948
  220MPD1    C2 3340   3.350   1.174   9.800  0.0944  0.5329 -0.5664
  220MPD1    C3 3341   3.283   1.055   9.766 -0.7750 -0.7658 -0.0203
  220MPD1    C4 3342   3.256   1.035   9.633 -0.5452  0.4000  0.2619
  220MPD1    C5 3343   3.307   1.118   9.538  1.0637 -0.1113  0.3766
  220MPD1     H 3344   3.375   1.184   9.905 -1.3883  0.5902 -0.2130
  220MPD1    H1 3345   3.202   0.947   9.600 -0.7607  0.5617  0.1863
  220MPD1    H2 3346   3.411   1.307   9.497 -0.4815 -0.8765  0.5586
  220MPD1    H3 3347   3.294   1.093   9.433  1.5918 -2.0354  0.7642
  220MPD1     N 3348   3.238   0.976   9.875  0.1961  0.1208  0.5448
  220MPD1    H5 3349   3.270   1.006   9.967 -2.0441  0.8702  1.0826
  220MPD1    N1 3350   3.449   1.390   9.745 -0.2018 -0.8783 -0.4700
  220MPD1    H6 3351   3.503   1.444   9.678  0.4808 -1.9258 -0.7567
  220MPD1    H7 3352   3.482   1.388   9.841 -1.5856 -1.8251 -0.0095
  221MPD1     C 3353   4.320   0.164  17.019  0.1171 -0.2161  0.5882
  221MPD1    C1 3354   4.328   0.059  16.930  0.5085 -0.1007  0.1567
  221MPD1    C2 3355   4.449   0.039  16.861  0.5544 -0.1458  0.6125
  221MPD1    C3 3356   4.559   0.120  16.871 -0.0604  0.0658 -0.6855
  221MPD1    C4 3357   4.550   0.215  16.974 -0.1654  0.1965  0.5685
  221MPD1    C5 3358   4.428   0.236  17.043  0.5633  0.6421  0.4627
  221MPD1     H 3359   4.443   4.683  16.786 -2.6506  1.1547 -0.4781
  221MPD1    H1 3360   4.626   0.290  16.992  0.5630 -0.3654 -0.1707
  221MPD1    H2 3361   4.232   0.189  17.077 -1.2049 -0.4770 -1.2753
  221MPD1    H3 3362   4.422   0.308  17.124 -0.4917 -0.2053  1.1395
  221MPD1     N 3363   4.680   0.110  16.796 -0.2149 -1.2834  0.3951
  221MPD1    H5 3364   0.025   0.185  16.817 -0.2344 -0.4414 -2.6039
  221MPD1    N1 3365   4.233   4.683  16.914 -0.2515  0.0595 -0.4476
  221MPD1    H6 3366   4.142   4.716  16.945 -1.0638 -0.0012 -2.7497
  221MPD1    H7 3367   4.237   4.652  16.817 -1.1626  1.2013 -0.8479
  222MPD1     C 3368   4.533   3.010  17.350 -0.2787  0.0675 -0.4379
  222MPD1    C1 3369   4.550   3.123  17.279  0.0492 -0.5768 -0.0709
  222MPD1    C2 3370   4.459   3.226  17.305 -0.5498  0.0436  0.1544
  222MPD1    C3 3371   4.359   3.218  17.402  0.1444 -0.4590  0.4631
  222MPD1    C4 3372   4.348   3.104  17.471  0.0255  0.2527 -0.3807
  222MPD1    C5 3373   4.429   2.999  17.443  0.0055 -0.4602  0.9528
  222MPD1     H 3374   4.482   3.319  17.255  1.3842 -1.3626 -1.5657
  222MPD1    H1 3375   4.268   3.084  17.542  1.7989 -1.0496  1.2421
  222MPD1    H2 3376   4.593   2.921  17.338 -1.9626 -1.2706  1.0543
  222MPD1    H3 3377   4.420   2.911  17.507  0.8073 -1.8786 -0.8823
  222MPD1     N 3378   4.283   3.332  17.449 -0.2546 -0.2312 -0.2311
  222MPD1    H5 3379   4.210   3.309  17.516  0.2274 -0.4516  0.2200
  222MPD1    N1 3380   4.660   3.145  17.194 -0.3059  0.1797  0.0107
  222MPD1    H6 3381   4.707   3.059  17.167  0.4904  0.0232  1.8658
  222MPD1    H7 3382   4.640   3.202  17.112  1.1000 -0.8893 -1.0753
  223MPD1     C 3383   3.905   3.799   0.534 -0.3457 -0.1327 -0.1552
  223MPD1    C1 3384   3.953   3.899   0.457 -0.0242  0.2980 -0.9748
  223MPD1    C2 3385   3.996   3.869   0.324  0.5395 -0.4450 -0.2721
  223MPD1    C3 3386   4.005   3.737   0.282 -0.2767 -0.2200 -0.1902
  223MPD1    C4 3387   3.956   3.640   0.366 -0.0529  0.2036 -0.2519
  223MPD1    C5 3388   3.895   3.672   0.486  0.2395  0.0477  0.0322
  223MPD1     H 3389   4.038   3.952   0.268  1.2082 -1.8345 -1.8123
  223MPD1    H1 3390   3.957   3.536   0.335 -1.5279 -0.1792  0.9789
  223MPD1    H2 3391   3.867   3.821   0.633  1.2787  0.0243  0.4314
  223MPD1    H3 3392   3.847   3.600   0.551  2.5716 -1.2310  0.3387
  223MPD1     N 3393   4.055   3.711   0.155  0.5146 -0.9889  0.7179
  223MPD1    H5 3394   4.106   3.787   0.111 -1.6048  1.0410  1.7913
  223MPD1    N1 3395   3.972   4.021   0.515 -0.4597  0.3387 -0.2243
  223MPD1    H6 3396   3.930   4.051   0.602 -0.9595  0.3117 -0.4577
  223MPD1    H7 3397   3.965   4.094   0.445 -0.7106  1.6947  1.2284
  224MPD1     C 3398   0.739   3.811   9.537 -0.5773 -0.2842  0.0589
  224MPD1    C1 3399   0.864   3.826   9.479 -0.6075  0.1399 -0.4789
  224MPD1    C2 3400   0.924   3.952   9.483 -0.2665  0.3966 -0.5295
  224MPD1    C3 3401   0.855   4.064   9.529  0.2510 -0.1731  0.2217
  224MPD1    C4 3402   0.738   4.046   9.593 -0.4758 -0.0694 -0.0691
  224MPD1    C5 3403   0.684   3.920   9.595  0.0265 -0.1474 -0.0631
  224MPD1     H 3404   1.026   3.958   9.446 -0.1744 -1.8596 -0.6906
  224MPD1    H1 3405   0.683   4.133   9.629 -3.7050 -2.0599 -0.1838
  224MPD1    H2 3406   0.686   3.717   9.549  0.1662 -1.1060 -3.0673
  224MPD1    H3 3407   0.591   3.914   9.651 -0.6826  3.2509 -0.8851
  224MPD1     N 3408   0.904   4.195   9.518 -0.4445  0.1645  0.3155
  224MPD1    H5 3409   0.843   4.272   9.547  0.8437  0.9339  0.9652
  224MPD1    N1 3410   0.921   3.707   9.432 -0.0304 -0.1607 -0.3667
  224MPD1    H6 3411   0.857   3.635   9.397  0.0708 -1.0697  1.3331
  224MPD1    H7 3412   0.981   3.723   9.351  1.0387 -2.0460  0.0382
  225MPD1     C 3413   2.430   1.533  12.528  0.6086 -0.6869 -0.4298
  225MPD1    C1 3414   2.426   1.614  12.422 -0.2300 -0.4693 -0.2162
  225MPD1    C2 3415   2.322   1.602  12.330 -0.8126  0.8180 -0.0665
  225MPD1    C3 3416   2.243   1.490  12.331 -0.0910 -0.4032  0.4084
  225MPD1    C4 3417   2.248   1.401  12.447 -0.2627  0.2835 -0.6978
  225MPD1    C5 3418   2.348   1.422  12.541 -0.0835 -0.5162 -0.5765
  225MPD1     H 3419   2.317   1.671  12.247  1.7584  1.8864  0.6616
  225MPD1    H1 3420   2.185   1.314  12.462  1.8976 -1.0213  0.8984
  225MPD1    H2 3421   2.514   1.539  12.597 -0.6198  1.1840  0.8776
  225MPD1    H3 3422   2.354   1.360  12.630 -2.7759 -1.0419 -0.7688
  225MPD1     N 3423   2.143   1.471  12.228  0.1403  0.0303 -0.1301
  225MPD1    H5 3424   2.087   1.387  12.238  0.1501  0.1099  0.6281
  225MPD1    N1 3425   2.511   1.726  12.416 -0.3615  0.3486 -0.1429
  225MPD1    H6 3426   2.517   1.771  12.325  2.4003  1.2700  0.4806
  225MPD1    H7 3427   2.606   1.717  12.453 -0.7990  0.7634  1.0520
  226MPD1     C 3428   0.383   1.598   9.390  0.9853  0.1479  0.8840
  226MPD1    C1 3429   0.343   1.472   9.366  0.1847  0.6816 -0.2172
  226MPD1    C2 3430   0.438   1.378   9.342  0.0706  0.5755 -0.3517
  226MPD1    C3 3431   0.568   1.414   9.325  0.9447  0.6308 -0.2740
  226MPD1    C4 3432   0.609   1.542   9.334  0.7997  0.0547 -0.4206
  226MPD1    C5 3433   0.513   1.630   9.378  0.0062 -0.0470 -0.2683
  226MPD1     H 3434   0.402   1.276   9.331  2.1116 -0.2843  1.0228
  226MPD1    H1 3435   0.708   1.582   9.318  0.9209  0.7972  2.0923
  226MPD1    H2 3436   0.312   1.670   9.431 -2.4095 -2.8249  0.2467
  226MPD1    H3 3437   0.549   1.730   9.399  0.9691 -0.7549  1.4585
  226MPD1     N 3438   0.653   1.303   9.301 -0.5855 -0.6014 -0.1861
  226MPD1    H5 3439   0.620   1.207   9.293 -2.4134 -0.1018  1.4368
  226MPD1    N1 3440   0.211   1.445   9.394  0.1879  0.4542  0.0046
  226MPD1    H6 3441   0.186   1.356   9.350  1.3277  0.6759 -1.0857
  226MPD1    H7 3442   0.150   1.518   9.358  0.2408 -0.8231 -2.6842
  227MPD1     C 3443   0.433   0.529   8.998 -0.5553  0.2847  0.2010
  227MPD1    C1 3444   0.397   0.655   8.958  0.1088  0.2186 -0.4326
  227MPD1    C2 3445   0.482   0.761   8.996  0.0657  0.1361 -0.3277
  227MPD1    C3 3446   0.595   0.742   9.071 -0.6975  0.0140 -0.4758
  227MPD1    C4 3447   0.622   0.614   9.112 -0.5624 -0.1505  0.6873
  227MPD1    C5 3448   0.544   0.508   9.069  0.0134  0.8427 -0.3412
  227MPD1     H 3449   0.449   0.862   8.972  1.0714  0.6214  0.3192
  227MPD1    H1 3450   0.698   0.590   9.185 -0.3669  0.2432  0.6115
  227MPD1    H2 3451   0.369   0.446   8.969  2.4311 -1.2555 -1.9762
  227MPD1    H3 3452   0.576   0.410   9.103  1.1188  1.7470  1.2085
  227MPD1     N 3453   0.677   0.852   9.109 -0.2882  0.3622 -0.0214
  227MPD1    H5 3454   0.648   0.945   9.080  1.7382  1.1785  0.6064
  227MPD1    N1 3455   0.280   0.679   8.881  0.7106  0.2509 -0.1160
  227MPD1    H6 3456   0.207   0.614   8.909 -0.4169  0.7172 -1.9938
  227MPD1    H7 3457   0.233   0.769   8.888 -2.1104 -0.9998 -3.0520
  228MPD1     C 3458   4.537   4.026  12.967 -0.2305 -0.1849 -1.0530
  228MPD1    C1 3459   4.481   4.004  12.843  0.3687 -0.8308  0.1343
  228MPD1    C2 3460   4.355   3.942  12.835 -0.8626  0.0298 -1.1538
  228MPD1    C3 3461   4.297   3.882  12.946 -0.4718  0.2614 -0.0692
  228MPD1    C4 3462   4.354   3.905  13.071  0.4015 -0.1921 -0.4182
  228MPD1    C5 3463   4.471   3.979  13.077  0.1234  0.5233 -0.4947
  228MPD1     H 3464   4.301   3.931  12.741 -0.4457  0.0492 -1.3947
  228MPD1    H1 3465   4.318   3.873  13.168  1.8062 -1.3179 -0.2633
  228MPD1    H2 3466   4.636   4.070  12.975 -0.5104 -0.3905  3.2352
  228MPD1    H3 3467   4.524   4.000  13.169 -0.1091  0.9761 -0.4634
  228MPD1     N 3468   4.177   3.812  12.930 -0.2934  0.1160 -0.4272
  228MPD1    H5 3469   4.146   3.819  12.833 -2.7590  0.3975  0.3892
  228MPD1    N1 3470   4.533   4.070  12.731 -0.4233 -0.8665  0.3156
  228MPD1    H6 3471   4.634   4.085  12.739 -0.6463 -0.7659  3.1173
  228MPD1    H7 3472   4.510   4.016  12.648  0.3954 -1.3090  0.3704
  229MPD1     C 3473   3.448   3.029  14.415  0.4551  0.5160  0.6667
  229MPD1    C1 3474   3.582   2.996  14.419 -0.3777  0.4482 -0.2962
  229MPD1    C2 3475   3.617   2.875  14.474 -0.3030  0.5701  0.1827
  229MPD1    C3 3476   3.529   2.783  14.528 -0.5265  0.4402  0.4761
  229MPD1    C4 3477   3.397   2.818  14.517 -0.0320  0.6837 -0.5277
  229MPD1    C5 3478   3.363   2.932  14.457 -0.6384 -0.1537  0.4164
  229MPD1     H 3479   3.722   2.852  14.479 -0.2496  1.3696  2.6047
  229MPD1    H1 3480   3.317   2.756  14.554  0.3740  0.0289 -0.7361
  229MPD1    H2 3481   3.405   3.122  14.382  0.5076  0.3879  0.2397
  229MPD1    H3 3482   3.256   2.951  14.453 -0.5025  0.2498 -1.2095
  229MPD1     N 3483   3.568   2.669  14.593 -0.3181  0.2009 -0.3096
  229MPD1    H5 3484   3.498   2.610  14.637  0.8364 -0.4792  0.6148
  229MPD1    N1 3485   3.676   3.094  14.387 -0.3019  0.0802 -0.1565
  229MPD1    H6 3486   3.770   3.072  14.357 -0.1016  2.1060 -1.0112
  229MPD1    H7 3487   3.637   3.156  14.317  2.3283  1.3524 -0.5024
  230MPD1     C 3488   3.981   2.510  15.513  0.1924 -0.6411  0.0019
  230MPD1    C1 3489   4.039   2.423  15.431  0.3310  0.2748 -0.0207
  230MPD1    C2 3490   3.991   2.401  15.301 -0.2907 -0.0688 -0.0652
  230MPD1    C3 3491   3.883   2.471  15.251 -0.6539 -0.3992 -0.1807
  230MPD1    C4 3492   3.825   2.571  15.343  0.7911 -0.1751  0.1567
  230MPD1    C5 3493   3.875   2.586  15.469  0.4776 -0.3046  0.8097
  230MPD1     H 3494   4.042   2.334  15.233 -1.0796  1.2384 -1.9522
  230MPD1    H1 3495   3.733   2.624  15.321  0.7690  0.6543  2.2055
  230MPD1    H2 3496   4.013   2.514  15.617 -0.5315  2.5271  0.1180
  230MPD1    H3 3497   3.831   2.654  15.541  0.8519 -0.4630  1.1949
  230MPD1     N 3498   3.835   2.454  15.119 -0.3931  0.7388 -0.7349
  230MPD1    H5 3499   3.875   2.376  15.069  1.2273  1.2682 -0.2613
  230MPD1    N1 3500   4.145   2.351  15.474 -0.0964  0.1612 -0.0935
  230MPD1    H6 3501   4.191   2.297  15.401 -1.5401 -2.2298  0.7676
  230MPD1    H7 3502   4.212   2.410  15.522  0.8866 -0.3424 -0.8641
  231MPD1     C 3503   1.231   4.299  15.395 -0.2435 -0.7713 -0.4030
  231MPD1    C1 3504   1.268   4.282  15.262  0.1371  0.3611  0.4711
  231MPD1    C2 3505   1.395   4.322  15.222  0.0548 -0.1295  0.2206
  231MPD1    C3 3506   1.492   4.360  15.311 -0.2209  0.3106  0.5319
  231MPD1    C4 3507   1.447   4.388  15.441  0.2590  0.5571  0.1854
  231MPD1    C5 3508   1.318   4.354  15.484 -0.1339 -0.0711  0.2037
  231MPD1     H 3509   1.415   4.318  15.115 -2.1219 -1.0825 -0.1419
  231MPD1    H1 3510   1.511   4.434  15.516  1.5452  0.2988 -0.7584
  231MPD1    H2 3511   1.131   4.273  15.428  0.1657  2.2838  3.2089
  231MPD1    H3 3512   1.291   4.369  15.588 -0.2865 -1.9540  0.4253
  231MPD1     N 3513   1.624   4.393  15.267  0.9147  0.6732 -0.0063
  231MPD1    H5 3514   1.643   4.383  15.167  1.3627  0.3767  0.1041
  231MPD1    N1 3515   1.162   4.256  15.176  0.0795  0.0418  0.0859
  231MPD1    H6 3516   1.078   4.218  15.219 -0.0708  0.7081  0.3845
  231MPD1    H7 3517   1.179   4.225  15.081  1.4736 -1.6562  0.8840
  232MPD1     C 3518   0.352   1.630   0.576  0.5745  0.1889  0.3706
  232MPD1    C1 3519   0.324   1.703   0.462  0.0317 -0.5084  0.8378
  232MPD1    C2 3520   0.195   1.752   0.449 -0.5399 -0.6500  0.1129
  232MPD1    C3 3521   0.095   1.708   0.537  0.7919  0.6586 -0.2953
  232MPD1    C4 3522   0.128   1.625   0.642 -0.4489 -0.1742 -0.6179
  232MPD1    C5 3523   0.256   1.596   0.667  0.0124  0.5495 -0.5107
  232MPD1     H 3524   0.168   1.828   0.377  1.5689 -0.9374 -0.9657
  232MPD1    H1 3525   0.059   1.588   0.717 -1.6006  0.3771 -1.4140
  232MPD1    H2 3526   0.451   1.594   0.602  0.7886  0.8574  0.4748
  232MPD1    H3 3527   0.282   1.538   0.754 -0.3183 -0.6739 -1.2274
  232MPD1     N 3528   4.686   1.759   0.524  0.2684  0.5644  0.2257
  232MPD1    H5 3529   4.674   1.832   0.454  0.0139 -0.3107 -0.6487
  232MPD1    N1 3530   0.431   1.744   0.376 -0.2268  0.3229  0.8785
  232MPD1    H6 3531   0.496   1.668   0.356 -2.3704 -1.2980  0.0177
  232MPD1    H7 3532   0.402   1.789   0.289  2.0393 -1.7608 -0.9595
  233MPD1     C 3533   4.409   1.066   1.016  0.5665  0.6194  0.0299
  233MPD1    C1 3534   4.398   0.930   1.043 -0.2344  0.3800  0.1603
  233MPD1    C2 3535   4.486   0.869   1.133  0.9940  0.0789  0.1802
  233MPD1    C3 3536   4.566   0.957   1.209 -0.3322  0.4001  0.1817
  233MPD1    C4 3537   4.557   1.094   1.204 -0.5821 -0.6404  0.6450
  233MPD1    C5 3538   4.481   1.147   1.106  0.2414 -0.0973 -0.1816
  233MPD1     H 3539   4.487   0.762   1.147  0.0311  0.1646  0.9610
  233MPD1    H1 3540   4.617   1.157   1.268  1.6671 -4.2872  2.1734
  233MPD1    H2 3541   4.366   1.102   0.923  0.7686 -0.9174 -0.6533
  233MPD1    H3 3542   4.498   1.251   1.079 -2.7237 -0.5347 -3.8596
  233MPD1     N 3543   4.663   0.909   1.307 -0.0968  0.6203  0.2309
  233MPD1    H5 3544   0.000   0.976   1.355 -1.1181  0.2518  2.0143
  233MPD1    N1 3545   4.322   0.853   0.957 -0.7129 -0.0714  0.7027
  233MPD1    H6 3546   4.298   0.764   1.000  2.3909 -0.9981  0.4598
  233MPD1    H7 3547   4.237   0.904   0.931  0.1319  0.6015 -0.6926
  234MPD1     C 3548   2.888   4.645   9.860  0.0791  0.5988 -0.2602
  234MPD1    C1 3549   2.829   4.519   9.853  0.5088 -0.7985  0.4944
  234MPD1    C2 3550   2.694   4.512   9.876  0.1493 -0.4880  0.0809
  234MPD1    C3 3551   2.614   4.621   9.894  0.0037  0.2396  0.7430
  234MPD1    C4 3552   2.675   0.024   9.896  0.5488  0.3505 -0.1162
  234MPD1    C5 3553   2.812   0.037   9.882 -0.1749  0.4461  0.0825
  234MPD1     H 3554   2.636   4.421   9.881  2.7274 -2.2185 -1.4225
  234MPD1    H1 3555   2.628   0.119   9.917 -0.9164  0.0120 -1.8613
  234MPD1    H2 3556   2.994   4.653   9.838  0.3137 -1.0680  0.2082
  234MPD1    H3 3557   2.848   0.140   9.878 -0.3867  0.5833  1.7509
  234MPD1     N 3558   2.474   4.600   9.898 -0.3074  0.0469  0.0014
  234MPD1    H5 3559   2.440   4.507   9.919 -0.7794  0.5930  1.6648
  234MPD1    N1 3560   2.901   4.404   9.825 -0.0384 -0.0256  0.0920
  234MPD1    H6 3561   2.985   4.424   9.770 -0.1621  1.6861  0.5023
  234MPD1    H7 3562   2.849   4.331   9.779 -2.3589  2.3664 -1.0835
  235MPD1     C 3563   2.933   2.204   9.035  0.2128  0.1739  1.0264
  235MPD1    C1 3564   3.051   2.256   9.079  0.4574  0.5263 -0.5893
  235MPD1    C2 3565   3.125   2.180   9.166  0.2512  0.7743  0.3819
  235MPD1    C3 3566   3.069   2.064   9.218 -0.2910 -0.2658  0.1539
  235MPD1    C4 3567   2.944   2.025   9.186 -0.7298  0.2830  0.3393
  235MPD1    C5 3568   2.870   2.100   9.098 -0.3512 -0.5562  0.9253
  235MPD1     H 3569   3.223   2.212   9.198  0.9180  0.8893 -1.7964
  235MPD1    H1 3570   2.908   1.930   9.225 -3.1135  1.5911  1.2890
  235MPD1    H2 3571   2.891   2.260   8.953  2.6564  0.2261 -0.1862
  235MPD1    H3 3572   2.775   2.072   9.055 -0.9443 -0.0793  1.9286
  235MPD1     N 3573   3.158   1.975   9.286 -0.0874 -0.6471 -0.4900
  235MPD1    H5 3574   3.246   2.015   9.317 -0.2652  0.5624 -1.5342
  235MPD1    N1 3575   3.102   2.368   9.010 -0.3500 -0.0729  0.1573
  235MPD1    H6 3576   3.186   2.409   9.051 -0.6499  0.9290 -0.2484
  235MPD1    H7 3577   3.034   2.443   9.002 -0.0703  0.2562  0.8880
  236MPD1     C 3578   2.454   2.638   9.809  0.2276 -0.2727 -0.1101
  236MPD1    C1 3579   2.489   2.680   9.928  0.4669 -0.5622  0.0720
  236MPD1    C2 3580   2.572   2.597  10.005 -0.3859 -0.2827  0.0221
  236MPD1    C3 3581   2.610   2.467   9.959  0.1189  0.5385 -0.0261
  236MPD1    C4 3582   2.560   2.425   9.835 -0.5857  0.4019  0.7280
  236MPD1    C5 3583   2.486   2.517   9.759 -0.5307 -0.3323 -0.1495
  236MPD1     H 3584   2.607   2.634  10.100 -0.3528  1.7701 -0.7901
  236MPD1    H1 3585   2.583   2.330   9.788  0.8539  0.4527  1.3255
  236MPD1    H2 3586   2.418   2.709   9.736 -1.9804 -0.7122  0.5412
  236MPD1    H3 3587   2.457   2.504   9.655 -0.2278 -4.3309  0.2646
  236MPD1     N 3588   2.695   2.376  10.024  0.6018 -0.6444 -0.1139
  236MPD1    H5 3589   2.706   2.284   9.983 -0.3207 -1.3591  1.2244
  236MPD1    N1 3590   2.460   2.813   9.975 -0.8610  0.7422  0.7696
  236MPD1    H6 3591   2.443   2.819  10.075  1.3412 -0.8126  1.2316
  236MPD1    H7 3592   2.381   2.854   9.925  0.5368  0.7692 -1.4297
  237MPD1     C 3593   1.695   0.667  14.630  0.2479  0.0805 -0.0519
  237MPD1    C1 3594   1.687   0.615  14.754  0.2622  0.2512 -0.5868
  237MPD1    C2 3595   1.578   0.644  14.832 -0.0821  0.3975 -0.0241
  237MPD1    C3 3596   1.472   0.714  14.775 -0.0737 -0.1039 -0.0638
  237MPD1    C4 3597   1.480   0.768  14.649  0.0334 -0.2854 -0.1847
  237MPD1    C5 3598   1.591   0.736  14.579  0.0717 -0.4311  0.3942
  237MPD1     H 3599   1.567   0.604  14.932 -0.9701  1.5702  0.3475
  237MPD1    H1 3600   1.406   0.838  14.612 -0.0245  0.0384  0.5416
  237MPD1    H2 3601   1.772   0.638  14.559 -0.9842 -1.5354 -0.7298
  237MPD1    H3 3602   1.600   0.773  14.477 -2.0615 -0.4251  0.2087
  237MPD1     N 3603   1.351   0.736  14.840 -0.1509 -0.6133  0.2044
  237MPD1    H5 3604   1.278   0.783  14.787 -0.0171  0.1344  0.6898
  237MPD1    N1 3605   1.802   0.559  14.811 -0.0519  0.3821 -0.6596
  237MPD1    H6 3606   1.869   0.532  14.739  1.1668  2.7847 -0.4217
  237MPD1    H7 3607   1.784   0.491  14.885 -3.0331  1.0527 -0.7963
  238MPD1     C 3608   3.665   3.807  15.297  0.4927  0.0787  0.5792
  238MPD1    C1 3609   3.724   3.913  15.360  0.0799  0.3184 -0.3471
  238MPD1    C2 3610   3.650   4.029  15.374  0.0420 -0.3082 -0.3992
  238MPD1    C3 3611   3.531   4.047  15.312 -0.4170  0.4024  0.5031
  238MPD1    C4 3612   3.482   3.945  15.239  0.1112  0.4721 -0.6367
  238MPD1    C5 3613   3.545   3.822  15.235  0.5846  0.0438  0.1916
  238MPD1     H 3614   3.689   4.115  15.427 -1.5440  1.3113 -1.8598
  238MPD1    H1 3615   3.395   3.966  15.178  0.5156  2.9802 -0.3530
  238MPD1    H2 3616   3.711   3.710  15.285 -0.3017 -0.0057 -1.8720
  238MPD1    H3 3617   3.513   3.740  15.171  1.4240  0.6112 -0.9540
  238MPD1     N 3618   3.461   4.170  15.310 -0.2891 -0.3593 -0.1195
  238MPD1    H5 3619   3.379   4.182  15.253 -1.7599  0.4150  2.1389
  238MPD1    N1 3620   3.844   3.908  15.428  0.0755 -0.4775  0.3603
  238MPD1    H6 3621   3.892   3.997  15.435  0.2476 -0.5591  0.2331
  238MPD1    H7 3622   3.916   3.840  15.404 -0.5748 -0.6700 -1.0462
  239MPD1     C 3623   4.208   0.652  14.969 -0.4344  0.2794  0.0351
  239MPD1    C1 3624   4.256   0.581  14.861  0.0455 -0.1523  0.8012
  239MPD1    C2 3625   4.208   0.611  14.735 -0.7137 -0.9396 -0.7129
  239MPD1    C3 3626   4.103   0.703  14.726 -0.1023  0.0575 -0.2578
  239MPD1    C4 3627   4.047   0.761  14.837  0.1384  0.0217 -0.5820
  239MPD1    C5 3628   4.108   0.741  14.958 -0.2076 -0.6720  0.2265
  239MPD1     H 3629   4.243   0.567  14.642 -1.4084 -1.3759 -0.7661
  239MPD1    H1 3630   3.959   0.823  14.833  0.0652 -0.1544 -1.7014
  239MPD1    H2 3631   4.238   0.634  15.071  1.8386 -0.1494 -0.7195
  239MPD1    H3 3632   4.058   0.776  15.047  1.3287 -1.9369  1.5725
  239MPD1     N 3633   4.047   0.754  14.606 -0.2718  0.7944 -0.6538
  239MPD1    H5 3634   3.966   0.813  14.623 -0.3557  0.1116  1.3771
  239MPD1    N1 3635   4.378   0.514  14.885  0.5806 -0.1588 -0.3729
  239MPD1    H6 3636   4.395   0.446  14.811 -2.1386  0.7828 -1.8553
  239MPD1    H7 3637   4.364   0.470  14.976 -0.2145  2.0642  0.5915
  240MPD1     C 3638   3.088   0.188  13.990 -0.3052  0.5538  0.3393
  240MPD1    C1 3639   3.066   0.051  14.004  0.6776 -0.3300  0.4972
  240MPD1    C2 3640   3.060   0.006  14.131 -1.1222 -0.7592 -0.2812
  240MPD1    C3 3641   3.077   0.085  14.250 -0.2999 -0.0663 -0.2389
  240MPD1    C4 3642   3.085   0.216  14.227 -0.6339 -0.2173 -0.2141
  240MPD1    C5 3643   3.075   0.268  14.102  1.4745  0.2972  0.4900
  240MPD1     H 3644   3.051   4.619  14.133  2.4050 -0.9736  2.5231
  240MPD1    H1 3645   3.087   0.296  14.300  0.8755 -1.0853  0.6987
  240MPD1    H2 3646   3.113   0.245  13.901  1.3823  0.3149  0.6494
  240MPD1    H3 3647   3.100   0.373  14.091 -1.1022  0.6469 -2.2302
  240MPD1     N 3648   3.068   0.026  14.379  0.0835 -0.0596 -0.3711
  240MPD1    H5 3649   3.042   4.649  14.381 -2.7952  0.7146  0.8715
  240MPD1    N1 3650   3.087   4.683  13.897 -0.3808  0.1283  0.0941
  240MPD1    H6 3651   3.048   4.592  13.920  1.5812 -0.6987  0.2066
  240MPD1    H7 3652   3.063   0.001  13.806  0.8256  0.0536 -0.2681
  241MPD1     C 3653   3.294   0.296  15.320 -0.2319 -0.0208  0.5565
  241MPD1    C1 3654   3.176   0.231  15.325  0.7761 -0.3824  0.3799
  241MPD1    C2 3655   3.115   0.183  15.210 -0.0388 -0.9095  0.1659
  241MPD1    C3 3656   3.180   0.206  15.094  0.2247 -1.1975  0.3632
  241MPD1    C4 3657   3.297   0.279  15.083 -0.1998  0.3533  0.8638
  241MPD1    C5 3658   3.355   0.319  15.202  0.0265 -0.5628  0.7467
  241MPD1     H 3659   3.019   0.134  15.210  0.0282 -1.0345 -2.6706
  241MPD1    H1 3660   3.349   0.293  14.989 -0.5081 -0.2733  0.5990
  241MPD1    H2 3661   3.341   0.341  15.407 -2.4800  1.6186  0.9346
  241MPD1    H3 3662   3.452   0.368  15.201 -0.9740  1.4324  0.5651
  241MPD1     N 3663   3.132   0.143  14.982 -0.7037  0.3239 -0.1607
  241MPD1    H5 3664   3.177   0.174  14.897 -0.2706  0.7942  0.2374
  241MPD1    N1 3665   3.104   0.222  15.445 -0.4046  0.4091  0.1928
  241MPD1    H6 3666   3.149   0.232  15.536 -0.7156  0.9274  0.2864
  241MPD1    H7 3667   3.041   0.142  15.439  0.6121 -0.4150  0.3844
  242MPD1     C 3668   3.292   4.107  15.725  0.7579 -0.3078  0.2431
  242MPD1    C1 3669   3.166   4.093  15.668 -0.1184 -0.0454 -0.1721
  242MPD1    C2 3670   3.157   3.991  15.581  0.1158  0.2471  0.2792
  242MPD1    C3 3671   3.259   3.902  15.544 -0.6857 -0.5986 -0.3817
  242MPD1    C4 3672   3.378   3.914  15.611 -0.4933 -0.0057  0.0381
  242MPD1    C5 3673   3.394   4.023  15.696 -0.3161  0.3847  0.2807
  242MPD1     H 3674   3.059   3.959  15.547  0.8639  0.0062 -1.6810
  242MPD1    H1 3675   3.458   3.843  15.592 -0.6312 -0.2349  0.3172
  242MPD1    H2 3676   3.314   4.186  15.796 -2.1863  0.4416  0.3219
  242MPD1    H3 3677   3.491   4.042  15.741  0.0049  0.1347 -0.3111
  242MPD1     N 3678   3.246   3.795  15.450  0.4198  0.0020 -0.4078
  242MPD1    H5 3679   3.323   3.730  15.455  0.3194 -0.2244 -2.0954
  242MPD1    N1 3680   3.053   4.159  15.717 -0.6617 -0.2620  0.1862
  242MPD1    H6 3681   2.986   4.184  15.645 -0.3344  0.3448  0.0964
  242MPD1    H7 3682   3.066   4.235  15.784 -1.9999 -2.0357  2.4874
  243MPD1     C 3683   0.797   1.861  16.820 -0.0186  0.1201  0.3722
  243MPD1    C1 3684   0.708   1.938  16.889  1.1887 -0.1178  0.7768
  243MPD1    C2 3685   0.582   1.959  16.843  0.0372 -0.3070 -0.1528
  243MPD1    C3 3686   0.534   1.902  16.725 -0.5522  0.0410 -0.2024
  243MPD1    C4 3687   0.631   1.832  16.648  0.8782 -0.1568 -0.0867
  243MPD1    C5 3688   0.762   1.813  16.696 -0.8390 -0.0873  0.8436
  243MPD1     H 3689   0.516   2.022  16.901  0.6455 -1.1658  1.4582
  243MPD1    H1 3690   0.601   1.783  16.556  1.4371  1.1171 -0.9342
  243MPD1    H2 3691   0.898   1.861  16.861 -0.2492 -1.6128  0.9316
  243MPD1    H3 3692   0.834   1.764  16.631 -3.2660 -4.5010  1.4240
  243MPD1     N 3693   0.399   1.920  16.683 -0.1092  0.5384  0.0883
  243MPD1    H5 3694   0.345   1.981  16.744 -0.1772  0.1629  0.4091
  243MPD1    N1 3695   0.749   1.983  17.014 -0.4447  0.0386 -0.9608
  243MPD1    H6 3696   0.694   2.059  17.052 -1.0808 -1.6584  1.4848
  243MPD1    H7 3697   0.840   2.027  17.004  0.0020 -0.0385  2.8886
  244MPD1     C 3698   4.594   2.073  17.262  0.4021 -0.4405 -0.2288
  244MPD1    C1 3699   4.715   2.135  17.226 -0.2868  0.4365 -0.1453
  244MPD1    C2 3700   0.034   2.111  17.096  0.5339  0.3396  0.6400
  244MPD1    C3 3701   4.666   2.065  16.995 -1.1734 -0.6563 -0.2216
  244MPD1    C4 3702   4.544   2.017  17.039  0.4729 -0.8049  0.6759
  244MPD1    C5 3703   4.509   2.015  17.166 -0.0102  0.1243  0.1116
  244MPD1     H 3704   0.129   2.152  17.063 -0.9469  1.0310 -2.7603
  244MPD1    H1 3705   4.464   1.985  16.973 -0.1195 -0.1215  1.0673
  244MPD1    H2 3706   4.552   2.071  17.362  1.8647  1.3057  0.4104
  244MPD1    H3 3707   4.415   1.969  17.195 -0.3525 -0.0436 -1.2912
  244MPD1     N 3708   4.708   2.066  16.864  0.0354 -0.7492  0.3060
  244MPD1    H5 3709   0.068   2.119  16.837  0.5971 -0.4402  2.6448
  244MPD1    N1 3710   0.074   2.192  17.324 -0.2619  1.1986 -0.2288
  244MPD1    H6 3711   0.016   2.250  17.385 -1.1443 -1.4964  1.5091
  244MPD1    H7 3712   0.162   2.232  17.293  0.4744 -1.1891 -1.1979
  245MPD1     C 3713   1.463   1.963  13.261 -0.5453 -0.3646  0.2498
  245MPD1    C1 3714   1.403   2.053  13.337  0.4332 -0.2089 -0.1802
  245MPD1    C2 3715   1.464   2.177  13.361 -0.0633  0.5614  0.0218
  245MPD1    C3 3716   1.578   2.209  13.292  0.3906 -0.0110 -0.7178
  245MPD1    C4 3717   1.640   2.118  13.211  0.6818  0.0638 -0.1740
  245MPD1    C5 3718   1.583   1.995  13.196 -0.3245  0.0537  0.7036
  245MPD1     H 3719   1.419   2.256  13.420 -1.5449 -0.3933  0.1580
  245MPD1    H1 3720   1.735   2.133  13.160  0.2713  0.4696 -0.8296
  245MPD1    H2 3721   1.421   1.864  13.250 -2.0634  0.2642  0.4079
  245MPD1    H3 3722   1.610   1.934  13.110 -2.5921 -0.7102  0.5337
  245MPD1     N 3723   1.652   2.326  13.333  0.4243  0.0814 -0.3691
  245MPD1    H5 3724   1.611   2.383  13.406  0.0042  0.3118 -0.7814
  245MPD1    N1 3725   1.294   2.020  13.417 -0.2953 -0.0558 -0.7302
  245MPD1    H6 3726   1.236   1.946  13.378  1.1640  0.9122 -4.7276
  245MPD1    H7 3727   1.229   2.097  13.432  1.7243  1.8895 -1.9113
  246MPD1     C 3728   1.785   2.009  10.211  0.1044 -0.4737  0.5158
  246MPD1    C1 3729   1.920   1.988  10.192 -0.1471  0.6182  0.1687
  246MPD1    C2 3730   1.952   1.918  10.073 -0.3057 -0.3093  0.1401
  246MPD1    C3 3731   1.851   1.878   9.991 -0.2929 -0.4165 -0.4189
  246MPD1    C4 3732   1.716   1.886  10.033 -0.0050  0.5825  0.2722
  246MPD1    C5 3733   1.680   1.948  10.148 -0.7365 -0.3472 -0.2510
  246MPD1     H 3734   2.057   1.912  10.048  0.1813 -0.2733  2.2113
  246MPD1    H1 3735   1.632   1.865   9.968  1.2327 -0.5235 -0.9443
  246MPD1    H2 3736   1.757   2.080  10.288  0.2786  1.3738 -1.1237
  246MPD1    H3 3737   1.580   1.979  10.174 -0.1401  1.6773 -0.3458
  246MPD1     N 3738   1.889   1.829   9.868  0.0220  0.4276  0.1791
  246MPD1    H5 3739   1.987   1.832   9.845  0.3817 -1.9180  1.3523
  246MPD1    N1 3740   2.023   2.060  10.259  0.1323  0.4458  0.3737
  246MPD1    H6 3741   2.006   2.062  10.360 -0.8408  0.6020  0.2016
  246MPD1    H7 3742   2.110   2.006  10.266  0.5858  1.0446 -0.7967
  247MPD1     C 3743   1.217   1.748  16.509  0.6866 -0.0615 -0.1260
  247MPD1    C1 3744   1.291   1.835  16.589  0.7798  0.2080  0.5629
  247MPD1    C2 3745   1.282   1.970  16.569  0.5876 -0.0117 -0.0406
  247MPD1    C3 3746   1.230   2.023  16.451 -0.3455  0.7011  0.1722
  247MPD1    C4 3747   1.170   1.938  16.365 -0.0239  0.3223  0.0821
  247MPD1    C5 3748   1.153   1.803  16.397 -0.4342  0.0482 -0.1941
  247MPD1     H 3749   1.332   2.038  16.636  1.5160 -0.7156 -0.0089
  247MPD1    H1 3750   1.124   1.977  16.275 -1.2826  0.5080  0.8067
  247MPD1    H2 3751   1.219   1.640  16.522 -2.7276  0.3473  3.7103
  247MPD1    H3 3752   1.104   1.735  16.327 -1.8547 -0.9320  1.7627
  247MPD1     N 3753   1.234   2.163  16.415  0.0605  0.1913  0.3116
  247MPD1    H5 3754   1.197   2.185  16.323 -2.3172  1.6962  1.6176
  247MPD1    N1 3755   1.350   1.772  16.701 -0.5530 -0.1824  0.4027
  247MPD1    H6 3756   1.431   1.812  16.748  1.6793 -1.9389 -1.9708
  247MPD1    H7 3757   1.371   1.675  16.681  1.1944  0.2688  0.0393
  248MPD1     C 3758   0.906   1.026   0.224 -0.5267 -0.5449 -0.1511
  248MPD1    C1 3759   1.044   1.020   0.221  0.1629  0.4423  0.0220
  248MPD1    C2 3760   1.117   1.141   0.256 -0.0049  0.0031  0.7548
  248MPD1    C3 3761   1.048   1.257   0.292 -0.1017 -0.1523  0.2979
  248MPD1    C4 3762   0.909   1.256   0.283 -0.0694  0.6716  0.6977
  248MPD1    C5 3763   0.844   1.137   0.258 -0.9212  0.4579 -0.0880
  248MPD1     H 3764   1.224   1.128   0.257  0.2041  1.6943 -1.1747
  248MPD1    H1 3765   0.844   1.343   0.288  1.0133  1.6750 -2.3767
  248MPD1    H2 3766   0.845   0.938   0.210 -0.4054 -1.0518  2.5458
  248MPD1    H3 3767   0.736   1.141   0.261 -0.9349 -0.3483  0.6466
  248MPD1     N 3768   1.115   1.380   0.319 -0.5259  0.1656  0.1849
  248MPD1    H5 3769   1.215   1.369   0.311 -0.9428 -0.4379 -4.2037
  248MPD1    N1 3770   1.103   0.915   0.158 -0.5481  0.0606 -0.7529
  248MPD1    H6 3771   1.197   0.898   0.195 -1.9454 -0.8911  2.3435
  248MPD1    H7 3772   1.047   0.830   0.168 -1.4666  0.7582 -0.0065
  249MPD1     C 3773   4.129   1.148   8.924  0.6163  0.4839  0.4858
  249MPD1    C1 3774   4.031   1.170   9.020 -0.3843 -0.4187  0.7918
  249MPD1    C2 3775   4.071   1.192   9.152 -0.4327  0.2562 -0.2415
  249MPD1    C3 3776   4.201   1.221   9.192  0.6548  0.7572 -0.1394
  249MPD1    C4 3777   4.296   1.214   9.088 -0.1833 -0.3753 -0.6801
  249MPD1    C5 3778   4.256   1.169   8.964  0.3132  0.0621  0.1774
  249MPD1     H 3779   4.000   1.180   9.233  0.8213 -1.0788  0.6488
  249MPD1    H1 3780   4.402   1.232   9.102 -0.5752  1.5772 -0.1506
  249MPD1    H2 3781   4.105   1.112   8.825  1.4670  1.3413 -0.0360
  249MPD1    H3 3782   4.340   1.156   8.897 -0.0737 -0.4120 -0.2082
  249MPD1     N 3783   4.230   1.241   9.334  0.2877  0.0581  0.0417
  249MPD1    H5 3784   4.148   1.231   9.393 -0.8135 -1.3248 -1.6976
  249MPD1    N1 3785   3.894   1.130   8.997 -1.0453 -0.2558  0.1044
  249MPD1    H6 3786   3.864   1.177   8.912  2.5023 -0.6423 -1.3081
  249MPD1    H7 3787   3.837   1.175   9.070  1.4613  1.6190  0.9179
  250MPD2     C 3788   0.145   0.909  13.242 -0.4129 -0.0073  0.0232
  250MPD2    C1 3789   0.159   0.975  13.119  0.0512 -0.2245 -0.3711
  250MPD2    C2 3790   0.096   0.916  13.006 -0.3983 -0.3447  0.5676
  250MPD2    C3 3791   0.028   0.795  13.015  0.2504  0.0990 -0.2923
  250MPD2    C4 3792   0.036   0.727  13.135  0.1631  0.7586 -0.2762
  250MPD2    C5 3793   0.077   0.790  13.249  0.5577 -0.5182  0.2400
  250MPD2     H 3794   0.101   0.969  12.911  1.1291  1.1938  1.5025
  250MPD2    H1 3795   4.715   0.627  13.143 -0.8016  1.2763  1.0049
  250MPD2    H2 3796   0.186   0.956  13.330 -0.4082 -1.2335  0.6733
  250MPD2    H3 3797   0.056   0.742  13.344  0.3902  0.5227  0.7335
  250MPD2     N 3798   4.704   0.730  12.900 -0.7378 -0.5036  0.1596
  250MPD2    H5 3799   4.681   0.632  12.913 -1.9518  0.0690  2.5220
  250MPD2    N1 3800   0.222   1.107  13.124  0.1254  0.4996  0.9371
  250MPD2    H7 3801   0.261   1.147  13.208  0.2507 -1.5416  1.8496
  251TMC3    C1 3802   0.318   1.305  13.030  1.1107  0.1929  0.0024
  251TMC3    C2 3803   0.255   1.372  13.138 -0.4176 -0.4970 -0.3514
  251TMC3    C3 3804   0.297   1.499  13.156 -0.9988  0.1524 -0.0508
  251TMC3    C4 3805   0.410   1.366  12.949 -0.3326  0.2493  0.3644
  251TMC3    C5 3806   0.461   1.491  12.982 -0.5513 -0.2997  0.1384
  251TMC3    C6 3807   0.404   1.555  13.084  0.3967 -0.2854 -0.6387
  251TMC3     C 3808   0.267   1.170  13.007 -0.5658 -0.1815 -0.3918
  251TMC3     O 3809   0.272   1.132  12.894 -0.3404  0.2525  0.1509
  251TMC3     H 3810   0.175   1.330  13.197  0.5870 -0.8041  0.7708
  251TMC3    H1 3811   0.461   1.310  12.872  0.6436  2.8458 -0.8978
  251TMC3    H2 3812   0.434   1.654  13.119  0.6462  0.0192 -1.7239
  251TMC3    C7 3813   0.594   1.532  12.928 -0.5458 -0.3815 -0.6838
  251TMC3    C8 3814   0.207   1.591  13.224  0.2809  0.3635 -0.7552
  251TMC3    O1 3815   0.666   1.440  12.894 -0.3481  0.3560  0.1966
  251TMC3    O2 3816   0.178   1.568  13.340 -0.0265  0.0265  0.1606
  252TMC3    C1 3817   0.709   1.527   8.921 -0.1137 -0.4735 -0.3307
  252TMC3    C2 3818   0.767   1.650   8.948  0.4600  0.6140 -0.1022
  252TMC3    C3 3819   0.702   1.753   8.987 -0.5227  0.3079  0.5763
  252TMC3    C4 3820   0.573   1.521   8.904 -0.6830  0.0696 -0.1440
  252TMC3    C5 3821   0.503   1.639   8.931 -0.3035  0.1159  0.1682
  252TMC3    C6 3822   0.566   1.759   8.965  0.6122  0.4398  0.4125
  252TMC3     C 3823   0.799   1.413   8.897  0.5262 -1.0364  0.2863
  252TMC3     O 3824   0.917   1.437   8.905 -0.3396 -0.4655 -0.1730
  252TMC3     H 3825   0.875   1.649   8.957  0.4753  4.2993  0.1335
  252TMC3    H1 3826   0.522   1.431   8.871  0.6594 -1.0610  0.8777
  252TMC3    H2 3827   0.508   1.848   8.989  2.2203  0.8995  2.5744
  252TMC3    C7 3828   0.356   1.639   8.938 -0.3488  0.4110  0.5483
  252TMC3    C8 3829   0.767   1.887   8.996 -0.4536  0.1764 -0.0544
  252TMC3    O1 3830   0.295   1.744   8.940 -0.2405 -0.2838  0.7763
  252TMC3    O2 3831   0.702   1.984   8.959 -0.0312 -0.7848 -0.1858
  253MPD2     C 3832   1.733   1.427  15.854 -0.3812 -0.6267 -0.2449
  253MPD2    C1 3833   1.623   1.352  15.825 -0.1795  0.1512 -0.9249
  253MPD2    C2 3834   1.614   1.225  15.880 -0.1381 -0.7524 -0.0901
  253MPD2    C3 3835   1.715   1.162  15.954 -0.4652  0.0668 -0.3838
  253MPD2    C4 3836   1.821   1.244  15.992 -0.2064 -0.0892 -0.0588
  253MPD2    C5 3837   1.833   1.371  15.936  0.2836 -0.2798 -0.0121
  253MPD2     H 3838   1.521   1.176  15.854  0.6704 -0.9180 -2.6908
  253MPD2    H1 3839   1.900   1.204  16.054 -0.1159 -0.3996 -0.3756
  253MPD2    H2 3840   1.760   1.517  15.799  2.1620 -1.0541  0.3378
  253MPD2    H3 3841   1.925   1.429  15.937  0.6757 -0.8894 -0.5940
  253MPD2     N 3842   1.696   1.037  16.013  0.0970  0.4394  0.1285
  253MPD2    H5 3843   1.766   1.020  16.085 -0.6215 -0.0981  0.7016
  253MPD2    N1 3844   1.512   1.404  15.757  0.3165  0.1168 -0.2947
  253MPD2    H7 3845   1.443   1.336  15.729  0.9767  0.0984 -1.8706
  254TMC3    C1 3846   1.550   0.904  16.127  0.0866  0.1786 -0.1770
  254TMC3    C2 3847   1.420   0.909  16.153 -0.3501  0.1592  0.1617
  254TMC3    C3 3848   1.372   0.885  16.281 -0.1975  0.1876  0.2363
  254TMC3    C4 3849   1.639   0.888  16.228  0.3240  0.2719 -0.5347
  254TMC3    C5 3850   1.588   0.864  16.355  0.1186 -0.3696  0.5995
  254TMC3    C6 3851   1.460   0.875  16.385  0.3606 -0.1374 -0.1849
  254TMC3     C 3852   1.585   0.958  15.998 -0.5114  0.4170 -0.3080
  254TMC3     O 3853   1.496   0.956  15.911 -0.5275 -0.6750  0.0484
  254TMC3     H 3854   1.345   0.907  16.074  0.4242  0.0148 -0.5698
  254TMC3    H1 3855   1.742   0.873  16.196  0.5458 -1.1747  0.8688
  254TMC3    H2 3856   1.425   0.868  16.488 -2.9857  0.4593 -1.3096
  254TMC3    C7 3857   1.671   0.835  16.474  1.1698 -0.1763 -0.1520
  254TMC3    C8 3858   1.232   0.912  16.318  0.2131  0.0417  0.5231
  254TMC3    O1 3859   1.616   0.857  16.583  0.4585 -0.0718  0.7988
  254TMC3    O2 3860   1.204   0.884  16.435 -0.1279  0.2875 -0.2436
  255MPD2     C 3861   0.048   2.989   9.794 -0.3730 -0.0617  1.0199
  255MPD2    C1 3862   0.102   3.105   9.840 -0.0952 -0.3634  0.1635
  255MPD2    C2 3863   0.199   3.098   9.936  0.0686  0.3148 -0.4403
  255MPD2    C3 3864   0.242   2.979   9.976 -1.0370  0.0128  0.0623
  255MPD2    C4 3865   0.194   2.859   9.918  0.0911 -0.8080  0.3756
  255MPD2    C5 3866   0.099   2.864   9.818 -0.3037 -0.0270  1.1685
  255MPD2     H 3867   0.254   3.186   9.967 -0.7066  0.4871  0.4488
  255MPD2    H1 3868   0.230   2.759   9.938 -0.1985 -1.0705 -0.3970
  255MPD2    H2 3869   4.689   2.995   9.721 -0.5561  0.6959  1.2820
  255MPD2    H3 3870   0.053   2.774   9.779 -1.6517  0.8146  0.7984
  255MPD2     N 3871   0.337   2.984  10.084  0.3594 -0.8069 -0.0298
  255MPD2    H5 3872   0.367   3.078  10.109  0.5107 -0.3832 -1.8077
  255MPD2    N1 3873   0.053   3.226   9.789  0.3004 -0.0113  0.0619
  255MPD2    H7 3874   4.695   3.223   9.725  0.1324 -0.6406  0.3032
  256TMC3    C1 3875   0.046   3.450   9.717  0.4458  0.4819 -0.2098
  256TMC3    C2 3876   0.071   3.585   9.747  0.4017  0.4820  0.0341
  256TMC3    C3 3877   0.044   3.682   9.651 -0.1501 -0.0112 -0.0767
  256TMC3    C4 3878   0.000   3.409   9.595  0.0391  0.0869  0.5617
  256TMC3    C5 3879   4.701   3.508   9.504 -0.0137  0.2298 -0.1921
  256TMC3    C6 3880   4.721   3.644   9.531  0.4359 -0.5238  0.3250
  256TMC3     C 3881   0.109   3.348   9.805  0.4335  0.0157 -0.1710
  256TMC3     O 3882   0.206   3.389   9.868 -0.1743  0.1587 -0.3408
  256TMC3     H 3883   0.137   3.616   9.827 -2.0470  0.7335  1.9641
  256TMC3    H1 3884   4.708   3.305   9.568  2.1746 -0.0441 -0.0037
  256TMC3    H2 3885   4.711   3.716   9.451  0.9218 -0.3616  0.4124
  256TMC3    C7 3886   4.640   3.468   9.383 -1.5884 -0.1127  0.0895
  256TMC3    C8 3887   0.092   3.813   9.672 -0.5933 -0.4744 -0.5654
  256TMC3    O1 3888   4.660   3.356   9.349  0.2533 -0.1541  0.2269
  256TMC3    O2 3889   0.088   3.863   9.786 -0.0651 -0.0276  0.1322
  257MPD2     C 3890   3.793   1.369  13.112 -0.4197  0.8054 -0.0549
  257MPD2    C1 3891   3.765   1.250  13.052 -0.3413 -0.7425  0.0007
  257MPD2    C2 3892   3.733   1.141  13.132 -0.1872  0.4795  0.5092
  257MPD2    C3 3893   3.720   1.163  13.268  0.1051 -0.8150 -0.0617
  257MPD2    C4 3894   3.739   1.288  13.323 -0.5257 -0.2852 -0.6613
  257MPD2    C5 3895   3.774   1.387  13.242  0.2780 -0.0238 -0.2575
  257MPD2     H 3896   3.709   1.044  13.090 -0.2304  1.0281 -0.7195
  257MPD2    H1 3897   3.727   1.298  13.431 -0.0479 -1.6784 -0.4804
  257MPD2    H2 3898   3.835   1.454  13.060 -1.9868  0.7407 -1.4250
  257MPD2    H3 3899   3.772   1.491  13.272  0.4615  0.1164 -0.7226
  257MPD2     N 3900   3.673   1.059  13.345  0.9595 -0.4132  0.5631
  257MPD2    H5 3901   3.656   0.975  13.291 -2.2017  1.0432 -0.6598
  257MPD2    N1 3902   3.767   1.253  12.905  1.0876 -0.4934  0.3404
  257MPD2    H7 3903   3.780   1.339  12.853  1.2580 -1.1744 -0.7346
  258TMC3    C1 3904   3.616   0.914  13.527 -0.1820 -0.3027  0.2054
  258TMC3    C2 3905   3.615   0.804  13.437  0.8253 -0.3028 -0.0054
  258TMC3    C3 3906   3.602   0.678  13.489  0.6335 -0.2829  0.7446
  258TMC3    C4 3907   3.618   0.889  13.663  0.4604  0.1180 -0.1927
  258TMC3    C5 3908   3.614   0.761  13.710  0.6459  0.0668  0.1649
  258TMC3    C6 3909   3.597   0.660  13.620 -0.2587  1.0534 -0.7826
  258TMC3     C 3910   3.642   1.050  13.481  0.2444 -0.1458  0.3356
  258TMC3     O 3911   3.632   1.140  13.567  0.3427  0.2326 -0.0961
  258TMC3     H 3912   3.604   0.801  13.330 -1.2042  0.8446  0.1834
  258TMC3    H1 3913   3.624   0.965  13.739 -1.8686 -1.7999  1.9406
  258TMC3    H2 3914   3.572   0.560  13.653  1.3637  0.6865 -0.6301
  258TMC3    C7 3915   3.616   0.743  13.858 -0.6194  0.0505  0.6110
  258TMC3    C8 3916   3.497   0.606  13.423 -0.1310 -0.7871 -0.9520
  258TMC3    O1 3917   3.563   0.834  13.915 -0.4878 -0.7449  0.3895
  258TMC3    O2 3918   3.393   0.596  13.484 -0.2208 -0.3291  0.4709
  259MPD2     C 3919   3.008   2.850   1.027  0.3009  0.0630 -0.0474
  259MPD2    C1 3920   3.034   2.721   1.060 -0.8161 -0.0419  0.1690
  259MPD2    C2 3921   3.136   2.662   0.987 -0.6215 -0.1451 -0.1273
  259MPD2    C3 3922   3.211   2.734   0.891  0.4248  0.3272  0.1537
  259MPD2    C4 3923   3.188   2.860   0.865  0.0194  0.6153  0.0108
  259MPD2    C5 3924   3.092   2.918   0.941  0.8291  0.5227 -0.1603
  259MPD2     H 3925   3.169   2.561   1.010  1.1999  0.1051 -1.6009
  259MPD2    H1 3926   3.241   2.925   0.796 -0.1234 -0.3584 -0.9915
  259MPD2    H2 3927   2.928   2.903   1.078 -1.5888 -1.9985 -0.9092
  259MPD2    H3 3928   3.061   3.021   0.928  1.1607  0.7078  0.5277
  259MPD2     N 3929   3.316   2.657   0.828  0.5697  0.3357 -0.5096
  259MPD2    H5 3930   3.307   2.558   0.852  2.3156  0.5837  1.0980
  259MPD2    N1 3931   2.955   2.668   1.164 -0.0922 -0.2005  0.2821
  259MPD2    H7 3932   2.880   2.726   1.199  0.5906  1.4580 -1.0360
  260TMC3    C1 3933   3.468   2.593   0.656  0.1929  0.9737  0.6880
  260TMC3    C2 3934   3.589   2.629   0.602  0.1201 -0.4257 -0.3823
  260TMC3    C3 3935   3.644   2.530   0.514  0.8941  0.9399 -0.2269
  260TMC3    C4 3936   3.403   2.482   0.624  0.3419  0.1704 -0.1429
  260TMC3    C5 3937   3.457   2.387   0.537 -0.0821  0.1198  0.6966
  260TMC3    C6 3938   3.575   2.418   0.475 -0.2491  0.0977  0.9118
  260TMC3     C 3939   3.395   2.697   0.728 -0.2537  0.0928  0.6665
  260TMC3     O 3940   3.426   2.809   0.702 -0.2817  0.4114  0.0618
  260TMC3     H 3941   3.643   2.717   0.635 -1.0475 -0.1127  0.6941
  260TMC3    H1 3942   3.300   2.464   0.653  0.8634 -0.8801  1.0987
  260TMC3    H2 3943   3.609   2.355   0.394 -2.5298 -0.0771  0.0988
  260TMC3    C7 3944   3.381   2.279   0.488  0.2548  0.7189 -0.6291
  260TMC3    C8 3945   3.778   2.558   0.468  0.4618  0.3060 -0.6135
  260TMC3    O1 3946   3.423   2.218   0.392  0.4285 -0.3525  0.5077
  260TMC3    O2 3947   3.822   2.670   0.486 -0.1359  0.2879 -0.4466
  261MPD2     C 3948   4.227   0.765  12.163  0.6169  0.1663 -0.2777
  261MPD2    C1 3949   4.323   0.843  12.224  0.0784  0.4083 -0.4155
  261MPD2    C2 3950   4.327   0.970  12.193  0.0026  0.5181  0.1802
  261MPD2    C3 3951   4.255   1.028  12.094 -0.5020 -0.1612  0.0755
  261MPD2    C4 3952   4.166   0.951  12.030  0.3850  0.1426 -0.1603
  261MPD2    C5 3953   4.151   0.821  12.062 -0.7825  0.1053  0.1935
  261MPD2     H 3954   4.414   1.023  12.231 -0.7420  1.3050  0.8082
  261MPD2    H1 3955   4.096   0.985  11.955  0.4429  0.0831 -0.2412
  261MPD2    H2 3956   4.230   0.659  12.183 -0.2035 -0.3334 -2.7892
  261MPD2    H3 3957   4.082   0.764  12.001 -0.5666 -0.4608  0.4781
  261MPD2     N 3958   4.274   1.168  12.067 -0.1677  0.6917 -0.1856
  261MPD2    H5 3959   4.330   1.223  12.131  1.9038  0.3224 -1.6802
  261MPD2    N1 3960   4.414   0.809  12.329  0.2551 -0.3710  0.1202
  261MPD2    H7 3961   4.477   0.884  12.359 -0.6867  0.7512 -0.7148
  262TMC3    C1 3962   4.262   1.384  11.966 -0.1188 -0.5374 -0.6722
  262TMC3    C2 3963   4.212   1.461  11.868 -0.3674 -0.2169 -0.2479
  262TMC3    C3 3964   4.286   1.575  11.833  0.3157  0.0360 -0.7171
  262TMC3    C4 3965   4.379   1.419  12.029  0.3283  0.2949 -1.0813
  262TMC3    C5 3966   4.440   1.539  12.011 -0.4198 -0.0458 -0.9151
  262TMC3    C6 3967   4.394   1.619  11.910 -0.1194  0.9363  0.0555
  262TMC3     C 3968   4.207   1.244  11.974 -0.4265 -0.1310 -0.2076
  262TMC3     O 3969   4.112   1.209  11.901 -0.4786 -0.2646  0.1127
  262TMC3     H 3970   4.125   1.436  11.809 -0.7380 -0.4007  0.3863
  262TMC3    H1 3971   4.430   1.352  12.097 -1.1686  0.3795  0.1289
  262TMC3    H2 3972   4.449   1.704  11.873  1.0633  0.3672  0.5134
  262TMC3    C7 3973   4.581   1.523  12.004 -0.3181  0.1395 -1.7105
  262TMC3    C8 3974   4.276   1.627  11.695  0.0251 -0.0556  0.0260
  262TMC3    O1 3975   4.640   1.473  12.097 -0.3401 -0.1778  0.1187
  262TMC3    O2 3976   4.272   1.752  11.684  0.3426  0.3439 -0.6039
  263MPD2     C 3977   0.889   4.309  10.689 -0.2275 -0.2834 -0.1202
  263MPD2    C1 3978   0.900   4.430  10.757  1.2024 -0.2086 -0.0769
  263MPD2    C2 3979   0.909   4.550  10.686 -0.1633  0.9234 -0.8930
  263MPD2    C3 3980   0.919   4.545  10.551 -0.5583  0.6091  1.1156
  263MPD2    C4 3981   0.931   4.423  10.482 -0.9028 -0.2837 -0.2481
  263MPD2    C5 3982   0.903   4.305  10.556 -0.7082 -0.4823  0.0036
  263MPD2     H 3983   0.916   4.646  10.736  0.9072  0.3063  0.1533
  263MPD2    H1 3984   0.944   4.413  10.375  2.4467 -0.2928  0.1633
  263MPD2    H2 3985   0.878   4.221  10.751 -0.1326  0.7765  1.4198
  263MPD2    H3 3986   0.907   4.214  10.498  0.5685 -1.2871  1.3351
  263MPD2     N 3987   0.957   4.671  10.490 -0.2617 -0.1674 -0.7854
  263MPD2    H5 3988   0.969   0.032  10.549 -0.9005  0.0018 -0.8902
  263MPD2    N1 3989   0.881   4.428  10.896  0.8779  0.0811  0.3866
  263MPD2    H7 3990   0.875   4.335  10.938  1.3956  0.6423  1.6923
  264TMC3    C1 3991   1.059   0.088  10.350  0.2563 -0.2100 -0.2939
  264TMC3    C2 3992   0.995   0.199  10.396 -0.1670  0.4695 -0.6792
  264TMC3    C3 3993   1.059   0.314  10.361 -0.0052  0.2419 -0.0314
  264TMC3    C4 3994   1.182   0.086  10.298  0.2469 -0.4348 -0.1003
  264TMC3    C5 3995   1.240   0.206  10.275  0.6568  0.4749 -0.4267
  264TMC3    C6 3996   1.172   0.320  10.293  0.3256  0.0746 -0.5300
  264TMC3     C 3997   1.005   4.683  10.365 -0.0404  0.1945  0.0972
  264TMC3     O 3998   1.017   4.601  10.274 -0.0205  0.5773 -0.1461
  264TMC3     H 3999   0.893   0.196  10.434  1.2180 -1.8846  2.8319
  264TMC3    H1 4000   1.241   4.719  10.280 -0.1350 -0.6582 -0.2642
  264TMC3    H2 4001   1.222   0.416  10.294  0.4765 -0.0108 -0.0955
  264TMC3    C7 4002   1.389   0.205  10.262 -0.2189  0.4406 -0.3871
  264TMC3    C8 4003   1.026   0.429  10.438 -0.9116  0.9925 -0.0569
  264TMC3    O1 4004   1.452   0.112  10.213  0.2059  0.2459 -0.6818
  264TMC3    O2 4005   1.082   0.533  10.397 -0.3018 -0.6095 -0.0000
  265MPD2     C 4006   2.731   1.008  15.585 -0.0959  0.5871  0.4834
  265MPD2    C1 4007   2.765   1.116  15.509  0.1046  0.1538  0.2197
  265MPD2    C2 4008   2.826   1.093  15.392  0.6045  0.3249 -0.0296
  265MPD2    C3 4009   2.855   0.963  15.351 -0.4899 -0.0883 -0.4537
  265MPD2    C4 4010   2.810   0.856  15.428 -0.2199  0.7354  0.4637
  265MPD2    C5 4011   2.747   0.879  15.549  0.1196 -0.4752  0.4096
  265MPD2     H 4012   2.859   1.176  15.331  3.7777  0.1677  1.4484
  265MPD2    H1 4013   2.823   0.754  15.395 -0.1011  1.1634 -0.8170
  265MPD2    H2 4014   2.685   1.026  15.682 -0.8113 -0.2193  0.2826
  265MPD2    H3 4015   2.720   0.794  15.609 -1.5916  2.1269  3.3127
  265MPD2     N 4016   2.913   0.939  15.222 -0.4409 -0.5716 -0.3867
  265MPD2    H5 4017   2.915   0.844  15.185  1.9123  0.1288 -2.0686
  265MPD2    N1 4018   2.743   1.247  15.539  0.3291 -0.7958 -0.3435
  265MPD2    H7 4019   2.765   1.318  15.470 -3.0675  1.4696  0.8746
  266TMC3    C1 4020   2.645   1.419  15.658  0.4556 -0.2773  0.2440
  266TMC3    C2 4021   2.605   1.471  15.782  0.7519 -0.0270 -0.1073
  266TMC3    C3 4022   2.548   1.592  15.780  0.1460  0.4255 -0.2485
  266TMC3    C4 4023   2.628   1.490  15.541  0.4287 -0.0627  0.0535
  266TMC3    C5 4024   2.575   1.615  15.551 -0.2919  0.1273 -0.4364
  266TMC3    C6 4025   2.519   1.666  15.668 -0.1777 -1.0362  0.3527
  266TMC3     C 4026   2.701   1.288  15.666 -0.7388 -0.8341 -1.1990
  266TMC3     O 4027   2.685   1.223  15.768  0.2827  0.4517 -0.0638
  266TMC3     H 4028   2.619   1.412  15.872 -0.4256  0.6994  0.5406
  266TMC3    H1 4029   2.658   1.451  15.445 -1.1950 -1.1840  0.0014
  266TMC3    H2 4030   2.467   1.760  15.668  0.6491 -0.5752  0.8386
  266TMC3    C7 4031   2.517   1.647  15.427 -0.4336  0.1947  0.3583
  266TMC3    C8 4032   2.464   1.615  15.891  0.2248 -0.8045  0.0333
  266TMC3    O1 4033   2.565   1.605  15.322 -0.6029 -0.3444  0.3645
  266TMC3    O2 4034   2.421   1.516  15.944  0.1796  0.0459  1.0015
  267MPD2     C 4035   4.536   2.210  17.672 -0.7563 -0.4348  0.1073
  267MPD2    C1 4036   4.641   2.301  17.661  0.2332  0.3102 -0.3407
  267MPD2    C2 4037   4.642   2.385  17.553 -0.2610 -0.3007  0.2027
  267MPD2    C3 4038   4.548   2.372  17.453  0.1958 -0.3649  0.7967
  267MPD2    C4 4039   4.435   2.287  17.472 -0.3447 -0.1338  0.1257
  267MPD2    C5 4040   4.434   2.203  17.578 -0.1266 -0.0146  0.4554
  267MPD2     H 4041   0.006   2.451  17.539 -1.9015  1.3827 -1.9465
  267MPD2    H1 4042   4.372   2.262  17.388 -1.2443 -1.1223  1.1118
  267MPD2    H2 4043   4.541   2.131   0.057 -0.8972 -0.8483 -0.3205
  267MPD2    H3 4044   4.357   2.127  17.585 -0.4261  0.1094 -1.3678
  267MPD2     N 4045   4.553   2.443  17.333 -0.2979 -0.0726  0.5369
  267MPD2    H5 4046   4.487   2.421  17.259  0.7378  0.2366 -0.4760
  267MPD2    N1 4047   0.021   2.296   0.070  0.0613  0.4480  0.0711
  267MPD2    H7 4048   0.022   2.221   0.139 -0.3140 -0.1499 -0.5801
  268TMC3    C1 4049   0.235   2.347   0.168 -0.1140 -0.6402  0.4612
  268TMC3    C2 4050   0.352   2.399   0.137 -1.3863  0.3506 -0.2506
  268TMC3    C3 4051   0.437   2.424   0.243  0.0677 -0.0451  0.1048
  268TMC3    C4 4052   0.197   2.322   0.297  0.5243  0.2442  0.6286
  268TMC3    C5 4053   0.280   2.342   0.395 -0.2628  0.0896 -0.1213
  268TMC3    C6 4054   0.391   2.411   0.373  0.4723  0.0843 -0.5370
  268TMC3     C 4055   0.133   2.375   0.071 -0.3371 -1.1532 -0.2037
  268TMC3     O 4056   0.152   2.471  17.685 -0.3300  0.3275 -0.3726
  268TMC3     H 4057   0.372   2.425   0.034 -0.9115 -2.2600 -0.7964
  268TMC3    H1 4058   0.104   2.267   0.310 -0.4008  1.6269 -0.1918
  268TMC3    H2 4059   0.457   2.436   0.456  0.0312 -2.8243  0.6705
  268TMC3    C7 4060   0.261   2.264   0.514  0.5111 -0.1411  0.1164
  268TMC3    C8 4061   0.563   2.470   0.197 -0.9718 -0.0217  0.7194
  268TMC3    O1 4062   0.356   2.280   0.593 -0.0555 -0.0955  0.3211
  268TMC3    O2 4063   0.592   2.435   0.082 -0.3344  0.2987 -0.0237
  269MPD2     C 4064   0.452   1.289  15.949  0.0943 -0.0072 -0.1205
  269MPD2    C1 4065   0.320   1.336  15.955 -0.4961  0.4378  0.2922
  269MPD2    C2 4066   0.303   1.470  15.917 -0.4449  0.9246 -0.0878
  269MPD2    C3 4067   0.417   1.544  15.872  0.3493 -0.0752  0.2866
  269MPD2    C4 4068   0.543   1.499  15.888  0.3147 -0.9124 -0.5591
  269MPD2    C5 4069   0.559   1.370  15.926 -0.2792  0.6049  0.1816
  269MPD2     H 4070   0.209   1.524  15.919 -0.1508  1.4295  0.2727
  269MPD2    H1 4071   0.625   1.563  15.858 -0.9484  1.3276  0.7732
  269MPD2    H2 4072   0.479   1.186  15.966  0.5339  0.3338  1.2296
  269MPD2    H3 4073   0.660   1.333  15.938 -0.0769  0.0470 -3.1435
  269MPD2     N 4074   0.389   1.673  15.821 -0.1598  0.0604  0.6352
  269MPD2    H5 4075   0.292   1.701  15.831 -1.5074 -4.3812  0.3211
  269MPD2    N1 4076   0.225   1.248  16.007 -0.5047 -0.5055 -1.1689
  269MPD2    H7 4077   0.246   1.149  16.013  1.4221 -0.1787 -2.6030
  270TMC3    C1 4078   0.006   1.172  16.046  0.9909 -0.2619  0.0296
  270TMC3    C2 4079   4.615   1.181  15.976 -0.4790  0.2007 -0.6254
  270TMC3    C3 4080   4.557   1.064  15.944  0.1347  0.0215  0.3187
  270TMC3    C4 4081   0.057   1.056  16.095 -0.0220 -0.5802  0.3080
  270TMC3    C5 4082   4.706   0.942  16.075  1.1497  0.1790  0.4119
  270TMC3    C6 4083   4.602   0.942  15.979  0.2996 -0.8801  0.7599
  270TMC3     C 4084   0.094   1.286  16.018 -0.5910 -0.1471  0.3838
  270TMC3     O 4085   0.041   1.397  16.022  0.0747  0.4597 -0.3136
  270TMC3     H 4086   4.581   1.269  15.923  0.3856  1.5632  1.0674
  270TMC3    H1 4087   0.143   1.051  16.160 -1.1118 -0.7376  1.7316
  270TMC3    H2 4088   4.547   0.858  15.940  2.1662 -1.2796 -1.0495
  270TMC3    C7 4089   0.061   0.819  16.066  0.0356  0.3717  0.9128
  270TMC3    C8 4090   4.489   1.068  15.815 -0.3976  1.2424  0.2909
  270TMC3    O1 4091   0.182   0.829  16.059  0.1503 -0.9722 -0.0581
  270TMC3    O2 4092   4.379   1.118  15.825 -0.0889 -0.0353  0.5520
  271MPD2     C 4093   4.315   0.981  13.998 -0.5701  0.9824 -0.2663
  271MPD2    C1 4094   4.258   1.026  14.111 -0.3475  0.2455  0.0406
  271MPD2    C2 4095   4.147   1.109  14.114  0.2196  0.0632 -0.7556
  271MPD2    C3 4096   4.093   1.157  13.995 -1.3429  0.5858 -0.3140
  271MPD2    C4 4097   4.156   1.120  13.876 -0.2000 -0.3784 -0.1046
  271MPD2    C5 4098   4.269   1.043  13.880  0.0344  0.2695  0.4045
  271MPD2     H 4099   4.104   1.133  14.211  0.9622 -1.7145  0.0214
  271MPD2    H1 4100   4.115   1.162  13.785 -2.1978 -1.6138  0.2148
  271MPD2    H2 4101   4.411   0.931  13.992 -0.8532 -0.0001  3.0266
  271MPD2    H3 4102   4.314   1.016  13.785  0.8985 -2.5869  1.6209
  271MPD2     N 4103   3.977   1.226  13.979 -0.1175  0.7842 -0.0742
  271MPD2    H5 4104   3.959   1.239  13.880  0.2172  0.8772 -0.1222
  271MPD2    N1 4105   4.310   0.994  14.239  0.4422  0.5587 -0.1562
  271MPD2    H7 4106   4.263   1.029  14.322 -0.4648 -0.4850 -0.2320
  272TMC3    C1 4107   4.430   0.881  14.400  0.5840  0.7456  0.2494
  272TMC3    C2 4108   4.496   0.770  14.427 -0.1352  0.5445  0.7400
  272TMC3    C3 4109   4.519   0.735  14.556 -0.0991  0.0006 -1.0080
  272TMC3    C4 4110   4.373   0.956  14.502 -0.0693 -0.3037  0.4054
  272TMC3    C5 4111   4.402   0.920  14.631  0.1326  1.1154 -0.1555
  272TMC3    C6 4112   4.485   0.816  14.661 -0.5646 -0.3052 -0.5799
  272TMC3     C 4113   4.414   0.910  14.257 -0.8604 -0.1596  0.5945
  272TMC3     O 4114   4.485   0.841  14.184  0.0605  0.2579  0.4357
  272TMC3     H 4115   4.533   0.710  14.345 -0.0002 -1.0048  1.9376
  272TMC3    H1 4116   4.319   1.048  14.486  0.7750 -0.0996 -1.2749
  272TMC3    H2 4117   4.509   0.790  14.763 -0.2439  0.9498 -0.3272
  272TMC3    C7 4118   4.338   0.976  14.745  0.2141 -0.2373 -0.7686
  272TMC3    C8 4119   4.622   0.638  14.579  0.1563  0.2800  0.5923
  272TMC3    O1 4120   4.226   1.022  14.722  0.2180 -0.0020  0.2087
  272TMC3    O2 4121   4.687   0.606  14.480  0.3641  0.1939 -0.2260
  273MPD2     C 4122   1.090   3.028  11.306 -0.3445 -0.1406 -0.6383
  273MPD2    C1 4123   1.095   3.155  11.363 -0.1623 -0.2621  0.0412
  273MPD2    C2 4124   1.138   3.259  11.284  0.9121  0.2555 -0.0669
  273MPD2    C3 4125   1.168   3.229  11.144  1.1382 -0.4853  0.6818
  273MPD2    C4 4126   1.159   3.105  11.087 -0.2555  0.2267 -0.1562
  273MPD2    C5 4127   1.118   3.010  11.171  0.2589 -0.4225 -0.2030
  273MPD2     H 4128   1.164   3.354  11.329 -1.1148 -0.1521  1.9832
  273MPD2    H1 4129   1.199   3.078  10.990 -1.9451 -2.5120 -0.1186
  273MPD2    H2 4130   1.061   2.941  11.365  0.3339 -0.1071 -0.2545
  273MPD2    H3 4131   1.092   2.919  11.117  0.3735 -0.4257 -0.2529
  273MPD2     N 4132   1.216   3.337  11.056  0.4174  0.0016 -0.2351
  273MPD2    H5 4133   1.251   3.303  10.968  2.5200  2.4614 -0.3364
  273MPD2    N1 4134   1.070   3.171  11.508  0.3819 -0.2541 -0.1567
  273MPD2    H7 4135   1.080   3.094  11.573  1.0982  0.8220  1.0150
  274TMC3    C1 4136   1.334   3.532  11.005  0.1048 -0.2672  0.6334
  274TMC3    C2 4137   1.296   3.540  10.869 -0.1196 -0.1790  0.2316
  274TMC3    C3 4138   1.360   3.638  10.805 -0.1890 -0.1973  0.6402
  274TMC3    C4 4139   1.415   3.616  11.066 -0.2970 -0.2800  0.0005
  274TMC3    C5 4140   1.470   3.720  10.993  0.8284  0.0116 -0.5337
  274TMC3    C6 4141   1.453   3.720  10.854  0.2798  0.0616  0.2106
  274TMC3     C 4142   1.239   3.469  11.090 -0.6463  1.1215  0.0512
  274TMC3     O 4143   1.192   3.527  11.186  0.0649  0.0591 -0.6140
  274TMC3     H 4144   1.217   3.474  10.835 -0.0929  0.4358 -1.0539
  274TMC3    H1 4145   1.429   3.608  11.173  3.7013  1.6174 -0.3906
  274TMC3    H2 4146   1.461   3.815  10.803 -0.7583  0.7090  1.2690
  274TMC3    C7 4147   1.481   3.853  11.058 -0.1247 -0.1739  0.1765
  274TMC3    C8 4148   1.289   3.683  10.690 -0.2139  0.3031  0.4968
  274TMC3    O1 4149   1.469   3.954  10.987  0.1505  0.3333  0.3388
  274TMC3    O2 4150   1.180   3.627  10.670  0.1365 -0.3192  0.5118
  275MPD2     C 4151   1.238   1.790  14.487 -0.7666  1.5272  0.5893
  275MPD2    C1 4152   1.175   1.854  14.594  0.2725 -0.5260 -0.1964
  275MPD2    C2 4153   1.060   1.806  14.641 -1.0521  0.7362 -0.4693
  275MPD2    C3 4154   1.005   1.691  14.591  0.0043  0.7772  0.6547
  275MPD2    C4 4155   1.072   1.627  14.489  0.7039 -0.5708 -0.4500
  275MPD2    C5 4156   1.187   1.675  14.430 -0.3885 -0.6554 -0.0415
  275MPD2     H 4157   1.009   1.871  14.711 -1.1940 -0.0932  0.1989
  275MPD2    H1 4158   1.032   1.530  14.460  1.0270 -0.9394  0.3233
  275MPD2    H2 4159   1.323   1.846  14.448  0.7422 -0.3697  1.1571
  275MPD2    H3 4160   1.227   1.625  14.343 -1.0814 -0.0021 -0.7442
  275MPD2     N 4161   0.867   1.654  14.615  0.4151  0.2828  0.1229
  275MPD2    H5 4162   0.832   1.562  14.591  0.3883  0.4550 -0.4897
  275MPD2    N1 4163   1.219   1.971  14.656 -0.1162  0.2260 -0.1679
  275MPD2    H7 4164   1.194   1.993  14.752  0.5195  2.9426 -0.6359
  276TMC3    C1 4165   1.325   2.164  14.713 -0.3931  0.4593  0.5844
  276TMC3    C2 4166   1.202   2.184  14.778  0.1857 -0.9970  0.1705
  276TMC3    C3 4167   1.209   2.198  14.914  0.2223  0.3189  0.0314
  276TMC3    C4 4168   1.442   2.178  14.780 -0.4138 -0.3229 -0.1486
  276TMC3    C5 4169   1.442   2.204  14.918 -0.3043  0.6198  0.1266
  276TMC3    C6 4170   1.326   2.214  14.988  0.0757 -0.0637 -0.3244
  276TMC3     C 4171   1.317   2.056  14.611 -0.2048  0.2666  0.0694
  276TMC3     O 4172   1.389   2.052  14.512 -0.1570  0.0352 -0.7126
  276TMC3     H 4173   1.114   2.172  14.715 -0.8759  1.8792  1.0679
  276TMC3    H1 4174   1.535   2.175  14.725  0.1922 -1.4956  0.9482
  276TMC3    H2 4175   1.323   2.251  15.089  2.0217  3.8943 -1.7016
  276TMC3    C7 4176   1.560   2.254  14.979 -0.4550  0.0097 -0.1144
  276TMC3    C8 4177   1.086   2.167  14.986  0.8694  0.1005  0.0464
  276TMC3    O1 4178   1.561   2.265  15.103  0.7645  0.1439 -0.3785
  276TMC3    O2 4179   0.989   2.165  14.920  0.5768  0.3801 -0.4472
  277MPD2     C 4180   2.736   0.995  13.280 -0.2590 -0.8919 -0.3271
  277MPD2    C1 4181   2.632   1.080  13.316  0.0161 -0.4179  0.2973
  277MPD2    C2 4182   2.579   1.062  13.443  0.0842  0.1913 -0.8057
  277MPD2    C3 4183   2.618   0.961  13.529 -0.0418 -0.0808 -0.0523
  277MPD2    C4 4184   2.729   0.885  13.491 -0.4396  0.2067 -0.3038
  277MPD2    C5 4185   2.786   0.901  13.366  0.0314 -0.1727  0.2442
  277MPD2     H 4186   2.497   1.117  13.487  1.7483  3.2120 -1.4528
  277MPD2    H1 4187   2.781   0.815  13.556  0.6149 -0.5618 -1.9656
  277MPD2    H2 4188   2.787   1.007  13.185 -2.7608  1.1686 -1.3768
  277MPD2    H3 4189   2.874   0.842  13.345 -0.9175 -0.7646 -2.0044
  277MPD2     N 4190   2.558   0.939  13.651 -0.5880  0.1355  0.2474
  277MPD2    H5 4191   2.503   1.019  13.682 -2.3995 -1.2113  0.5485
  277MPD2    N1 4192   2.591   1.175  13.223  0.4545 -0.7160 -0.2382
  277MPD2    H7 4193   2.643   1.177  13.135 -1.6743  0.1438 -1.4822
  278TMC3    C1 4194   2.492   0.830  13.857 -1.1684  0.1539 -0.8484
  278TMC3    C2 4195   2.530   0.731  13.949  0.4793  0.1824  0.3871
  278TMC3    C3 4196   2.467   0.744  14.070  0.0983  0.3206 -0.2575
  278TMC3    C4 4197   2.401   0.929  13.887  0.0165 -1.0613  0.4713
  278TMC3    C5 4198   2.351   0.930  14.013 -0.1033  0.4578  0.5317
  278TMC3    C6 4199   2.391   0.849  14.112  0.0852  0.4418 -0.0820
  278TMC3     C 4200   2.565   0.826  13.730  0.2176  0.0740  0.3191
  278TMC3     O 4201   2.619   0.717  13.719 -0.0226  0.0936  0.3098
  278TMC3     H 4202   2.613   0.664  13.930 -0.5708 -0.8130 -0.6636
  278TMC3    H1 4203   2.358   1.002  13.819 -0.7527 -0.1911  1.8984
  278TMC3    H2 4204   2.357   0.854  14.215  0.8481 -2.1212  0.2691
  278TMC3    C7 4205   2.291   1.056  14.053  0.4278  0.1426 -0.2714
  278TMC3    C8 4206   2.528   0.661  14.168 -0.3684  0.4677  0.1358
  278TMC3    O1 4207   2.365   1.150  14.025 -0.3692 -0.1463  0.1934
  278TMC3    O2 4208   2.575   0.711  14.269  0.3472 -0.1477  0.1620
  279MPD2     C 4209   2.301   1.573   0.479  0.9729  0.8349  0.2229
  279MPD2    C1 4210   2.228   1.484   0.414 -0.1405  0.8267  0.2101
  279MPD2    C2 4211   2.163   1.521   0.300  0.4250  0.5617  0.5480
  279MPD2    C3 4212   2.177   1.649   0.248 -0.1445 -0.3155  0.6690
  279MPD2    C4 4213   2.241   1.743   0.325  0.9273 -0.1121 -0.5445
  279MPD2    C5 4214   2.305   1.703   0.440 -0.1566  0.0386 -0.5571
  279MPD2     H 4215   2.105   1.453   0.238  3.5819 -0.7914 -0.9377
  279MPD2    H1 4216   2.250   1.850   0.313  1.7140 -0.0542  0.5856
  279MPD2    H2 4217   2.347   1.552   0.575 -0.5174 -1.6905  0.3953
  279MPD2    H3 4218   2.359   1.775   0.499  0.8465 -1.0176 -0.1986
  279MPD2     N 4219   2.126   1.681   0.120 -1.0433  0.7690 -0.1747
  279MPD2    H5 4220   2.082   1.607   0.064  0.7354  0.9239 -1.7791
  279MPD2    N1 4221   2.205   1.360   0.483 -0.5040  0.0781 -0.4422
  279MPD2    H7 4222   2.236   1.345   0.579 -3.5527 -0.8594  0.3893
  280TMC3    C1 4223   2.049   1.188   0.540 -0.1376 -0.1278  0.1222
  280TMC3    C2 4224   1.968   1.083   0.492  0.6308  0.5951  0.1823
  280TMC3    C3 4225   1.841   1.067   0.546  0.0374 -0.2836 -0.2389
  280TMC3    C4 4226   1.994   1.274   0.627 -0.1349 -0.4415 -0.0770
  280TMC3    C5 4227   1.866   1.253   0.680 -0.5944 -0.8089 -0.5790
  280TMC3    C6 4228   1.788   1.152   0.639 -0.1205  0.2881 -0.2505
  280TMC3     C 4229   2.129   1.255   0.432  0.3718 -0.1423  0.3407
  280TMC3     O 4230   2.088   1.227   0.319 -0.2403  0.1750 -0.1215
  280TMC3     H 4231   2.018   1.003   0.438 -0.6990 -0.4295  0.4793
  280TMC3    H1 4232   2.041   1.369   0.651  0.1776 -0.7174  0.3897
  280TMC3    H2 4233   1.696   1.124   0.687 -0.3033  0.1724 -0.6665
  280TMC3    C7 4234   1.792   1.370   0.729 -0.2225  0.0567 -0.5081
  280TMC3    C8 4235   1.783   0.938   0.540 -0.3269 -0.0045 -0.2828
  280TMC3    O1 4236   1.854   1.473   0.747 -0.0908  0.5882  0.0163
  280TMC3    O2 4237   1.712   0.897   0.631  0.2117  0.3811 -0.0325
  281TMC3    C1 4238   0.968   1.411  13.151 -0.1164 -0.4041 -0.2429
  281TMC3    C2 4239   1.026   1.491  13.053  0.5246 -0.1375 -0.3545
  281TMC3    C3 4240   1.029   1.434  12.927 -0.5369  0.5530  0.9763
  281TMC3    C4 4241   0.908   1.292  13.134  0.0696 -0.2363 -0.3218
  281TMC3    C5 4242   0.898   1.251  13.008  0.0981  0.4425 -0.2272
  281TMC3    C6 4243   0.961   1.312  12.903 -0.2786  0.2468  0.4866
  281TMC3     C 4244   0.931   1.481  13.271 -0.2360 -0.2076  0.2841
  281TMC3     O 4245   0.947   1.432  13.379  0.1602  0.4814 -0.2162
  281TMC3     H 4246   1.081   1.579  13.086 -0.8498  0.6436 -0.1166
  281TMC3    H1 4247   0.886   1.231  13.221 -1.4642 -0.8691 -1.1545
  281TMC3    H2 4248   0.966   1.261  12.808 -2.4125 -1.6509  1.3849
  281TMC3    C7 4249   0.797   1.147  12.975 -0.9210  0.4215  0.0834
  281TMC3    C8 4250   1.112   1.494  12.816 -0.0875  0.2447  0.1664
  281TMC3    O1 4251   0.769   1.124  12.856  0.3242  0.0115 -1.0882
  281TMC3    O2 4252   1.205   1.431  12.768 -0.0052 -0.3219  0.0221
  282MPD2     C 4253   2.584   2.692  14.790 -0.1365 -0.2977 -0.3046
  282MPD2    C1 4254   2.476   2.735  14.864 -0.2983  0.1701 -0.0304
  282MPD2    C2 4255   2.353   2.757  14.798  0.8780 -0.1008  0.1788
  282MPD2    C3 4256   2.343   2.749  14.662  0.2872  0.5888 -0.6058
  282MPD2    C4 4257   2.454   2.707  14.587 -0.1441 -0.4441  0.2258
  282MPD2    C5 4258   2.568   2.678  14.652  0.1145  0.2240  1.1171
  282MPD2     H 4259   2.262   2.773  14.854 -0.6713 -1.9513 -1.8207
  282MPD2    H1 4260   2.448   2.675  14.484 -0.2010 -0.9961  0.4030
  282MPD2    H2 4261   2.680   2.662  14.831 -0.3973  1.4524  1.5916
  282MPD2    H3 4262   2.643   2.640  14.584  0.0351  1.5220  0.3055
  282MPD2     N 4263   2.211   2.759  14.606  1.1196 -0.1423 -0.4673
  282MPD2    H5 4264   2.133   2.793  14.662  1.7567 -0.1522  0.4357
  282MPD2    N1 4265   2.487   2.740  14.997  0.1324  0.8862 -0.5406
  282MPD2    H7 4266   2.401   2.761  15.046  1.3250 -1.8736  2.7131
  283TMC3    C1 4267   2.586   2.753  15.210  0.4961 -0.0247 -0.4099
  283TMC3    C2 4268   2.692   2.795  15.280  0.3556  0.3405  0.4127
  283TMC3    C3 4269   2.695   2.781  15.417  0.8364  0.5169  0.0601
  283TMC3    C4 4270   2.481   2.697  15.274  0.4272  0.7412 -0.2682
  283TMC3    C5 4271   2.489   2.685  15.410 -0.0536 -0.1769  0.1495
  283TMC3    C6 4272   2.597   2.719  15.484 -0.2046 -0.7156 -0.4848
  283TMC3     C 4273   2.604   2.729  15.069  0.3469  0.2933  0.1870
  283TMC3     O 4274   2.725   2.722  15.042 -0.1488 -0.3530  0.0452
  283TMC3     H 4275   2.766   2.853  15.227  0.8335 -0.0846  0.6162
  283TMC3    H1 4276   2.387   2.672  15.227  0.4148  1.0425 -0.4062
  283TMC3    H2 4277   2.614   2.692  15.588 -2.7914  2.5564  0.7944
  283TMC3    C7 4278   2.381   2.628  15.486  0.3663 -0.1706 -0.0841
  283TMC3    C8 4279   2.767   2.882  15.496  0.5493 -0.6317  0.2704
  283TMC3    O1 4280   2.380   2.662  15.609  0.0216  0.0205 -0.0043
  283TMC3    O2 4281   2.759   2.873  15.623  0.2197  0.3387  0.0423
  284MPD2     C 4282   1.387   1.704  11.536  0.6334 -0.0559 -0.3307
  284MPD2    C1 4283   1.294   1.681  11.441  0.1432 -0.2443 -0.3738
  284MPD2    C2 4284   1.187   1.595  11.471  0.4318 -0.2598 -0.4388
  284MPD2    C3 4285   1.177   1.535  11.591 -0.2835 -0.0221  0.0264
  284MPD2    C4 4286   1.269   1.568  11.690 -0.5680 -0.6877  0.3084
  284MPD2    C5 4287   1.378   1.639  11.656  0.0306  0.7464  0.7505
  284MPD2     H 4288   1.113   1.570  11.396 -1.0506 -2.9044  1.9523
  284MPD2    H1 4289   1.264   1.524  11.789  2.4359 -0.4757  0.5803
  284MPD2    H2 4290   1.463   1.781  11.526 -0.6409  1.3035  0.3875
  284MPD2    H3 4291   1.444   1.651  11.741  0.7682  2.7725 -0.1063
  284MPD2     N 4292   1.070   1.446  11.619 -0.1684 -0.3415 -0.9031
  284MPD2    H5 4293   1.087   1.379  11.693  0.1285  2.3358  1.4781
  284MPD2    N1 4294   1.288   1.754  11.320  0.4044  0.5363 -0.1332
  284MPD2    H7 4295   1.218   1.725  11.254 -1.4475 -0.8547  2.4333
  285TMC3    C1 4296   1.354   1.906  11.149  0.3678  0.3466 -0.2638
  285TMC3    C2 4297   1.321   1.808  11.058  0.5629 -0.4777  0.1832
  285TMC3    C3 4298   1.355   1.832  10.926 -0.6406  0.2408  0.0027
  285TMC3    C4 4299   1.410   2.030  11.114  0.1943 -0.3766 -0.1982
  285TMC3    C5 4300   1.441   2.049  10.983  0.1059 -0.3221 -0.0962
  285TMC3    C6 4301   1.423   1.949  10.889 -0.3271  0.1370  0.2557
  285TMC3     C 4302   1.370   1.856  11.278  0.4543  0.2101  0.5487
  285TMC3     O 4303   1.449   1.917  11.349  0.1938  0.2795  0.2685
  285TMC3     H 4304   1.295   1.709  11.092  0.1350 -0.2585  0.4988
  285TMC3    H1 4305   1.427   2.108  11.187  0.0222  1.7384 -2.4060
  285TMC3    H2 4306   1.447   1.970  10.785 -2.0302 -1.2313 -0.4047
  285TMC3    C7 4307   1.483   2.180  10.943 -0.4686  0.0794 -0.4223
  285TMC3    C8 4308   1.412   1.719  10.864  0.2398 -0.4036  0.5351
  285TMC3    O1 4309   1.515   2.255  11.035  0.2235 -0.0708  0.3023
  285TMC3    O2 4310   1.335   1.637  10.817 -0.2276 -0.0133 -0.0037
  286MPD2     C 4311   1.055   1.082   1.973 -0.1470  0.0993  0.3754
  286MPD2    C1 4312   1.037   1.065   1.834 -0.3463  0.1223  0.7958
  286MPD2    C2 4313   1.135   1.013   1.755 -1.2456 -0.2030  0.1845
  286MPD2    C3 4314   1.262   0.979   1.809  0.1759 -0.1587  0.5157
  286MPD2    C4 4315   1.288   1.007   1.942  0.0449 -0.1844 -0.0151
  286MPD2    C5 4316   1.183   1.057   2.020  0.0817  0.4622  0.1847
  286MPD2     H 4317   1.111   1.003   1.650 -1.1383 -0.0783  0.1478
  286MPD2    H1 4318   1.385   0.992   1.989 -0.7992  0.3644  1.9071
  286MPD2    H2 4319   0.988   1.129   2.044  0.6741  2.0166 -0.1166
  286MPD2    H3 4320   1.208   1.076   2.124  2.2258  0.3358 -0.3124
  286MPD2     N 4321   1.367   0.905   1.744 -0.3332  0.0998 -0.2731
  286MPD2    H5 4322   1.455   0.900   1.793  0.5126  1.6272 -1.6533
  286MPD2    N1 4323   0.921   1.110   1.770 -0.0125  0.1004  0.2205
  286MPD2    H7 4324   0.919   1.106   1.669 -1.2380  0.8809  0.2137
  287TMC3    C1 4325   1.469   0.751   1.597  0.3887  0.4009 -0.6288
  287TMC3    C2 4326   1.463   0.679   1.476 -0.4187  0.1777  0.5530
  287TMC3    C3 4327   1.579   0.611   1.445  0.2336 -0.1974  0.3500
  287TMC3    C4 4328   1.564   0.727   1.692  0.5099 -0.5286 -0.6670
  287TMC3    C5 4329   1.656   0.634   1.661 -0.0617  0.0968 -0.1916
  287TMC3    C6 4330   1.672   0.584   1.536 -0.1348  0.2666 -1.0696
  287TMC3     C 4331   1.352   0.835   1.628  0.0802 -0.1894 -0.5159
  287TMC3     O 4332   1.252   0.826   1.555 -0.1074  0.0797 -0.3673
  287TMC3     H 4333   1.372   0.684   1.417 -0.1639 -0.4801  0.0968
  287TMC3    H1 4334   1.561   0.765   1.793  2.2926 -1.7299 -0.1802
  287TMC3    H2 4335   1.744   0.508   1.509 -1.5683 -2.2441  2.1780
  287TMC3    C7 4336   1.766   0.623   1.754  0.0920 -0.0036  0.0082
  287TMC3    C8 4337   1.583   0.547   1.316 -0.9528  0.4353 -0.1492
  287TMC3    O1 4338   1.764   0.696   1.853  0.5125  0.4697  0.2075
  287TMC3    O2 4339   1.662   0.452   1.313  0.4052  0.2027  0.2131
  288TMC3    C1 4340   2.400   0.468  14.587 -0.0883 -0.6194  0.6536
  288TMC3    C2 4341   2.377   0.421  14.713 -0.7441  0.2594 -0.0128
  288TMC3    C3 4342   2.440   0.484  14.819 -0.0026 -0.1717 -0.0782
  288TMC3    C4 4343   2.476   0.580  14.566  0.5898  0.4065 -0.1771
  288TMC3    C5 4344   2.539   0.638  14.673 -0.3613  0.2274 -0.5823
  288TMC3    C6 4345   2.527   0.590  14.803 -0.2133 -0.1133  0.6032
  288TMC3     C 4346   2.353   0.395  14.469  0.5686 -0.3705  0.7884
  288TMC3     O 4347   2.341   0.452  14.359  0.3018  0.1788 -0.1616
  288TMC3     H 4348   2.321   0.329  14.725  0.1785 -0.7134 -3.1671
  288TMC3    H1 4349   2.482   0.631  14.470  1.0984 -0.9001 -0.8444
  288TMC3    H2 4350   2.571   0.652  14.879  1.3969  0.9510 -1.2226
  288TMC3    C7 4351   2.584   0.776  14.655 -0.4243 -0.6173  0.0836
  288TMC3    C8 4352   2.422   0.452  14.953  0.8311  0.1935 -0.3203
  288TMC3    O1 4353   2.581   0.858  14.748  0.6013 -0.3429  0.2570
  288TMC3    O2 4354   2.426   0.549  15.028  0.4107  0.2320  0.4923
  289MPD2     C 4355   2.676   4.242  14.533 -0.3416  0.1406 -0.3742
  289MPD2    C1 4356   2.634   4.367  14.571 -0.6262 -0.5235  0.2823
  289MPD2    C2 4357   2.504   4.394  14.562 -1.0615 -0.8948  0.5152
  289MPD2    C3 4358   2.417   4.303  14.509  0.8782 -0.9339  0.1443
  289MPD2    C4 4359   2.457   4.176  14.466 -0.0041  0.3373  0.1184
  289MPD2    C5 4360   2.592   4.152  14.478  0.2551 -0.4748  0.4049
  289MPD2     H 4361   2.473   4.497  14.574 -1.8476 -0.8760 -1.6925
  289MPD2    H1 4362   2.403   4.102  14.408  2.1300 -0.1714 -1.2105
  289MPD2    H2 4363   2.782   4.219  14.529 -0.4693 -0.3294 -1.0083
  289MPD2    H3 4364   2.626   4.054  14.445  2.7415  1.5075 -2.9117
  289MPD2     N 4365   2.278   4.325  14.493 -0.0458  0.4788 -0.4972
  289MPD2    H5 4366   2.219   4.264  14.437 -0.7743 -0.4972  1.3384
  289MPD2    N1 4367   2.726   4.458  14.613 -0.4731 -0.3137 -0.4625
  289MPD2    H7 4368   2.822   4.426  14.623 -0.4895 -0.7150 -1.5927
  290TMC3    C1 4369   2.083   4.452  14.496 -0.5074  0.3332  0.4806
  290TMC3    C2 4370   2.041   4.575  14.456 -0.0709 -0.0604  0.3843
  290TMC3    C3 4371   1.924   4.574  14.384  0.0574 -0.6004  0.2417
  290TMC3    C4 4372   2.012   4.335  14.474  0.5595  0.5331 -0.5489
  290TMC3    C5 4373   1.898   4.346  14.399 -0.5434  0.4148 -0.4439
  290TMC3    C6 4374   1.846   4.465  14.367  0.0901  0.1000 -0.2651
  290TMC3     C 4375   2.213   4.442  14.542 -0.0843  0.6858  0.6827
  290TMC3     O 4376   2.254   4.539  14.605 -0.3724 -0.0451  0.4533
  290TMC3     H 4377   2.112   4.657  14.453 -0.0655 -0.0392  1.0441
  290TMC3    H1 4378   2.053   4.241  14.507 -1.0203 -0.3223 -1.0128
  290TMC3    H2 4379   1.758   4.464  14.303 -0.2835 -1.0536  0.2670
  290TMC3    C7 4380   1.809   4.235  14.361 -0.1351  0.2936 -0.3122
  290TMC3    C8 4381   1.877   4.707  14.337 -0.1554  0.0594 -0.7397
  290TMC3    O1 4382   1.704   4.261  14.308 -0.0215 -0.0577  0.4805
  290TMC3    O2 4383   1.784   4.711  14.258  0.0639 -0.5798  0.8602
  291MPD2     C 4384   2.263   4.709   0.314 -0.2125 -0.1530  0.1161
  291MPD2    C1 4385   2.309   4.580   0.322  0.0556  0.4782 -0.6370
  291MPD2    C2 4386   2.439   4.556   0.278 -1.0536  0.1906 -0.3128
  291MPD2    C3 4387   2.526   4.660   0.244 -0.2148 -0.6601  0.3977
  291MPD2    C4 4388   2.477   0.067   0.246  0.0014 -0.1878 -0.4563
  291MPD2    C5 4389   2.342   0.091   0.273  0.3227  0.3428 -0.6371
  291MPD2     H 4390   2.484   4.458   0.289  0.6269  1.3948  3.6126
  291MPD2    H1 4391   2.533   0.156   0.219  3.0933 -1.0165  3.0726
  291MPD2    H2 4392   2.166   0.016   0.355 -1.0366 -0.7262 -1.4379
  291MPD2    H3 4393   2.300   0.190   0.261 -0.3159 -0.1538 -2.3679
  291MPD2     N 4394   2.650   4.635   0.187  0.5240  0.5093  0.1013
  291MPD2    H5 4395   2.695   4.716   0.144  0.7086  0.5693  0.4098
  291MPD2    N1 4396   2.236   4.478   0.384  0.2474  0.7436  0.0807
  291MPD2    H7 4397   2.280   4.386   0.389  0.4975  0.9208  1.1409
  292TMC3    C1 4398   2.066   4.359   0.500  0.7791  0.1863 -0.1359
  292TMC3    C2 4399   2.134   4.338   0.620  0.5026 -0.1619 -0.5171
  292TMC3    C3 4400   2.111   4.223   0.684 -0.0805  0.4295  0.3094
  292TMC3    C4 4401   1.993   4.263   0.433 -0.6954 -0.8254  0.0503
  292TMC3    C5 4402   1.974   4.147   0.503  0.7513 -0.0867  0.6597
  292TMC3    C6 4403   2.031   4.126   0.627 -0.5779  0.7354 -0.6172
  292TMC3     C 4404   2.106   4.478   0.433  0.2003 -0.4921  0.0845
  292TMC3     O 4405   2.033   4.575   0.451 -0.0868  0.2533  0.3898
  292TMC3     H 4406   2.190   4.415   0.670 -0.5184 -1.1770  2.2270
  292TMC3    H1 4407   1.953   4.293   0.337 -0.4494  0.0571  0.2225
  292TMC3    H2 4408   2.014   4.027   0.665  3.0237 -0.1351 -1.2761
  292TMC3    C7 4409   1.919   4.028   0.432 -0.0586 -0.6122 -0.6722
  292TMC3    C8 4410   2.144   4.203   0.822  0.4169 -0.1688 -0.0884
  292TMC3    O1 4411   1.973   3.921   0.455  0.7689 -0.2268  0.6950
  292TMC3    O2 4412   2.229   4.268   0.883  0.1354  0.1397  0.1762
  293MPD2     C 4413   4.050   0.938  12.450 -0.0054  0.1009 -0.4266
  293MPD2    C1 4414   3.975   0.869  12.542  0.3923 -0.3631 -0.1256
  293MPD2    C2 4415   3.993   0.902  12.678  1.0417  0.2678  0.0467
  293MPD2    C3 4416   4.073   1.005  12.716 -0.6358 -0.9140 -0.4721
  293MPD2    C4 4417   4.149   1.076  12.618  0.1254 -1.0039 -0.2100
  293MPD2    C5 4418   4.147   1.030  12.494 -0.6573 -0.0914  0.8693
  293MPD2     H 4419   3.948   0.845  12.759  1.0454  0.0395 -0.1107
  293MPD2    H1 4420   4.216   1.157  12.645 -0.7378 -0.4554  0.3020
  293MPD2    H2 4421   4.041   0.922  12.343  1.0217 -0.2476 -0.4645
  293MPD2    H3 4422   4.210   1.074  12.418 -1.6695  1.6301  1.0286
  293MPD2     N 4423   4.082   1.035  12.854 -0.5949 -0.1226  0.2842
  293MPD2    H5 4424   4.021   0.987  12.920 -0.8917  2.2670  1.7676
  293MPD2    N1 4425   3.872   0.778  12.499 -0.1115 -0.2626 -0.0464
  293MPD2    H7 4426   3.864   0.768  12.399  1.0084  0.3455 -0.2032
  294TMC3    C1 4427   3.687   0.634  12.496  0.2367 -0.7202  0.4323
  294TMC3    C2 4428   3.571   0.608  12.561 -0.0233  0.2018  0.3127
  294TMC3    C3 4429   3.486   0.524  12.493  0.3302 -0.5320 -0.1809
  294TMC3    C4 4430   3.720   0.589  12.373 -0.3768  0.1999  0.3557
  294TMC3    C5 4431   3.625   0.515  12.302 -0.2301  0.3163 -0.3669
  294TMC3    C6 4432   3.511   0.476  12.367 -0.3339  0.5344 -0.3827
  294TMC3     C 4433   3.779   0.717  12.578  0.4706  0.5786 -0.7365
  294TMC3     O 4434   3.756   0.719  12.698  0.1633  0.1617  0.0907
  294TMC3     H 4435   3.555   0.643  12.662  0.5775 -0.9698  0.8080
  294TMC3    H1 4436   3.816   0.611  12.330  0.1492  0.0010  1.4337
  294TMC3    H2 4437   3.444   0.409  12.314  1.0815 -1.5513  0.4992
  294TMC3    C7 4438   3.636   0.516  12.153  0.1450 -0.0992 -0.2671
  294TMC3    C8 4439   3.365   0.495  12.563 -0.4987 -0.0969 -0.0710
  294TMC3    O1 4440   3.532   0.501  12.090  0.3710  0.4078  0.1635
  294TMC3    O2 4441   3.327   0.563  12.660 -0.4663  0.2547 -0.4651
  295MPD2     C 4442   4.321   4.582   0.631  0.1267 -0.6224  0.6679
  295MPD2    C1 4443   4.360   4.466   0.574 -0.9125  0.2912 -0.3244
  295MPD2    C2 4444   4.354   4.356   0.655  0.2705  0.5059  0.6673
  295MPD2    C3 4445   4.316   4.373   0.789 -0.5655  0.0540 -0.0876
  295MPD2    C4 4446   4.275   4.485   0.839  0.3814 -0.1384 -0.5824
  295MPD2    C5 4447   4.279   4.589   0.758 -0.0288  0.2990  0.2176
  295MPD2     H 4448   4.377   4.262   0.608  1.9609  1.0134  0.4904
  295MPD2    H1 4449   4.253   4.509   0.943  0.5891  0.5874 -0.7074
  295MPD2    H2 4450   4.333   4.677   0.579 -2.0640  1.1100  3.3646
  295MPD2    H3 4451   4.235   4.681   0.793  0.8421  0.1954  1.5545
  295MPD2     N 4452   4.294   4.263   0.877  0.1467 -0.0745 -0.1139
  295MPD2    H5 4453   4.281   4.281   0.976 -1.4243 -1.0302 -0.1551
  295MPD2    N1 4454   4.415   4.461   0.444  0.0743 -0.4598 -0.1578
  295MPD2    H7 4455   4.445   4.371   0.410 -0.3630 -1.0435  1.0084
  296TMC3    C1 4456   4.330   4.052   0.960  0.2949 -0.4859 -0.5817
  296TMC3    C2 4457   4.232   4.071   1.054  0.1664  0.2880  0.4602
  296TMC3    C3 4458   4.250   4.007   1.174 -0.0846  0.0969  0.0496
  296TMC3    C4 4459   4.437   3.970   0.973  0.1874 -0.0467  0.7440
  296TMC3    C5 4460   4.440   3.902   1.093  0.1443 -0.3655 -0.4802
  296TMC3    C6 4461   4.345   3.915   1.193 -0.2191  0.1285  0.1830
  296TMC3     C 4462   4.331   4.135   0.845  0.4325  0.5990  0.2039
  296TMC3     O 4463   4.361   4.080   0.741 -0.1844  0.2447 -0.5769
  296TMC3     H 4464   4.151   4.143   1.046  0.4752  0.5469 -0.3169
  296TMC3    H1 4465   4.516   3.970   0.899 -0.1004  0.6119  0.4416
  296TMC3    H2 4466   4.342   3.856   1.285  2.2873  0.3463  0.4190
  296TMC3    C7 4467   4.561   3.823   1.116  0.1417  0.0279 -0.5861
  296TMC3    C8 4468   4.153   4.044   1.275 -0.2116 -0.2135 -0.1190
  296TMC3    O1 4469   4.653   3.831   1.033  0.1060  0.3520 -0.1701
  296TMC3    O2 4470   4.049   4.087   1.234  0.1421  0.3298 -0.6352
  297MPD2     C 4471   1.813   1.382  16.451 -0.2923  0.3655  0.9342
  297MPD2    C1 4472   1.739   1.425  16.336  0.6054 -0.2941  0.3326
  297MPD2    C2 4473   1.781   1.545  16.284 -0.2910  0.3835  0.1264
  297MPD2    C3 4474   1.893   1.611  16.329  0.8745 -1.4939 -0.1390
  297MPD2    C4 4475   1.964   1.564  16.436  0.2706  0.1813  0.1629
  297MPD2    C5 4476   1.916   1.454  16.498 -0.1125  0.3725 -0.2854
  297MPD2     H 4477   1.723   1.591  16.205 -0.4066 -0.5755 -0.3343
  297MPD2    H1 4478   2.046   1.615  16.483  1.2829 -0.7860 -0.5595
  297MPD2    H2 4479   1.796   1.291  16.508  2.5418 -1.8965 -1.8802
  297MPD2    H3 4480   1.968   1.424  16.588  1.3224  0.2714 -1.1439
  297MPD2     N 4481   1.920   1.728  16.258  0.0554  0.9872  0.4970
  297MPD2    H5 4482   1.876   1.749  16.169  0.2986  1.8156  0.5685
  297MPD2    N1 4483   1.620   1.360  16.293 -0.1926 -0.5213  0.3103
  297MPD2    H7 4484   1.575   1.403  16.212 -0.6209  0.1086  0.8849
  298TMC3    C1 4485   1.424   1.237  16.321  0.8757  0.2106  0.5460
  298TMC3    C2 4486   1.385   1.307  16.215  0.0843  0.5481  0.6645
  298TMC3    C3 4487   1.274   1.375  16.214  0.3237 -0.2632 -0.1319
  298TMC3    C4 4488   1.350   1.234  16.433  0.7654 -0.0927 -0.3249
  298TMC3    C5 4489   1.236   1.308  16.430 -0.1755  0.4375 -0.5321
  298TMC3    C6 4490   1.198   1.384  16.324  0.2186  0.0881  0.0459
  298TMC3     C 4491   1.562   1.253  16.355 -0.3344  0.5426  0.4695
  298TMC3     O 4492   1.591   1.200  16.459 -0.0874 -0.3547 -0.1093
  298TMC3     H 4493   1.439   1.302  16.121 -0.3019 -3.6325  0.6556
  298TMC3    H1 4494   1.373   1.178  16.523 -0.0292 -0.2741 -0.2372
  298TMC3    H2 4495   1.128   1.466  16.337  1.4794  1.2151 -0.2285
  298TMC3    C7 4496   1.175   1.335  16.565  0.6137 -0.4852  0.2232
  298TMC3    C8 4497   1.249   1.476  16.109 -0.2500  0.6416  0.2580
  298TMC3    O1 4498   1.237   1.306  16.665 -0.8482  0.1736  0.2476
  298TMC3    O2 4499   1.349   1.532  16.070 -0.1382 -0.2712  0.4832
  299MPD2     C 4500   2.953   0.550  10.910 -0.4493  0.1571  0.3738
  299MPD2    C1 4501   2.917   0.659  10.834 -0.9839  0.4618 -0.2576
  299MPD2    C2 4502   2.864   0.637  10.706  0.0304  0.0320 -0.4662
  299MPD2    C3 4503   2.837   0.507  10.667  0.3405 -0.2323 -0.6004
  299MPD2    C4 4504   2.858   0.402  10.755  0.7408  0.5011 -0.7920
  299MPD2    C5 4505   2.928   0.423  10.868 -0.5567 -0.0152 -0.0990
  299MPD2     H 4506   2.844   0.719  10.638 -0.2622  2.4660  2.5669
  299MPD2    H1 4507   2.825   0.302  10.733  0.8702  0.1637  0.5581
  299MPD2    H2 4508   3.006   0.565  11.004  2.8884  1.5966 -1.7141
  299MPD2    H3 4509   2.940   0.338  10.934 -0.1212 -1.1684 -1.6513
  299MPD2     N 4510   2.761   0.470  10.555  0.3503 -0.0642  0.0342
  299MPD2    H5 4511   2.720   0.377  10.558 -0.5468  0.4115  2.4457
  299MPD2    N1 4512   2.945   0.787  10.885 -0.1772  0.2251  0.2029
  299MPD2    H7 4513   2.978   0.786  10.981 -0.0943  0.2636  0.1757
  300TMC3    C1 4514   2.604   0.531  10.373  0.3870 -0.1443  0.2310
  300TMC3    C2 4515   2.566   0.625  10.280 -0.5935  0.7107  0.1461
  300TMC3    C3 4516   2.434   0.623  10.246 -0.1288 -0.6570  0.2820
  300TMC3    C4 4517   2.521   0.440  10.434  0.1555  0.6259 -0.6028
  300TMC3    C5 4518   2.390   0.449  10.399 -0.2283  0.3512  0.8312
  300TMC3    C6 4519   2.340   0.540  10.309  0.1196 -0.2872  0.0577
  300TMC3     C 4520   2.730   0.560  10.449  0.5632  0.0053  0.3429
  300TMC3     O 4521   2.787   0.668  10.426 -0.5344  0.3934 -0.4174
  300TMC3     H 4522   2.636   0.690  10.228  0.1539 -2.6929 -3.1232
  300TMC3    H1 4523   2.550   0.364  10.505 -1.7456 -0.9492 -1.5043
  300TMC3    H2 4524   2.235   0.567  10.300  0.1686 -0.1901 -0.2248
  300TMC3    C7 4525   2.297   0.402  10.501  0.0004  0.2722  0.3348
  300TMC3    C8 4526   2.399   0.753  10.186 -0.4135  0.2077 -0.7971
  300TMC3    O1 4527   2.336   0.308  10.571  0.1992 -0.2834  0.0803
  300TMC3    O2 4528   2.471   0.852  10.220 -0.1495 -0.1294 -0.4952
  301MPD2     C 4529   0.082   2.927   1.622  0.6697 -0.5786  0.5863
  301MPD2    C1 4530   0.006   2.871   1.518  0.2284  0.7902 -0.0765
  301MPD2    C2 4531   4.695   2.733   1.531  0.2182  0.7508 -0.3864
  301MPD2    C3 4532   0.008   2.659   1.651 -0.4764  0.4778 -0.3045
  301MPD2    C4 4533   0.077   2.726   1.746 -0.3747  0.3718 -0.4423
  301MPD2    C5 4534   0.107   2.861   1.737 -0.3775  0.4666 -0.1296
  301MPD2     H 4535   4.652   2.689   1.443  0.0998  1.0403 -0.4732
  301MPD2    H1 4536   0.095   2.678   1.841  1.3252 -0.0566 -0.9718
  301MPD2    H2 4537   0.125   3.026   1.626 -2.6223  0.8160  1.5221
  301MPD2    H3 4538   0.156   2.906   1.822  3.9047  1.8897 -3.3499
  301MPD2     N 4539   4.705   2.519   1.668  0.3644  0.3710  0.1597
  301MPD2    H5 4540   0.052   2.469   1.723  0.5407  0.1772 -0.2379
  301MPD2    N1 4541   4.689   2.939   1.409 -0.6532  0.0029  0.0325
  301MPD2    H7 4542   4.639   2.893   1.334 -0.5991 -0.7622  0.4685
  302TMC3    C1 4543   4.632   2.304   1.628 -0.1043 -0.4367  0.9546
  302TMC3    C2 4544   4.705   2.261   1.738 -0.1367 -0.4395  0.3877
  302TMC3    C3 4545   0.011   2.125   1.746  0.1146  0.5985 -1.2862
  302TMC3    C4 4546   4.577   2.216   1.546  0.1418 -0.0517 -0.2779
  302TMC3    C5 4547   4.578   2.083   1.576 -0.1825 -0.1927  0.3418
  302TMC3    C6 4548   4.665   2.035   1.667  0.3324 -0.3895  0.1036
  302TMC3     C 4549   4.617   2.447   1.596 -0.1338 -0.4025 -1.2119
  302TMC3     O 4550   4.537   2.475   1.509 -0.5854  0.0904  0.3949
  302TMC3     H 4551   0.018   2.323   1.820 -0.1488  1.0380 -0.7299
  302TMC3    H1 4552   4.515   2.259   1.468  1.4452  1.0293 -0.7169
  302TMC3    H2 4553   4.685   1.930   1.685  0.8630 -0.2379  0.3879
  302TMC3    C7 4554   4.533   1.988   1.478 -0.8712  0.4723  0.3779
  302TMC3    C8 4555   0.123   2.076   1.836  0.1326 -0.0071  0.4843
  302TMC3    O1 4556   4.523   1.870   1.512 -0.4836 -0.1316  0.4314
  302TMC3    O2 4557   0.129   1.956   1.850  0.0371 -0.1506  0.0936
  303MPD2     C 4558   0.049   4.464  10.604  0.0416  0.8003 -0.0155
  303MPD2    C1 4559   4.676   4.543  10.537  0.1020 -0.5890  0.2660
  303MPD2    C2 4560   4.720   4.576  10.404  0.2244 -0.2298  0.9123
  303MPD2    C3 4561   0.125   4.537  10.352  0.3091 -0.1317 -0.1583
  303MPD2    C4 4562   0.219   4.475  10.432  0.2315  0.4641 -0.8263
  303MPD2    C5 4563   0.172   4.428  10.555 -0.1673 -0.2462  0.7080
  303MPD2     H 4564   4.649   4.641  10.354 -1.7434 -2.5220  0.7096
  303MPD2    H1 4565   0.310   4.430  10.393 -0.9462  0.2359 -3.2821
  303MPD2    H2 4566   0.016   4.443  10.705 -3.5582 -0.3398 -1.4074
  303MPD2    H3 4567   0.242   4.382  10.624  0.7593 -1.2675 -0.9232
  303MPD2     N 4568   0.161   4.563  10.222  0.0366 -0.7649  0.4505
  303MPD2    H5 4569   0.259   4.554  10.200  0.6308  3.6198  1.3831
  303MPD2    N1 4570   4.550   4.571  10.602 -0.6213  0.2964  0.0257
  303MPD2    H7 4571   4.532   4.547  10.699 -1.2231  1.3080  0.1673
  304TMC3    C1 4572   4.323   4.639  10.617  0.2455  0.1580  0.1533
  304TMC3    C2 4573   4.254   0.033  10.613  0.9553  0.5078  0.3085
  304TMC3    C3 4574   4.123   0.033  10.624 -0.1771  0.5674 -0.4202
  304TMC3    C4 4575   4.258   4.520  10.631 -0.1634 -0.4388 -0.5549
  304TMC3    C5 4576   4.122   4.517  10.656 -0.1146 -0.2567  0.4363
  304TMC3    C6 4577   4.060   4.637  10.664  0.5816  0.6227  0.2616
  304TMC3     C 4578   4.448   4.648  10.543  0.2921  0.3983 -0.3428
  304TMC3     O 4579   4.459   0.017  10.464 -0.0635 -0.1706 -0.0723
  304TMC3     H 4580   4.310   0.126  10.607  0.2467  0.8019 -1.8024
  304TMC3    H1 4581   4.303   4.434  10.585 -0.4265 -0.5740 -0.5572
  304TMC3    H2 4582   3.954   4.643  10.687  0.3532  0.9042 -0.8535
  304TMC3    C7 4583   4.040   4.427  10.574 -0.1427  0.3490 -0.1154
  304TMC3    C8 4584   4.048   0.109  10.526 -0.1023 -0.4959  0.3069
  304TMC3    O1 4585   3.949   4.478  10.514 -0.3670 -0.6270 -0.3498
  304TMC3    O2 4586   4.073   0.228  10.511  0.3552 -0.2256  0.1496
  305MPD2     C 4587   2.264   2.866  14.159 -0.0148 -0.5855 -0.4928
  305MPD2    C1 4588   2.385   2.901  14.110 -0.7782 -0.1642  0.2537
  305MPD2    C2 4589   2.428   2.838  13.994 -0.0210 -0.1729 -0.0895
  305MPD2    C3 4590   2.348   2.748  13.929  0.0683  0.5798  0.1832
  305MPD2    C4 4591   2.216   2.730  13.970 -0.3236 -0.7461  0.6968
  305MPD2    C5 4592   2.172   2.794  14.078  0.1941  0.4301 -1.0808
  305MPD2     H 4593   2.527   2.850  13.952 -0.2457  2.7793  0.2181
  305MPD2    H1 4594   2.151   2.652  13.930  0.9967 -0.5967 -1.7183
  305MPD2    H2 4595   2.228   2.892  14.257  3.3713  1.9820  0.1023
  305MPD2    H3 4596   2.077   2.765  14.122  0.4999 -2.2467 -2.2069
  305MPD2     N 4597   2.380   2.669  13.811  0.0351  0.1662  0.9157
  305MPD2    H5 4598   2.304   2.621  13.764 -0.8758  0.7289  1.7981
  305MPD2    N1 4599   2.464   2.985  14.190 -0.1128  0.3881 -0.5291
  305MPD2    H7 4600   2.422   3.003  14.281  1.9564  0.8422  0.3228
  306TMC3    C1 4601   2.656   3.065  14.305 -0.2709 -0.1520  0.0880
  306TMC3    C2 4602   2.785   3.034  14.330 -0.0385 -0.1218 -0.4332
  306TMC3    C3 4603   2.859   3.131  14.392  0.0381  0.2707 -0.8312
  306TMC3    C4 4604   2.598   3.184  14.335  0.6981  0.6040  0.3457
  306TMC3    C5 4605   2.681   3.274  14.408 -0.1877 -0.3907 -0.5636
  306TMC3    C6 4606   2.812   3.258  14.433 -0.1226  0.2071  0.1924
  306TMC3     C 4607   2.602   3.002  14.183  0.0732  0.0304 -1.0898
  306TMC3     O 4608   2.679   2.953  14.104 -0.2645 -1.0483  0.3647
  306TMC3     H 4609   2.824   2.938  14.298 -0.0445  0.0000 -0.7982
  306TMC3    H1 4610   2.494   3.212  14.323  0.6317  1.1441  2.1895
  306TMC3    H2 4611   2.877   3.324  14.490 -2.1819  1.0681  1.5448
  306TMC3    C7 4612   2.621   3.387  14.474  0.0469 -0.3983  0.0920
  306TMC3    C8 4613   2.961   3.066  14.474 -0.1484 -0.5321  0.6441
  306TMC3    O1 4614   2.524   3.442  14.424 -0.1444  0.5989  0.3277
  306TMC3    O2 4615   2.946   2.949  14.501  0.2529  0.2749 -0.7293
  307MPD2     C 4616   0.647   0.443   0.443  0.0646 -0.0192 -0.0575
  307MPD2    C1 4617   0.550   0.543   0.431 -0.3141  1.5097  0.1336
  307MPD2    C2 4618   0.467   0.560   0.538 -0.0782  0.0770  0.5703
  307MPD2    C3 4619   0.478   0.488   0.653 -0.5769 -0.3004 -0.2901
  307MPD2    C4 4620   0.577   0.388   0.661 -0.1686 -0.3984 -0.5353
  307MPD2    C5 4621   0.663   0.368   0.554 -0.4807 -0.3017  0.2364
  307MPD2     H 4622   0.391   0.637   0.537 -1.4466 -1.2593  1.7236
  307MPD2    H1 4623   0.589   0.326   0.749  1.8178 -0.0171 -0.5557
  307MPD2    H2 4624   0.710   0.417   0.359  0.1309 -0.8197  0.2406
  307MPD2    H3 4625   0.736   0.288   0.556 -1.9535 -1.6396  0.2396
  307MPD2     N 4626   0.371   0.499   0.747  0.1704 -0.3834  0.1700
  307MPD2    H5 4627   0.292   0.558   0.725 -0.0118 -0.6970 -0.0296
  307MPD2    N1 4628   0.523   0.621   0.315  0.4341 -0.2249 -0.1317
  307MPD2    H7 4629   0.440   0.678   0.311  0.4350 -0.0567  2.0077
  308TMC3    C1 4630   0.004   0.493   0.883 -0.8645 -0.5887 -0.7794
  308TMC3    C2 4631   0.006   0.617   0.942 -0.4635  0.2357  0.1746
  308TMC3    C3 4632   0.130   0.675   0.978  0.3140  0.8831 -0.0196
  308TMC3    C4 4633   0.124   0.421   0.876  0.3201 -0.5870  0.3582
  308TMC3    C5 4634   0.236   0.471   0.930 -0.6061 -1.0016 -1.0510
  308TMC3    C6 4635   0.246   0.598   0.963 -0.0856  0.2131  0.2509
  308TMC3     C 4636   4.606   0.428   0.825 -0.0890  0.4736  0.3985
  308TMC3     O 4637   4.616   0.310   0.790  1.0248  0.6488  0.8217
  308TMC3     H 4638   4.634   0.670   0.955 -1.9160 -1.6647 -2.4657
  308TMC3    H1 4639   0.133   0.320   0.837  2.2554  0.0767 -0.8805
  308TMC3    H2 4640   0.345   0.635   0.988 -0.2759  0.4075  0.7072
  308TMC3    C7 4641   0.357   0.422   0.861 -0.5911 -0.6174 -0.0521
  308TMC3    C8 4642   0.145   0.813   1.000 -0.2420 -0.3320  0.0532
  308TMC3    O1 4643   0.436   0.362   0.932 -0.3966 -0.7040 -0.6307
  308TMC3    O2 4644   0.245   0.860   1.056  0.6938  0.1420 -0.3153
  309MPD2     C 4645   4.321   1.661  17.242 -0.1202 -0.3159  0.0183
  309MPD2    C1 4646   4.239   1.679  17.132 -0.0901  0.1916  0.3525
  309MPD2    C2 4647   4.109   1.652  17.149  0.6233  0.6095 -0.2608
  309MPD2    C3 4648   4.056   1.614  17.272  0.6894 -0.2222  0.2416
  309MPD2    C4 4649   4.139   1.602  17.380  0.0602  0.2169  0.0353
  309MPD2    C5 4650   4.274   1.625  17.366 -0.4217  0.1469  0.2145
  309MPD2     H 4651   4.043   1.655  17.063  0.0609 -0.9324  0.1060
  309MPD2    H1 4652   4.104   1.566  17.476 -0.3052  2.4971  0.7605
  309MPD2    H2 4653   4.427   1.666  17.219  0.0890 -0.0703  1.0089
  309MPD2    H3 4654   4.348   1.597  17.441 -0.6824 -3.5643 -0.9228
  309MPD2     N 4655   3.916   1.581  17.287  0.5134  0.1320  0.4764
  309MPD2    H5 4656   3.903   1.523  17.370  1.3334 -0.6658  0.0464
  309MPD2    N1 4657   4.291   1.685  17.004  0.2309  0.0854  0.4515
  309MPD2    H7 4658   4.216   1.710  16.940  0.4020 -2.7540 -0.8529
  310TMC3    C1 4659   4.451   1.644  16.827  0.6724  0.1860  0.1055
  310TMC3    C2 4660   4.360   1.683  16.730 -0.3168 -0.3654 -0.2413
  310TMC3    C3 4661   4.407   1.675  16.600  0.2058 -0.3978  0.3672
  310TMC3    C4 4662   4.578   1.602  16.796 -0.1133  0.3511  0.1566
  310TMC3    C5 4663   4.620   1.606  16.667 -0.1613  0.4782 -0.2292
  310TMC3    C6 4664   4.539   1.651  16.566  0.4709 -0.1256  0.2154
  310TMC3     C 4665   4.418   1.647  16.968  0.0873 -0.0176  0.3237
  310TMC3     O 4666   4.499   1.576  17.031 -0.0263 -0.0048 -0.3836
  310TMC3     H 4667   4.255   1.695  16.751  0.1966  0.6407  1.6698
  310TMC3    H1 4668   4.651   1.572  16.871  0.2569  0.5652 -0.1167
  310TMC3    H2 4669   4.567   1.653  16.461  0.9984  0.8127  0.3737
  310TMC3    C7 4670   4.702   1.492  16.626 -0.2295 -0.2119 -0.1408
  310TMC3    C8 4671   4.337   1.724  16.493 -0.1891 -0.3401 -0.1457
  310TMC3    O1 4672   4.691   1.381  16.683 -0.0224  0.2271  0.2352
  310TMC3    O2 4673   4.387   1.748  16.385 -0.2734  0.2890 -0.2239
  311MPD2     C 4674   1.583   2.274  12.938 -0.3415 -0.2717 -0.2137
  311MPD2    C1 4675   1.570   2.411  12.929 -0.2517 -0.1451 -0.1169
  311MPD2    C2 4676   1.447   2.472  12.940  0.3612  0.0318  0.1642
  311MPD2    C3 4677   1.337   2.399  12.957 -0.6862 -0.4435  0.8220
  311MPD2    C4 4678   1.346   2.266  12.959 -0.3107 -0.6917  0.2020
  311MPD2    C5 4679   1.466   2.205  12.956  0.1320 -0.6019 -0.4260
  311MPD2     H 4680   1.435   2.579  12.924 -1.2702  0.1323  2.0682
  311MPD2    H1 4681   1.260   2.200  12.959 -1.0773  0.3358 -1.6064
  311MPD2    H2 4682   1.674   2.215  12.935 -0.1899  0.0807 -2.5106
  311MPD2    H3 4683   1.477   2.099  12.938 -0.3675 -0.7314  0.0290
  311MPD2     N 4684   1.217   2.464  12.940  0.0080  0.5772  0.1272
  311MPD2    H5 4685   1.211   2.565  12.949  0.8227  0.7088 -0.8182
  311MPD2    N1 4686   1.687   2.488  12.904  0.2231  0.1316 -0.2920
  311MPD2    H7 4687   1.665   2.587  12.905 -1.6266 -0.2870 -0.7629
  312TMC3    C1 4688   0.996   2.497  12.881  0.3574 -0.2219 -0.8617
  312TMC3    C2 4689   0.922   2.455  12.777 -0.5378 -0.0845  0.2042
  312TMC3    C3 4690   0.822   2.539  12.741  0.1811 -0.7398 -0.2613
  312TMC3    C4 4691   0.980   2.617  12.947  0.5989  0.6717 -0.9434
  312TMC3    C5 4692   0.885   2.703  12.888 -0.1061 -0.1906  0.1269
  312TMC3    C6 4693   0.805   2.672  12.785  0.3330 -0.1315  0.3255
  312TMC3     C 4694   1.092   2.402  12.923  0.4315  0.5270 -0.2540
  312TMC3     O 4695   1.070   2.283  12.912 -0.8696 -0.4436 -0.1584
  312TMC3     H 4696   0.924   2.350  12.752 -0.7876 -0.3325  1.2681
  312TMC3    H1 4697   1.045   2.639  13.030 -0.6903  1.2488 -0.0762
  312TMC3    H2 4698   0.761   2.755  12.732 -0.9131 -2.3785 -2.1294
  312TMC3    C7 4699   0.807   2.787  12.969  0.3462  0.7132  0.0968
  312TMC3    C8 4700   0.702   2.482  12.683 -0.6190 -0.1454  0.4314
  312TMC3    O1 4701   0.740   2.879  12.931 -0.0384  0.1301 -0.2779
  312TMC3    O2 4702   0.688   2.359  12.674  0.0926  0.4885  0.2474
  313MPD2     C 4703   1.885   0.972  10.358  0.1326  0.0287 -0.6536
  313MPD2    C1 4704   1.788   1.043  10.291 -0.2327  0.4628  0.7152
  313MPD2    C2 4705   1.735   1.000  10.173 -0.1066 -0.2752 -0.1326
  313MPD2    C3 4706   1.784   0.887  10.117 -0.3321  0.2856  0.3384
  313MPD2    C4 4707   1.893   0.824  10.173  0.7611 -0.0488 -0.3886
  313MPD2    C5 4708   1.940   0.867  10.295  0.0987  0.2636  0.1807
  313MPD2     H 4709   1.665   1.064  10.120 -1.2139  0.4710  2.2642
  313MPD2    H1 4710   1.938   0.743  10.117  0.4348 -0.2022 -0.4305
  313MPD2    H2 4711   1.918   0.992  10.459  2.5846 -4.2238 -0.5940
  313MPD2    H3 4712   2.015   0.809  10.348  0.4158  1.1074  0.6585
  313MPD2     N 4713   1.721   0.840   9.997 -0.3940 -0.0503  0.1621
  313MPD2    H5 4714   1.653   0.905   9.957  0.1386  0.6802  0.4362
  313MPD2    N1 4715   1.730   1.166  10.335 -0.0682  0.1393 -0.0517
  313MPD2    H7 4716   1.655   1.193  10.272 -0.6777  2.1889  1.5383
  314TMC3    C1 4717   1.681   1.352  10.486 -0.0199 -0.3722 -0.6085
  314TMC3    C2 4718   1.750   1.460  10.528  0.3454 -0.7542 -0.3361
  314TMC3    C3 4719   1.690   1.584  10.517 -0.2808  0.5133 -0.0707
  314TMC3    C4 4720   1.560   1.363  10.427 -0.3081  0.3706 -0.0130
  314TMC3    C5 4721   1.501   1.481  10.418 -0.1511 -0.1649 -0.0602
  314TMC3    C6 4722   1.570   1.593  10.463  0.4982  0.0439 -0.1569
  314TMC3     C 4723   1.767   1.239  10.449  0.2983 -0.7244  1.1944
  314TMC3     O 4724   1.869   1.215  10.520  0.0065  0.1670  0.2438
  314TMC3     H 4725   1.858   1.452  10.518  0.5421  1.5052  0.0094
  314TMC3    H1 4726   1.503   1.277  10.395  2.1957 -1.9246  1.7734
  314TMC3    H2 4727   1.529   1.693  10.454  1.5067  0.4026 -0.6767
  314TMC3    C7 4728   1.398   1.488  10.315 -0.1498 -0.4934  0.2841
  314TMC3    C8 4729   1.758   1.711  10.544  0.0366 -0.0093  0.6493
  314TMC3    O1 4730   1.320   1.393  10.297 -0.1237  0.1161 -0.1578
  314TMC3    O2 4731   1.714   1.813  10.497 -0.1684 -0.8369  0.9403
  315MPD2     C 4732   0.781   0.865   0.564 -0.4005 -0.0480  0.1913
  315MPD2    C1 4733   0.900   0.911   0.606  0.4095 -0.4627 -0.4437
  315MPD2    C2 4734   0.911   1.041   0.637 -0.8093  0.0125  0.0398
  315MPD2    C3 4735   0.800   1.122   0.635 -0.0122  0.3287  0.7203
  315MPD2    C4 4736   0.675   1.080   0.595  0.9752  0.6809  0.1115
  315MPD2    C5 4737   0.667   0.945   0.562  0.0773  0.0543  0.6576
  315MPD2     H 4738   1.003   1.086   0.671 -0.0990 -1.9538  0.7309
  315MPD2    H1 4739   0.584   1.138   0.589 -0.7981 -2.0789  0.3698
  315MPD2    H2 4740   0.765   0.763   0.529  0.4232 -0.1895  0.2236
  315MPD2    H3 4741   0.573   0.903   0.527  0.7604 -1.8458  1.0704
  315MPD2     N 4742   0.826   1.258   0.667  0.2647 -0.4122 -0.1038
  315MPD2    H5 4743   0.922   1.269   0.697  0.9757  1.9000 -3.2384
  315MPD2    N1 4744   1.010   0.835   0.642  0.3605 -0.5391 -0.0958
  315MPD2    H7 4745   1.081   0.880   0.698  1.2569 -0.7836 -1.0352
  316TMC3    C1 4746   0.800   1.487   0.687  0.6225 -0.1043 -0.6060
  316TMC3    C2 4747   0.920   1.493   0.747  0.2641  0.4817 -0.4734
  316TMC3    C3 4748   0.992   1.611   0.736  0.3889  0.2347 -0.1193
  316TMC3    C4 4749   0.748   1.591   0.612  0.4363  0.3953 -0.6043
  316TMC3    C5 4750   0.827   1.702   0.607 -0.1011  0.4523 -0.2270
  316TMC3    C6 4751   0.948   1.715   0.659 -0.0689  0.1129  0.4090
  316TMC3     C 4752   0.735   1.361   0.670 -0.2494  0.5675 -0.6952
  316TMC3     O 4753   0.617   1.368   0.634 -0.0111  0.2665  0.0479
  316TMC3     H 4754   0.962   1.419   0.815  0.7543 -0.6299 -1.9869
  316TMC3    H1 4755   0.656   1.586   0.555  1.2977 -1.8639 -1.8459
  316TMC3    H2 4756   1.004   1.806   0.645  0.4590 -0.0640  1.3643
  316TMC3    C7 4757   0.783   1.809   0.519  0.1497  0.6401 -0.3835
  316TMC3    C8 4758   1.112   1.631   0.807 -0.5591 -0.9199  0.0494
  316TMC3    O1 4759   0.801   1.924   0.551 -0.0164  0.6855 -0.0184
  316TMC3    O2 4760   1.133   1.747   0.842 -0.0626 -0.1719  0.1987
  317MPD2     C 4761   2.856   4.165  12.513 -0.1662 -0.2534  0.6481
  317MPD2    C1 4762   2.958   4.074  12.530  0.2280 -0.3372 -0.2979
  317MPD2    C2 4763   3.012   4.075  12.651  0.8614  0.0793 -0.3860
  317MPD2    C3 4764   2.955   4.142  12.763  0.3150 -0.0920  0.2734
  317MPD2    C4 4765   2.851   4.230  12.743  0.2270  0.6894  0.1232
  317MPD2    C5 4766   2.796   4.238  12.612 -0.9630  0.3047 -0.4371
  317MPD2     H 4767   3.098   4.010  12.659  0.6571 -0.0891  0.4717
  317MPD2    H1 4768   2.799   4.295  12.813  0.2220 -0.4846  1.2094
  317MPD2    H2 4769   2.808   4.167  12.416 -1.0916  1.5097  1.1444
  317MPD2    H3 4770   2.714   4.304  12.590 -0.8561  0.8355  0.7710
  317MPD2     N 4771   3.011   4.121  12.891 -0.3198 -0.2152 -0.0792
  317MPD2    H5 4772   3.081   4.048  12.896 -2.1815 -2.0818 -1.4295
  317MPD2    N1 4773   3.018   3.991  12.429 -0.6375 -0.1296 -0.7743
  317MPD2    H7 4774   3.097   3.936  12.460 -0.4317  0.1016 -0.8856
  318TMC3    C1 4775   3.030   4.113  13.133  0.3660 -0.1192 -0.3903
  318TMC3    C2 4776   3.060   3.979  13.114  0.0104  0.7065 -0.0230
  318TMC3    C3 4777   3.164   3.934  13.183 -0.6762  0.2316  0.5351
  318TMC3    C4 4778   3.101   4.192  13.220  0.4317  0.1840 -0.1954
  318TMC3    C5 4779   3.207   4.143  13.278  0.6585  0.1649 -0.6290
  318TMC3    C6 4780   3.243   4.014  13.262 -0.1323  0.4036 -0.1877
  318TMC3     C 4781   2.970   4.180  13.017 -0.5169 -0.5268 -0.1709
  318TMC3     O 4782   2.895   4.276  13.029 -0.0152  0.1829 -0.0362
  318TMC3     H 4783   2.994   3.912  13.060  0.8369  0.7612 -1.1028
  318TMC3    H1 4784   3.092   4.300  13.220 -0.0939  0.1375  0.0876
  318TMC3    H2 4785   3.313   3.962  13.327 -0.1158 -1.2416 -1.5008
  318TMC3    C7 4786   3.298   4.229  13.353  0.3715 -0.0393 -0.6144
  318TMC3    C8 4787   3.156   3.789  13.225 -0.1389  0.3308  0.2269
  318TMC3    O1 4788   3.250   4.334  13.398  0.9527 -0.1205  0.1777
  318TMC3    O2 4789   3.250   3.735  13.282 -0.4475 -0.1418 -0.5032
  319MPD2     C 4790   3.872   1.526  16.771  0.7602 -0.2130  0.1799
  319MPD2    C1 4791   3.856   1.388  16.784 -0.3733 -0.2266 -0.3451
  319MPD2    C2 4792   3.764   1.325  16.704 -0.5275  0.0538  0.5839
  319MPD2    C3 4793   3.674   1.396  16.626  0.1619 -0.0726  0.2203
  319MPD2    C4 4794   3.688   1.534  16.608 -0.2226 -0.1208  0.0531
  319MPD2    C5 4795   3.799   1.592  16.674  0.0473 -0.4286  0.5190
  319MPD2     H 4796   3.754   1.219  16.727  0.1732 -0.2361 -0.3881
  319MPD2    H1 4797   3.623   1.595  16.546 -0.5768  0.0888  0.6308
  319MPD2    H2 4798   3.942   1.585  16.829  0.6951  0.1761 -0.1414
  319MPD2    H3 4799   3.810   1.699  16.661  0.9353 -0.7326 -1.1532
  319MPD2     N 4800   3.565   1.335  16.554  0.3674  0.5691  0.2585
  319MPD2    H5 4801   3.517   1.397  16.489 -0.8125 -1.6915 -1.0081
  319MPD2    N1 4802   3.939   1.307  16.869  0.1360 -0.1960  0.1552
  319MPD2    H7 4803   3.911   1.212  16.894 -0.1841  0.0568  0.7594
  320TMC3    C1 4804   3.412   1.175  16.484 -0.4313  0.7493 -0.1170
  320TMC3    C2 4805   3.406   1.236  16.363 -0.5244  0.7502  1.2643
  320TMC3    C3 4806   3.292   1.212  16.290  0.8094  0.7034  0.0051
  320TMC3    C4 4807   3.314   1.102  16.538  0.6415 -0.3380  0.5999
  320TMC3    C5 4808   3.202   1.082  16.466 -0.4263  0.2316 -0.7404
  320TMC3    C6 4809   3.187   1.135  16.341 -0.0596  0.7021 -0.0972
  320TMC3     C 4810   3.519   1.207  16.573  0.2073 -0.1615  0.2530
  320TMC3     O 4811   3.535   1.140  16.675 -0.9498  0.9323 -0.4301
  320TMC3     H 4812   3.492   1.283  16.316 -2.6295  2.4775 -0.8720
  320TMC3    H1 4813   3.336   1.055  16.634 -0.2602  1.1663  1.5529
  320TMC3    H2 4814   3.101   1.124  16.276 -1.7733 -1.7352  2.5910
  320TMC3    C7 4815   3.124   0.970  16.493 -0.2873  0.5124  0.1630
  320TMC3    C8 4816   3.263   1.306  16.187 -0.9569  0.1303  0.2477
  320TMC3    O1 4817   3.082   0.907  16.399  0.2541 -0.3681 -0.1743
  320TMC3    O2 4818   3.147   1.348  16.180  0.1957  0.1876 -0.4200
  321TMC3    C1 4819   4.097   1.294  17.047 -0.2511 -0.7951  0.1501
  321TMC3    C2 4820   4.010   1.220  17.128 -0.1427  0.6055 -0.3250
  321TMC3    C3 4821   4.044   1.199  17.259 -0.2848 -0.3575  0.0197
  321TMC3    C4 4822   4.220   1.336  17.094  0.7495 -0.2905 -0.3908
  321TMC3    C5 4823   4.251   1.299  17.219  0.2963  0.2064  0.1912
  321TMC3    C6 4824   4.162   1.241  17.307 -0.0386 -0.6892 -0.2135
  321TMC3     C 4825   4.053   1.360  16.928  0.1027 -0.1098 -0.3561
  321TMC3     O 4826   4.127   1.449  16.894  0.3487 -0.6736 -0.7154
  321TMC3     H 4827   3.906   1.199  17.104 -0.4365  1.5904  0.1206
  321TMC3    H1 4828   4.292   1.383  17.028  0.8601 -1.8648 -1.3906
  321TMC3    H2 4829   4.185   1.219  17.411  1.4364 -0.6439 -0.5340
  321TMC3    C7 4830   4.392   1.250  17.246 -0.0955  0.1969 -0.4103
  321TMC3    C8 4831   4.020   1.058  17.295 -0.1479 -0.5547 -0.0581
  321TMC3    O1 4832   4.390   1.148  17.323  0.0301  0.4162  0.6142
  321TMC3    O2 4833   3.907   1.013  17.280  0.1467 -0.4010  0.6126
  322MPD2     C 4834   2.911   2.533  13.548 -0.1161 -0.1601  0.6904
  322MPD2    C1 4835   2.843   2.444  13.628  0.1200  0.5844 -0.0458
  322MPD2    C2 4836   2.805   2.326  13.572  0.8240 -0.7340  0.0075
  322MPD2    C3 4837   2.835   2.285  13.447  0.3831  0.2536 -0.5275
  322MPD2    C4 4838   2.898   2.378  13.367  0.1998  0.3906  0.0943
  322MPD2    C5 4839   2.933   2.502  13.417  0.6257  0.1211  0.2837
  322MPD2     H 4840   2.767   2.246  13.634  0.7719 -0.3640  0.4480
  322MPD2    H1 4841   2.925   2.351  13.266  1.7950  1.8166  0.1559
  322MPD2    H2 4842   2.945   2.633  13.573 -2.4037  0.7109  0.2791
  322MPD2    H3 4843   2.974   2.577  13.350  1.7202 -1.1342 -0.4423
  322MPD2     N 4844   2.808   2.152  13.413 -0.0060 -0.2956  0.6498
  322MPD2    H5 4845   2.789   2.096  13.496 -3.0787  1.0838  0.8720
  322MPD2    N1 4846   2.824   2.477  13.757  0.2478 -0.6796  0.6077
  322MPD2    H7 4847   2.882   2.552  13.791  1.3794 -1.1777 -0.2205
  323TMC3    C1 4848   2.733   2.489  13.975 -0.2930  0.1940 -0.1002
  323TMC3    C2 4849   2.792   2.612  13.994 -0.4860  0.9233 -0.2381
  323TMC3    C3 4850   2.808   2.659  14.122 -0.7275  0.2273 -0.0399
  323TMC3    C4 4851   2.679   2.426  14.080  0.1875  0.0708 -0.0947
  323TMC3    C5 4852   2.703   2.471  14.207  0.4243 -0.7557  1.0668
  323TMC3    C6 4853   2.770   2.586  14.230 -0.1599  0.1653 -0.1479
  323TMC3     C 4854   2.737   2.417  13.847 -0.2754 -0.0412 -0.7816
  323TMC3     O 4855   2.663   2.320  13.834  0.0794  0.1842  0.7038
  323TMC3     H 4856   2.827   2.671  13.910 -0.0819  0.4205 -0.4252
  323TMC3    H1 4857   2.642   2.328  14.055  0.1067 -0.0523  0.4952
  323TMC3    H2 4858   2.784   2.624  14.330  0.5565  1.6020 -0.7800
  323TMC3    C7 4859   2.702   2.372  14.317 -0.4872  0.7947 -0.8877
  323TMC3    C8 4860   2.937   2.709  14.146 -0.3389 -0.4046 -0.4355
  323TMC3    O1 4861   2.663   2.258  14.287 -0.3344  0.3805  0.0946
  323TMC3    O2 4862   3.004   2.655  14.229  0.5942  0.3212  0.1761
  324MPD2     C 4863   4.445   3.630  14.523 -0.5750 -0.2561  0.5457
  324MPD2    C1 4864   4.518   3.730  14.457  0.6089  1.0034 -0.1324
  324MPD2    C2 4865   4.470   3.786  14.337  0.6116  0.1013 -0.2102
  324MPD2    C3 4866   4.350   3.747  14.280 -0.0091  0.5179 -0.5968
  324MPD2    C4 4867   4.281   3.655  14.356 -0.1244  0.1431  0.9183
  324MPD2    C5 4868   4.324   3.596  14.472 -0.6903  0.4934 -0.6066
  324MPD2     H 4869   4.531   3.865  14.296  0.4903  0.8903  1.1259
  324MPD2    H1 4870   4.184   3.627  14.317  0.7065 -0.4705 -0.7054
  324MPD2    H2 4871   4.481   3.588  14.616  2.7131 -1.0483 -1.0921
  324MPD2    H3 4872   4.264   3.525  14.528 -1.5911  1.0576 -0.8517
  324MPD2     N 4873   4.284   3.796  14.163 -0.1730  0.0015 -0.4643
  324MPD2    H5 4874   4.208   3.736  14.133 -2.1596  1.8361  0.8312
  324MPD2    N1 4875   4.641   3.762  14.518 -0.0502 -0.1445  0.5087
  324MPD2    H7 4876   4.677   3.702  14.592 -0.4994  0.5870  1.3205
  325TMC3    C1 4877   4.209   3.930  13.985  0.3036 -0.0462 -0.4067
  325TMC3    C2 4878   4.121   3.830  13.964  0.2500  0.9122  0.9660
  325TMC3    C3 4879   3.989   3.858  13.954  0.3446 -0.4706 -0.4088
  325TMC3    C4 4880   4.158   4.058  13.987 -0.7127  0.6511 -0.1519
  325TMC3    C5 4881   4.021   4.083  13.979  0.3147 -0.2300 -0.0234
  325TMC3    C6 4882   3.935   3.984  13.971 -0.6893  0.0911  0.2196
  325TMC3     C 4883   4.312   3.907  14.090  0.7298  0.2283 -0.0026
  325TMC3     O 4884   4.397   3.994  14.106 -0.2684 -0.3893 -0.0461
  325TMC3     H 4885   4.141   3.724  13.963  1.0924  1.0595  2.2146
  325TMC3    H1 4886   4.229   4.135  14.014  1.0753 -0.9650 -0.1855
  325TMC3    H2 4887   3.830   4.004  13.956 -0.2690  1.1983 -1.3085
  325TMC3    C7 4888   3.986   4.219  14.021 -0.5753  0.3540 -0.3881
  325TMC3    C8 4889   3.908   3.741  13.936  0.0152 -0.7273 -0.4762
  325TMC3    O1 4890   4.058   4.312  13.983 -0.2356  0.3876 -0.4087
  325TMC3    O2 4891   3.948   3.656  13.854  0.3147 -0.0392 -0.0700
  326MPD2     C 4892   0.899   3.872  10.890 -0.1186  0.0589 -0.1140
  326MPD2    C1 4893   0.926   3.937  10.773 -0.0133  0.6206  0.2979
  326MPD2    C2 4894   1.045   4.004  10.752 -0.3335 -0.4722 -0.0880
  326MPD2    C3 4895   1.140   3.999  10.853 -0.1518  0.5546  0.3872
  326MPD2    C4 4896   1.126   3.908  10.951  0.1538  0.2214 -0.0864
  326MPD2    C5 4897   1.008   3.847  10.967  0.4210  0.2365 -0.5612
  326MPD2     H 4898   1.057   4.057  10.659  0.3223  0.6287  0.6327
  326MPD2    H1 4899   1.203   3.892  11.025  0.3477 -0.8813 -0.5233
  326MPD2    H2 4900   0.815   3.806  10.911 -1.0053  1.7750  1.6899
  326MPD2    H3 4901   1.002   3.788  11.058  1.2343 -0.5500 -1.0213
  326MPD2     N 4902   1.263   4.069  10.848  0.0284  0.2792 -0.3221
  326MPD2    H5 4903   1.333   4.045  10.917  0.5242 -0.0038 -0.9176
  326MPD2    N1 4904   0.830   3.945  10.666 -0.3770  0.3422  0.2477
  326MPD2    H7 4905   0.864   3.992  10.583  0.6416  0.0850  0.5234
  327TMC3    C1 4906   0.658   3.921  10.521 -0.4528 -0.0190 -0.1475
  327TMC3    C2 4907   0.614   4.046  10.505 -0.1007 -0.2573  1.1062
  327TMC3    C3 4908   0.616   4.118  10.384  0.1591  0.1156  0.2028
  327TMC3    C4 4909   0.734   3.882  10.418 -0.0358  0.6281 -0.8276
  327TMC3    C5 4910   0.758   3.952  10.303 -0.0460 -0.2443  0.4666
  327TMC3    C6 4911   0.691   4.073  10.281  0.1475  1.1715  0.2837
  327TMC3     C 4912   0.707   3.899  10.655  0.3876  0.2424  0.2024
  327TMC3     O 4913   0.640   3.841  10.738  0.5786  0.1081  0.1257
  327TMC3     H 4914   0.547   4.073  10.586 -0.8840 -1.2672  0.8002
  327TMC3    H1 4915   0.785   3.787  10.425 -1.5945 -0.1321  0.2474
  327TMC3    H2 4916   0.708   4.127  10.188 -1.3689 -0.6931 -1.0920
  327TMC3    C7 4917   0.894   3.975  10.269 -0.2426 -0.1826 -0.5094
  327TMC3    C8 4918   0.587   4.257  10.381  0.5518  0.7523  0.5379
  327TMC3    O1 4919   0.925   4.086  10.230  0.5655  0.2222  0.2473
  327TMC3    O2 4920   0.561   4.304  10.267 -0.1991 -0.3933 -0.3702
  328MPD2     C 4921   3.037   4.188  17.087  0.6763 -0.8580  0.2439
  328MPD2    C1 4922   2.972   4.078  17.045  0.7849 -0.6858 -0.2487
  328MPD2    C2 4923   2.865   4.103  16.959 -0.1426 -0.9957  0.0085
  328MPD2    C3 4924   2.828   4.226  16.909  0.6881  0.4987 -0.2038
  328MPD2    C4 4925   2.900   4.334  16.959 -0.1942 -0.4192  0.2452
  328MPD2    C5 4926   2.993   4.314  17.056 -0.4710 -0.4124 -0.8197
  328MPD2     H 4927   2.795   4.023  16.936 -0.3695 -0.7167 -0.2769
  328MPD2    H1 4928   2.861   4.435  16.951 -1.1224 -0.7401  0.6496
  328MPD2    H2 4929   3.125   4.179  17.150 -0.7670  1.4198  2.6212
  328MPD2    H3 4930   3.033   4.400  17.108  1.1342 -0.0629 -2.6056
  328MPD2     N 4931   2.734   4.263  16.814 -0.4124 -0.1141  0.3001
  328MPD2    H5 4932   2.719   4.361  16.794 -1.5924 -0.5881 -1.1128
  328MPD2    N1 4933   3.000   3.953  17.100  0.5493 -0.3801  1.0305
  328MPD2    H7 4934   3.070   3.948  17.174  0.6204  1.5268  1.0984
  329TMC3    C1 4935   2.963   3.719  17.143 -0.1780  0.3630  0.3710
  329TMC3    C2 4936   2.962   3.738  17.277 -0.6967  0.0347 -0.5225
  329TMC3    C3 4937   2.994   3.628  17.363  0.3948  0.3362 -0.5181
  329TMC3    C4 4938   2.980   3.595  17.091  0.2665  0.0185 -0.7346
  329TMC3    C5 4939   2.994   3.492  17.179 -0.5772 -0.1122  0.1729
  329TMC3    C6 4940   3.019   3.507  17.312  0.0268  0.0868 -0.4645
  329TMC3     C 4941   2.940   3.830  17.051 -0.4077  0.8575  0.0637
  329TMC3     O 4942   2.875   3.808  16.953  0.4709 -0.2838  0.3131
  329TMC3     H 4943   2.962   3.840  17.313  1.9663  0.2173 -1.0798
  329TMC3    H1 4944   2.969   3.581  16.984 -0.2570  0.0021 -0.6753
  329TMC3    H2 4945   3.058   3.425  17.371 -1.4150 -0.3035 -0.0311
  329TMC3    C7 4946   3.041   3.358  17.130  0.2927 -0.1399 -0.2052
  329TMC3    C8 4947   3.057   3.657  17.489  0.4358 -0.6364  0.1070
  329TMC3    O1 4948   3.062   3.267  17.207  0.5271  0.1724  0.1721
  329TMC3    O2 4949   3.124   3.567  17.538 -0.0857  0.1159  0.6115
  330TMC3    C1 4950   2.056   3.337   9.706  0.1887 -0.4435 -0.1425
  330TMC3    C2 4951   2.037   3.199   9.684  0.4192  0.0882 -0.4771
  330TMC3    C3 4952   2.151   3.118   9.704  0.0817 -0.5836  0.8005
  330TMC3    C4 4953   2.179   3.387   9.743 -0.5607  0.0945  0.9675
  330TMC3    C5 4954   2.275   3.301   9.792  0.0145  0.0032  1.0795
  330TMC3    C6 4955   2.273   3.169   9.765  0.0161 -0.6270 -0.2395
  330TMC3     C 4956   1.942   3.427   9.715  0.4323  0.2208  0.0812
  330TMC3     O 4957   1.967   3.546   9.743  0.2406 -0.0397 -0.0782
  330TMC3     H 4958   1.947   3.162   9.636 -1.1187  1.9111  1.0056
  330TMC3    H1 4959   2.195   3.491   9.765 -1.7273  0.7224 -1.1402
  330TMC3    H2 4960   2.361   3.107   9.771  0.8782  0.4471 -1.6711
  330TMC3    C7 4961   2.379   3.360   9.870  0.2389  0.2821  0.3339
  330TMC3    C8 4962   2.151   2.973   9.674 -0.0712  0.3146 -0.7069
  330TMC3    O1 4963   2.364   3.480   9.893  0.4433 -0.2782  0.2160
  330TMC3    O2 4964   2.260   2.914   9.681  0.3389 -0.0284 -0.0054
  331MPD2     C 4965   3.921   2.842  13.085  0.0247 -0.5147 -0.2312
  331MPD2    C1 4966   4.022   2.842  12.988 -0.4054  0.1554  0.1109
  331MPD2    C2 4967   3.994   2.803  12.857  1.2105 -0.2472  0.6290
  331MPD2    C3 4968   3.861   2.767  12.825 -0.8783 -0.2856  0.3591
  331MPD2    C4 4969   3.766   2.758  12.927  0.5547  0.6328 -0.1728
  331MPD2    C5 4970   3.800   2.799  13.053  0.5858  0.5570  0.0326
  331MPD2     H 4971   4.078   2.785  12.791  0.4467 -0.0007 -0.4066
  331MPD2    H1 4972   3.665   2.722  12.918  1.0127 -0.7188  0.0779
  331MPD2    H2 4973   3.948   2.853  13.190 -1.5148  0.0444  0.1113
  331MPD2    H3 4974   3.725   2.801  13.131  0.9321 -1.4130  0.4096
  331MPD2     N 4975   3.836   2.706  12.703 -0.0431  0.0309  0.4017
  331MPD2    H5 4976   3.909   2.721  12.634 -0.6080  0.8179 -0.0286
  331MPD2    N1 4977   4.157   2.867  13.028  0.1840  0.0883  0.3952
  331MPD2    H7 4978   4.171   2.869  13.129 -0.4779 -0.3838  0.4941
  332TMC3    C1 4979   3.739   2.554  12.542  0.3359 -0.2234  0.2626
  332TMC3    C2 4980   3.805   2.609  12.431 -0.3259 -0.5583 -0.2568
  332TMC3    C3 4981   3.817   2.530  12.322 -0.1182  0.4425  0.1808
  332TMC3    C4 4982   3.696   2.424  12.539  0.6009  0.6169  0.0391
  332TMC3    C5 4983   3.732   2.344  12.431 -1.0170  0.1188  0.3994
  332TMC3    C6 4984   3.768   2.403  12.316  0.1560 -0.4304 -0.1011
  332TMC3     C 4985   3.731   2.621  12.667  0.3398  0.2508  0.2597
  332TMC3     O 4986   3.637   2.581  12.732  0.2108  0.0039 -0.6674
  332TMC3     H 4987   3.841   2.711  12.432 -1.9043 -0.0311  3.3097
  332TMC3    H1 4988   3.661   2.372  12.627  1.2869  2.2718  1.2937
  332TMC3    H2 4989   3.781   2.340  12.229  0.3377 -0.8893  0.2537
  332TMC3    C7 4990   3.771   2.213  12.459  0.4449 -0.0616  0.2304
  332TMC3    C8 4991   3.911   2.563  12.214 -0.7941 -0.0706 -0.8043
  332TMC3    O1 4992   3.704   2.155  12.542 -0.2169 -0.7803  0.0852
  332TMC3    O2 4993   4.005   2.638  12.236  0.3867  0.4325  0.4610
  333MPD2     C 4994   4.417   2.245  11.054 -0.0311  0.3412 -0.0487
  333MPD2    C1 4995   4.461   2.160  10.957  0.1979  0.1141  0.2238
  333MPD2    C2 4996   4.403   2.028  10.959 -0.8942  0.7787 -0.4990
  333MPD2    C3 4997   4.320   1.996  11.062 -0.9213  0.3840 -0.3955
  333MPD2    C4 4998   4.289   2.084  11.163 -0.0382  0.5504 -0.3844
  333MPD2    C5 4999   4.341   2.210  11.159 -0.7461  0.2786  0.0367
  333MPD2     H 5000   4.434   1.958  10.883 -0.6520 -0.8922  1.1423
  333MPD2    H1 5001   4.211   2.062  11.235  0.4478  2.2585  0.6650
  333MPD2    H2 5002   4.443   2.350  11.053 -1.5555  0.7219  0.3473
  333MPD2    H3 5003   4.296   2.278  11.230 -2.1509 -1.6049  0.9399
  333MPD2     N 5004   4.254   1.868  11.059  0.0277 -0.4186  0.2912
  333MPD2    H5 5005   4.286   1.803  10.988 -1.0066 -1.0691  0.4307
  333MPD2    N1 5006   4.549   2.210  10.854 -0.4254  0.0295 -0.0382
  333MPD2    H7 5007   4.568   2.309  10.862 -1.4001  0.2606 -0.5975
  334TMC3    C1 5008   4.679   2.218  10.652  0.1460  0.4663  1.0462
  334TMC3    C2 5009   0.041   2.132  10.575  0.4362  0.1374  0.8003
  334TMC3    C3 5010   0.112   2.192  10.475 -0.1241 -0.1623  0.1891
  334TMC3    C4 5011   4.685   2.356  10.638 -0.5458  0.3217 -0.5795
  334TMC3    C5 5012   0.026   2.407  10.524 -0.2654  0.0208  0.5080
  334TMC3    C6 5013   0.104   2.326  10.445 -0.4279  0.6271  0.1294
  334TMC3     C 5014   4.595   2.142  10.748 -0.0738 -0.2828 -0.5264
  334TMC3     O 5015   4.587   2.021  10.731 -0.0523 -0.4990  0.1795
  334TMC3     H 5016   0.038   2.024  10.571  0.6750  0.1395  0.5028
  334TMC3    H1 5017   4.627   2.429  10.693  0.8469  1.1610 -0.2322
  334TMC3    H2 5018   0.155   2.365  10.358  0.0929 -0.1722  0.0657
  334TMC3    C7 5019   0.040   2.552  10.509 -0.4807 -0.2354  0.9033
  334TMC3    C8 5020   0.220   2.116  10.421 -0.2380 -0.4462  0.7591
  334TMC3    O1 5021   0.047   2.628  10.601 -0.4961  0.1440  0.2583
  334TMC3    O2 5022   0.221   1.991  10.421 -0.3214  0.7665  0.6715
  335TMC3    C1 5023   3.810   4.190   0.122 -0.4928  0.2927 -0.3261
  335TMC3    C2 5024   3.747   4.107   0.029  0.2659  0.0500  0.6745
  335TMC3    C3 5025   3.785   4.119  17.590  0.1898  0.7885 -0.0745
  335TMC3    C4 5026   3.905   4.286   0.079 -0.1294  1.0376 -0.0632
  335TMC3    C5 5027   3.943   4.290  17.638 -0.0265 -0.0173 -0.3154
  335TMC3    C6 5028   3.876   4.209  17.546 -0.2379 -0.8482  0.1907
  335TMC3     C 5029   3.766   4.192   0.262 -0.2380  0.0068  0.7923
  335TMC3     O 5030   3.850   4.217   0.346 -0.2070  0.0341  0.0179
  335TMC3     H 5031   3.667   4.039   0.055 -0.0601  0.0533 -0.3546
  335TMC3    H1 5032   3.931   4.362   0.153 -0.6615  0.7421  0.4238
  335TMC3    H2 5033   3.898   4.212  17.440  3.3566 -1.3233  0.9402
  335TMC3    C7 5034   4.014   4.403  17.590  0.0188  0.0704 -1.4653
  335TMC3    C8 5035   3.691   4.079  17.483 -0.1270  0.2652  0.3858
  335TMC3    O1 5036   3.992   4.433  17.474  0.1987  0.0677 -0.7814
  335TMC3    O2 5037   3.682   4.149  17.384 -0.5495 -0.1755  0.1755
  336MPD2     C 5038   3.668   2.335  15.657 -0.4221  0.4775 -0.7053
  336MPD2    C1 5039   3.541   2.319  15.714  0.8078  0.2930 -0.2081
  336MPD2    C2 5040   3.516   2.206  15.793  0.4758 -0.4069 -0.0910
  336MPD2    C3 5041   3.612   2.119  15.820 -0.4961 -0.4445  0.1404
  336MPD2    C4 5042   3.741   2.138  15.783  0.7106  0.1654  0.7154
  336MPD2    C5 5043   3.768   2.249  15.698  0.5467  0.1944 -0.1125
  336MPD2     H 5044   3.419   2.183  15.836  0.1079  0.8322 -0.2559
  336MPD2    H1 5045   3.816   2.068  15.817  2.3457  1.3113 -0.5338
  336MPD2    H2 5046   3.699   2.422  15.599  0.8256  2.0702  2.3554
  336MPD2    H3 5047   3.868   2.274  15.663  0.2262  0.4363 -0.8409
  336MPD2     N 5048   3.598   1.996  15.896  0.4462  0.3218  0.0156
  336MPD2    H5 5049   3.682   1.940  15.899 -0.4593 -1.0920 -0.8681
  336MPD2    N1 5050   3.438   2.412  15.698 -0.0108 -0.2653  0.4966
  336MPD2    H7 5051   3.350   2.375  15.733  0.9496 -1.4423  1.6403
  337TMC3    C1 5052   3.334   2.617  15.658  0.1188  0.0113 -0.0736
  337TMC3    C2 5053   3.218   2.547  15.632 -0.0271  0.0816  0.6199
  337TMC3    C3 5054   3.106   2.615  15.663 -0.2435 -0.2176 -0.1955
  337TMC3    C4 5055   3.341   2.742  15.702  0.4066 -0.0903 -0.2558
  337TMC3    C5 5056   3.221   2.805  15.729 -0.0284  0.3663 -0.4465
  337TMC3    C6 5057   3.104   2.742  15.718 -0.4195 -0.4269 -0.0152
  337TMC3     C 5058   3.454   2.541  15.647  0.1682  0.2210 -0.5210
  337TMC3     O 5059   3.556   2.606  15.633  0.3305 -0.2645 -0.0625
  337TMC3     H 5060   3.218   2.452  15.581  2.8500  0.8375 -0.7550
  337TMC3    H1 5061   3.433   2.799  15.711  2.3977 -3.4574  0.7712
  337TMC3    H2 5062   3.011   2.793  15.740 -0.9536 -1.9417  1.2012
  337TMC3    C7 5063   3.221   2.912  15.824  0.1670  0.0709  0.3303
  337TMC3    C8 5064   2.979   2.549  15.649  0.6289  0.2192 -0.1090
  337TMC3    O1 5065   3.131   2.908  15.907 -0.3643  0.0190  0.1410
  337TMC3    O2 5066   2.896   2.578  15.733  0.3627  0.2925  0.0035
  338MPD2     C 5067   4.036   1.450   0.792 -0.4067 -0.1873 -0.2496
  338MPD2    C1 5068   3.916   1.409   0.736  0.6523 -0.7918  0.6897
  338MPD2    C2 5069   3.805   1.488   0.762  0.0801  0.1095 -0.2394
  338MPD2    C3 5070   3.819   1.603   0.838 -0.0686 -0.0041  0.7853
  338MPD2    C4 5071   3.941   1.643   0.891 -0.0032 -0.2196 -0.4619
  338MPD2    C5 5072   4.050   1.566   0.864  0.3159 -0.3501  0.3151
  338MPD2     H 5073   3.706   1.469   0.720  0.1358  0.8858 -0.7130
  338MPD2    H1 5074   3.953   1.730   0.955 -0.2136 -0.4246 -0.1429
  338MPD2    H2 5075   4.124   1.393   0.763 -0.2777  0.6256 -1.4775
  338MPD2    H3 5076   4.149   1.595   0.896  0.0496  0.9731 -0.0345
  338MPD2     N 5077   3.703   1.679   0.848 -0.1661 -0.3332  0.2843
  338MPD2    H5 5078   3.613   1.651   0.811 -0.0419 -1.5417  0.8697
  338MPD2    N1 5079   3.895   1.289   0.661  0.4684 -0.4360  0.2159
  338MPD2    H7 5080   3.806   1.275   0.614 -1.1383  1.8397  2.5920
  339TMC3    C1 5081   3.555   1.845   0.888 -0.2448 -0.6005 -0.5884
  339TMC3    C2 5082   3.476   1.737   0.905 -0.5162 -0.1721  0.1752
  339TMC3    C3 5083   3.376   1.702   0.820 -0.7143  0.0458  0.1894
  339TMC3    C4 5084   3.530   1.914   0.776  0.5199  0.2673  0.5717
  339TMC3    C5 5085   3.441   1.874   0.679 -0.5165 -1.0166 -0.1238
  339TMC3    C6 5086   3.356   1.766   0.701 -0.3336 -0.7878 -0.0586
  339TMC3     C 5087   3.694   1.810   0.902 -0.5277  0.2492  0.5297
  339TMC3     O 5088   3.776   1.893   0.928  0.0270 -0.1053  0.6190
  339TMC3     H 5089   3.476   1.692   1.003  0.3905  1.8629  1.1098
  339TMC3    H1 5090   3.607   1.984   0.744  0.6958 -0.4954 -0.6528
  339TMC3    H2 5091   3.276   1.732   0.636 -0.9434  0.6856 -0.0752
  339TMC3    C7 5092   3.516   1.864   0.552 -0.0257  0.2800  0.8586
  339TMC3    C8 5093   3.319   1.574   0.831  0.2018  0.1511 -0.7962
  339TMC3    O1 5094   3.585   1.960   0.509 -0.0852 -0.0199  0.2037
  339TMC3    O2 5095   3.329   1.504   0.731 -0.0549  0.5518 -0.0968
  340MPD2     C 5096   4.407   3.573   8.938  0.4510 -0.6375 -0.1211
  340MPD2    C1 5097   4.493   3.465   8.978  0.5927  0.7798  0.1594
  340MPD2    C2 5098   4.548   3.466   9.102  0.3494 -0.1922 -0.2073
  340MPD2    C3 5099   4.511   3.561   9.195  0.2771 -0.6163 -0.2046
  340MPD2    C4 5100   4.417   3.658   9.160  0.1036 -0.1920 -0.9888
  340MPD2    C5 5101   4.363   3.660   9.038 -0.4232 -0.0854 -0.6320
  340MPD2     H 5102   4.626   3.396   9.130 -0.3391 -1.8520 -2.4535
  340MPD2    H1 5103   4.390   3.742   9.222  1.3996 -0.7628  0.3449
  340MPD2    H2 5104   4.368   3.584   8.838  3.1512 -0.9212 -1.2019
  340MPD2    H3 5105   4.282   3.728   9.013 -0.8366 -0.8968 -1.4998
  340MPD2     N 5106   4.571   3.565   9.325  0.1344 -0.2521  0.4446
  340MPD2    H5 5107   4.551   3.649   9.378 -0.8538  0.2555 -0.7389
  340MPD2    N1 5108   4.514   3.363   8.878 -0.1982  0.2144 -0.2260
  340MPD2    H7 5109   4.472   3.370   8.786  0.1998  0.6024 -0.3834
  341TMC3    C1 5110   4.601   3.143   8.809  0.3909  0.2400  0.2729
  341TMC3    C2 5111   4.478   3.090   8.794  0.1522  0.3593 -0.0674
  341TMC3    C3 5112   4.465   2.954   8.786  0.6050 -0.8092 -0.0802
  341TMC3    C4 5113   4.720   3.070   8.815  0.0928  0.3750 -0.9539
  341TMC3    C5 5114   4.705   2.936   8.807 -0.7803  0.7462  0.1923
  341TMC3    C6 5115   4.579   2.874   8.786  0.1027 -0.5758  0.2068
  341TMC3     C 5116   4.598   3.256   8.899 -0.1280 -0.4936  0.8319
  341TMC3     O 5117   4.691   3.253   8.976 -0.0136  0.9842  0.6015
  341TMC3     H 5118   4.391   3.151   8.817 -0.2716 -1.0437  2.0576
  341TMC3    H1 5119   0.089   3.128   8.828  1.7882 -2.7830  1.4044
  341TMC3    H2 5120   4.574   2.766   8.790 -0.7090 -0.5150  0.8205
  341TMC3    C7 5121   0.093   2.858   8.846  0.2796  0.1520  0.6903
  341TMC3    C8 5122   4.341   2.888   8.822 -1.2844 -0.0554 -0.2549
  341TMC3    O1 5123   0.070   2.740   8.876  0.0221 -0.3224 -0.7712
  341TMC3    O2 5124   4.349   2.769   8.853  0.0131  0.1073  0.0495
  342MPD2     C 5125   1.402   2.687  17.544 -0.9869 -0.3320  0.1907
  342MPD2    C1 5126   1.538   2.692  17.512  0.2447  0.2727  0.0185
  342MPD2    C2 5127   1.612   2.798  17.557 -1.0138  0.4495  0.6308
  342MPD2    C3 5128   1.559   2.905  17.634 -0.1991 -0.2829  0.2966
  342MPD2    C4 5129   1.422   2.910  17.653 -0.3829  0.4501 -0.4178
  342MPD2    C5 5130   1.353   2.801  17.599  0.0267 -0.1682  0.4579
  342MPD2     H 5131   1.719   2.796  17.542 -1.2549 -2.5121 -0.6099
  342MPD2    H1 5132   1.372   2.979   0.031 -0.1452  1.1454 -0.9548
  342MPD2    H2 5133   1.333   2.608  17.516 -0.2926 -0.9428  0.2016
  342MPD2    H3 5134   1.248   2.808  17.625  0.0699  0.2319  0.5248
  342MPD2     N 5135   1.625   3.020  17.689  0.4321  0.4116 -0.0141
  342MPD2    H5 5136   1.569   3.094   0.041  0.5717  0.1926  0.5651
  342MPD2    N1 5137   1.607   2.583  17.443  0.3453  0.0490  0.2692
  342MPD2    H7 5138   1.704   2.596  17.416 -0.4329  3.1069 -1.0254
  343TMC3    C1 5139   1.645   2.360  17.370  0.2205  0.5420 -0.1882
  343TMC3    C2 5140   1.698   2.377  17.240 -0.1983 -0.0011 -0.9978
  343TMC3    C3 5141   1.765   2.268  17.183  0.1347 -0.4921  0.3948
  343TMC3    C4 5142   1.651   2.241  17.440  0.1267  0.0635 -0.0180
  343TMC3    C5 5143   1.730   2.143  17.382 -0.1230 -0.1043 -0.7058
  343TMC3    C6 5144   1.790   2.152  17.256  0.4446  0.1195  1.2267
  343TMC3     C 5145   1.554   2.455  17.428 -0.1975  0.5415  0.3675
  343TMC3     O 5146   1.464   2.408  17.500 -0.2652  0.3185 -0.4164
  343TMC3     H 5147   1.692   2.470  17.185  0.4981  0.8881  0.4281
  343TMC3    H1 5148   1.586   2.201  17.517 -0.5338  1.8474  0.3611
  343TMC3    H2 5149   1.838   2.068  17.207  1.2277  0.2270  1.8007
  343TMC3    C7 5150   1.731   2.005  17.425  0.6228  0.2899 -0.1615
  343TMC3    C8 5151   1.806   2.279  17.046 -0.0349 -0.5029 -0.0137
  343TMC3    O1 5152   1.704   1.922  17.342  0.1351 -0.4727  0.3419
  343TMC3    O2 5153   1.740   2.356  16.985 -0.0049 -0.2487 -0.7112
  344MPD2     C 5154   3.358   1.524  10.853  0.0321  0.2849 -0.4713
  344MPD2    C1 5155   3.302   1.426  10.765 -0.3990  0.4654  0.2378
  344MPD2    C2 5156   3.343   1.427  10.635 -0.5169 -0.6539 -0.2649
  344MPD2    C3 5157   3.417   1.530  10.579 -0.4588  0.1929 -0.1273
  344MPD2    C4 5158   3.476   1.623  10.662 -0.2025  0.3780  1.0147
  344MPD2    C5 5159   3.441   1.617  10.799 -0.1829  0.1957  0.5086
  344MPD2     H 5160   3.317   1.341  10.574  2.0035 -1.2564 -0.5131
  344MPD2    H1 5161   3.548   1.696  10.625  1.6310 -2.1229 -0.2855
  344MPD2    H2 5162   3.329   1.524  10.958  1.4743 -0.4134 -0.0766
  344MPD2    H3 5163   3.489   1.692  10.861  0.3919 -0.0934  0.4046
  344MPD2     N 5164   3.458   1.540  10.444  0.0044 -0.0637  0.3527
  344MPD2    H5 5165   3.523   1.616  10.423 -0.0861 -0.5119 -1.5165
  344MPD2    N1 5166   3.208   1.323  10.815 -0.0965 -0.5775 -0.0744
  344MPD2    H7 5167   3.153   1.273  10.744  0.7982 -0.1419 -1.0751
  345TMC3    C1 5168   3.471   1.490  10.216  0.1413 -0.0365  0.3673
  345TMC3    C2 5169   3.601   1.526  10.220  0.3817  0.3160  0.3361
  345TMC3    C3 5170   3.662   1.583  10.113  0.1642 -0.2186 -0.3057
  345TMC3    C4 5171   3.396   1.505  10.106  0.0564  0.6748  0.3061
  345TMC3    C5 5172   3.460   1.569  10.003  0.0474  0.0820 -0.4090
  345TMC3    C6 5173   3.591   1.607  10.000  0.0842 -0.4344 -0.4154
  345TMC3     C 5174   3.404   1.467  10.343  0.0669 -0.2837  0.0043
  345TMC3     O 5175   3.304   1.394  10.347 -0.2275 -0.6621  0.1515
  345TMC3     H 5176   3.655   1.495  10.308  1.3287 -1.3740 -0.8267
  345TMC3    H1 5177   3.293   1.472  10.094  0.4270  0.6225 -2.6582
  345TMC3    H2 5178   3.618   1.673   9.919 -1.0526  0.0926 -0.3638
  345TMC3    C7 5179   3.384   1.677   9.946 -1.0438  0.3220 -0.0434
  345TMC3    C8 5180   3.768   1.669  10.154  0.3523  0.0882 -0.0036
  345TMC3    O1 5181   3.411   1.790   9.985 -0.4360 -0.6609  0.2240
  345TMC3    O2 5182   3.774   1.705  10.271  0.3621  0.3735 -0.2581
  346MPD2     C 5183   3.235   3.692  14.539  0.8124  0.4929 -0.6228
  346MPD2    C1 5184   3.265   3.795  14.446  0.2819 -0.1224 -0.5372
  346MPD2    C2 5185   3.302   3.920  14.502 -0.0843 -0.3853  0.3668
  346MPD2    C3 5186   3.318   3.940  14.635 -0.0951 -0.5507  0.0046
  346MPD2    C4 5187   3.287   3.834  14.719  0.4839 -0.3330  0.1911
  346MPD2    C5 5188   3.254   3.711  14.673  1.0370  0.4454  0.0917
  346MPD2     H 5189   3.335   3.996  14.432 -0.9921  0.0400  0.3897
  346MPD2    H1 5190   3.283   3.850  14.826  1.8718  0.1731  0.1712
  346MPD2    H2 5191   3.200   3.599  14.495 -0.9009  0.7514  0.1768
  346MPD2    H3 5192   3.231   3.632  14.743 -0.8521  0.4600 -0.4980
  346MPD2     N 5193   3.368   4.067  14.674 -0.3051  0.2590  0.3381
  346MPD2    H5 5194   3.396   4.137  14.606 -0.4737 -2.0024 -2.0661
  346MPD2    N1 5195   3.297   3.783  14.310 -0.2648 -0.4798 -0.1436
  346MPD2    H7 5196   3.313   3.868  14.256  0.4147 -0.8627 -0.5476
  347TMC3    C1 5197   3.493   4.204  14.812  0.5078  0.6119  0.2352
  347TMC3    C2 5198   3.513   4.303  14.715  0.1303 -0.0550  0.6750
  347TMC3    C3 5199   3.608   4.397  14.740 -0.5420  0.6560 -0.2548
  347TMC3    C4 5200   3.576   4.199  14.925 -1.1778 -0.1562  0.6990
  347TMC3    C5 5201   3.672   4.294  14.940  0.6958 -0.3060 -0.1516
  347TMC3    C6 5202   3.688   4.389  14.852  0.2066 -0.5007  0.1312
  347TMC3     C 5203   3.394   4.097  14.805  0.4148  0.6508 -0.8478
  347TMC3     O 5204   3.393   4.023  14.903  0.0485  0.2769  0.1009
  347TMC3     H 5205   3.445   4.312  14.632  0.4811 -1.5269  0.2305
  347TMC3    H1 5206   3.562   4.129  15.006 -0.1871 -0.5588  0.5295
  347TMC3    H2 5207   3.766   4.465  14.855  0.6775 -1.0105  0.6219
  347TMC3    C7 5208   3.798   4.251  15.001  0.5238  0.5043  0.3334
  347TMC3    C8 5209   3.659   4.465  14.625  0.2223 -0.0034 -0.4611
  347TMC3    O1 5210   3.876   4.341  15.030  1.1059 -0.2544  0.1799
  347TMC3    O2 5211   3.705   4.582  14.639 -0.2924  0.2678 -0.5816
  348MPD2     C 5212   1.393   2.743  11.855  0.0368  0.5350  0.2517
  348MPD2    C1 5213   1.424   2.669  11.737 -0.0197  0.4595  0.0851
  348MPD2    C2 5214   1.432   2.735  11.616  0.5880  0.7150 -0.1522
  348MPD2    C3 5215   1.427   2.874  11.606  1.0863 -0.0722  0.5373
  348MPD2    C4 5216   1.414   2.944  11.724  0.2283  0.4615  0.5309
  348MPD2    C5 5217   1.396   2.881  11.843 -0.7943  0.2565  0.6812
  348MPD2     H 5218   1.471   2.682  11.530 -0.9584  0.9852 -1.0243
  348MPD2    H1 5219   1.406   3.052  11.730  0.5780  0.4933  0.4479
  348MPD2    H2 5220   1.379   2.703  11.955  3.2463 -0.8496  0.1358
  348MPD2    H3 5221   1.361   2.941  11.927 -0.1834 -0.0312  1.1401
  348MPD2     N 5222   1.439   2.936  11.479 -0.4585 -0.6922 -0.0906
  348MPD2    H5 5223   1.466   2.865  11.412  0.1774  0.9416 -1.5416
  348MPD2    N1 5224   1.461   2.533  11.733  0.3227 -0.1085 -0.0227
  348MPD2    H7 5225   1.455   2.488  11.642 -1.8501 -1.6174  0.8644
  349TMC3    C1 5226   1.553   2.329  11.831  0.2116  0.0197  0.4606
  349TMC3    C2 5227   1.588   2.281  11.955 -0.2630  0.6153 -0.1818
  349TMC3    C3 5228   1.722   2.270  11.985 -0.5927 -0.0152 -0.3108
  349TMC3    C4 5229   1.653   2.334  11.734  0.1805 -0.4928 -0.9971
  349TMC3    C5 5230   1.786   2.318  11.766  0.0653 -0.6709  0.0775
  349TMC3    C6 5231   1.822   2.296  11.891  0.6752 -0.7086 -0.0518
  349TMC3     C 5232   1.487   2.456  11.847  0.6874 -0.1226  0.9584
  349TMC3     O 5233   1.473   2.497  11.961  0.3093 -0.2006  0.1701
  349TMC3     H 5234   1.520   2.275  12.039  0.8550  0.2000  0.6863
  349TMC3    H1 5235   1.644   2.389  11.641 -0.1958  0.1334 -0.5931
  349TMC3    H2 5236   1.925   2.308  11.923  0.3503 -0.8302  1.0473
  349TMC3    C7 5237   1.866   2.414  11.689 -0.0086  0.2033 -0.2746
  349TMC3    C8 5238   1.762   2.225  12.119 -0.2290 -0.6344  0.2960
  349TMC3    O1 5239   1.895   2.362  11.579  0.3449  0.3448 -0.5853
  349TMC3    O2 5240   1.682   2.238  12.209  0.4136  0.5874 -0.4753
  350MPD2     C 5241   0.914   1.029   9.557 -0.2274  0.2154 -0.1920
  350MPD2    C1 5242   0.903   0.892   9.557 -0.6613 -0.5351  0.2325
  350MPD2    C2 5243   1.019   0.823   9.587  0.2816  0.3868 -0.2907
  350MPD2    C3 5244   1.139   0.883   9.613  0.1767 -0.1507  0.5418
  350MPD2    C4 5245   1.151   1.026   9.610  0.4538 -0.2614 -0.5857
  350MPD2    C5 5246   1.039   1.090   9.568 -0.1569  0.0855 -0.0191
  350MPD2     H 5247   1.001   0.717   9.595 -0.3221  0.5862  1.0953
  350MPD2    H1 5248   1.237   1.087   9.634  1.2948 -1.1558 -1.3284
  350MPD2    H2 5249   0.837   1.103   9.539 -0.0718  0.4092 -0.0723
  350MPD2    H3 5250   1.049   1.198   9.568  1.0197 -0.0182 -0.5748
  350MPD2     N 5251   1.247   0.803   9.649  0.2800  0.1160  0.4252
  350MPD2    H5 5252   1.217   0.705   9.652 -0.9724  0.4296 -1.4830
  350MPD2    N1 5253   0.784   0.818   9.533  0.6672  0.6922  0.7661
  350MPD2    H7 5254   0.798   0.718   9.547 -0.7884  0.5273  1.0139
  351TMC3    C1 5255   0.563   0.769   9.459  0.6971 -0.4071  0.6822
  351TMC3    C2 5256   0.586   0.637   9.483  0.9131  0.0584 -0.4379
  351TMC3    C3 5257   0.494   0.543   9.440 -0.5234 -0.0654 -0.1934
  351TMC3    C4 5258   0.452   0.802   9.386 -0.4834 -0.3386  0.2801
  351TMC3    C5 5259   0.361   0.712   9.337 -0.2168 -0.0895 -0.2712
  351TMC3    C6 5260   0.383   0.575   9.372  0.1145  0.2976  0.2779
  351TMC3     C 5261   0.662   0.873   9.500  0.4500  0.2900  0.5713
  351TMC3     O 5262   0.645   0.993   9.479 -0.2681  0.5476 -0.0035
  351TMC3     H 5263   0.664   0.607   9.553  0.1930  0.7689  0.6658
  351TMC3    H1 5264   0.436   0.907   9.363 -2.5572 -0.7027  0.0886
  351TMC3    H2 5265   0.328   0.497   9.321  0.3808 -0.1147  0.6191
  351TMC3    C7 5266   0.239   0.749   9.254  0.4244 -0.0108  0.3639
  351TMC3    C8 5267   0.533   0.404   9.441 -0.3079  0.1376 -0.1279
  351TMC3    O1 5268   0.242   0.859   9.200  0.3186  0.0726 -0.2393
  351TMC3    O2 5269   0.655   0.393   9.443  0.0237  0.6408 -0.1337
  352MPD2     C 5270   4.237   3.745   0.789 -0.0317  0.5200  0.2609
  352MPD2    C1 5271   4.196   3.713   0.917  0.0501 -0.0223  0.0469
  352MPD2    C2 5272   4.272   3.609   0.984 -0.8173  0.4921  0.7405
  352MPD2    C3 5273   4.389   3.558   0.930  0.0115  0.6715  0.7771
  352MPD2    C4 5274   4.435   3.611   0.812  0.3755  0.4629  0.1808
  352MPD2    C5 5275   4.352   3.692   0.736 -0.0262 -0.2360  0.2862
  352MPD2     H 5276   4.232   3.559   1.072 -0.1871 -1.9477 -0.3487
  352MPD2    H1 5277   4.529   3.574   0.772 -1.5737 -2.4653 -1.6604
  352MPD2    H2 5278   4.186   3.819   0.728  1.5691  2.0331  0.7554
  352MPD2    H3 5279   4.383   3.717   0.636 -1.4450 -1.6315 -0.4916
  352MPD2     N 5280   4.476   3.468   0.995  0.9155 -0.0564 -0.0021
  352MPD2    H5 5281   4.561   3.443   0.945  1.6111  2.4239 -0.0614
  352MPD2    N1 5282   4.079   3.770   0.971 -0.0075 -0.8275 -0.3324
  352MPD2    H7 5283   4.021   3.816   0.902 -1.8699  1.5801  2.8445
  353TMC3    C1 5284   4.556   3.300   1.126 -0.7202 -0.2505  0.3957
  353TMC3    C2 5285   4.588   3.250   1.255  0.9360  0.5942  0.1446
  353TMC3    C3 5286   4.655   3.128   1.255 -0.0623  0.2436 -0.0839
  353TMC3    C4 5287   4.583   3.229   1.010  0.3605  0.3608 -0.1126
  353TMC3    C5 5288   4.634   3.104   1.020 -0.0493  0.2281 -0.3210
  353TMC3    C6 5289   4.670   3.053   1.146  0.0352  0.5862 -0.4053
  353TMC3     C 5290   4.459   3.404   1.118 -0.5753  0.1569  0.5239
  353TMC3     O 5291   4.384   3.424   1.213 -0.5076 -0.0923 -0.1698
  353TMC3     H 5292   4.552   3.310   1.337 -1.9928 -1.4531  0.3658
  353TMC3    H1 5293   4.540   3.254   0.913  0.1195 -1.5664 -0.5026
  353TMC3    H2 5294   0.001   2.958   1.148 -0.1927  0.4968  1.6269
  353TMC3    C7 5295   4.642   3.028   0.893  0.1034  0.0364  0.1427
  353TMC3    C8 5296   4.703   3.074   1.391  0.4045  0.6198  0.5818
  353TMC3    O1 5297   4.559   3.049   0.804  0.5848  0.5090 -0.1704
  353TMC3    O2 5298   0.022   3.160   1.472  0.2854 -0.2772  0.4858
  354TMC3    C1 5299   1.079   4.696  13.062 -0.1517  0.4085  0.0127
  354TMC3    C2 5300   1.050   0.085  12.983 -0.1390 -0.4260  0.0614
  354TMC3    C3 5301   1.062   0.066  12.847 -0.5446  0.0817  0.5617
  354TMC3    C4 5302   1.115   4.574  13.007  0.1241  0.4872  0.0336
  354TMC3    C5 5303   1.113   4.563  12.879  0.2191 -0.4073 -0.8438
  354TMC3    C6 5304   1.099   4.666  12.793  0.7810 -0.7765  0.0140
  354TMC3     C 5305   1.064   4.698  13.204  0.2796 -0.6004  0.0092
  354TMC3     O 5306   0.976   0.036  13.266 -0.0317 -0.5795  0.0581
  354TMC3     H 5307   1.008   0.173  13.029  1.9242  1.0889 -0.9177
  354TMC3    H1 5308   1.124   4.488  13.073 -0.5256  0.1772 -0.2728
  354TMC3    H2 5309   1.111   4.652  12.686  2.5468 -1.1097  0.2571
  354TMC3    C7 5310   1.158   4.435  12.827  0.7188 -0.0598 -0.3893
  354TMC3    C8 5311   1.036   0.175  12.756 -0.2621  0.0041  0.0039
  354TMC3    O1 5312   1.125   4.344  12.897  0.3985 -0.1114 -0.2843
  354TMC3    O2 5313   1.053   0.145  12.637 -0.4510  0.2157 -0.5925
  355MPD2     C 5314   1.009   0.240  11.575  0.2361 -0.2046 -0.1212
  355MPD2    C1 5315   1.058   0.271  11.452 -0.3761 -0.1272 -0.2051
  355MPD2    C2 5316   1.189   0.289  11.437 -0.1570  1.2120  0.1409
  355MPD2    C3 5317   1.266   0.271  11.553 -0.3753  0.1729  0.7013
  355MPD2    C4 5318   1.210   0.226  11.672 -0.1483 -0.7164 -0.0052
  355MPD2    C5 5319   1.079   0.211  11.683 -0.1820 -0.0792  0.2591
  355MPD2     H 5320   1.235   0.306  11.340  2.8089  2.3437  1.7526
  355MPD2    H1 5321   1.272   0.217  11.760  0.0104  1.3494  0.0954
  355MPD2    H2 5322   0.903   0.229  11.595  0.2171  2.8587  1.4052
  355MPD2    H3 5323   1.035   0.171  11.774 -1.3643  0.1903 -0.1995
  355MPD2     N 5324   1.398   0.302  11.557  0.5178  0.6608  0.7632
  355MPD2    H5 5325   1.439   0.301  11.650  1.6458 -0.9551  0.2368
  355MPD2    N1 5326   0.959   0.294  11.357 -0.0354  0.2916  0.6048
  355MPD2    H7 5327   0.864   0.262  11.369  1.0662 -2.6905  1.3502
  356TMC3    C1 5328   1.599   0.407  11.484  0.4643 -0.2704 -0.2056
  356TMC3    C2 5329   1.677   0.444  11.382 -0.2057 -0.0642  0.6029
  356TMC3    C3 5330   1.768   0.548  11.395  0.3478 -0.3574  0.4380
  356TMC3    C4 5331   1.605   0.469  11.606 -1.1226 -0.1673  0.6227
  356TMC3    C5 5332   1.703   0.563  11.621 -0.8154 -0.8882  0.7657
  356TMC3    C6 5333   1.791   0.601  11.519 -0.0699  0.6393  0.0546
  356TMC3     C 5334   1.477   0.334  11.449 -0.0442 -0.5674  0.3849
  356TMC3     O 5335   1.460   0.317  11.332  0.2159 -0.3079  0.2658
  356TMC3     H 5336   1.663   0.394  11.287  0.9428  0.6831  0.0410
  356TMC3    H1 5337   1.527   0.466  11.680 -0.2309  1.3873  1.6416
  356TMC3    H2 5338   1.871   0.672  11.537  2.8233 -2.5349 -0.2369
  356TMC3    C7 5339   1.727   0.612  11.756 -0.5494 -0.5192 -0.4184
  356TMC3    C8 5340   1.847   0.579  11.276  0.6512  0.4415  0.2419
  356TMC3    O1 5341   1.687   0.544  11.851 -0.2466  0.5361 -0.1497
  356TMC3    O2 5342   1.820   0.523  11.171  0.9846 -0.0764  0.7172
  357MPD2     C 5343   0.790   0.973   1.098  0.8347 -0.2853  0.2766
  357MPD2    C1 5344   0.789   0.868   1.187  0.4738  0.0041  0.6349
  357MPD2    C2 5345   0.671   0.842   1.252 -0.3332  0.0145 -0.5987
  357MPD2    C3 5346   0.554   0.908   1.222  0.1565 -0.1420  0.5101
  357MPD2    C4 5347   0.555   1.013   1.131 -0.2222 -0.7465  0.4897
  357MPD2    C5 5348   0.674   1.039   1.067  0.3976  0.6008 -0.4422
  357MPD2     H 5349   0.658   0.758   1.320  0.5955  1.1390  0.9651
  357MPD2    H1 5350   0.464   1.062   1.100  0.9791 -0.2374 -2.2703
  357MPD2    H2 5351   0.876   1.000   1.037  0.8022  0.3338  0.5014
  357MPD2    H3 5352   0.664   1.101   0.979 -2.0005 -0.5120 -0.9461
  357MPD2     N 5353   0.435   0.859   1.274 -0.0060 -0.3076  0.5097
  357MPD2    H5 5354   0.351   0.901   1.235 -0.2513 -1.8721 -0.6446
  357MPD2    N1 5355   0.893   0.779   1.224  0.6751 -0.3394 -0.5609
  357MPD2    H7 5356   0.875   0.707   1.294  0.0190  0.2918 -0.0837
  358TMC3    C1 5357   1.101   0.675   1.208 -0.0659 -0.1321  0.7337
  358TMC3    C2 5358   1.182   0.601   1.129  0.5403  0.6423  0.0036
  358TMC3    C3 5359   1.228   0.487   1.186  0.1547 -0.1458  0.0154
  358TMC3    C4 5360   1.094   0.653   1.338  0.3227  0.1623  0.1517
  358TMC3    C5 5361   1.137   0.530   1.394  0.6916 -0.5832  0.5798
  358TMC3    C6 5362   1.198   0.438   1.312 -0.3144 -0.3407  0.5069
  358TMC3     C 5363   1.012   0.771   1.150 -0.8573  0.1650  0.1191
  358TMC3     O 5364   1.050   0.829   1.048 -0.4094 -0.8432 -0.0478
  358TMC3     H 5365   1.195   0.630   1.025  1.7405  0.9643  0.2386
  358TMC3    H1 5366   1.045   0.728   1.399  2.2584  1.4296  0.1693
  358TMC3    H2 5367   1.245   0.352   1.358  1.6757  1.1030  1.1785
  358TMC3    C7 5368   1.069   0.481   1.515 -0.0376 -0.0050 -0.1425
  358TMC3    C8 5369   1.223   0.384   1.083  0.5438  0.1339  0.0479
  358TMC3    O1 5370   1.051   0.363   1.534 -0.0965  0.2554  0.0015
  358TMC3    O2 5371   1.242   0.420   0.969 -0.0641 -0.0930 -0.1954
  359MPD2     C 5372   0.857   3.809  12.015  0.1745 -0.5958 -0.1863
  359MPD2    C1 5373   0.785   3.685  12.010 -0.1479  0.5775 -0.0808
  359MPD2    C2 5374   0.663   3.680  12.066 -0.3430  0.5496  0.6436
  359MPD2    C3 5375   0.599   3.792  12.119  0.2847  0.1590  0.4843
  359MPD2    C4 5376   0.658   3.914  12.109  0.0361 -0.5064 -0.5741
  359MPD2    C5 5377   0.794   3.917  12.064 -0.2239  0.1400  0.1316
  359MPD2     H 5378   0.609   3.587  12.076  1.8255 -0.9114 -1.1094
  359MPD2    H1 5379   0.610   4.003  12.147  2.5921  0.3723  0.5754
  359MPD2    H2 5380   0.955   3.818  11.971  0.2342 -2.1501 -0.3825
  359MPD2    H3 5381   0.841   4.015  12.064  1.4890 -0.6835  1.1842
  359MPD2     N 5382   0.477   3.776  12.196 -0.0910  0.5186  0.3453
  359MPD2    H5 5383   0.444   3.853  12.253  1.5502 -1.1533  3.5310
  359MPD2    N1 5384   0.844   3.567  11.958  0.2664 -0.3729 -0.5504
  359MPD2    H7 5385   0.785   3.485  11.958 -0.3243  0.0498 -0.8979
  360TMC3    C1 5386   1.013   3.424  11.885  0.2832 -0.4554  0.4530
  360TMC3    C2 5387   1.130   3.388  11.942 -1.2632  0.3798  0.9209
  360TMC3    C3 5388   1.202   3.288  11.885  0.2756 -0.3007  0.1465
  360TMC3    C4 5389   0.976   3.389  11.760  0.5231 -0.2340  0.5020
  360TMC3    C5 5390   1.048   3.289  11.706  0.5494 -0.1890 -0.1652
  360TMC3    C6 5391   1.168   3.247  11.759 -0.3177 -0.5853 -0.4540
  360TMC3     C 5392   0.975   3.553  11.933  0.4816 -0.3015 -0.3332
  360TMC3     O 5393   1.071   3.624  11.958  0.5287  0.1221 -0.4343
  360TMC3     H 5394   1.127   3.399  12.050  1.9427  0.9221  0.9517
  360TMC3    H1 5395   0.881   3.417  11.718  0.2264 -1.8730  0.0842
  360TMC3    H2 5396   1.205   3.152  11.722 -1.0838 -1.0775  0.0569
  360TMC3    C7 5397   1.031   3.289  11.564 -0.1699  0.1773 -0.1042
  360TMC3    C8 5398   1.329   3.263  11.943 -0.0112 -0.4783  0.7360
  360TMC3    O1 5399   0.989   3.387  11.509 -0.8642 -0.0503 -0.1552
  360TMC3    O2 5400   1.330   3.263  12.069  0.1319  0.1160  0.1816
  361MPD2     C 5401   2.743   3.143  17.312 -0.4620  0.3328 -0.4404
  361MPD2    C1 5402   2.722   3.037  17.223 -0.0899  0.1786  0.6655
  361MPD2    C2 5403   2.820   2.946  17.198 -0.0123  0.0379  0.2097
  361MPD2    C3 5404   2.942   2.940  17.278  0.7788  0.3543  0.3451
  361MPD2    C4 5405   2.957   3.040  17.370  0.0596 -0.1873  0.2474
  361MPD2    C5 5406   2.862   3.141  17.379 -0.1912 -0.2942  0.7292
  361MPD2     H 5407   2.808   2.862  17.130 -0.4235 -1.2174  1.8391
  361MPD2    H1 5408   3.043   3.042  17.436  0.9083 -3.2203 -0.8046
  361MPD2    H2 5409   2.674   3.224  17.333 -1.6132 -0.9432  0.7068
  361MPD2    H3 5410   2.895   3.213  17.453 -1.7972  1.2876 -0.0951
  361MPD2     N 5411   3.039   2.838  17.266  0.4185 -0.2029  0.5610
  361MPD2    H5 5412   3.117   2.829  17.331  1.3623  1.0876 -0.4018
  361MPD2    N1 5413   2.603   3.018  17.158 -0.6552  0.7191  0.0888
  361MPD2    H7 5414   2.603   2.944  17.088 -1.5693  0.2908  0.5447
  362TMC3    C1 5415   2.374   3.017  17.113  0.1777  0.6669  0.7003
  362TMC3    C2 5416   2.251   3.027  17.178 -0.1285  0.0311  0.0363
  362TMC3    C3 5417   2.141   2.998  17.096 -0.5857  0.3210  0.5877
  362TMC3    C4 5418   2.382   3.010  16.978 -0.0529  0.2087  0.2553
  362TMC3    C5 5419   2.273   2.972  16.911  0.5457  0.1776 -0.1661
  362TMC3    C6 5420   2.149   2.972  16.962  0.2095 -0.3015  0.5854
  362TMC3     C 5421   2.484   3.078  17.185  0.6246  0.1543 -0.3972
  362TMC3     O 5422   2.461   3.153  17.281  0.3269 -0.0480 -0.4670
  362TMC3     H 5423   2.241   3.036  17.285  2.0170  0.0054  0.2424
  362TMC3    H1 5424   2.481   3.021  16.935  0.7913 -0.1332  2.1080
  362TMC3    H2 5425   2.060   2.943  16.908  0.7526  0.3944 -0.7000
  362TMC3    C7 5426   2.284   2.953  16.769  0.0421  0.3326  0.4068
  362TMC3    C8 5427   2.006   3.017  17.146  0.5176 -0.3439 -0.5207
  362TMC3    O1 5428   2.197   3.013  16.706  0.3801  0.5227 -0.4683
  362TMC3    O2 5429   1.917   2.962  17.087  0.2288  0.0042  0.4350
  363TMC3    C1 5430   1.531   0.148   9.305 -0.2237 -0.1935  0.1382
  363TMC3    C2 5431   1.667   0.133   9.333  0.1453  0.2751  0.4664
  363TMC3    C3 5432   1.750   0.237   9.383 -0.6836  0.1892 -0.1200
  363TMC3    C4 5433   1.479   0.274   9.314 -0.1173 -0.3841  0.0238
  363TMC3    C5 5434   1.563   0.377   9.353  0.2997  0.8705 -0.1184
  363TMC3    C6 5435   1.691   0.361   9.392 -0.3066  0.3186  0.9254
  363TMC3     C 5436   1.449   0.033   9.273  0.0822  0.3391 -0.4954
  363TMC3     O 5437   1.499   4.642   9.269 -0.1269 -0.1854  0.3038
  363TMC3     H 5438   1.708   0.034   9.319  0.8689  0.4341  1.4791
  363TMC3    H1 5439   1.376   0.304   9.297 -0.6666 -1.9558  0.6453
  363TMC3    H2 5440   1.750   0.445   9.427 -0.4253  0.8479 -0.1556
  363TMC3    C7 5441   1.499   0.513   9.360  0.1172 -0.0830 -0.4791
  363TMC3    C8 5442   1.890   0.229   9.418  0.0973 -0.3169  0.1049
  363TMC3    O1 5443   1.379   0.521   9.362 -0.1861  0.1910  0.5264
  363TMC3    O2 5444   1.945   0.338   9.419 -0.4348 -0.1436  0.1871
  364MPD2     C 5445   0.524   4.711  10.630 -0.2491 -0.3821 -0.2006
  364MPD2    C1 5446   0.561   4.683  10.498  0.6270  0.5829 -0.4529
  364MPD2    C2 5447   0.568   4.546  10.458 -0.1454 -0.2859  0.0017
  364MPD2    C3 5448   0.555   4.446  10.551 -0.0901  0.2553 -0.3772
  364MPD2    C4 5449   0.536   4.477  10.681 -0.0628  0.8287  0.4090
  364MPD2    C5 5450   0.508   4.606  10.719 -0.8922  0.5462  0.2753
  364MPD2     H 5451   0.598   4.524  10.356 -1.2289  2.0043 -0.8096
  364MPD2    H1 5452   0.534   4.397  10.754  0.6671  1.1042  0.7315
  364MPD2    H2 5453   0.510   0.092  10.661  0.8397 -0.8139  1.7639
  364MPD2    H3 5454   0.492   4.630  10.824 -1.1874  0.6243  0.2111
  364MPD2     N 5455   0.568   4.311  10.512  0.1560 -0.0414 -0.5370
  364MPD2    H5 5456   0.577   4.244  10.588  1.0735  0.2161 -0.4252
  364MPD2    N1 5457   0.570   0.071  10.412 -0.3475 -0.1316  0.0010
  364MPD2    H7 5458   0.563   0.164  10.453 -1.7927 -0.6019  0.7961
  365TMC3    C1 5459   0.653   0.172  10.219  0.0200  0.6553 -0.0169
  365TMC3    C2 5460   0.742   0.138  10.120 -0.0978  0.2624  1.0272
  365TMC3    C3 5461   0.803   0.240  10.059 -0.1535  0.3724  0.6740
  365TMC3    C4 5462   0.635   0.299  10.269 -0.9849 -0.1648 -0.7168
  365TMC3    C5 5463   0.703   0.396  10.202 -0.2628 -0.4265 -0.4174
  365TMC3    C6 5464   0.785   0.372  10.095  0.0672  0.0444  0.3531
  365TMC3     C 5465   0.591   0.061  10.276 -0.5170 -0.5784 -0.2055
  365TMC3     O 5466   0.568   4.691  10.199  0.2525  0.0882  0.0932
  365TMC3     H 5467   0.757   0.033  10.097  0.5513  0.4332  0.6802
  365TMC3    H1 5468   0.540   0.330  10.312  0.0102  0.1508  1.2766
  365TMC3    H2 5469   0.834   0.455  10.044 -0.5190  0.7745  0.9727
  365TMC3    C7 5470   0.663   0.531  10.243 -0.5059  0.5615  0.7013
  365TMC3    C8 5471   0.926   0.211   9.990  0.2886  0.1533 -0.1668
  365TMC3    O1 5472   0.698   0.623  10.170 -0.0242  0.3782  0.4062
  365TMC3    O2 5473   1.008   0.300  10.004 -0.6194 -0.4858 -0.0762
  366MPD2     C 5474   3.025   1.289  15.623 -0.5135  0.1078  0.3351
  366MPD2    C1 5475   3.076   1.337  15.497 -0.0991 -0.6469 -0.0611
  366MPD2    C2 5476   3.154   1.259  15.417  0.4282 -0.1097 -0.5272
  366MPD2    C3 5477   3.190   1.134  15.464  0.2039  0.4685  0.0081
  366MPD2    C4 5478   3.147   1.091  15.591  0.4396 -0.6547 -0.1759
  366MPD2    C5 5479   3.065   1.172  15.669  0.0261  0.4227  0.2276
  366MPD2     H 5480   3.192   1.294  15.321  1.7226 -0.5936 -0.1939
  366MPD2    H1 5481   3.176   0.996  15.634 -1.3205 -2.0112 -1.9491
  366MPD2    H2 5482   2.957   1.356  15.674 -2.6716 -0.5127 -1.7086
  366MPD2    H3 5483   3.029   1.139  15.766 -0.3964 -0.1461 -0.1217
  366MPD2     N 5484   3.282   1.060  15.387  0.4596  0.0774  0.5982
  366MPD2    H5 5485   3.288   1.092  15.291 -0.6464 -0.1309  0.4587
  366MPD2    N1 5486   3.044   1.471  15.455  0.0739  0.5076  0.0543
  366MPD2    H7 5487   3.084   1.500  15.366  1.7534  1.0486  0.9901
  367TMC3    C1 5488   2.980   1.690  15.437  0.4700 -0.1986 -0.1533
  367TMC3    C2 5489   3.095   1.757  15.464 -0.2009 -0.9330 -0.2456
  367TMC3    C3 5490   3.169   1.820  15.371  0.2255 -0.3128 -0.8239
  367TMC3    C4 5491   2.944   1.682  15.307  0.0489  0.3018  0.1666
  367TMC3    C5 5492   3.022   1.734  15.212 -0.4479  1.0541  0.2445
  367TMC3    C6 5493   3.132   1.810  15.242  0.2679  0.1153 -0.1597
  367TMC3     C 5494   2.972   1.571  15.519 -0.5340 -1.1394 -0.4775
  367TMC3     O 5495   2.931   1.580  15.635  0.2683 -0.0752  0.6200
  367TMC3     H 5496   3.133   1.743  15.565 -1.7274 -2.7852  0.0754
  367TMC3    H1 5497   2.849   1.642  15.274  0.9073 -0.6836 -1.1018
  367TMC3    H2 5498   3.192   1.837  15.156  0.1853 -1.5470 -0.7324
  367TMC3    C7 5499   2.961   1.781  15.086  0.1616 -0.4855 -0.0168
  367TMC3    C8 5500   3.303   1.840  15.407 -0.6797 -0.7784  1.5694
  367TMC3    O1 5501   2.992   1.890  15.039  0.1782 -0.3717 -0.4680
  367TMC3    O2 5502   3.342   1.781  15.506  0.7064 -0.2499  0.6114
  368MPD2     C 5503   0.053   3.155  13.449 -0.0648  0.4169  0.2443
  368MPD2    C1 5504   0.075   3.233  13.338  0.2497 -0.2870 -0.2047
  368MPD2    C2 5505   0.200   3.262  13.300 -0.2373  0.0010 -0.1783
  368MPD2    C3 5506   0.304   3.224  13.372  0.3576  0.2062  0.4103
  368MPD2    C4 5507   0.287   3.147  13.484  0.0620 -0.4246  0.2963
  368MPD2    C5 5508   0.158   3.106  13.525  0.2864 -0.3880  0.2414
  368MPD2     H 5509   0.222   3.323  13.213 -2.7694  0.1520 -0.7118
  368MPD2    H1 5510   0.378   3.114  13.531  0.5746  1.1690  0.4374
  368MPD2    H2 5511   4.672   3.138  13.478  0.0591  0.8341  0.9378
  368MPD2    H3 5512   0.144   3.049  13.617  0.3978 -1.4422 -0.3951
  368MPD2     N 5513   0.425   3.262  13.314  0.2129 -0.0833 -0.0256
  368MPD2    H5 5514   0.418   3.308  13.224  1.4052 -0.0205 -0.0899
  368MPD2    N1 5515   4.685   3.281  13.266 -0.9015 -0.0325  0.0039
  368MPD2    H7 5516   4.590   3.254  13.287 -1.2389  1.8631  0.9358
  369TMC3    C1 5517   4.556   3.402  13.104  0.2708 -0.1288 -0.1721
  369TMC3    C2 5518   4.536   3.514  13.031 -0.1596 -0.2250 -0.4217
  369TMC3    C3 5519   4.413   3.519  12.963  0.3612  0.5893  0.3565
  369TMC3    C4 5520   4.452   3.315  13.122  0.8946 -0.0295 -0.1279
  369TMC3    C5 5521   4.325   3.334  13.069  1.0897 -0.5305  1.0531
  369TMC3    C6 5522   4.304   3.440  12.991  0.3658  0.6178  0.2867
  369TMC3     C 5523   4.686   3.367  13.160  0.1394 -0.5371  0.3892
  369TMC3     O 5524   0.055   3.427  13.110 -0.0293 -0.2728  0.4565
  369TMC3     H 5525   4.619   3.580  13.013 -0.6929  0.6421  0.3349
  369TMC3    H1 5526   4.477   3.223  13.173 -1.8322 -0.0782  1.1493
  369TMC3    H2 5527   4.210   3.456  12.939  0.1637 -1.1951  0.0979
  369TMC3    C7 5528   4.218   3.246  13.118 -0.4108 -0.0647  0.1908
  369TMC3    C8 5529   4.405   3.574  12.829  0.3233  0.6715 -0.3908
  369TMC3    O1 5530   4.255   3.142  13.177  0.5769  0.0569 -0.1981
  369TMC3    O2 5531   4.297   3.577  12.766 -0.6900 -0.1261 -0.0600
  370TMC3    C1 5532   3.900   3.933  16.385  0.0566  0.3256  0.8541
  370TMC3    C2 5533   3.808   3.866  16.462 -0.6450 -0.6324  0.2635
  370TMC3    C3 5534   3.760   3.743  16.420  0.3383 -0.3273 -0.0196
  370TMC3    C4 5535   3.943   3.893  16.258 -0.7578 -0.7418  0.0706
  370TMC3    C5 5536   3.903   3.767  16.223 -0.1223 -0.2810  0.0045
  370TMC3    C6 5537   3.818   3.693  16.306 -0.3670  0.1486 -0.7066
  370TMC3     C 5538   3.899   4.077  16.402  0.2250  0.5274 -0.1449
  370TMC3     O 5539   3.802   4.129  16.450 -0.2036  0.1089 -0.7689
  370TMC3     H 5540   3.789   3.913  16.558  2.4915 -1.4501  1.2955
  370TMC3    H1 5541   4.018   3.952  16.206 -1.1963  0.2894  0.6251
  370TMC3    H2 5542   3.774   3.605  16.260 -1.2376  0.8610 -1.2440
  370TMC3    C7 5543   3.949   3.717  16.093 -0.3312 -0.5391  0.1463
  370TMC3    C8 5544   3.714   3.642  16.516  0.4302  0.2850 -0.9609
  370TMC3    O1 5545   3.972   3.804  16.008  0.1955 -0.1005 -0.4795
  370TMC3    O2 5546   3.735   3.529  16.478 -0.1288 -0.0762  0.0051
  371TMC3    C1 5547   0.411   1.873  15.692 -0.8680 -0.1129 -0.5301
  371TMC3    C2 5548   0.283   1.906  15.723 -0.3484  0.0542  0.1468
  371TMC3    C3 5549   0.237   2.031  15.707  0.2504  0.0721  0.4288
  371TMC3    C4 5550   0.496   1.970  15.648 -0.4121  0.2459  0.2970
  371TMC3    C5 5551   0.440   2.099  15.632  1.1619 -0.2462  0.4963
  371TMC3    C6 5552   0.310   2.132  15.662 -0.0458 -0.1618  0.5222
  371TMC3     C 5553   0.473   1.754  15.749 -0.1097 -0.5173 -0.3384
  371TMC3     O 5554   0.594   1.736  15.732  0.4565 -0.8204  0.8221
  371TMC3     H 5555   0.212   1.824  15.733 -0.4057  0.1687  0.6785
  371TMC3    H1 5556   0.600   1.946  15.634 -0.8610 -1.2768 -0.4206
  371TMC3    H2 5557   0.275   2.235  15.662  0.3603 -0.0227  0.5370
  371TMC3    C7 5558   0.519   2.213  15.576  0.0567  0.5352 -0.3810
  371TMC3    C8 5559   0.091   2.052  15.711  0.9331 -0.4425  0.9670
  371TMC3    O1 5560   0.465   2.320  15.599 -0.3312 -0.0374  0.3975
  371TMC3    O2 5561   0.018   1.968  15.673  0.4130  0.0875 -0.5346
  372MPD2     C 5562   4.343   3.519  13.404  0.1056  0.6080  0.5429
  372MPD2    C1 5563   4.468   3.484  13.456  0.0595  0.3716 -0.5505
  372MPD2    C2 5564   4.479   3.368  13.525  0.0180  0.8687  0.1159
  372MPD2    C3 5565   4.374   3.279  13.538 -0.2323 -0.2249  0.0730
  372MPD2    C4 5566   4.250   3.317  13.486  0.2144 -0.4641  0.4466
  372MPD2    C5 5567   4.235   3.437  13.417 -0.2476 -0.6826  0.8401
  372MPD2     H 5568   4.573   3.333  13.566 -0.1364  0.1224 -0.1629
  372MPD2    H1 5569   4.171   3.242  13.487  0.3095 -0.5698 -0.1788
  372MPD2    H2 5570   4.329   3.613  13.351 -0.5880  0.4486  0.4483
  372MPD2    H3 5571   4.140   3.463  13.371 -0.8972 -1.0512  1.9680
  372MPD2     N 5572   4.392   3.159  13.609 -0.1790 -0.5414  0.3864
  372MPD2    H5 5573   4.477   3.152  13.664 -0.0900  0.0414  0.3260
  372MPD2    N1 5574   4.584   3.563  13.452 -0.4634  0.3642  0.2315
  372MPD2    H7 5575   4.670   3.522  13.488 -0.6682  1.1089  1.5705
  373TMC3    C1 5576   4.358   2.937  13.680 -0.2514  0.1010  0.1816
  373TMC3    C2 5577   4.395   2.987  13.800  0.5127 -1.0209 -0.4836
  373TMC3    C3 5578   4.480   2.906  13.871  0.8287  0.2267 -0.0659
  373TMC3    C4 5579   4.409   2.819  13.625  0.2098  0.4227  0.4664
  373TMC3    C5 5580   4.495   2.753  13.701 -0.2574  1.0277 -0.4796
  373TMC3    C6 5581   4.542   2.795  13.824  0.5105 -0.1352  0.1167
  373TMC3     C 5582   4.317   3.045  13.586 -0.1164 -0.4976  0.0190
  373TMC3     O 5583   4.219   3.029  13.514  0.6124  0.0700 -0.2040
  373TMC3     H 5584   4.359   3.083  13.834 -0.6516 -1.1289 -1.4413
  373TMC3    H1 5585   4.381   2.788  13.525 -1.8802 -0.5862  1.3661
  373TMC3    H2 5586   4.604   2.743  13.896 -0.1022 -2.6921 -1.1695
  373TMC3    C7 5587   4.580   2.646  13.637 -0.5732 -1.0866 -0.2527
  373TMC3    C8 5588   4.523   2.961  14.001  0.0168 -0.2190  0.6484
  373TMC3    O1 5589   4.573   2.635  13.515  0.3212 -0.8548 -0.3581
  373TMC3    O2 5590   4.633   2.935  14.049 -0.6582  0.4441  0.0506
  374TMC3    C1 5591   1.495   2.483   9.149  0.0172 -0.2771 -0.3644
  374TMC3    C2 5592   1.391   2.546   9.223 -0.0502 -0.1894  0.4682
  374TMC3    C3 5593   1.423   2.628   9.323 -0.1814 -0.1127  0.0336
  374TMC3    C4 5594   1.626   2.494   9.179  0.1498  0.1148  0.1163
  374TMC3    C5 5595   1.651   2.583   9.283  0.3808  0.5883 -0.0907
  374TMC3    C6 5596   1.561   2.646   9.354 -0.0640 -0.2204 -0.3128
  374TMC3     C 5597   1.462   2.438   9.013 -0.7292  0.3708 -0.5688
  374TMC3     O 5598   1.556   2.396   8.946  0.5687 -0.1900 -0.1650
  374TMC3     H 5599   1.288   2.518   9.202 -0.1049  0.9572 -0.7666
  374TMC3    H1 5600   1.698   2.443   9.116  2.4153  1.2937  1.7411
  374TMC3    H2 5601   1.586   2.709   9.440 -1.0803 -0.4984  0.1800
  374TMC3    C7 5602   1.792   2.618   9.317  0.6708 -0.5111  0.3897
  374TMC3    C8 5603   1.322   2.715   9.388  0.7614 -0.3346  0.2768
  374TMC3    O1 5604   1.812   2.728   9.374  0.3521 -0.1800  0.8781
  374TMC3    O2 5605   1.218   2.720   9.323  0.0385  0.2513 -0.0084
  375MPD2     C 5606   0.408   4.509  16.830 -0.2640  0.0616 -0.2158
  375MPD2    C1 5607   0.309   4.427  16.813 -0.6846  0.3624 -0.0349
  375MPD2    C2 5608   0.327   4.321  16.734  0.5949  0.3779  0.0098
  375MPD2    C3 5609   0.445   4.294  16.662 -0.3708  0.2068 -0.0738
  375MPD2    C4 5610   0.547   4.378  16.682 -0.6773  0.2756  0.3012
  375MPD2    C5 5611   0.526   4.491  16.758  0.3450 -0.4652 -0.9082
  375MPD2     H 5612   0.253   4.241  16.731  1.1115 -0.0999  0.0718
  375MPD2    H1 5613   0.646   4.381  16.639 -1.0136 -0.1783 -0.5068
  375MPD2    H2 5614   0.388   4.611  16.862  2.2888  1.3039 -2.5528
  375MPD2    H3 5615   0.597   4.572  16.766 -1.3703  0.9342  0.0259
  375MPD2     N 5616   0.466   4.177  16.589 -0.4848 -0.2170  0.7395
  375MPD2    H5 5617   0.561   4.153  16.562 -0.8201  0.3301 -0.9067
  375MPD2    N1 5618   0.185   4.438  16.879 -0.8324  0.3514 -0.2956
  375MPD2    H7 5619   0.116   4.371  16.849  1.0581 -1.0445 -1.5620
  376TMC3    C1 5620   0.425   3.963  16.497 -0.4514 -0.0740  0.2327
  376TMC3    C2 5621   0.538   3.924  16.569  0.7582  0.0892  0.0452
  376TMC3    C3 5622   0.606   3.815  16.521 -0.4475 -0.5051 -0.6323
  376TMC3    C4 5623   0.397   3.914  16.371  0.4996 -0.2083 -0.3742
  376TMC3    C5 5624   0.470   3.817  16.323  0.1867  0.0580  0.9449
  376TMC3    C6 5625   0.583   3.771  16.395  0.3875  0.7520  0.4851
  376TMC3     C 5626   0.369   4.089  16.535  0.5065 -0.5010 -0.6200
  376TMC3     O 5627   0.250   4.104  16.525 -0.3338  0.0224 -0.2878
  376TMC3     H 5628   0.566   3.968  16.663  0.0298  1.2878 -0.3017
  376TMC3    H1 5629   0.316   3.958  16.313 -0.5914  0.8607  1.9560
  376TMC3    H2 5630   0.646   3.694  16.352  0.2109  0.4272  0.8014
  376TMC3    C7 5631   0.479   3.796  16.175  0.7168 -0.2619  0.3363
  376TMC3    C8 5632   0.743   3.815  16.556 -0.0201 -0.1842 -0.4148
  376TMC3    O1 5633   0.439   3.895  16.115  0.1475 -0.2952 -0.8823
  376TMC3    O2 5634   0.822   3.803  16.468  0.2775 -0.6356 -0.3834
  377MPD2     C 5635   3.274   3.378  12.253 -0.6540 -0.1109 -0.1588
  377MPD2    C1 5636   3.363   3.372  12.358 -0.5022 -0.1024  0.2745
  377MPD2    C2 5637   3.307   3.390  12.485 -0.2350 -0.8028  0.6057
  377MPD2    C3 5638   3.174   3.405  12.499  0.9628  0.6427  0.4185
  377MPD2    C4 5639   3.087   3.420  12.395  0.2275 -0.6090 -0.2645
  377MPD2    C5 5640   3.140   3.407  12.267 -0.4042 -0.0203 -0.0200
  377MPD2     H 5641   3.378   3.397  12.566  1.0457 -3.5569 -0.3063
  377MPD2    H1 5642   2.983   3.445  12.406  1.0427  2.1542  1.1823
  377MPD2    H2 5643   3.320   3.355  12.157  1.3543 -0.4629  0.8919
  377MPD2    H3 5644   3.077   3.402  12.179 -2.4848  2.4906  1.2997
  377MPD2     N 5645   3.104   3.411  12.617 -0.7881 -0.1952  0.0094
  377MPD2    H5 5646   3.004   3.409  12.605 -0.6355 -2.0886 -0.8703
  377MPD2    N1 5647   3.504   3.356  12.330 -0.2718  0.2043 -0.1040
  377MPD2    H7 5648   3.520   3.373  12.232  1.4427 -2.7604 -0.3360
  378TMC3    C1 5649   3.862   3.315  12.160 -0.0736 -0.2987 -0.2913
  378TMC3    C2 5650   3.738   3.309  12.217  0.1675 -0.0192  0.1061
  378TMC3    C3 5651   3.734   3.336  12.354 -0.6751  0.8802 -0.2474
  378TMC3    C4 5652   3.974   3.349  12.234 -0.1354 -0.5257  0.5582
  378TMC3    C5 5653   3.964   3.362  12.370 -0.4168  1.0331 -0.3431
  378TMC3    C6 5654   3.844   3.357  12.434 -0.3578 -0.1695 -0.0105
  378TMC3     C 5655   3.877   3.286  12.017  0.2601  0.3873 -0.4974
  378TMC3     O 5656   3.990   3.255  11.984 -0.5021 -0.2074 -0.1293
  378TMC3     H 5657   3.657   3.268  12.158 -0.5423  0.7532  0.5253
  378TMC3    H1 5658   4.066   3.323  12.182 -0.5359  0.6581 -0.7455
  378TMC3    H2 5659   3.846   3.358  12.542  1.4917 -1.7494 -0.0249
  378TMC3    C7 5660   4.095   3.383  12.440  0.0864 -1.0998  0.9665
  378TMC3    C8 5661   3.602   3.334  12.422  0.3565 -0.4429 -0.4199
  378TMC3    O1 5662   4.091   3.422  12.557 -0.0188 -0.3579 -0.7029
  378TMC3    O2 5663   3.594   3.320  12.541 -0.0850  0.2657  0.6819
  379MPD2     C 5664   3.889   1.822  16.258  0.2078 -0.2196 -0.0380
  379MPD2    C1 5665   4.011   1.772  16.207 -0.3008  0.9697  0.0470
  379MPD2    C2 5666   4.118   1.757  16.291  0.2485  0.5753  0.4129
  379MPD2    C3 5667   4.108   1.784  16.427  1.2953 -0.0936 -0.2785
  379MPD2    C4 5668   3.979   1.814  16.479  0.0021 -0.4420  0.2268
  379MPD2    C5 5669   3.879   1.836  16.391 -0.2203  0.3110  0.4317
  379MPD2     H 5670   4.215   1.725  16.253 -0.4498  1.1793 -1.8594
  379MPD2    H1 5671   3.960   1.823  16.585  0.6440 -1.9403  0.4688
  379MPD2    H2 5672   3.799   1.829  16.199 -0.5868  0.1750  1.2412
  379MPD2    H3 5673   3.781   1.860  16.431 -0.6730 -1.6067  0.4814
  379MPD2     N 5674   4.208   1.741  16.521  0.0883  0.6409  0.5588
  379MPD2    H5 5675   4.184   1.738  16.620 -1.3439  0.9635  0.2185
  379MPD2    N1 5676   4.028   1.746  16.074 -0.5837 -0.6014 -0.4963
  379MPD2    H7 5677   4.112   1.696  16.045  0.3594  1.1312 -0.7346
  380TMC3    C1 5678   4.017   1.757  15.840  0.1250  0.3664  0.2865
  380TMC3    C2 5679   4.066   1.629  15.833 -0.0976  0.4541  0.0789
  380TMC3    C3 5680   4.051   1.565  15.716 -0.3693  0.5303  0.2673
  380TMC3    C4 5681   3.956   1.807  15.731 -0.2849  0.0597  0.4376
  380TMC3    C5 5682   3.938   1.737  15.618 -0.3325 -0.0674 -0.2813
  380TMC3    C6 5683   3.983   1.616  15.609  0.2015  0.3288 -0.3072
  380TMC3     C 5684   3.963   1.799  15.967 -0.3513 -0.9844 -0.3176
  380TMC3     O 5685   3.857   1.858  15.958  0.7107  0.1142  0.2627
  380TMC3     H 5686   4.119   1.588  15.917  2.0761 -0.4714 -1.7587
  380TMC3    H1 5687   3.916   1.908  15.734  1.3706  0.6728  1.9831
  380TMC3    H2 5688   3.966   1.556  15.521  0.3814 -0.9109  0.4981
  380TMC3    C7 5689   3.839   1.783  15.517 -0.1066 -0.3944 -0.0150
  380TMC3    C8 5690   4.175   1.495  15.668 -0.4384  0.0635 -0.8735
  380TMC3    O1 5691   3.771   1.689  15.475 -0.0152 -0.3338 -0.6570
  380TMC3    O2 5692   4.171   1.448  15.554  0.2624  0.3283  0.8265
  381TMC3    C1 5693   3.681   3.015  16.222 -1.3760 -0.0132 -0.0003
  381TMC3    C2 5694   3.752   3.132  16.233  0.5100 -0.2428 -0.5196
  381TMC3    C3 5695   3.787   3.177  16.357  0.2090  0.1707 -0.1209
  381TMC3    C4 5696   3.641   2.940  16.329  0.1450 -0.6077 -0.4558
  381TMC3    C5 5697   3.676   2.984  16.452  0.4061  0.0254  0.6943
  381TMC3    C6 5698   3.743   3.106  16.467 -0.3619  0.1590 -0.0997
  381TMC3     C 5699   3.690   2.959  16.091 -0.5707  0.0741 -0.6271
  381TMC3     O 5700   3.601   2.885  16.054 -0.1289  0.6408 -0.4295
  381TMC3     H 5701   3.753   3.210  16.157 -0.9899 -0.6330 -0.9350
  381TMC3    H1 5702   3.594   2.845  16.310  2.2377 -1.1446 -2.8552
  381TMC3    H2 5703   3.782   3.119  16.567  0.3058  2.7093 -0.6717
  381TMC3    C7 5704   3.650   2.895  16.564  0.1860  0.1369 -0.5729
  381TMC3    C8 5705   3.905   3.261  16.346 -0.2583  0.3084  0.7901
  381TMC3    O1 5706   3.631   2.783  16.525  0.2395 -0.1840  0.1029
  381TMC3    O2 5707   3.952   3.262  16.237 -0.3614  0.4624 -0.0014
  382MPD2     C 5708   3.035   0.673   0.139  0.0672 -0.2422  0.5807
  382MPD2    C1 5709   3.056   0.704   0.006  0.4359 -0.7683  0.1141
  382MPD2    C2 5710   3.001   0.620  17.601 -0.4444  0.7767  0.6296
  382MPD2    C3 5711   2.948   0.495  17.634  1.1348 -0.5166  0.3291
  382MPD2    C4 5712   2.932   0.461   0.077 -0.2430  0.7708 -0.0609
  382MPD2    C5 5713   2.979   0.551   0.173 -0.2368  0.4235  0.0157
  382MPD2     H 5714   3.001   0.641  17.494  1.5165 -1.9660  0.0767
  382MPD2    H1 5715   2.884   0.370   0.111 -0.3661  0.8997  0.1144
  382MPD2    H2 5716   3.064   0.746   0.215  2.4111 -5.2170  4.4344
  382MPD2    H3 5717   2.966   0.527   0.278 -1.8204  1.1220 -0.0150
  382MPD2     N 5718   2.925   0.382  17.548  0.0703 -0.3902  0.7181
  382MPD2    H5 5719   2.895   0.293  17.587 -3.1243  0.0719 -0.6544
  382MPD2    N1 5720   3.108   0.830  17.654  0.2931 -0.0617 -0.0470
  382MPD2    H7 5721   3.110   0.840  17.553  0.6558 -2.1293 -0.2279
  383TMC3    C1 5722   2.924   0.257  17.359  0.2679  0.9133  0.4220
  383TMC3    C2 5723   2.813   0.214  17.284 -0.3501  0.1060 -0.6015
  383TMC3    C3 5724   2.819   0.083  17.246  0.2424 -0.3736 -0.3371
  383TMC3    C4 5725   3.036   0.186  17.390  0.2512  0.2356  0.2548
  383TMC3    C5 5726   3.033   0.054  17.352  0.1052 -0.3721  0.8712
  383TMC3    C6 5727   2.931   0.005  17.273  0.0251 -0.2325  0.8612
  383TMC3     C 5728   2.929   0.387  17.413 -0.0430  0.0155 -0.5463
  383TMC3     O 5729   2.933   0.482  17.335 -0.2233  0.3379 -0.1127
  383TMC3     H 5730   2.732   0.281  17.258  0.9711  2.1676  0.5133
  383TMC3    H1 5731   3.116   0.222  17.454  1.0657  0.6910 -1.0092
  383TMC3    H2 5732   2.934   4.630  17.225 -0.0953  0.1156  0.1580
  383TMC3    C7 5733   3.136   4.688  17.393 -0.7363  0.0113 -0.1338
  383TMC3    C8 5734   2.699   0.036  17.173 -0.1658 -0.1706 -0.5657
  383TMC3    O1 5735   3.224   0.019  17.461 -0.0361  0.1624 -0.6244
  383TMC3    O2 5736   2.614   0.112  17.133 -0.2429  0.7212  0.1255
  384MPD2     C 5737   4.642   1.858  11.723  0.2763 -0.5176 -0.1429
  384MPD2    C1 5738   0.001   1.873  11.832  0.3777  0.1339 -0.6264
  384MPD2    C2 5739   0.135   1.845  11.808  0.5403  0.1344 -0.4243
  384MPD2    C3 5740   0.193   1.807  11.683  0.4479 -0.4475 -1.3061
  384MPD2    C4 5741   0.104   1.792  11.574  0.3144 -0.5797 -0.1104
  384MPD2    C5 5742   4.697   1.836  11.597 -0.0071 -0.0567 -0.5478
  384MPD2     H 5743   0.196   1.837  11.897  0.7816  1.3727 -0.4858
  384MPD2    H1 5744   0.132   1.764  11.473  1.4826 -0.1839  0.1015
  384MPD2    H2 5745   4.537   1.886  11.723 -0.0321 -1.7315  2.5900
  384MPD2    H3 5746   4.627   1.825  11.514 -0.6553 -0.1855  0.0148
  384MPD2     N 5747   0.329   1.774  11.684  1.6514 -0.0713 -0.9562
  384MPD2    H5 5748   0.363   1.785  11.779  2.5854 -0.5435 -1.2327
  384MPD2    N1 5749   4.681   1.914  11.958 -0.1808 -0.4271  0.1668
  384MPD2    H7 5750   0.034   1.919  12.027  1.4476  0.6304 -1.6756
  385TMC3    C1 5751   0.534   1.670  11.633 -0.6480  0.1213 -0.1735
  385TMC3    C2 5752   0.580   1.543  11.614  0.4742 -0.0766  0.2891
  385TMC3    C3 5753   0.652   1.483  11.708  0.5179 -0.4756  0.1963
  385TMC3    C4 5754   0.568   1.739  11.747  0.3161  0.0935  0.9081
  385TMC3    C5 5755   0.635   1.674  11.839  0.3623  0.8126 -0.7277
  385TMC3    C6 5756   0.688   1.548  11.822 -0.2635  0.1613  0.1378
  385TMC3     C 5757   0.402   1.711  11.586 -0.2340 -0.7648  0.1689
  385TMC3     O 5758   0.372   1.678  11.476 -0.8148  0.5561 -0.2685
  385TMC3     H 5759   0.545   1.482  11.531 -1.9461 -0.3053  1.4583
  385TMC3    H1 5760   0.539   1.843  11.752 -0.5447 -0.0184 -1.8118
  385TMC3    H2 5761   0.747   1.498  11.898 -1.2770  1.2067  1.6100
  385TMC3    C7 5762   0.562   1.681  11.964 -0.2761  0.4552  0.0245
  385TMC3    C8 5763   0.625   1.345  11.738  0.5130 -0.0362  0.5926
  385TMC3    O1 5764   0.499   1.784  11.980  0.9881  0.2809  0.0712
  385TMC3    O2 5765   0.613   1.318  11.855 -0.7422  0.5471  0.1764
  386TMC3    C1 5766   0.574   3.254  11.711 -0.4992  0.1448 -0.4767
  386TMC3    C2 5767   0.605   3.175  11.602 -0.7015  0.1139 -0.1366
  386TMC3    C3 5768   0.510   3.161  11.507 -0.0676 -0.6739 -0.2341
  386TMC3    C4 5769   0.458   3.315  11.717 -0.6410  0.1117  0.0873
  386TMC3    C5 5770   0.366   3.301  11.622 -0.4015  0.2643 -0.3366
  386TMC3    C6 5771   0.384   3.210  11.520 -0.1228  0.3071  0.1888
  386TMC3     C 5772   0.656   3.247  11.829  0.0096 -0.0859 -0.5327
  386TMC3     O 5773   0.667   3.347  11.892 -0.1821  0.4795  0.5505
  386TMC3     H 5774   0.699   3.124  11.585  0.1918  1.1518  1.7243
  386TMC3    H1 5775   0.445   3.384  11.799 -0.0457 -1.5692  1.6064
  386TMC3    H2 5776   0.315   3.192  11.437  0.8609  2.1563 -1.0393
  386TMC3    C7 5777   0.233   3.353  11.649  0.0913  0.2003  0.2063
  386TMC3    C8 5778   0.540   3.108  11.379 -0.2676 -0.1267 -0.1743
  386TMC3    O1 5779   0.214   3.434  11.738 -0.5549 -0.2044  0.2611
  386TMC3    O2 5780   0.444   3.046  11.327  0.2543 -0.0384 -0.2813
  387MPD2     C 5781   3.099   3.039   9.541 -0.5260 -0.2761 -0.5303
  387MPD2    C1 5782   3.129   3.029   9.674  0.2480  0.3208 -0.1653
  387MPD2    C2 5783   3.088   2.913   9.732 -0.3299  0.2078  0.1829
  387MPD2    C3 5784   3.020   2.810   9.671 -0.1677  0.0790  0.7248
  387MPD2    C4 5785   3.003   2.810   9.537  1.1773  0.6720  0.5653
  387MPD2    C5 5786   3.045   2.933   9.474 -0.1188  0.0928  0.3535
  387MPD2     H 5787   3.104   2.903   9.839 -0.4285 -1.0597  0.0739
  387MPD2    H1 5788   2.968   2.722   9.483  1.5199  1.8261 -1.5070
  387MPD2    H2 5789   3.118   3.127   9.480 -1.1420 -0.0141 -0.3405
  387MPD2    H3 5790   3.046   2.941   9.366 -1.4943  0.4237  0.3628
  387MPD2     N 5791   2.985   2.704   9.749  0.5345 -0.2187  0.6882
  387MPD2    H5 5792   3.017   2.702   9.845 -1.3300  1.8695  1.3368
  387MPD2    N1 5793   3.199   3.128   9.749 -0.9821  0.4880 -0.0379
  387MPD2    H7 5794   3.214   3.105   9.847 -0.4291  0.1269 -0.2047
  388TMC3    C1 5795   3.324   3.303   9.808 -0.3175 -0.6696  0.0654
  388TMC3    C2 5796   3.279   3.422   9.869  0.1109 -0.3699  0.4988
  388TMC3    C3 5797   3.324   3.445   9.992 -0.6073 -0.5030  0.2906
  388TMC3    C4 5798   3.412   3.218   9.869  0.7028  0.0970 -0.0775
  388TMC3    C5 5799   3.455   3.248   9.993  0.1533 -0.3164 -0.1320
  388TMC3    C6 5800   3.414   3.358  10.056 -0.2868  0.2702  0.0218
  388TMC3     C 5801   3.230   3.251   9.710 -0.6100 -1.0709  0.3298
  388TMC3     O 5802   3.173   3.329   9.630  0.6228  0.5440  0.1112
  388TMC3     H 5803   3.205   3.484   9.819  1.9851  1.4598  0.0025
  388TMC3    H1 5804   3.450   3.131   9.815  0.9198  0.5582 -0.6759
  388TMC3    H2 5805   3.450   3.378  10.157 -0.6622 -0.5180  0.3056
  388TMC3    C7 5806   3.497   3.140  10.080 -0.2181 -0.2703 -0.4168
  388TMC3    C8 5807   3.304   3.571  10.040 -0.2895  0.0010  0.4994
  388TMC3    O1 5808   3.537   3.159  10.196 -0.3993  0.5452  0.2193
  388TMC3    O2 5809   3.203   3.632  10.004 -0.3743 -0.0072 -0.0289
  389MPD2     C 5810   2.446   1.604  10.858 -0.0152  0.1604 -0.7340
  389MPD2    C1 5811   2.344   1.523  10.821 -0.1221 -0.8973 -0.0310
  389MPD2    C2 5812   2.252   1.466  10.912  0.0994 -0.4851  0.3786
  389MPD2    C3 5813   2.256   1.514  11.042 -0.6779  0.2170 -0.2041
  389MPD2    C4 5814   2.349   1.610  11.072 -0.1489 -0.2000  0.5290
  389MPD2    C5 5815   2.440   1.658  10.984 -0.1156 -0.4351  0.0091
  389MPD2     H 5816   2.171   1.399  10.887  0.2404 -1.0247  1.4011
  389MPD2    H1 5817   2.352   1.665  11.165  0.5163 -0.9495  0.9490
  389MPD2    H2 5818   2.520   1.637  10.786  2.1238  1.1229  1.9177
  389MPD2    H3 5819   2.511   1.738  11.004 -0.9643  0.8353 -2.0274
  389MPD2     N 5820   2.162   1.480  11.144  0.0324  0.6419 -0.5397
  389MPD2    H5 5821   2.166   1.536  11.228 -1.9865 -1.0629  0.6990
  389MPD2    N1 5822   2.337   1.499  10.683 -0.9048 -0.2945 -0.1946
  389MPD2    H7 5823   2.416   1.540  10.634 -0.1153 -2.0937 -0.4532
  390TMC3    C1 5824   1.992   1.367  11.251  0.3889  0.3604 -0.0086
  390TMC3    C2 5825   1.949   1.244  11.292 -0.1613  0.5550  0.3896
  390TMC3    C3 5826   1.864   1.241  11.399 -0.0569 -1.2950 -0.1505
  390TMC3    C4 5827   1.922   1.483  11.301  0.3175  0.6161  0.1719
  390TMC3    C5 5828   1.822   1.468  11.395 -0.4298  1.3846  0.3748
  390TMC3    C6 5829   1.804   1.350  11.458 -0.2499  0.2039  0.6552
  390TMC3     C 5830   2.079   1.369  11.140 -0.2987 -0.6143 -0.1756
  390TMC3     O 5831   2.077   1.271  11.063 -0.4610  0.1203  0.0456
  390TMC3     H 5832   1.987   1.150  11.251  2.4357  1.6984  0.1252
  390TMC3    H1 5833   1.953   1.585  11.282  1.2510  0.3948  0.5210
  390TMC3    H2 5834   1.745   1.342  11.549 -2.9986  0.1143 -1.1409
  390TMC3    C7 5835   1.700   1.516  11.334 -0.2148 -0.3891 -0.2269
  390TMC3    C8 5836   1.771   1.130  11.406  0.2821  0.1261 -0.7377
  390TMC3    O1 5837   1.704   1.591  11.239 -0.2051  0.7259 -0.8675
  390TMC3    O2 5838   1.768   1.047  11.316  0.3491  0.6553 -0.0492
  391MPD2     C 5839   1.306   2.781  10.835  0.2130 -0.5016 -0.2362
  391MPD2    C1 5840   1.407   2.873  10.846 -0.8679  0.5271  0.6356
  391MPD2    C2 5841   1.456   2.920  10.726  0.1860 -0.4101 -0.0241
  391MPD2    C3 5842   1.407   2.895  10.602  0.7586 -1.0369  0.4507
  391MPD2    C4 5843   1.305   2.796  10.600  0.3346  0.3293  0.4727
  391MPD2    C5 5844   1.257   2.747  10.714 -0.3786  0.6316  0.1675
  391MPD2     H 5845   1.540   2.989  10.728  1.0632 -1.4137 -2.4345
  391MPD2    H1 5846   1.260   2.756  10.510  2.8992 -0.2361 -0.5668
  391MPD2    H2 5847   1.269   2.734  10.926  0.1529  0.3965  0.2031
  391MPD2    H3 5848   1.174   2.677  10.718  2.4538 -2.7749 -0.1790
  391MPD2     N 5849   1.446   2.971  10.487  0.4754 -0.6827  0.1822
  391MPD2    H5 5850   1.532   3.026  10.489 -0.6436  0.9513  2.5640
  391MPD2    N1 5851   1.459   2.901  10.970 -0.2101  0.2840  0.2264
  391MPD2    H7 5852   1.420   2.845  11.045 -0.8549 -0.4436 -0.6517
  392TMC3    C1 5853   1.449   3.054  10.263 -0.3266  0.2674 -0.2403
  392TMC3    C2 5854   1.388   3.075  10.143  0.0496 -0.3637  0.5900
  392TMC3    C3 5855   1.464   3.134  10.047  0.1633 -0.4439 -0.7634
  392TMC3    C4 5856   1.570   3.116  10.291  0.0574  0.3140 -0.1396
  392TMC3    C5 5857   1.640   3.176  10.188  1.1150 -0.8737 -0.4094
  392TMC3    C6 5858   1.585   3.188  10.064 -0.6441 -0.1575 -0.2042
  392TMC3     C 5859   1.387   2.968  10.361 -0.0491 -0.1465  0.4315
  392TMC3     O 5860   1.291   2.906  10.316 -0.0028  0.1638  0.4397
  392TMC3     H 5861   1.292   3.028  10.126 -0.0987  0.0465  0.2996
  392TMC3    H1 5862   1.626   3.097  10.382  0.4869  2.8611  0.1152
  392TMC3    H2 5863   1.630   3.236   9.978  0.9290 -0.1010  0.6324
  392TMC3    C7 5864   1.738   3.274  10.231 -0.1108 -0.1892 -0.8276
  392TMC3    C8 5865   1.451   3.073   9.924  0.4242  0.2394 -0.0827
  392TMC3    O1 5866   1.754   3.298  10.349  0.1817  0.0847  0.4860
  392TMC3    O2 5867   1.556   3.041   9.864 -0.1372  0.9084  0.2291
  393TMC3    C1 5868   0.823   1.180  10.522  0.1267 -0.5002 -0.3650
  393TMC3    C2 5869   0.814   1.211  10.658  0.2715  0.5777  0.9414
  393TMC3    C3 5870   0.877   1.128  10.747 -0.9723  0.3302 -0.1630
  393TMC3    C4 5871   0.888   1.065  10.478 -0.7000  0.2875 -0.4065
  393TMC3    C5 5872   0.956   0.990  10.573  0.6730  1.1529 -0.5142
  393TMC3    C6 5873   0.940   1.013  10.710  0.2040 -0.1203 -0.6295
  393TMC3     C 5874   0.742   1.259  10.428 -0.8763 -0.3367 -0.2155
  393TMC3     O 5875   0.753   1.262  10.308 -0.1773 -0.2346 -0.3683
  393TMC3     H 5876   0.767   1.301  10.698 -0.9117 -1.1474  3.4673
  393TMC3    H1 5877   0.906   1.063  10.371  0.5666  2.4415 -0.2352
  393TMC3    H2 5878   0.995   0.952  10.781 -0.4632 -1.9276 -1.6738
  393TMC3    C7 5879   1.096   0.999  10.541  0.5487 -0.1462 -0.6068
  393TMC3    C8 5880   0.841   1.135  10.886  0.1545  0.0430  0.2492
  393TMC3    O1 5881   1.163   1.068  10.619  0.7740 -0.3298 -0.2904
  393TMC3    O2 5882   0.821   1.030  10.949 -0.6793  0.0183 -0.0472
  394TMC3    C1 5883   2.245   1.463  10.477 -0.0537  0.0591 -0.2745
  394TMC3    C2 5884   2.165   1.380  10.399 -0.6193  0.9487  0.9351
  394TMC3    C3 5885   2.107   1.420  10.286  0.1725 -0.4870 -0.0799
  394TMC3    C4 5886   2.262   1.594  10.435  0.1322 -0.0742 -0.0888
  394TMC3    C5 5887   2.213   1.627  10.318 -0.2863 -0.4337  0.4344
  394TMC3    C6 5888   2.127   1.546  10.244  0.2289  0.4406  0.3417
  394TMC3     C 5889   2.245   1.434  10.616 -0.1591 -0.3237  0.1281
  394TMC3     O 5890   2.155   1.366  10.662  0.2403 -0.0822 -0.1481
  394TMC3     H 5891   2.131   1.280  10.424  1.1071  0.4377  1.2323
  394TMC3    H1 5892   2.333   1.661  10.484 -0.7645  0.1071  0.9563
  394TMC3    H2 5893   2.095   1.572  10.144  2.0982 -0.3286 -0.4629
  394TMC3    C7 5894   2.301   1.727  10.254  0.1082  1.3633 -0.2248
  394TMC3    C8 5895   2.080   1.325  10.177 -0.1247  0.9351 -0.2268
  394TMC3    O1 5896   2.331   1.827  10.318 -0.4980 -0.2825 -0.5027
  394TMC3    O2 5897   2.053   1.370  10.066  0.4137  0.1857  0.2461
  395TMC3    C1 5898   1.462   3.582  15.177  0.1321 -0.0195 -0.4656
  395TMC3    C2 5899   1.354   3.622  15.098  0.1574  0.5400 -0.0642
  395TMC3    C3 5900   1.381   3.662  14.965  0.6833  0.2845  0.0650
  395TMC3    C4 5901   1.589   3.603  15.132  0.2497 -0.3533  0.5341
  395TMC3    C5 5902   1.610   3.645  15.007 -0.4176  0.2438  0.2190
  395TMC3    C6 5903   1.508   3.686  14.923  0.5370 -0.5638  0.3646
  395TMC3     C 5904   1.434   3.584  15.321 -0.0358 -0.2812 -0.2191
  395TMC3     O 5905   1.333   3.639  15.363 -0.0658 -0.9945  0.0948
  395TMC3     H 5906   1.253   3.593  15.122  1.3117  1.4720  5.7972
  395TMC3    H1 5907   1.674   3.583  15.195  1.5321  4.1745  0.2460
  395TMC3    H2 5908   1.528   3.718  14.821 -0.5394  1.8716  0.9185
  395TMC3    C7 5909   1.729   3.722  15.004 -0.0128 -0.0530  0.2856
  395TMC3    C8 5910   1.277   3.725  14.874 -0.4447 -0.0124 -0.7390
  395TMC3    O1 5911   1.764   3.768  15.117 -0.1223  0.2301 -0.4759
  395TMC3    O2 5912   1.313   3.827  14.828 -0.3689  0.2154  0.4983
  396MPD2     C 5913   2.046   0.191   0.048  0.1111  0.2238  0.0990
  396MPD2    C1 5914   2.007   0.164  17.604 -0.6247 -0.3275  0.2873
  396MPD2    C2 5915   2.037   0.259  17.507  0.1340  0.0599 -0.4685
  396MPD2    C3 5916   2.104   0.379  17.542 -0.4712  0.4186  0.1762
  396MPD2    C4 5917   2.150   0.398  17.672  0.1385  0.2495  1.1290
  396MPD2    C5 5918   2.114   0.302   0.080  0.3992 -0.1988  0.2374
  396MPD2     H 5919   2.011   0.235  17.405 -0.3330  1.7346 -0.7430
  396MPD2    H1 5920   2.207   0.482   0.021 -1.7448  0.8741  2.5934
  396MPD2    H2 5921   2.034   0.120   0.129 -0.0334  2.4644  2.0519
  396MPD2    H3 5922   2.137   0.326   0.184  2.4210  1.1437 -0.5198
  396MPD2     N 5923   2.121   0.474  17.441 -0.0658  0.8996 -0.0931
  396MPD2    H5 5924   2.090   0.444  17.350 -1.2047 -0.1812  0.6527
  396MPD2    N1 5925   1.921   0.058  17.575 -0.0854  0.0550  0.2307
  396MPD2    H7 5926   1.885   0.005  17.654  0.0695  0.4381  0.5599
  397TMC3    C1 5927   1.793   4.625  17.449 -0.7266 -0.6227  0.3025
  397TMC3    C2 5928   1.764   4.608  17.316 -0.3887 -0.3160  0.1756
  397TMC3    C3 5929   1.635   4.589  17.281  0.4898 -0.5075 -0.1717
  397TMC3    C4 5930   1.690   4.626  17.542 -0.2185  0.2435  0.8040
  397TMC3    C5 5931   1.558   4.598  17.504  0.3270 -0.0216  0.0546
  397TMC3    C6 5932   1.531   4.576  17.371  0.1377  0.6912 -0.3503
  397TMC3     C 5933   1.888   0.011  17.449  0.4142 -0.5865 -0.4700
  397TMC3     O 5934   1.927   0.049  17.336 -0.5714  0.0359  0.2417
  397TMC3     H 5935   1.848   4.582  17.252  0.2852 -1.4468  1.5108
  397TMC3    H1 5936   1.715   4.631  17.647  0.9303  0.1971  0.5298
  397TMC3    H2 5937   1.431   4.553  17.335  0.2965 -0.4242 -0.0820
  397TMC3    C7 5938   1.458   4.559  17.597 -0.1090  0.6710  0.0866
  397TMC3    C8 5939   1.606   4.659  17.159  0.4762  0.3200 -0.3361
  397TMC3    O1 5940   1.345   4.544  17.556 -0.1139  0.5925  0.6953
  397TMC3    O2 5941   1.488   4.665  17.120  0.0785  0.1680 -0.2785
  398MPD2     C 5942   4.054   0.846   0.020 -0.0591 -0.7292  0.3755
  398MPD2    C1 5943   4.123   0.820   0.141 -0.2202 -0.4910 -0.1605
  398MPD2    C2 5944   4.175   0.922   0.220 -0.3550  0.1604  0.6618
  398MPD2    C3 5945   4.158   1.055   0.182 -0.2395  0.7474 -0.5335
  398MPD2    C4 5946   4.082   1.084   0.070 -0.3299  0.5193  0.0396
  398MPD2    C5 5947   4.028   0.983  17.680  0.1439 -0.4247  0.3771
  398MPD2     H 5948   4.226   0.889   0.309  0.5440 -0.2629 -0.0070
  398MPD2    H1 5949   4.068   1.189   0.043  1.1036 -0.0873 -3.0795
  398MPD2    H2 5950   4.016   0.772  17.640  2.5492 -1.6711 -0.0791
  398MPD2    H3 5951   3.967   1.008  17.594  1.4849  0.1191 -0.4143
  398MPD2     N 5952   4.220   1.149   0.262  0.0124 -0.1585  0.2281
  398MPD2    H5 5953   4.289   1.116   0.330 -0.4063  0.4868  0.9562
  398MPD2    N1 5954   4.138   0.688   0.194 -0.8056  0.0315 -0.3931
  398MPD2    H7 5955   4.182   0.681   0.285  1.7813 -1.3793 -1.7708
  399TMC3    C1 5956   4.170   0.451   0.189 -0.3215 -0.2748  0.0948
  399TMC3    C2 5957   4.296   0.458   0.237 -0.4477  0.2567  0.9815
  399TMC3    C3 5958   4.339   0.350   0.309 -0.3660  0.5576 -0.6794
  399TMC3    C4 5959   4.092   0.341   0.199 -0.2922 -0.1918  0.2467
  399TMC3    C5 5960   4.140   0.230   0.266 -0.4789 -0.1865  0.8079
  399TMC3    C6 5961   4.262   0.239   0.331  0.5263 -0.0222  0.4876
  399TMC3     C 5962   4.101   0.568   0.137 -0.2908 -0.1658 -0.7637
  399TMC3     O 5963   4.009   0.546   0.052 -0.4717  0.1549  0.5968
  399TMC3     H 5964   4.358   0.547   0.229  0.0715 -0.2087 -0.3388
  399TMC3    H1 5965   3.995   0.337   0.151 -1.1768 -1.0959  2.1043
  399TMC3    H2 5966   4.300   0.172   0.406  1.4002  0.9269  0.8967
  399TMC3    C7 5967   4.062   0.108   0.285  0.4263  0.3640  0.0117
  399TMC3    C8 5968   4.479   0.357   0.346 -0.3680 -0.0335 -0.8459
  399TMC3    O1 5969   4.082   0.039   0.388  0.4617 -0.4636 -0.0252
  399TMC3    O2 5970   4.528   0.471   0.347 -0.0970 -0.3084  0.7444
  400TMC3    C1 5971   2.552   4.259  16.673  0.2470 -1.1114 -0.7737
  400TMC3    C2 5972   2.449   4.186  16.620  0.2521 -0.3155 -0.5864
  400TMC3    C3 5973   2.363   4.256  16.539 -0.0093 -0.5800  0.2295
  400TMC3    C4 5974   2.563   4.394  16.657  0.2069 -0.3175  0.7078
  400TMC3    C5 5975   2.458   4.462  16.592  0.0271 -0.2624  0.1877
  400TMC3    C6 5976   2.358   4.397  16.533 -0.6760 -0.1268  0.5852
  400TMC3     C 5977   2.650   4.175  16.750 -0.0373 -0.5011 -0.8992
  400TMC3     O 5978   2.651   4.051  16.754  0.0097 -0.1332  0.4164
  400TMC3     H 5979   2.440   4.079  16.632 -0.5547 -0.2509 -0.6058
  400TMC3    H1 5980   2.635   4.459  16.705  0.0702  0.3185  0.0486
  400TMC3    H2 5981   2.270   4.438  16.487 -0.8889 -0.0157  1.0922
  400TMC3    C7 5982   2.463   4.603  16.606 -0.2016  0.1562  0.4978
  400TMC3    C8 5983   2.236   4.189  16.506  0.6087 -0.1841 -1.0130
  400TMC3    O1 5984   2.517   4.658  16.702  0.0191  0.3108  0.0701
  400TMC3    O2 5985   2.132   4.256  16.498  0.4434 -0.7535 -0.2404
  401MPD2     C 5986   1.108   3.432   0.875 -1.2397 -0.4274 -0.1015
  401MPD2    C1 5987   1.195   3.350   0.948  0.6861  0.3231  0.1557
  401MPD2    C2 5988   1.151   3.223   0.973  0.3569  0.1958 -0.0769
  401MPD2    C3 5989   1.029   3.178   0.930 -0.7951 -0.3473 -0.2020
  401MPD2    C4 5990   0.946   3.261   0.853  1.1362  0.2206  0.1234
  401MPD2    C5 5991   0.983   3.391   0.833  0.2029  0.7819  0.1910
  401MPD2     H 5992   1.206   3.145   1.025 -0.7369  0.0946  0.9341
  401MPD2    H1 5993   0.851   3.231   0.810  1.4875 -0.8418  0.0957
  401MPD2    H2 5994   1.123   3.537   0.852 -0.8505 -0.5124 -0.2199
  401MPD2    H3 5995   0.919   3.460   0.778 -0.6160 -0.9960 -1.0878
  401MPD2     N 5996   1.010   3.042   0.953 -0.0078  0.3311 -0.4331
  401MPD2    H5 5997   1.087   2.998   1.003  0.2709  1.8649  0.4771
  401MPD2    N1 5998   1.321   3.389   1.004  0.5159 -0.5957  0.2646
  401MPD2    H7 5999   1.372   3.321   1.059  0.2599  0.9738  2.4183
  402TMC3    C1 6000   0.941   2.816   0.914  0.4590  0.4961  1.2760
  402TMC3    C2 6001   1.036   2.778   1.001 -0.6937 -0.0257 -0.4299
  402TMC3    C3 6002   1.084   2.651   0.992 -0.9346 -0.5169 -0.3578
  402TMC3    C4 6003   0.908   2.736   0.802  0.2902  1.2123  0.3851
  402TMC3    C5 6004   0.969   2.617   0.788 -0.2581  0.4014  0.7797
  402TMC3    C6 6005   1.049   2.562   0.890 -0.4352  0.1080  0.3201
  402TMC3     C 6006   0.918   2.964   0.886 -0.2137 -0.0865 -0.1296
  402TMC3     O 6007   0.826   2.993   0.811 -0.4318  0.5917  0.2994
  402TMC3     H 6008   1.032   2.840   1.090  1.0969  2.7288 -2.2429
  402TMC3    H1 6009   0.843   2.770   0.722  0.2756 -0.0263 -0.1381
  402TMC3    H2 6010   1.088   2.461   0.883 -1.1434 -0.1958  0.7940
  402TMC3    C7 6011   0.942   2.541   0.665  0.2742  0.0669  0.0901
  402TMC3    C8 6012   1.197   2.610   1.078  0.3599  0.0143 -0.1367
  402TMC3    O1 6013   0.866   2.604   0.584  0.0500  0.3508 -0.4873
  402TMC3    O2 6014   1.246   2.500   1.050 -0.6739 -0.1458 -0.1692
  403MPD2     C 6015   4.307   1.679  13.255 -0.2949 -0.6977  0.2720
  403MPD2    C1 6016   4.288   1.565  13.332 -0.5468  0.6944 -0.8156
  403MPD2    C2 6017   4.327   1.578  13.471 -0.2627 -0.8839 -1.2237
  403MPD2    C3 6018   4.359   1.704  13.523  0.4317  0.3138  0.0479
  403MPD2    C4 6019   4.354   1.820  13.446  0.1648  1.0215 -0.7567
  403MPD2    C5 6020   4.327   1.811  13.312  0.1953  0.1567  0.9308
  403MPD2     H 6021   4.326   1.487  13.531 -2.1957 -0.1785 -0.1599
  403MPD2    H1 6022   4.373   1.917  13.489  2.2037  1.2714 -2.2458
  403MPD2    H2 6023   4.289   1.676  13.148 -0.9843  2.3028  0.3029
  403MPD2    H3 6024   4.327   1.898  13.248 -1.2046  0.1673  0.9465
  403MPD2     N 6025   4.384   1.710  13.663  0.0063  0.1070  0.1465
  403MPD2    H5 6026   4.384   1.619  13.707  0.9993 -0.5256 -1.1615
  403MPD2    N1 6027   4.239   1.447  13.270 -0.1530 -0.8608  0.0505
  403MPD2    H7 6028   4.225   1.455  13.170 -0.5095 -0.1132  0.1634
  404TMC3    C1 6029   4.138   1.244  13.246 -0.3988 -0.3815 -0.4218
  404TMC3    C2 6030   4.071   1.141  13.300  0.9307 -0.4899  0.4324
  404TMC3    C3 6031   4.055   1.022  13.235 -0.3904  0.0325  0.2411
  404TMC3    C4 6032   4.190   1.239  13.122  0.2972 -0.3664 -0.2000
  404TMC3    C5 6033   4.171   1.118  13.052  0.2670 -0.3687  0.0242
  404TMC3    C6 6034   4.101   1.010  13.104 -0.2273 -0.0917  0.3673
  404TMC3     C 6035   4.203   1.335  13.340  0.6864 -0.1283 -0.0850
  404TMC3     O 6036   4.192   1.310  13.460  0.4947  0.0631 -0.0186
  404TMC3     H 6037   4.031   1.150  13.401  1.1157 -0.2362  0.4846
  404TMC3    H1 6038   4.263   1.305  13.077  1.7646 -1.5058  0.4832
  404TMC3    H2 6039   4.097   0.917  13.050  0.6215 -0.0459  0.2200
  404TMC3    C7 6040   4.173   1.120  12.907 -0.2564 -0.0060 -0.1820
  404TMC3    C8 6041   4.021   0.901  13.310 -0.5248  0.4763  0.9687
  404TMC3    O1 6042   4.256   1.192  12.859 -0.4074  0.0353 -0.5909
  404TMC3    O2 6043   4.013   0.802  13.240  0.3069  0.0588 -0.2011
  405MPD2     C 6044   4.509   2.024  14.706 -0.4361 -0.1930 -0.0983
  405MPD2    C1 6045   4.474   1.925  14.617 -0.2374  0.0913  0.5244
  405MPD2    C2 6046   4.364   1.940  14.536 -0.1287  0.5926  0.2414
  405MPD2    C3 6047   4.291   2.058  14.530  0.7328  0.3996  0.0222
  405MPD2    C4 6048   4.326   2.159  14.613 -0.6255 -0.4469  0.0092
  405MPD2    C5 6049   4.439   2.141  14.692  0.0584  0.8934  0.3877
  405MPD2     H 6050   4.337   1.853  14.477  1.0363  1.7635 -2.0346
  405MPD2    H1 6051   4.280   2.256  14.598 -0.9346 -0.1320  2.9074
  405MPD2    H2 6052   4.593   2.019  14.775 -0.2378  0.7218 -0.2788
  405MPD2    H3 6053   4.461   2.226  14.757 -0.8870  0.4595  1.2698
  405MPD2     N 6054   4.186   2.050  14.442  0.9270 -0.1045 -0.2897
  405MPD2    H5 6055   4.157   1.962  14.400 -1.8338 -0.0352  1.4637
  405MPD2    N1 6056   4.544   1.804  14.620  0.0127 -0.0834  0.4706
  405MPD2    H7 6057   4.616   1.789  14.690  1.4124  0.5291 -0.8312
  406TMC3    C1 6058   3.767   2.055  14.287 -0.2589 -0.3137 -0.6309
  406TMC3    C2 6059   3.802   1.968  14.188  1.0127 -0.7706  0.1032
  406TMC3    C3 6060   3.941   1.952  14.160 -1.0675  0.1751 -0.5665
  406TMC3    C4 6061   3.865   2.127  14.350 -0.0330 -0.9736  0.8947
  406TMC3    C5 6062   3.995   2.104  14.325  0.0465  0.1534  0.0144
  406TMC3    C6 6063   4.040   2.016  14.231 -0.4364 -0.3455  0.5347
  406TMC3     C 6064   3.631   2.113  14.279 -0.2996  0.0477  0.0172
  406TMC3     O 6065   3.564   2.097  14.179  0.4549  0.0958 -0.9308
  406TMC3     H 6066   3.723   1.916  14.136  0.9851 -0.1645 -0.4646
  406TMC3    H1 6067   3.840   2.212  14.412 -1.5622  0.5867 -1.8746
  406TMC3    H2 6068   4.144   2.016  14.201 -1.0432 -0.9457 -1.5997
  406TMC3    C7 6069   4.095   2.155  14.415  0.0403 -0.1942 -0.4671
  406TMC3    C8 6070   3.985   1.832  14.090  0.0320  0.0848 -0.6485
  406TMC3    O1 6071   4.088   2.271  14.455 -0.0454  0.1976  0.9039
  406TMC3    O2 6072   3.909   1.767  14.015  0.2415 -0.0586  0.7557
  407MPD2     C 6073   2.614   2.897   9.272  0.6127 -0.3223 -0.4308
  407MPD2    C1 6074   2.666   2.837   9.385 -0.3577  0.4232  0.5822
  407MPD2    C2 6075   2.693   2.908   9.500 -0.2523  0.4415  0.8223
  407MPD2    C3 6076   2.704   3.053   9.487 -0.5434  0.1081 -0.9117
  407MPD2    C4 6077   2.651   3.109   9.377  0.5419  0.1069  0.6240
  407MPD2    C5 6078   2.593   3.029   9.277 -0.0869 -0.4347  0.0382
  407MPD2     H 6079   2.721   2.851   9.588  0.1731  1.8090  1.5841
  407MPD2    H1 6080   2.643   3.215   9.361 -1.0980 -0.3296 -1.3819
  407MPD2    H2 6081   2.567   2.836   9.196  0.8638 -0.9328 -0.1017
  407MPD2    H3 6082   2.545   3.069   9.189  2.8659 -0.1449 -1.4492
  407MPD2     N 6083   2.753   3.133   9.594 -0.6298  0.0178 -0.4403
  407MPD2    H5 6084   2.770   3.230   9.569 -1.7116 -0.0618 -1.4892
  407MPD2    N1 6085   2.694   2.694   9.382 -1.0069 -0.4259  0.1502
  407MPD2    H7 6086   2.737   2.658   9.467 -0.4782  1.4956  0.7124
  408TMC3    C1 6087   2.744   2.483   9.304 -0.2803  0.1542 -1.3873
  408TMC3    C2 6088   2.868   2.485   9.362  0.5576 -0.2230 -0.2368
  408TMC3    C3 6089   2.924   2.370   9.405  0.2542 -0.1070 -0.2676
  408TMC3    C4 6090   2.673   2.375   9.287  0.3289  0.2421  0.5286
  408TMC3    C5 6091   2.722   2.258   9.347 -0.4096 -0.4325  0.2078
  408TMC3    C6 6092   2.848   2.254   9.405 -0.2226  0.3524 -0.8630
  408TMC3     C 6093   2.672   2.605   9.281 -0.4307 -0.5594  0.2293
  408TMC3     O 6094   2.596   2.616   9.185  0.5527  0.2757  0.1451
  408TMC3     H 6095   2.931   2.573   9.353  0.7997 -0.5214 -1.5060
  408TMC3    H1 6096   2.581   2.381   9.230 -0.6463 -0.4879  2.0257
  408TMC3    H2 6097   2.896   2.166   9.447 -1.2894 -0.1162 -0.6357
  408TMC3    C7 6098   2.619   2.163   9.382 -0.3885  0.2885  0.4201
  408TMC3    C8 6099   3.059   2.369   9.447 -0.2915 -0.5129 -0.2989
  408TMC3    O1 6100   2.525   2.145   9.306 -0.0611 -0.7579 -0.1772
  408TMC3    O2 6101   3.105   2.263   9.479  0.2855 -0.0741  0.0791
  409MPD2     C 6102   1.497   4.050  17.011 -0.0863 -0.4182  0.6483
  409MPD2    C1 6103   1.601   4.102  17.095 -0.4751  0.2535  0.2921
  409MPD2    C2 6104   1.676   4.213  17.051  0.7185  0.4571 -0.2538
  409MPD2    C3 6105   1.651   4.268  16.921 -0.3097  0.1779 -0.1394
  409MPD2    C4 6106   1.540   4.227  16.855  0.1165  0.0495  0.1972
  409MPD2    C5 6107   1.467   4.115  16.896 -0.1967 -0.5070  0.6822
  409MPD2     H 6108   1.761   4.244  17.111 -0.0205  2.1495 -0.0960
  409MPD2    H1 6109   1.512   4.279  16.764 -1.0156  0.8111  0.9916
  409MPD2    H2 6110   1.432   3.970  17.042 -0.6589 -1.6338 -3.7362
  409MPD2    H3 6111   1.391   4.070  16.832 -1.5835  0.9707  1.2916
  409MPD2     N 6112   1.734   4.367  16.858  0.0104  0.0294 -0.4715
  409MPD2    H5 6113   1.709   4.390  16.763 -0.5970  0.4436 -0.2113
  409MPD2    N1 6114   1.641   4.048  17.216  0.2332 -0.5164 -0.8157
  409MPD2    H7 6115   1.718   4.097  17.259 -1.5797  2.3100 -0.8103
  410TMC3    C1 6116   1.920   4.516  16.822 -0.2316 -0.1721 -0.0303
  410TMC3    C2 6117   2.026   4.579  16.879  0.6933  0.3807  0.7388
  410TMC3    C3 6118   2.118   4.646  16.808 -0.2608  0.2775 -0.6543
  410TMC3    C4 6119   1.902   4.525  16.686  0.3401 -0.0286 -0.3486
  410TMC3    C5 6120   1.995   4.596  16.616  0.9063 -0.7335 -0.3455
  410TMC3    C6 6121   2.107   4.661  16.673  0.2992  0.3975 -0.2692
  410TMC3     C 6122   1.846   4.426  16.916  0.4653 -0.4844 -0.0903
  410TMC3     O 6123   1.873   4.423  17.036  0.0211 -0.6603  0.4493
  410TMC3     H 6124   2.043   4.553  16.983 -0.7343 -0.6898  0.7042
  410TMC3    H1 6125   1.831   4.485  16.615 -0.8885 -1.6092  1.7776
  410TMC3    H2 6126   2.181   4.719  16.619 -0.1781 -0.3655 -1.7407
  410TMC3    C7 6127   1.980   4.600  16.470  0.5512  0.7371 -1.0393
  410TMC3    C8 6128   2.245   4.649  16.875 -0.1549  0.5211 -0.7136
  410TMC3    O1 6129   1.915   4.525  16.403  0.4915  0.0464  0.8008
  410TMC3    O2 6130   2.290   0.039  16.897 -0.0112 -0.3541 -0.0469
  411MPD2     C 6131   1.672   4.266  14.709 -0.4462  0.3076  0.0233
  411MPD2    C1 6132   1.580   4.359  14.660  0.8937  0.1711  0.6002
  411MPD2    C2 6133   1.470   4.302  14.596 -0.6688 -0.3696  0.4294
  411MPD2    C3 6134   1.437   4.168  14.603  0.4217  0.2350 -0.5623
  411MPD2    C4 6135   1.533   4.087  14.659 -0.3832 -0.2712  0.5851
  411MPD2    C5 6136   1.647   4.133  14.713  0.5547 -0.6558  0.9032
  411MPD2     H 6137   1.407   4.367  14.536 -0.5365 -1.0755 -0.4550
  411MPD2    H1 6138   1.523   3.979  14.650 -1.9013  0.0442 -1.2606
  411MPD2    H2 6139   1.766   4.302  14.750  1.1559 -2.9251 -0.8448
  411MPD2    H3 6140   1.722   4.064  14.750  2.0165 -0.1034 -1.0257
  411MPD2     N 6141   1.327   4.108  14.543  0.8147 -0.5574  0.1020
  411MPD2    H5 6142   1.333   4.007  14.545  0.3952 -0.5931 -0.2652
  411MPD2    N1 6143   1.608   4.496  14.647 -0.2054  0.3533  0.4157
  411MPD2    H7 6144   1.539   4.553  14.598  0.0831  0.8928  0.6427
  412TMC3    C1 6145   1.143   4.083  14.407  0.1763 -0.4344 -0.5036
  412TMC3    C2 6146   1.030   4.140  14.365 -1.0067 -0.2544 -0.5261
  412TMC3    C3 6147   0.957   4.086  14.270 -0.1908 -0.3361  0.2977
  412TMC3    C4 6148   1.187   3.964  14.360  0.1469  0.4311 -0.6681
  412TMC3    C5 6149   1.118   3.912  14.261  0.2162 -0.2242 -0.1408
  412TMC3    C6 6150   0.999   3.968  14.215  0.5891 -0.7198 -0.2207
  412TMC3     C 6151   1.225   4.172  14.480  0.1356 -0.3197 -0.3335
  412TMC3     O 6152   1.199   4.294  14.478 -0.4542 -0.5325  0.5226
  412TMC3     H 6153   0.996   4.231  14.413 -0.4259  0.2305 -1.0416
  412TMC3    H1 6154   1.292   3.940  14.372 -0.4715 -2.7798 -1.7085
  412TMC3    H2 6155   0.958   3.925  14.124  3.8252 -0.1506 -1.9658
  412TMC3    C7 6156   1.198   3.898  14.142 -0.8221 -0.1882  0.1181
  412TMC3    C8 6157   0.915   4.188  14.172  0.1979  0.1292  0.2175
  412TMC3    O1 6158   1.166   3.970  14.049 -0.2757 -0.7491  0.6048
  412TMC3    O2 6159   0.977   4.289  14.149 -0.1453 -0.0356 -0.1880
  413MPD2     C 6160   3.698   3.443  15.401 -0.5559 -0.6282  0.1239
  413MPD2    C1 6161   3.623   3.388  15.305 -0.0818  1.0452  0.4468
  413MPD2    C2 6162   3.672   3.275  15.235  0.0049 -0.1213 -0.0218
  413MPD2    C3 6163   3.798   3.222  15.258 -0.3950 -0.0507  0.3733
  413MPD2    C4 6164   3.868   3.281  15.359  0.0670 -0.4415  0.2855
  413MPD2    C5 6165   3.825   3.391  15.419 -0.1306  0.0701  0.8516
  413MPD2     H 6166   3.610   3.225  15.161  1.2186 -2.0081  0.2299
  413MPD2    H1 6167   3.975   3.269  15.372  0.0836 -0.9815 -0.3783
  413MPD2    H2 6168   3.664   3.529  15.458  1.1869  0.0509  0.1344
  413MPD2    H3 6169   3.888   3.435  15.496  3.5981 -0.1740 -2.0600
  413MPD2     N 6170   3.851   3.116  15.187  0.4534  0.0704 -0.3003
  413MPD2    H5 6171   3.800   3.063  15.118 -0.2196 -2.2292  1.9606
  413MPD2    N1 6172   3.496   3.445  15.285 -0.0056 -0.7570  0.8437
  413MPD2    H7 6173   3.464   3.514  15.352  1.5358 -2.3423  3.2107
  414TMC3    C1 6174   4.003   2.937  15.132  0.5176  0.0627  0.3646
  414TMC3    C2 6175   4.063   2.827  15.188 -0.9811 -0.2560 -0.6230
  414TMC3    C3 6176   4.090   2.717  15.108  0.3790 -0.5221 -0.5254
  414TMC3    C4 6177   3.969   2.933  15.000 -0.6234  0.2940  0.4547
  414TMC3    C5 6178   3.987   2.826  14.926  0.5706  0.5893  0.0823
  414TMC3    C6 6179   4.034   2.713  14.980 -0.4859  0.1925  1.0788
  414TMC3     C 6180   3.973   3.049  15.218  0.0497  0.1012 -0.0520
  414TMC3     O 6181   4.050   3.066  15.312  0.7302 -0.2083 -0.2721
  414TMC3     H 6182   4.097   2.837  15.291 -2.1503  0.1889 -0.2869
  414TMC3    H1 6183   3.941   3.030  14.960 -0.7396  0.0798  0.0154
  414TMC3    H2 6184   4.029   2.614  14.936 -2.2940  0.8793 -0.2459
  414TMC3    C7 6185   3.927   2.819  14.789  0.5366 -0.3388  0.4900
  414TMC3    C8 6186   4.183   2.618  15.153  0.3805 -0.4342  0.5691
  414TMC3    O1 6187   3.824   2.888  14.772 -0.1631 -0.1384 -0.2644
  414TMC3    O2 6188   4.215   2.539  15.063  0.6159  0.3614  0.2037
  415TMC3    C1 6189   0.131   4.592   9.994 -0.2037  1.2285  0.1437
  415TMC3    C2 6190   0.217   4.700   9.971  0.4949  0.0066  1.0441
  415TMC3    C3 6191   0.221   0.039   9.848  0.4813 -0.4368 -0.2699
  415TMC3    C4 6192   0.039   4.564   9.892 -0.0881  0.4352 -0.3459
  415TMC3    C5 6193   0.030   4.638   9.782  0.1183 -0.0271 -0.4691
  415TMC3    C6 6194   0.134   0.005   9.748  0.4744  0.2669 -0.0491
  415TMC3     C 6195   0.073   4.599  10.128 -0.2098 -0.1295  0.3481
  415TMC3     O 6196   4.672   4.602  10.124 -0.2276  0.6990  0.2882
  415TMC3     H 6197   0.275   0.018  10.053  0.2818  0.1556  1.1244
  415TMC3    H1 6198   4.694   4.480   9.910  1.2052 -0.3590  0.7777
  415TMC3    H2 6199   0.141   0.050   9.650 -0.7767  1.6411  0.4993
  415TMC3    C7 6200   4.665   4.594   9.679  0.5687 -0.3391  0.1342
  415TMC3    C8 6201   0.299   0.163   9.842 -0.2451 -0.0103  0.2728
  415TMC3    O1 6202   4.703   4.617   9.570  0.2600 -0.0588 -0.0758
  415TMC3    O2 6203   0.386   0.177   9.926  0.2319 -0.2852  0.4865
  416MPD2     C 6204   1.388   4.099  11.505 -0.4553 -0.6048  0.1806
  416MPD2    C1 6205   1.352   4.133  11.370  0.1913 -0.5516  0.1827
  416MPD2    C2 6206   1.407   4.059  11.266 -0.1331  0.0647 -0.1606
  416MPD2    C3 6207   1.452   3.935  11.300 -0.2212 -0.8116  0.6108
  416MPD2    C4 6208   1.460   3.888  11.427  0.4182 -0.0102 -0.3440
  416MPD2    C5 6209   1.439   3.975  11.529  0.8779  0.0387 -0.9242
  416MPD2     H 6210   1.392   4.088  11.162  1.4673  1.1184 -0.1080
  416MPD2    H1 6211   1.490   3.785  11.447  2.2896  0.5410 -0.3787
  416MPD2    H2 6212   1.341   4.156  11.584 -1.8170 -2.2069  0.5208
  416MPD2    H3 6213   1.458   3.933  11.628 -2.0800  2.4757  0.6819
  416MPD2     N 6214   1.481   3.840  11.197  0.0899  0.1342  0.5107
  416MPD2    H5 6215   1.492   3.745  11.233 -1.7168  0.5121  2.0606
  416MPD2    N1 6216   1.266   4.244  11.350 -0.7689  0.0669  0.0983
  416MPD2    H7 6217   1.262   4.304  11.432 -0.9637 -1.4697  1.2211
  417TMC3    C1 6218   1.103   4.372  11.226  0.5350  0.2998 -0.0753
  417TMC3    C2 6219   1.079   4.437  11.338  0.1308  0.8929  0.1710
  417TMC3    C3 6220   0.984   4.534  11.338  0.0876 -0.3245  0.6394
  417TMC3    C4 6221   1.024   4.376  11.114  0.5327 -0.6862 -0.4411
  417TMC3    C5 6222   0.920   4.467  11.120  0.3455  0.2973 -0.1882
  417TMC3    C6 6223   0.906   4.553  11.230 -0.0128 -0.0551 -0.1797
  417TMC3     C 6224   1.201   4.259  11.230 -0.2496 -0.1188  0.7338
  417TMC3     O 6225   1.203   4.188  11.133  0.6929  0.3585  0.2861
  417TMC3     H 6226   1.150   4.451  11.418  0.1031  2.2727 -0.0475
  417TMC3    H1 6227   1.047   4.318  11.026 -0.1580 -0.7111 -0.6062
  417TMC3    H2 6228   0.825   4.625  11.228  1.3091  1.3755 -2.0929
  417TMC3    C7 6229   0.878   4.523  10.990  0.3677  0.6954 -0.8595
  417TMC3    C8 6230   0.923   4.575  11.465 -0.0309 -0.3120 -0.3841
  417TMC3    O1 6231   0.860   4.645  10.981 -0.4198 -0.2547  0.1839
  417TMC3    O2 6232   0.863   4.687  11.462 -0.1517 -0.4324  0.2078
  418TMC3    C1 6233   4.524   1.439   0.352  0.5093 -0.3736  0.0693
  418TMC3    C2 6234   4.403   1.430   0.287  0.5255  0.8336 -0.2536
  418TMC3    C3 6235   4.315   1.339   0.343 -0.7378  0.1233 -0.6582
  418TMC3    C4 6236   4.553   1.379   0.466 -0.3486  0.0882 -0.1533
  418TMC3    C5 6237   4.456   1.298   0.527  0.0752  1.0465  0.6072
  418TMC3    C6 6238   4.337   1.274   0.465  0.6257 -0.1612 -0.3004
  418TMC3     C 6239   4.638   1.487   0.285  0.3560  0.3582 -0.6731
  418TMC3     O 6240   4.606   1.561   0.191 -0.1548  0.2936  0.5531
  418TMC3     H 6241   4.388   1.463   0.185 -0.5157  3.7207  0.8423
  418TMC3    H1 6242   4.640   1.411   0.522  0.9848 -0.1723 -2.0748
  418TMC3    H2 6243   4.264   1.207   0.510 -0.0240 -0.8791 -2.4203
  418TMC3    C7 6244   4.486   1.220   0.642 -0.9704  0.7357 -0.2514
  418TMC3    C8 6245   4.216   1.283   0.246  0.0109 -0.5790  0.0715
  418TMC3    O1 6246   4.441   1.107   0.638 -0.2747  0.1188  0.2197
  418TMC3    O2 6247   4.183   1.352   0.150 -0.1045 -1.0043  0.2013
  419MPD2     C 6248   3.419   4.270  12.920 -0.9325  0.4789 -0.2546
  419MPD2    C1 6249   3.304   4.334  12.902  0.1328 -1.1501  0.8752
  419MPD2    C2 6250   3.264   4.436  12.988  0.3467  0.0776 -0.9847
  419MPD2    C3 6251   3.355   4.477  13.091  0.3675 -0.1114 -0.5612
  419MPD2    C4 6252   3.474   4.414  13.103  0.2969  0.1427  0.0071
  419MPD2    C5 6253   3.499   4.312  13.018  0.2766 -0.1766  0.1325
  419MPD2     H 6254   3.180   4.500  12.965 -1.7962 -1.7832  1.6420
  419MPD2    H1 6255   3.546   4.447  13.177  1.7968  0.6557 -1.6981
  419MPD2    H2 6256   3.458   4.200  12.848 -0.0011 -0.7083  1.4021
  419MPD2    H3 6257   3.593   4.259  13.030  0.0914 -0.3328  0.9462
  419MPD2     N 6258   3.321   4.598  13.153 -0.1118  0.0221  0.1728
  419MPD2    H5 6259   3.222   4.620  13.142  0.1054  1.0637  0.2616
  419MPD2    N1 6260   3.228   4.325  12.784  0.3789  0.9606 -0.1813
  419MPD2    H7 6261   3.149   4.388  12.776  0.6427  1.4446  1.0990
  420TMC3    C1 6262   3.321   0.075  13.275 -0.1621 -0.0104  0.5632
  420TMC3    C2 6263   3.193   0.103  13.225 -0.0363  0.5597 -0.8019
  420TMC3    C3 6264   3.123   0.196  13.294 -0.2995 -0.0646 -0.6758
  420TMC3    C4 6265   3.375   0.140  13.384  0.2313 -0.7661 -0.1424
  420TMC3    C5 6266   3.299   0.240  13.438 -0.2704 -0.5535 -0.6471
  420TMC3    C6 6267   3.171   0.263  13.401 -0.0426  0.3422 -0.0585
  420TMC3     C 6268   3.395   4.682  13.226 -0.5455  0.4082 -0.1585
  420TMC3     O 6269   3.514   4.689  13.258 -0.3756 -0.6022  0.1234
  420TMC3     H 6270   3.161   0.053  13.134  0.9547  0.1633 -0.9335
  420TMC3    H1 6271   3.473   0.110  13.419 -0.2592 -3.0646 -0.7327
  420TMC3    H2 6272   3.108   0.332  13.457 -2.1693  0.0876 -2.1313
  420TMC3    C7 6273   3.331   0.253  13.583 -0.3857  0.6385  0.2441
  420TMC3    C8 6274   2.995   0.253  13.243 -0.0393 -0.0766  0.0503
  420TMC3    O1 6275   3.384   0.152  13.628 -0.1727 -0.8148  0.4840
  420TMC3    O2 6276   2.960   0.357  13.290 -0.0532  0.6411  0.1569
  421TMC3    C1 6277   4.465   1.795  13.871  0.3246 -0.3665  0.4982
  421TMC3    C2 6278   4.451   1.888  13.972 -0.4716  0.5003  0.2223
  421TMC3    C3 6279   4.524   1.874  14.084 -0.0836  0.1007  0.1031
  421TMC3    C4 6280   4.550   1.696  13.888 -0.4628  0.0404  0.0682
  421TMC3    C5 6281   4.613   1.675  14.006  0.7073 -0.3496 -0.0393
  421TMC3    C6 6282   4.607   1.768  14.106  0.4666  0.9628 -0.6655
  421TMC3     C 6283   4.396   1.823  13.740  0.0223  0.2162 -0.7612
  421TMC3     O 6284   4.387   1.940  13.712  0.0867 -0.4346  0.0865
  421TMC3     H 6285   4.382   1.971  13.969 -1.2444  0.0256  4.9359
  421TMC3    H1 6286   4.568   1.619  13.814 -0.0715  1.6129 -1.4581
  421TMC3    H2 6287   4.652   1.737  14.200  1.1186  1.0719 -0.9480
  421TMC3    C7 6288   4.694   1.556  14.040 -0.7890  1.0225  0.0085
  421TMC3    C8 6289   4.522   1.980  14.182 -0.7270 -0.9847  0.2843
  421TMC3    O1 6290   0.039   1.564  14.142 -0.3122  0.5890  0.1690
  421TMC3    O2 6291   4.425   2.058  14.178 -1.2721 -0.4732  0.4105
  422TMC3    C1 6292   2.002   2.682  12.676 -0.8457  0.3229 -0.2176
  422TMC3    C2 6293   2.004   2.798  12.759  0.6232 -0.5785 -0.3739
  422TMC3    C3 6294   1.940   2.791  12.882 -0.1711 -0.1887 -0.0928
  422TMC3    C4 6295   1.940   2.561  12.713  0.5160  0.3463 -0.1406
  422TMC3    C5 6296   1.886   2.565  12.838  0.3100 -0.0589 -0.2004
  422TMC3    C6 6297   1.878   2.670  12.918  0.5309 -0.5131 -0.0493
  422TMC3     C 6298   2.068   2.690  12.547  0.0654 -0.1321  0.4686
  422TMC3     O 6299   2.121   2.794  12.513 -0.0237 -0.0556 -0.5542
  422TMC3     H 6300   2.041   2.891  12.719  0.2177  0.2178  1.0989
  422TMC3    H1 6301   1.939   2.473  12.650 -0.4624 -0.1853  0.6114
  422TMC3    H2 6302   1.828   2.658  13.013  1.9240  1.3523  0.9306
  422TMC3    C7 6303   1.812   2.452  12.870  0.5230 -0.6099 -0.1219
  422TMC3    C8 6304   1.978   2.887  12.994  0.5425  0.8379 -0.1551
  422TMC3    O1 6305   1.843   2.337  12.837  0.7884 -0.4670  0.0818
  422TMC3    O2 6306   2.083   2.955  12.971 -0.9381 -0.2710 -0.7125
  423MPD2     C 6307   3.444   3.803   0.677  0.5202 -0.4539 -0.3884
  423MPD2    C1 6308   3.544   3.715   0.703  0.1717  1.0893  0.4018
  423MPD2    C2 6309   3.565   3.603   0.622  0.1423 -0.4356 -1.1247
  423MPD2    C3 6310   3.480   3.590   0.517  0.2275 -0.0114 -0.1830
  423MPD2    C4 6311   3.383   3.685   0.487  0.7799 -0.3886 -0.0668
  423MPD2    C5 6312   3.359   3.787   0.572 -0.7693 -0.5306  0.3303
  423MPD2     H 6313   3.647   3.537   0.645 -0.4854 -0.5979  0.6516
  423MPD2    H1 6314   3.324   3.676   0.397 -0.2659  0.6625  0.4992
  423MPD2    H2 6315   3.410   3.881   0.744  1.9629 -0.2202  0.0721
  423MPD2    H3 6316   3.281   3.860   0.553 -0.6419 -0.5342 -0.2130
  423MPD2     N 6317   3.496   3.483   0.422 -0.5426  0.2455 -0.2028
  423MPD2    H5 6318   3.425   3.470   0.352  0.4885 -2.5150 -0.7303
  423MPD2    N1 6319   3.621   3.716   0.820 -0.2216  0.0892  0.3912
  423MPD2    H7 6320   3.685   3.641   0.843  0.0797 -0.7209 -3.0789
  424TMC3    C1 6321   3.677   3.780   1.037  0.3010 -0.5506  0.0981
  424TMC3    C2 6322   3.812   3.762   1.013 -0.3445 -0.9188  0.6156
  424TMC3    C3 6323   3.903   3.789   1.118  0.3366 -0.2763 -0.3375
  424TMC3    C4 6324   3.626   3.830   1.153 -0.3538  0.1916 -0.5094
  424TMC3    C5 6325   3.717   3.840   1.260  0.8911  0.3096 -0.1410
  424TMC3    C6 6326   3.854   3.830   1.246 -0.6186  0.3310 -0.0091
  424TMC3     C 6327   3.590   3.799   0.922  0.0461 -0.7989 -0.3279
  424TMC3     O 6328   3.518   3.899   0.933 -0.0046  0.1762 -0.0996
  424TMC3     H 6329   3.847   3.741   0.913 -3.3963 -2.1314 -0.1966
  424TMC3    H1 6330   3.520   3.838   1.173 -0.0297 -1.3034  1.9133
  424TMC3    H2 6331   3.927   3.836   1.326 -1.9875 -0.0569  1.2627
  424TMC3    C7 6332   3.670   3.922   1.372  0.6128 -0.2991  0.3373
  424TMC3    C8 6333   4.039   3.754   1.107  0.5740  1.0397 -0.2410
  424TMC3    O1 6334   3.587   4.008   1.350  0.5912  0.2859  0.0831
  424TMC3    O2 6335   4.097   3.710   1.206  0.4053  0.7209 -0.0445
  425MPD2     C 6336   2.596   3.185  17.656  0.3376 -0.1602  0.3481
  425MPD2    C1 6337   2.510   3.080  17.623  0.1921  0.1513  1.0492
  425MPD2    C2 6338   2.374   3.095  17.654 -0.1878 -0.0372  0.2436
  425MPD2    C3 6339   2.338   3.212   0.018  0.2373  0.0650  0.2071
  425MPD2    C4 6340   2.424   3.312   0.062  0.5631  0.2691  0.5881
  425MPD2    C5 6341   2.556   3.295   0.032 -0.2506 -0.8312 -0.4763
  425MPD2     H 6342   2.300   3.018  17.636  0.1887 -0.2580 -0.3616
  425MPD2    H1 6343   2.393   3.394   0.125  0.2892 -0.0356  0.8524
  425MPD2    H2 6344   2.699   3.154  17.651 -0.0843 -1.9444  2.8109
  425MPD2    H3 6345   2.627   3.375   0.051 -0.6061 -0.5156 -0.4619
  425MPD2     N 6346   2.195   3.213   0.039 -0.3250 -0.3323 -0.2059
  425MPD2    H5 6347   2.139   3.136   0.002  2.1425 -0.7043 -3.2083
  425MPD2    N1 6348   2.564   2.968  17.562 -0.0054 -1.1391 -0.0293
  425MPD2    H7 6349   2.665   2.958  17.567  0.0997 -0.1443 -0.1834
  426TMC3    C1 6350   2.560   2.783  17.410  0.0761 -0.1623 -0.3798
  426TMC3    C2 6351   2.503   2.731  17.298 -0.0453  0.1665 -0.6252
  426TMC3    C3 6352   2.570   2.631  17.232 -0.2432  0.5620  0.8538
  426TMC3    C4 6353   2.678   2.741  17.450 -0.5426 -0.1721  0.5108
  426TMC3    C5 6354   2.744   2.648  17.380 -0.0326  0.9867  0.2105
  426TMC3    C6 6355   2.692   2.588  17.270  0.3767 -0.4922  0.2899
  426TMC3     C 6356   2.485   2.874  17.489 -0.0486  0.4187  0.3508
  426TMC3     O 6357   2.367   2.873  17.464  0.4438 -0.1708 -0.1818
  426TMC3     H 6358   2.413   2.775  17.255  0.3656 -0.3858 -2.0599
  426TMC3    H1 6359   2.734   2.791  17.529  0.3929  0.3512 -0.4814
  426TMC3    H2 6360   2.738   2.507  17.215  0.6048 -0.6843  0.7603
  426TMC3    C7 6361   2.852   2.561  17.439  0.1888  0.0361  0.1022
  426TMC3    C8 6362   2.521   2.590  17.104 -0.6310 -0.0610 -0.0226
  426TMC3    O1 6363   2.926   2.495  17.370 -0.6834  0.0897  0.1465
  426TMC3    O2 6364   2.600   2.552  17.022 -0.3977  0.2331  0.2466
  427MPD2     C 6365   0.918   0.169  15.099  0.1290 -0.0821 -0.2988
  427MPD2    C1 6366   0.915   0.172  15.237  0.2438 -0.4397 -0.0254
  427MPD2    C2 6367   0.796   0.206  15.299 -0.1661 -0.6371  0.2003
  427MPD2    C3 6368   0.683   0.236  15.225  0.7082 -0.4971  0.8363
  427MPD2    C4 6369   0.695   0.236  15.084 -0.0939 -0.8837  0.1242
  427MPD2    C5 6370   0.812   0.208  15.017 -0.7106 -0.1315  0.0201
  427MPD2     H 6371   0.780   0.218  15.405 -0.4618  1.5981 -0.1039
  427MPD2    H1 6372   0.608   0.267  15.027  0.6561  0.4887 -0.2838
  427MPD2    H2 6373   1.006   0.136  15.044 -0.4271 -0.3402 -1.0213
  427MPD2    H3 6374   0.815   0.196  14.910 -0.6692 -0.9488  0.1089
  427MPD2     N 6375   0.556   0.271  15.274  0.4036  0.0421 -0.0968
  427MPD2    H5 6376   0.491   0.272  15.196  1.5118  0.9807 -1.0066
  427MPD2    N1 6377   1.015   0.139  15.325 -0.3185 -0.5405 -0.7775
  427MPD2    H7 6378   0.998   0.154  15.424 -0.9949 -1.4163 -0.7537
  428TMC3    C1 6379   1.205   0.021  15.406  0.3739 -0.3802  0.0055
  428TMC3    C2 6380   1.140   4.700  15.521  0.1410 -0.5910 -0.1524
  428TMC3    C3 6381   1.224   4.665  15.628 -0.0013  0.1285  0.1765
  428TMC3    C4 6382   1.344   0.023  15.390  0.2101 -0.2821 -0.1260
  428TMC3    C5 6383   1.423   4.709  15.497  0.0936  0.5044 -0.9896
  428TMC3    C6 6384   1.365   4.678  15.620 -0.1223  0.1198  0.2058
  428TMC3     C 6385   1.125   0.065  15.294 -0.7771 -0.5902  0.1461
  428TMC3     O 6386   1.167   0.037  15.182  0.5891 -0.3990  0.5306
  428TMC3     H 6387   1.031   4.700  15.516  0.2377 -1.3806 -2.5906
  428TMC3    H1 6388   1.379   0.079  15.304  1.1179 -0.9634 -0.2025
  428TMC3    H2 6389   1.425   4.652  15.706 -0.9185  2.6429  1.5236
  428TMC3    C7 6390   1.553   0.036  15.496 -0.2546 -0.2781  0.0238
  428TMC3    C8 6391   1.176   4.581  15.734 -0.5531  0.1307  0.3899
  428TMC3    O1 6392   1.588   0.065  15.610 -0.2612  0.6303 -0.7065
  428TMC3    O2 6393   1.265   4.519  15.791 -0.2647 -0.5746  0.2390
  429MPD2     C 6394   2.575   0.351  17.596 -0.2882  0.0493 -0.1480
  429MPD2    C1 6395   2.512   0.273  17.501  0.1489  0.2317 -0.0316
  429MPD2    C2 6396   2.454   0.330  17.389 -0.0040 -0.4521 -0.7758
  429MPD2    C3 6397   2.477   0.468  17.364  0.0455 -0.1860 -0.4160
  429MPD2    C4 6398   2.545   0.544  17.457  0.4411  0.0810  0.5026
  429MPD2    C5 6399   2.586   0.485  17.575 -0.4706  0.2225  0.4279
  429MPD2     H 6400   2.398   0.260  17.328  2.3384 -2.2184 -0.9116
  429MPD2    H1 6401   2.563   0.648  17.433  0.3388  0.1045  0.5239
  429MPD2    H2 6402   2.601   0.298  17.688  3.5171  0.7225 -0.8227
  429MPD2    H3 6403   2.641   0.548  17.644 -0.0317  0.6511 -0.3245
  429MPD2     N 6404   2.441   0.518  17.232  0.1111  0.4094  0.4014
  429MPD2    H5 6405   2.411   0.446  17.167 -0.8676  1.3186 -0.1479
  429MPD2    N1 6406   2.496   0.132  17.505  0.4969  0.8761 -0.1457
  429MPD2    H7 6407   2.430   0.088  17.442  1.0363 -0.7250  0.3923
  430TMC3    C1 6408   2.435   0.649  17.043  0.0435  0.3508 -0.1134
  430TMC3    C2 6409   2.377   0.764  16.992 -0.0550 -0.5285  0.0960
  430TMC3    C3 6410   2.370   0.760  16.854 -0.1578  0.5398 -0.3467
  430TMC3    C4 6411   2.472   0.541  16.967 -0.0069 -0.2267  0.4925
  430TMC3    C5 6412   2.456   0.547  16.833 -0.2965 -0.3261 -0.1680
  430TMC3    C6 6413   2.398   0.654  16.769 -0.0222 -0.8414  0.2540
  430TMC3     C 6414   2.466   0.647  17.183 -0.5108 -0.3860  0.6991
  430TMC3     O 6415   2.501   0.751  17.236  0.3467  1.1167 -0.0079
  430TMC3     H 6416   2.334   0.840  17.056 -1.5823 -3.1107  2.1154
  430TMC3    H1 6417   2.520   0.452  17.006 -0.3779 -0.5959  0.1118
  430TMC3    H2 6418   2.375   0.645  16.664  1.2156  0.7954 -0.1557
  430TMC3    C7 6419   2.460   0.418  16.761  0.1485 -0.1970  0.3174
  430TMC3    C8 6420   2.284   0.864  16.796  0.3377  0.0949 -0.3806
  430TMC3    O1 6421   2.497   0.319  16.824  0.3724  0.0729  0.1081
  430TMC3    O2 6422   2.214   0.936  16.864  0.2086  1.1950  0.4317
  431MPD2     C 6423   3.095   0.373  12.652 -0.6458  0.5147  0.3319
  431MPD2    C1 6424   3.189   0.315  12.568 -1.0311  0.2663  0.1777
  431MPD2    C2 6425   3.179   0.180  12.537  0.0193  0.6166  0.7705
  431MPD2    C3 6426   3.070   0.098  12.581  0.2863 -0.1388  0.3811
  431MPD2    C4 6427   2.983   0.161  12.681  0.1018  0.2463  0.5338
  431MPD2    C5 6428   2.989   0.298  12.699 -0.1113 -0.2733 -0.1273
  431MPD2     H 6429   3.247   0.130  12.469  1.0930 -1.7156  3.5795
  431MPD2    H1 6430   2.897   0.104  12.713  1.3716 -2.0342 -0.0710
  431MPD2    H2 6431   3.091   0.479  12.674 -0.4654  1.1967 -2.8854
  431MPD2    H3 6432   2.919   0.357  12.757 -0.0786 -0.7301  0.3739
  431MPD2     N 6433   3.052   4.690  12.537  0.6364  0.2287  0.4279
  431MPD2    H5 6434   3.000   4.623  12.592 -0.1132 -0.8931 -1.6148
  431MPD2    N1 6435   3.307   0.378  12.513 -0.1542 -0.3862  0.0115
  431MPD2    H7 6436   3.361   0.328  12.442 -0.0484 -1.1184  0.6078
  432TMC3    C1 6437   3.141   4.496  12.430  0.7389  0.9046  0.1473
  432TMC3    C2 6438   3.171   4.442  12.305 -0.0009 -0.5341 -0.1857
  432TMC3    C3 6439   3.210   4.310  12.314 -0.4054  0.0034  0.7667
  432TMC3    C4 6440   3.162   4.439  12.552 -0.7283 -0.1247 -0.6376
  432TMC3    C5 6441   3.204   4.307  12.553 -0.3786 -0.4224 -0.0059
  432TMC3    C6 6442   3.221   4.242  12.433 -0.0598 -0.1650 -0.1085
  432TMC3     C 6443   3.119   4.636  12.428 -1.5600 -0.0445  0.3535
  432TMC3     O 6444   3.157   4.702  12.332  0.4662  0.3906  0.5090
  432TMC3     H 6445   3.156   4.491  12.210  0.3920 -0.7767 -0.3767
  432TMC3    H1 6446   3.157   4.508  12.636  0.7486 -0.4887 -0.2510
  432TMC3    H2 6447   3.265   4.143  12.423  3.4008  1.2718  0.8376
  432TMC3    C7 6448   3.271   4.253  12.670 -0.1459 -0.6097 -0.8403
  432TMC3    C8 6449   3.292   4.264  12.204  1.2446 -0.4298  0.9489
  432TMC3    O1 6450   3.339   4.148  12.661 -0.0332 -0.4346  0.3037
  432TMC3    O2 6451   3.269   4.147  12.167  0.7782  0.3665 -0.2149
  433MPD2     C 6452   2.344   3.725  10.794  0.8967 -0.5265 -0.5798
  433MPD2    C1 6453   2.293   3.598  10.776  0.7380  0.1083  1.3892
  433MPD2    C2 6454   2.220   3.540  10.881 -0.1778 -0.3651  0.1742
  433MPD2    C3 6455   2.202   3.607  11.001 -0.1113  0.1114  0.0788
  433MPD2    C4 6456   2.254   3.731  11.014  0.6380 -0.2160 -0.2614
  433MPD2    C5 6457   2.311   3.786  10.908 -0.3531  0.3196 -0.0417
  433MPD2     H 6458   2.180   3.440  10.867  0.8592 -0.8954  0.9898
  433MPD2    H1 6459   2.265   3.800  11.097 -2.8148  2.5822 -2.1351
  433MPD2    H2 6460   2.400   3.782  10.721 -1.5435  2.6074 -0.0059
  433MPD2    H3 6461   2.347   3.888  10.914  1.4089 -0.3919  1.6074
  433MPD2     N 6462   2.141   3.534  11.104  0.0165  0.1050 -0.1532
  433MPD2    H5 6463   2.098   3.447  11.076 -0.4587  0.9920 -2.1744
  433MPD2    N1 6464   2.341   3.527  10.666 -0.1885 -0.3562 -0.8077
  433MPD2    H7 6465   2.406   3.573  10.603  0.4223  0.5804  0.5285
  434TMC3    C1 6466   2.381   3.350  10.519 -0.0454  0.3432  0.0725
  434TMC3    C2 6467   2.469   3.268  10.582 -0.0308  1.0814  0.2768
  434TMC3    C3 6468   2.508   3.158  10.514  0.4375  0.7317  0.0739
  434TMC3    C4 6469   2.319   3.318  10.405  0.2091 -0.1257  0.2513
  434TMC3    C5 6470   2.358   3.203  10.343 -0.1204  0.7702  0.0150
  434TMC3    C6 6471   2.448   3.116  10.398 -0.4278 -0.0287 -0.0574
  434TMC3     C 6472   2.291   3.405  10.620 -0.2458  0.0443  0.0870
  434TMC3     O 6473   2.181   3.354  10.645  0.2938  0.4250  0.5996
  434TMC3     H 6474   2.505   3.282  10.683 -0.4332  0.4328  0.5115
  434TMC3    H1 6475   2.240   3.385  10.376  0.9533  0.5197 -0.2818
  434TMC3    H2 6476   2.498   3.036  10.345 -0.7140 -2.3495  3.1693
  434TMC3    C7 6477   2.269   3.151  10.246  0.0672  0.4017 -0.5537
  434TMC3    C8 6478   2.581   3.065  10.596  0.2929 -0.1111 -0.4277
  434TMC3    O1 6479   2.184   3.231  10.201 -0.6767  0.3395 -0.3330
  434TMC3    O2 6480   2.570   3.076  10.717  0.0073  0.1627  0.2295
  435MPD2     C 6481   4.204   3.988  15.589  0.2562  0.3456 -0.0240
  435MPD2    C1 6482   4.149   3.944  15.711  0.8173 -0.2008 -0.7235
  435MPD2    C2 6483   4.205   3.841  15.783  0.0363  1.1234  0.0923
  435MPD2    C3 6484   4.306   3.772  15.736 -0.1345  0.1693  0.2589
  435MPD2    C4 6485   4.363   3.811  15.614  0.1170  1.0071 -0.2294
  435MPD2    C5 6486   4.308   3.912  15.541 -0.0394 -0.4897  0.3044
  435MPD2     H 6487   4.168   3.819  15.882  0.1376  0.5643  0.0090
  435MPD2    H1 6488   4.448   3.760  15.570  0.2059 -0.3327  1.4775
  435MPD2    H2 6489   4.169   4.076  15.535  1.4207  1.5850  1.2215
  435MPD2    H3 6490   4.357   3.935  15.448  0.5923  1.8082  1.2160
  435MPD2     N 6491   4.365   3.681  15.824  0.1851 -0.6957  0.0761
  435MPD2    H5 6492   4.337   3.685  15.922  0.3887 -0.7927  0.1370
  435MPD2    N1 6493   4.020   3.985  15.752 -0.5392 -0.0544 -0.6863
  435MPD2    H7 6494   3.985   3.926  15.827 -0.6906 -0.3348 -0.9766
  436TMC3    C1 6495   3.675   4.020  15.927  0.2433  0.4314 -0.1907
  436TMC3    C2 6496   3.763   3.979  15.834 -0.5588 -0.0620  0.3697
  436TMC3    C3 6497   3.824   4.086  15.764 -1.1700  0.6731 -1.0537
  436TMC3    C4 6498   3.625   4.148  15.945  0.2063  0.4375 -0.3084
  436TMC3    C5 6499   3.679   4.239  15.855  0.7278  0.2083 -0.7920
  436TMC3    C6 6500   3.776   4.217  15.766  0.4742  0.6497  0.1816
  436TMC3     C 6501   3.631   3.912  16.012 -0.1658  0.0896 -0.2710
  436TMC3     O 6502   3.649   3.801  15.971  0.1663  0.3425  0.7551
  436TMC3     H 6503   3.797   3.877  15.821  0.7736  0.3356  0.7666
  436TMC3    H1 6504   3.544   4.158  16.016  1.5932  1.7902  1.0677
  436TMC3    H2 6505   3.825   4.303  15.721 -0.3892  1.0305 -0.0315
  436TMC3    C7 6506   3.597   4.358  15.850  0.5258 -0.4677  0.0121
  436TMC3    C8 6507   3.940   4.078  15.685  0.5546  0.2653  0.0788
  436TMC3    O1 6508   3.523   4.387  15.946 -0.0165 -0.3303  0.2002
  436TMC3    O2 6509   3.975   4.167  15.609 -0.6913  0.3714 -0.0026
  437TMC3    C1 6510   2.801   1.030  12.793  0.2271 -0.0027 -0.9439
  437TMC3    C2 6511   2.775   1.136  12.712  0.4420 -0.0015  0.1678
  437TMC3    C3 6512   2.825   1.140  12.585 -0.0542  0.2837 -0.5156
  437TMC3    C4 6513   2.882   0.932  12.743  0.3944  0.5564  0.0859
  437TMC3    C5 6514   2.920   0.928  12.613  1.0341 -0.3988 -0.4709
  437TMC3    C6 6515   2.896   1.038  12.536  0.0669 -0.1622  0.1664
  437TMC3     C 6516   2.842   1.076  12.920  0.1550  0.0558  0.2862
  437TMC3     O 6517   2.762   1.151  12.983 -0.4674 -0.0147  0.5483
  437TMC3     H 6518   2.708   1.215  12.744  0.8136 -0.0901  1.1643
  437TMC3    H1 6519   2.915   0.853  12.809  1.8546  1.4218  0.3788
  437TMC3    H2 6520   2.913   1.031  12.429 -1.6309 -1.5015 -0.0177
  437TMC3    C7 6521   3.049   0.867  12.596  0.3052 -0.0308 -0.3193
  437TMC3    C8 6522   2.786   1.255  12.508 -0.1180  0.0581  0.3573
  437TMC3    O1 6523   3.122   0.866  12.698  0.2987  0.5222 -0.0548
  437TMC3    O2 6524   2.686   1.316  12.540  0.0293  0.3373 -0.3937
  438MPD2     C 6525   0.355   1.548  16.782  0.3510 -0.4274 -0.0554
  438MPD2    C1 6526   0.396   1.464  16.885 -0.6157 -0.4212  0.3503
  438MPD2    C2 6527   0.347   1.479  17.013  0.4603 -0.2771  0.3701
  438MPD2    C3 6528   0.257   1.582  17.040  0.1164 -0.3342 -0.3923
  438MPD2    C4 6529   0.212   1.659  16.939 -0.0018 -0.2347 -0.2513
  438MPD2    C5 6530   0.254   1.636  16.815 -0.0490 -0.3736  0.1576
  438MPD2     H 6531   0.363   1.406  17.091  2.1144  2.5364  2.6619
  438MPD2    H1 6532   0.140   1.739  16.954 -0.1061 -0.1264 -1.3212
  438MPD2    H2 6533   0.385   1.539  16.678 -1.1641  2.4429 -0.7228
  438MPD2    H3 6534   0.204   1.692  16.737  0.9085  2.5033  1.6433
  438MPD2     N 6535   0.192   1.572  17.163 -0.0150 -0.0388  0.1744
  438MPD2    H5 6536   0.209   1.490  17.221  1.5263  0.1745  0.0269
  438MPD2    N1 6537   0.468   1.350  16.863 -0.7579 -0.0434  0.6408
  438MPD2    H7 6538   0.498   1.298  16.945  1.2133  1.3012  0.7824
  439TMC3    C1 6539   0.582   1.174  16.749  0.3913 -0.5761  0.5891
  439TMC3    C2 6540   0.584   1.085  16.648  0.6743 -0.2743  0.2124
  439TMC3    C3 6541   0.673   0.978  16.667 -0.6793 -0.0099 -0.4781
  439TMC3    C4 6542   0.662   1.160  16.856 -0.4891  1.0481 -0.1452
  439TMC3    C5 6543   0.733   1.044  16.879  0.1040  0.6382  0.1305
  439TMC3    C6 6544   0.733   0.946  16.788  0.9575  0.2315 -0.1073
  439TMC3     C 6545   0.490   1.286  16.742  0.1039 -0.0367  0.0893
  439TMC3     O 6546   0.459   1.323  16.626 -0.1107  0.5686  0.0524
  439TMC3     H 6547   0.525   1.101  16.559  2.0136 -1.9703 -0.9695
  439TMC3    H1 6548   0.666   1.234  16.935  1.9831 -1.2824  1.9225
  439TMC3    H2 6549   0.801   0.861  16.793 -1.5636 -1.6490  1.9970
  439TMC3    C7 6550   0.861   1.063  16.947 -0.2455  0.0655  0.4454
  439TMC3    C8 6551   0.776   0.970  16.563  0.8809 -0.1299 -0.4224
  439TMC3    O1 6552   0.864   1.140  17.045  0.0008 -0.5846 -0.6023
  439TMC3    O2 6553   0.874   0.907  16.598  0.2628 -0.0386  0.5337
  440MPD2     C 6554   3.980   1.914  14.739 -0.1051 -0.3049  0.0634
  440MPD2    C1 6555   4.032   2.023  14.795  0.0563 -0.2527 -0.4044
  440MPD2    C2 6556   4.140   2.009  14.878  0.0669  0.3142  0.8286
  440MPD2    C3 6557   4.217   1.897  14.880  0.1820 -0.4497  0.5532
  440MPD2    C4 6558   4.176   1.790  14.806  0.1459 -0.1715 -0.7341
  440MPD2    C5 6559   4.054   1.800  14.746  0.5055 -0.5456 -0.6361
  440MPD2     H 6560   4.167   2.099  14.931  1.3022 -0.0399  0.8058
  440MPD2    H1 6561   4.236   1.704  14.781  0.7732 -0.0161  0.2259
  440MPD2    H2 6562   3.889   1.917  14.680 -1.1204 -3.7340  1.4345
  440MPD2    H3 6563   4.014   1.714  14.694  1.6338 -0.0329 -2.3427
  440MPD2     N 6564   4.337   1.890  14.964 -0.1930 -0.0547 -0.3555
  440MPD2    H5 6565   4.371   1.796  14.983 -1.6871 -0.1263  1.9836
  440MPD2    N1 6566   3.966   2.149  14.798  0.4038  0.5994  0.0221
  440MPD2    H7 6567   4.011   2.215  14.861 -0.0672  0.9498 -0.0069
  441TMC3    C1 6568   4.518   1.966  15.102  0.5684  0.7330  0.1091
  441TMC3    C2 6569   4.596   2.072  15.134 -0.6254  0.2291  0.3797
  441TMC3    C3 6570   4.664   2.069  15.253  0.3093 -0.1175  0.0652
  441TMC3    C4 6571   4.489   1.870  15.193 -0.0317 -0.0254  0.3986
  441TMC3    C5 6572   4.558   1.868  15.310 -0.2995  0.2618  0.7027
  441TMC3    C6 6573   4.637   1.974  15.345  0.4341 -0.6364  0.6252
  441TMC3     C 6574   4.403   1.995  15.018  1.3869  0.5267 -0.0505
  441TMC3     O 6575   4.383   2.110  14.993 -0.0532  0.4590  0.0548
  441TMC3     H 6576   4.601   2.164  15.077 -0.3403 -0.2738 -0.3923
  441TMC3    H1 6577   4.422   1.790  15.164 -1.3509  0.9537  0.7429
  441TMC3    H2 6578   4.674   1.993  15.445 -0.9556 -0.0801  1.0365
  441TMC3    C7 6579   4.539   1.742  15.384  0.2806  0.4636  0.2883
  441TMC3    C8 6580   4.674   2.197  15.320  0.0733 -0.1138  0.3597
  441TMC3    O1 6581   4.492   1.652  15.320 -0.5634 -0.2120 -0.4154
  441TMC3    O2 6582   0.048   2.228  15.386  0.7096 -0.2289 -0.2234
  442MPD2     C 6583   2.187   2.786  16.305  0.0611 -0.4828  0.2009
  442MPD2    C1 6584   2.102   2.704  16.367 -0.8075  0.1368  0.1940
  442MPD2    C2 6585   2.082   2.570  16.335  0.5369  0.3982  0.1514
  442MPD2    C3 6586   2.153   2.516  16.225 -0.2404  0.0807  0.3164
  442MPD2    C4 6587   2.236   2.604  16.162 -0.4688 -0.5978 -0.2123
  442MPD2    C5 6588   2.251   2.734  16.197 -0.6200  0.4323 -0.2388
  442MPD2     H 6589   2.000   2.513  16.377  0.3816 -0.4034 -1.2419
  442MPD2    H1 6590   2.279   2.572  16.068 -1.6147 -0.2118 -0.8673
  442MPD2    H2 6591   2.201   2.892  16.326  3.3533 -0.6317 -1.2479
  442MPD2    H3 6592   2.304   2.794  16.123  0.7567 -1.0542 -0.4708
  442MPD2     N 6593   2.141   2.391  16.179  0.0504 -0.1722  0.7872
  442MPD2    H5 6594   2.185   2.382  16.088  1.6092 -0.1700  1.5538
  442MPD2    N1 6595   2.015   2.768  16.461 -0.2735 -0.4362 -0.3554
  442MPD2    H7 6596   1.941   2.710  16.499  2.0875 -3.9976 -1.1817
  443TMC3    C1 6597   1.879   2.938  16.550 -0.3256  0.5540 -0.1004
  443TMC3    C2 6598   1.802   3.039  16.502 -0.0847 -0.2954 -0.3075
  443TMC3    C3 6599   1.677   3.055  16.547  0.0527  0.4593  0.5022
  443TMC3    C4 6600   1.840   2.862  16.658 -0.3663 -0.2729  0.4706
  443TMC3    C5 6601   1.712   2.878  16.699 -0.7599 -0.5346  0.4914
  443TMC3    C6 6602   1.629   2.970  16.644 -0.2267  0.1537  0.2862
  443TMC3     C 6603   1.994   2.909  16.472  0.4099  0.3424  0.4899
  443TMC3     O 6604   2.038   3.006  16.414 -0.3173 -0.5158  0.3774
  443TMC3     H 6605   1.834   3.110  16.425  0.8034  2.5517  2.6923
  443TMC3    H1 6606   1.901   2.786  16.706  0.5911  0.1529 -0.0842
  443TMC3    H2 6607   1.529   2.996  16.675 -1.0431 -2.8422  0.1325
  443TMC3    C7 6608   1.674   2.814  16.833 -0.3864 -0.8253 -0.9628
  443TMC3    C8 6609   1.598   3.172  16.510  0.3107  0.0049 -0.3007
  443TMC3    O1 6610   1.753   2.726  16.872 -0.2897  0.5633 -0.1039
  443TMC3    O2 6611   1.552   3.229  16.608 -0.0236  0.3203  0.5435
  444MPD2     C 6612   1.931   2.241  16.779 -0.7034  0.0861 -0.0711
  444MPD2    C1 6613   1.984   2.190  16.895  0.3369 -0.7574 -0.1847
  444MPD2    C2 6614   2.111   2.122  16.892 -0.4675  0.1358 -0.3238
  444MPD2    C3 6615   2.180   2.118  16.774  0.1215 -0.5676  0.2455
  444MPD2    C4 6616   2.114   2.156  16.656 -0.6262  0.1093 -0.3684
  444MPD2    C5 6617   1.995   2.224  16.661 -0.6446  0.6758 -0.1607
  444MPD2     H 6618   2.149   2.091  16.989  0.8412 -0.3151 -0.9814
  444MPD2    H1 6619   2.153   2.133  16.558 -0.6798 -1.2749 -0.0620
  444MPD2    H2 6620   1.836   2.293  16.779 -0.6794  0.1327 -0.5538
  444MPD2    H3 6621   1.954   2.239  16.562 -2.1702  0.7796  0.4865
  444MPD2     N 6622   2.299   2.044  16.770 -0.4495  0.6482  0.4905
  444MPD2    H5 6623   2.326   1.991  16.852 -0.3315  0.2028  0.1667
  444MPD2    N1 6624   1.920   2.210  17.020  0.1796  0.5260  0.3513
  444MPD2    H7 6625   1.963   2.164  17.100  1.1319  0.0117 -0.4452
  445TMC3    C1 6626   2.536   2.020  16.738  0.6772  0.1242 -0.5094
  445TMC3    C2 6627   2.545   2.021  16.876  0.3320 -0.0896  0.0439
  445TMC3    C3 6628   2.652   1.959  16.926  0.4341 -0.1709 -0.1973
  445TMC3    C4 6629   2.634   1.971  16.657  0.5456  0.0105 -0.4641
  445TMC3    C5 6630   2.741   1.920  16.718 -0.2813  0.6678 -0.1914
  445TMC3    C6 6631   2.756   1.911  16.849  0.3383 -0.8283 -0.0883
  445TMC3     C 6632   2.402   2.051  16.677  0.1713  0.4004  0.7865
  445TMC3     O 6633   2.400   2.094  16.564 -0.7060 -0.1839  0.2265
  445TMC3     H 6634   2.468   2.059  16.941  0.9155  0.0150  0.6816
  445TMC3    H1 6635   2.631   1.993  16.550 -0.4147  2.2775  0.0215
  445TMC3    H2 6636   2.836   1.853  16.894  1.9810  1.4387 -0.1347
  445TMC3    C7 6637   2.849   1.870  16.632 -0.6997  0.0205 -0.0098
  445TMC3    C8 6638   2.652   1.921  17.066 -0.0325 -0.0590  0.5006
  445TMC3    O1 6639   2.875   1.936  16.536 -0.2340  0.2184 -0.4001
  445TMC3    O2 6640   2.758   1.932  17.128 -0.1712  0.3667  0.3678
  446MPD2     C 6641   2.230   2.768  11.021  0.1989  0.7885 -0.0424
  446MPD2    C1 6642   2.271   2.797  10.895 -0.2818 -0.5022  0.5257
  446MPD2    C2 6643   2.374   2.890  10.877 -0.3743  0.4245 -0.1235
  446MPD2    C3 6644   2.436   2.952  10.983 -0.9118  0.0304 -0.2863
  446MPD2    C4 6645   2.395   2.915  11.102  0.0511  0.0481 -0.4631
  446MPD2    C5 6646   2.295   2.827  11.121 -0.2660  0.7316  0.4042
  446MPD2     H 6647   2.402   2.909  10.773 -0.4114  0.8859 -0.0510
  446MPD2    H1 6648   2.442   2.948  11.194 -1.6233  2.2383 -0.3792
  446MPD2    H2 6649   2.164   2.689  11.055  0.3574  0.2034 -1.0992
  446MPD2    H3 6650   2.267   2.798  11.221 -1.2727  0.5855  0.0846
  446MPD2     N 6651   2.550   3.030  10.968 -0.0519 -0.5922 -0.5510
  446MPD2    H5 6652   2.565   3.075  10.878 -2.4249  2.3131  0.4716
  446MPD2    N1 6653   2.213   2.727  10.783 -0.0937 -0.2054  0.2406
  446MPD2    H7 6654   2.230   2.757  10.688 -0.2300  0.7114  0.5049
  447TMC3    C1 6655   2.771   3.095  11.027  0.5375 -0.4213  0.4004
  447TMC3    C2 6656   2.773   3.179  10.920 -0.1143 -0.6961 -0.8001
  447TMC3    C3 6657   2.885   3.241  10.891  0.3388  0.4957 -0.5901
  447TMC3    C4 6658   2.892   3.063  11.090 -0.3375  0.4081  0.3186
  447TMC3    C5 6659   3.007   3.119  11.047  0.3320 -0.6591 -0.1914
  447TMC3    C6 6660   2.998   3.217  10.953 -0.4330  0.7443  0.9735
  447TMC3     C 6661   2.652   3.023  11.061 -0.0221 -0.0550  0.2653
  447TMC3     O 6662   2.657   2.974  11.172  0.0188 -0.6077 -0.1652
  447TMC3     H 6663   2.684   3.213  10.868 -1.0435 -1.8880  0.0266
  447TMC3    H1 6664   2.883   2.983  11.163 -0.2969 -0.4100 -0.5752
  447TMC3    H2 6665   3.084   3.279  10.930  0.1116 -0.2758  0.2375
  447TMC3    C7 6666   3.132   3.042  11.034 -0.4619  0.6828  0.6062
  447TMC3    C8 6667   2.913   3.255  10.747 -0.6451  0.1330 -0.4029
  447TMC3    O1 6668   3.206   3.055  10.940 -0.4121  0.1387  0.0915
  447TMC3    O2 6669   2.842   3.316  10.669 -0.1908 -0.0808 -0.1962
  448TMC3    C1 6670   1.006   2.859  17.199 -0.1711 -0.1099 -0.0684
  448TMC3    C2 6671   1.029   2.726  17.160  0.2209  0.1090  0.1562
  448TMC3    C3 6672   1.035   2.630  17.257 -0.1335 -0.1077 -0.5938
  448TMC3    C4 6673   1.002   2.895  17.331 -0.3861 -1.0718 -0.2281
  448TMC3    C5 6674   1.012   2.797  17.423 -0.2344 -0.0915 -0.2723
  448TMC3    C6 6675   1.032   2.665  17.385  0.2337  0.0572  0.7832
  448TMC3     C 6676   1.003   2.963  17.097  0.1962  0.0822  0.2754
  448TMC3     O 6677   0.942   3.059  17.132  0.3181  0.0023 -0.1601
  448TMC3     H 6678   1.016   2.689  17.059  1.4600  0.8465 -0.2701
  448TMC3    H1 6679   1.007   2.999  17.364  3.3848 -1.9863  2.0714
  448TMC3    H2 6680   1.041   2.586  17.459  0.8753  0.1109  0.7614
  448TMC3    C7 6681   0.996   2.830  17.563 -0.1843 -0.0779  0.7090
  448TMC3    C8 6682   1.047   2.490  17.225 -0.2929  0.2205  0.9051
  448TMC3    O1 6683   1.024   2.941  17.609  0.2034 -0.0359  0.2080
  448TMC3    O2 6684   1.076   2.414  17.319 -0.4245 -0.2944  0.4197
  449MPD2     C 6685   1.592   0.687  12.495  0.4946 -0.4474 -0.0669
  449MPD2    C1 6686   1.575   0.758  12.608 -0.6591  0.5655  0.2942
  449MPD2    C2 6687   1.614   0.701  12.729 -0.8277 -0.2922 -0.0625
  449MPD2    C3 6688   1.689   0.585  12.731 -0.1787  0.0275 -0.4544
  449MPD2    C4 6689   1.710   0.514  12.610  0.1791  0.1208  0.6054
  449MPD2    C5 6690   1.665   0.569  12.490  0.7198 -0.5064  0.1510
  449MPD2     H 6691   1.585   0.758  12.817 -1.0363 -1.9767  0.9532
  449MPD2    H1 6692   1.766   0.422  12.620 -0.9277 -0.4191  1.9053
  449MPD2    H2 6693   1.566   0.729  12.399  0.2575 -0.3331  0.0497
  449MPD2    H3 6694   1.683   0.522  12.394  3.1516 -1.0955  0.8970
  449MPD2     N 6695   1.745   0.547  12.857  0.0375 -1.1796  0.2980
  449MPD2    H5 6696   1.728   0.613  12.932  1.6699 -1.1982  0.6957
  449MPD2    N1 6697   1.504   0.879  12.608 -0.6249  0.2807  0.1459
  449MPD2    H7 6698   1.481   0.920  12.698 -0.5078 -0.6888  0.6201
  450TMC3    C1 6699   1.440   1.098  12.540  0.4029 -0.5997  0.2684
  450TMC3    C2 6700   1.527   1.188  12.499  0.3054  0.4057  0.6370
  450TMC3    C3 6701   1.585   1.273  12.592 -0.1533  1.0119 -0.7055
  450TMC3    C4 6702   1.403   1.096  12.672 -0.1924 -0.2037  0.4154
  450TMC3    C5 6703   1.455   1.186  12.762 -0.8637  0.5381  0.0499
  450TMC3    C6 6704   1.544   1.278  12.722  0.1536 -0.0919  0.0588
  450TMC3     C 6705   1.487   0.963  12.500 -0.2171 -0.4007 -0.1905
  450TMC3     O 6706   1.532   0.952  12.386  0.3664 -0.0135 -0.1973
  450TMC3     H 6707   1.566   1.189  12.398  0.7286 -0.3997  0.7904
  450TMC3    H1 6708   1.318   1.038  12.704 -0.1432 -0.8378 -0.6051
  450TMC3    H2 6709   1.573   1.355  12.793 -1.5059 -0.8465  1.5441
  450TMC3    C7 6710   1.507   1.109  12.871 -0.4615  0.4101 -0.2100
  450TMC3    C8 6711   1.683   1.364  12.550  0.3592 -0.7735  0.6902
  450TMC3    O1 6712   1.494   0.989  12.864  0.5029 -0.2163  0.0110
  450TMC3    O2 6713   1.660   1.416  12.443  0.0878  0.2746  0.3806
  451MPD2     C 6714   2.993   0.397   2.127 -0.3110  0.3268  0.3296
  451MPD2    C1 6715   3.019   0.419   1.992 -0.0782  0.3377  0.3143
  451MPD2    C2 6716   3.113   0.337   1.936 -0.4221 -0.4681 -0.6879
  451MPD2    C3 6717   3.183   0.242   2.012 -1.1599  0.8331 -0.4282
  451MPD2    C4 6718   3.162   0.237   2.144 -0.1666 -0.5839  0.5781
  451MPD2    C5 6719   3.072   0.318   2.201  0.4100 -0.0010  0.8728
  451MPD2     H 6720   3.134   0.353   1.831  0.1571  1.0592 -0.3487
  451MPD2    H1 6721   3.224   0.175   2.209  0.2179  1.5026  2.2073
  451MPD2    H2 6722   2.911   0.448   2.177 -1.0872 -3.1012  2.5673
  451MPD2    H3 6723   3.054   0.318   2.308  1.1991 -2.1400  1.0123
  451MPD2     N 6724   3.290   0.162   1.974  0.7648 -0.8151  0.4024
  451MPD2    H5 6725   3.343   0.121   2.050  1.0391 -0.5395  0.3567
  451MPD2    N1 6726   2.949   0.522   1.929  0.4171  0.0498  0.1133
  451MPD2    H7 6727   2.888   0.574   1.991  1.7323  2.0426 -0.2690
  452TMC3    C1 6728   3.457   0.084   1.834 -0.7351  0.2234  0.3794
  452TMC3    C2 6729   3.551   0.082   1.930 -0.6199 -0.7629 -0.3496
  452TMC3    C3 6730   3.674   0.042   1.892  0.2059  0.4127  0.3817
  452TMC3    C4 6731   3.479   0.044   1.702 -0.0528  0.0560  0.0590
  452TMC3    C5 6732   3.604   4.721   1.668 -0.6575 -0.7890  0.1093
  452TMC3    C6 6733   3.707   4.714   1.763 -0.1107 -0.0498  0.2896
  452TMC3     C 6734   3.333   0.151   1.845 -0.5692  0.4224 -0.4335
  452TMC3     O 6735   3.289   0.196   1.738  0.3245 -0.3718 -0.2631
  452TMC3     H 6736   3.532   0.100   2.035  1.1845  2.6574 -0.6238
  452TMC3    H1 6737   3.405   0.044   1.622  0.3955 -0.9784 -0.3461
  452TMC3    H2 6738   3.813   4.700   1.745  0.5102  0.7370  3.2780
  452TMC3    C7 6739   3.636   4.689   1.533 -0.5909 -0.0257 -0.3517
  452TMC3    C8 6740   3.788   0.057   1.984 -0.0963  0.5894  0.5441
  452TMC3    O1 6741   3.563   0.003   1.441  0.4833  0.3007 -0.4519
  452TMC3    O2 6742   3.884   4.705   1.968  0.1894  0.5075 -0.1096
  453TMC3    C1 6743   0.003   2.138  11.271 -0.8723 -0.3008 -0.3477
  453TMC3    C2 6744   4.657   2.018  11.265 -0.2207  0.2624 -0.3109
  453TMC3    C3 6745   4.660   1.939  11.160 -0.2262  0.0543  0.5215
  453TMC3    C4 6746   0.084   2.180  11.164 -0.1732  0.1665  0.3666
  453TMC3    C5 6747   0.090   2.098  11.066  0.5036 -0.2561  0.8914
  453TMC3    C6 6748   0.027   1.980  11.065 -0.2969 -1.0647 -0.3085
  453TMC3     C 6749   0.062   2.174  11.401  0.2717  0.4186 -0.3541
  453TMC3     O 6750   0.180   2.205  11.397 -0.2000  0.6206 -0.5604
  453TMC3     H 6751   4.591   1.986  11.345  0.1271  0.2237 -0.0427
  453TMC3    H1 6752   0.146   2.269  11.174  0.1629 -0.0929  0.6218
  453TMC3    H2 6753   0.027   1.930  10.969  2.6791  0.5178 -1.1412
  453TMC3    C7 6754   0.184   2.126  10.962 -0.1956  0.3570  0.2804
  453TMC3    C8 6755   4.586   1.812  11.146  0.1405  0.6034 -0.3921
  453TMC3    O1 6756   0.222   2.026  10.907  0.2992  0.3594 -0.6796
  453TMC3    O2 6757   4.610   1.743  11.047  0.0780  0.0367 -0.0637
  454MPD2     C 6758   3.142   2.405  15.910  0.0344  0.8364 -0.7834
  454MPD2    C1 6759   3.029   2.327  15.889 -0.2163  0.1614  0.3891
  454MPD2    C2 6760   2.913   2.359  15.948 -0.3297 -0.0659 -0.5263
  454MPD2    C3 6761   2.901   2.462  16.038 -0.4125  0.6735 -0.7250
  454MPD2    C4 6762   3.011   2.535  16.063 -0.3275  0.4565 -0.0681
  454MPD2    C5 6763   3.131   2.511  15.996  0.4445  0.1179 -0.1974
  454MPD2     H 6764   2.826   2.301  15.921 -0.7460  0.3451 -0.0688
  454MPD2    H1 6765   3.015   2.614  16.138 -2.1251 -1.5391  2.1242
  454MPD2    H2 6766   3.240   2.387  15.870  0.0507 -0.3921 -0.1987
  454MPD2    H3 6767   3.217   2.565  16.033  1.3697 -1.6061  0.1425
  454MPD2     N 6768   2.778   2.462  16.108 -0.1190  0.5967  0.2703
  454MPD2    H5 6769   2.720   2.380  16.094  2.5672 -1.1439 -0.6072
  454MPD2    N1 6770   3.034   2.212  15.810 -0.2135 -0.4486  0.5969
  454MPD2    H7 6771   2.956   2.149  15.822 -0.7095  0.3109  1.3067
  455TMC3    C1 6772   2.605   2.509  16.251 -0.0474 -0.5926  0.3826
  455TMC3    C2 6773   2.587   2.531  16.383 -0.0198  0.2613  0.1895
  455TMC3    C3 6774   2.491   2.456  16.445  0.4357  0.1653  0.1669
  455TMC3    C4 6775   2.543   2.409  16.179 -0.0418 -0.4156 -0.4591
  455TMC3    C5 6776   2.456   2.328  16.248  0.6487 -0.1884 -1.0141
  455TMC3    C6 6777   2.433   2.353  16.381  0.3688 -0.1029  0.3958
  455TMC3     C 6778   2.739   2.547  16.205  0.8477 -0.8491  0.8630
  455TMC3     O 6779   2.797   2.651  16.241  0.0629 -0.2277 -0.1815
  455TMC3     H 6780   2.633   2.615  16.434 -0.9838 -0.5718  2.4485
  455TMC3    H1 6781   2.560   2.396  16.072 -0.1092 -1.7866 -0.2970
  455TMC3    H2 6782   2.348   2.298  16.420  1.0193 -2.0143 -0.8966
  455TMC3    C7 6783   2.430   2.195  16.186  0.0708 -0.4944 -0.3859
  455TMC3    C8 6784   2.478   2.488  16.583 -1.1631  0.7550 -1.0021
  455TMC3    O1 6785   2.419   2.194  16.067 -0.4153  0.6904 -0.0123
  455TMC3    O2 6786   2.575   2.511  16.654 -0.4231  0.7862 -0.0368
  456MPD2     C 6787   0.824   1.414  16.632 -0.7447 -0.5020 -0.3886
  456MPD2    C1 6788   0.959   1.409  16.656 -0.1188  0.2331 -0.0854
  456MPD2    C2 6789   1.000   1.446  16.785 -0.1064  0.2108  0.0966
  456MPD2    C3 6790   0.912   1.486  16.886  0.6883  0.0147 -0.2393
  456MPD2    C4 6791   0.777   1.502  16.853  0.1324  0.8147 -0.6569
  456MPD2    C5 6792   0.733   1.468  16.724 -0.5746  0.3431  0.3898
  456MPD2     H 6793   1.107   1.448  16.803 -0.2568 -0.2879  1.0425
  456MPD2    H1 6794   0.705   1.526  16.931  0.0963  2.1351 -1.1066
  456MPD2    H2 6795   0.795   1.405  16.527 -1.5735 -1.2396 -0.1022
  456MPD2    H3 6796   0.636   1.499  16.688 -1.1540 -0.3862  1.3719
  456MPD2     N 6797   0.961   1.504  17.017  0.0931  0.4103  0.3091
  456MPD2    H5 6798   1.061   1.490  17.029 -0.3796 -1.6685  1.7439
  456MPD2    N1 6799   1.045   1.384  16.552  0.1289 -0.1503  0.1055
  456MPD2    H7 6800   0.992   1.375  16.465  0.0578 -1.6984  0.3054
  457TMC3    C1 6801   0.953   1.613  17.224  0.5831  0.3669 -0.1827
  457TMC3    C2 6802   1.009   1.727  17.187  0.7923  0.5404  0.0729
  457TMC3    C3 6803   1.021   1.828  17.274 -0.2280 -0.4809  0.3022
  457TMC3    C4 6804   0.915   1.599  17.355  0.9501 -0.0425  0.4821
  457TMC3    C5 6805   0.951   1.694  17.443 -0.2343  0.7156 -0.0729
  457TMC3    C6 6806   1.000   1.815  17.411  0.1862  0.6162 -0.4287
  457TMC3     C 6807   0.883   1.534  17.126  0.2171 -0.2184 -0.1443
  457TMC3     O 6808   0.767   1.501  17.151 -0.2890 -0.3347  0.2477
  457TMC3     H 6809   1.037   1.728  17.082 -0.2275 -2.8831 -0.2329
  457TMC3    H1 6810   0.871   1.506  17.388 -1.2202  0.6313 -0.5383
  457TMC3    H2 6811   1.014   1.901  17.476 -0.9319  0.0043  0.6187
  457TMC3    C7 6812   0.881   1.694  17.568  0.2828  0.7977 -0.1067
  457TMC3    C8 6813   1.031   1.966  17.230  0.0352  0.8431  0.2286
  457TMC3    O1 6814   0.877   1.592  17.632  0.6073 -0.8797 -0.9424
  457TMC3    O2 6815   0.963   2.043  17.297 -0.2445  0.2259  0.0834
  458MPD2     C 6816   3.415   0.834  12.255  0.4692  0.1590  0.1414
  458MPD2    C1 6817   3.409   0.898  12.381  0.3892  0.4796 -0.0977
  458MPD2    C2 6818   3.304   0.878  12.461 -0.0620  0.0368 -0.0519
  458MPD2    C3 6819   3.193   0.803  12.413 -0.4343  0.0861  0.3994
  458MPD2    C4 6820   3.200   0.740  12.290 -0.2454 -0.3051 -0.0244
  458MPD2    C5 6821   3.314   0.754  12.214 -0.3205 -1.2849  0.0722
  458MPD2     H 6822   3.308   0.930  12.556 -1.2652  0.8749 -0.4619
  458MPD2    H1 6823   3.124   0.673  12.252 -0.0338  0.1040 -1.1762
  458MPD2    H2 6824   3.501   0.837  12.189 -0.6059 -0.8720 -1.2992
  458MPD2    H3 6825   3.317   0.700  12.121 -1.1000  0.3015 -0.8745
  458MPD2     N 6826   3.065   0.803  12.477  0.4673 -0.0527  1.0146
  458MPD2    H5 6827   2.985   0.779  12.420  0.3022  2.4334  0.1874
  458MPD2    N1 6828   3.512   0.978  12.438  0.9306 -0.2341 -0.6075
  458MPD2    H7 6829   3.500   1.016  12.531 -1.4671 -1.7726 -0.2978
  459TMC3    C1 6830   3.699   1.097  12.467 -0.3294 -0.4389  0.3516
  459TMC3    C2 6831   3.789   1.181  12.415  0.6904 -0.5092  0.0731
  459TMC3    C3 6832   3.859   1.260  12.499  0.6166 -0.5700 -0.3982
  459TMC3    C4 6833   3.692   1.078  12.607 -0.3596 -0.1070  0.6100
  459TMC3    C5 6834   3.770   1.158  12.688 -0.0063 -0.5437  0.0935
  459TMC3    C6 6835   3.850   1.260  12.640 -0.0215 -0.2131 -0.7134
  459TMC3     C 6836   3.620   1.018  12.374  0.0145  0.7983 -0.6879
  459TMC3     O 6837   3.653   0.999  12.258  0.1837  0.5321 -0.2552
  459TMC3     H 6838   3.809   1.169  12.309 -0.0901 -1.7326  0.0622
  459TMC3    H1 6839   3.661   0.982  12.648  0.8849 -0.4253  0.7844
  459TMC3    H2 6840   3.918   1.321  12.699 -1.3089  1.1910 -0.6835
  459TMC3    C7 6841   3.757   1.139  12.829  0.1405 -0.3861 -0.0579
  459TMC3    C8 6842   3.939   1.364  12.449 -0.0028  0.6126  0.4297
  459TMC3    O1 6843   3.731   1.024  12.865 -0.0451  0.2471  0.3100
  459TMC3    O2 6844   4.031   1.402  12.514  0.3761 -0.1100  0.1122
  460MPD2     C 6845   3.203   3.093  10.572 -0.3735  0.0039  0.2477
  460MPD2    C1 6846   3.094   3.177  10.586 -0.3218  0.3917  0.5776
  460MPD2    C2 6847   3.044   3.227  10.469  0.1840  0.9197 -0.5033
  460MPD2    C3 6848   3.091   3.197  10.342 -0.6140  0.7390 -0.7089
  460MPD2    C4 6849   3.201   3.111  10.324 -0.0985  0.5598  0.6196
  460MPD2    C5 6850   3.254   3.061  10.449 -0.5951 -0.3806 -0.3758
  460MPD2     H 6851   2.970   3.304  10.486 -1.2657 -0.6520  0.3175
  460MPD2    H1 6852   3.239   3.081  10.228  0.9572  0.0411  1.1995
  460MPD2    H2 6853   3.249   3.058  10.664  1.1751  0.6911 -0.2601
  460MPD2    H3 6854   3.341   2.997  10.439 -0.7524 -0.4258 -1.4143
  460MPD2     N 6855   3.035   3.258  10.219 -0.0300 -0.1881  0.1180
  460MPD2    H5 6856   2.982   3.344  10.226  0.1784  0.1099 -2.0920
  460MPD2    N1 6857   3.029   3.191  10.714  0.3993  0.3554 -0.9314
  460MPD2    H7 6858   3.076   3.150  10.794  0.5500  1.7585 -0.3105
  461TMC3    C1 6859   2.951   3.256   9.991  0.2707 -0.2881  0.3302
  461TMC3    C2 6860   2.896   3.162   9.914 -0.1166 -0.0356  0.0769
  461TMC3    C3 6861   2.818   3.205   9.810  0.1113 -0.7586  0.4576
  461TMC3    C4 6862   2.940   3.396   9.973  0.0070  0.3138  0.1708
  461TMC3    C5 6863   2.869   3.433   9.862  0.3821  0.1385 -0.3250
  461TMC3    C6 6864   2.812   3.340   9.776  0.0953 -0.3142 -0.0957
  461TMC3     C 6865   3.053   3.210  10.089 -0.7266 -1.2730 -0.1145
  461TMC3     O 6866   3.112   3.110  10.050 -0.4751  0.6362  0.5227
  461TMC3     H 6867   2.916   3.057   9.929 -2.3922  0.0171  3.2980
  461TMC3    H1 6868   3.000   3.465  10.031  0.1527  2.6286 -2.7089
  461TMC3    H2 6869   2.749   3.371   9.694 -0.2082 -1.0525 -0.1327
  461TMC3    C7 6870   2.808   3.563   9.859 -0.5581 -0.0740 -1.0048
  461TMC3    C8 6871   2.760   3.098   9.726 -0.2142 -0.2098  0.2513
  461TMC3    O1 6872   2.709   3.577   9.786  0.3962 -0.3119 -0.2568
  461TMC3    O2 6873   2.724   2.991   9.781  0.3653 -0.1330 -0.0686
  462TMC3    C1 6874   3.036   4.657   0.086 -0.6732 -0.2944  0.5011
  462TMC3    C2 6875   3.119   4.550   0.086 -0.0239 -0.3043  0.1803
  462TMC3    C3 6876   3.057   4.430   0.108 -0.9167  0.4257 -0.4603
  462TMC3    C4 6877   2.905   4.653   0.086 -0.4157 -0.2841  0.7853
  462TMC3    C5 6878   2.851   4.526   0.116  0.4000  0.3634 -0.6009
  462TMC3    C6 6879   2.921   4.410   0.116 -0.1346 -0.2566 -0.2868
  462TMC3     C 6880   3.085   0.079   0.086  0.2851 -0.7066  0.4785
  462TMC3     O 6881   3.008   0.165   0.047  0.5178  0.6151  0.6023
  462TMC3     H 6882   3.226   4.565   0.098  0.0218 -0.4584 -0.0513
  462TMC3    H1 6883   2.842   0.020   0.083  1.5577  1.0951  0.4302
  462TMC3    H2 6884   2.888   4.320   0.166  0.3337 -0.0015  0.4807
  462TMC3    C7 6885   2.708   4.515   0.158  0.3067 -0.3502  0.5863
  462TMC3    C8 6886   3.141   4.310   0.096 -0.7170  0.3828 -0.4802
  462TMC3    O1 6887   2.671   4.398   0.168 -0.1409 -0.2274  0.3853
  462TMC3    O2 6888   3.262   4.332   0.119 -0.4830 -0.2907 -0.0697
  463MPD2     C 6889   4.010   2.816   2.132  0.0561  0.3452 -0.1102
  463MPD2    C1 6890   3.976   2.926   2.059 -0.1326  0.6182 -0.2776
  463MPD2    C2 6891   4.086   3.004   2.015 -0.2337  0.2644  0.4527
  463MPD2    C3 6892   4.219   2.964   2.040  0.0060 -0.0559 -0.3168
  463MPD2    C4 6893   4.248   2.847   2.095  0.2236  0.3532 -0.0072
  463MPD2    C5 6894   4.146   2.773   2.146  0.2523  0.2942 -0.0004
  463MPD2     H 6895   4.066   3.104   1.979 -2.5144 -0.6877 -0.8964
  463MPD2    H1 6896   4.348   2.805   2.103 -0.2676 -1.1307 -1.6505
  463MPD2    H2 6897   3.940   2.749   2.180 -0.3762  1.1761  0.4182
  463MPD2    H3 6898   4.175   2.695   2.215  0.9280  2.1907  1.8603
  463MPD2     N 6899   4.336   3.036   2.000 -0.1282 -0.4116 -0.4803
  463MPD2    H5 6900   4.430   3.007   2.027 -0.4471 -1.3390 -0.3712
  463MPD2    N1 6901   3.845   2.970   2.033  0.8661 -0.2227  0.5059
  463MPD2    H7 6902   3.831   3.037   1.958 -0.2914 -0.9238  0.0932
  464TMC3    C1 6903   3.615   2.978   2.051 -0.4218  0.5299 -0.1486
  464TMC3    C2 6904   3.603   3.116   2.056  0.0625  0.2312 -0.4594
  464TMC3    C3 6905   3.481   3.170   2.026 -0.3445 -0.1071  0.1326
  464TMC3    C4 6906   3.510   2.892   2.030 -0.0306  0.0956  0.3033
  464TMC3    C5 6907   3.390   2.952   2.003 -0.4228  0.8859 -0.4358
  464TMC3    C6 6908   3.374   3.090   2.001  0.2913 -0.1682  0.2496
  464TMC3     C 6909   3.735   2.911   2.089  0.3102 -0.0275  0.7439
  464TMC3     O 6910   3.726   2.812   2.164  0.2439 -0.3888  0.7424
  464TMC3     H 6911   3.694   3.175   2.066  1.1893 -1.0786 -3.0016
  464TMC3    H1 6912   3.532   2.786   2.021 -1.5681 -0.1920  0.0837
  464TMC3    H2 6913   3.283   3.143   1.973  1.6570  2.0763  0.0956
  464TMC3    C7 6914   3.273   2.863   1.980 -0.4303  0.0557 -0.5097
  464TMC3    C8 6915   3.478   3.303   1.972 -0.1814 -0.2345 -0.2588
  464TMC3    O1 6916   3.165   2.910   1.939 -0.0824  0.5756 -0.2068
  464TMC3    O2 6917   3.396   3.318   1.886 -0.1372  0.4259 -0.5466
  465MPD2     C 6918   4.520   1.901  16.034  0.4402 -0.1250 -0.6383
  465MPD2    C1 6919   4.474   1.960  16.150 -0.1653 -0.1408  0.1682
  465MPD2    C2 6920   4.338   2.008  16.153  0.1078  1.5587  0.0820
  465MPD2    C3 6921   4.258   2.018  16.041  0.3056  0.4542  0.0504
  465MPD2    C4 6922   4.310   1.965  15.924  0.0048  0.1741  0.3704
  465MPD2    C5 6923   4.438   1.912  15.924 -0.0611  0.7166  0.0959
  465MPD2     H 6924   4.291   2.039  16.245  1.1788  1.4684  0.6557
  465MPD2    H1 6925   4.255   1.966  15.830 -2.6284 -0.4296  1.8920
  465MPD2    H2 6926   4.617   1.857  16.016 -0.0973 -1.2545 -0.7893
  465MPD2    H3 6927   4.484   1.894  15.828 -1.1585  1.5269 -0.5818
  465MPD2     N 6928   4.139   2.091  16.062  0.0244  0.1170  0.1667
  465MPD2    H5 6929   4.114   2.120  16.156  0.7170  0.3778  0.2704
  465MPD2    N1 6930   4.549   1.971  16.264  0.6530 -0.5732  0.3074
  465MPD2    H7 6931   4.507   2.028  16.336 -1.6809 -1.4421 -0.3802
  466TMC3    C1 6932   3.776   2.250  16.168 -0.2918  0.5181  0.6386
  466TMC3    C2 6933   3.768   2.381  16.149 -0.1327 -0.0517  0.2243
  466TMC3    C3 6934   3.854   2.427  16.052  0.0863 -0.1204  0.6228
  466TMC3    C4 6935   3.869   2.162  16.119 -0.3114 -0.4867 -0.3065
  466TMC3    C5 6936   3.944   2.208  16.015 -0.3471  0.4780  0.4370
  466TMC3    C6 6937   3.935   2.339  15.985 -0.5375 -0.0142 -0.1687
  466TMC3     C 6938   3.700   2.193  16.280 -0.4766 -0.0417  0.1885
  466TMC3     O 6939   3.765   2.117  16.350  0.1239  0.1165 -0.5233
  466TMC3     H 6940   3.699   2.447  16.200 -0.3628 -0.1821  0.0841
  466TMC3    H1 6941   3.864   2.058  16.149  3.2592 -0.3737  0.7022
  466TMC3    H2 6942   3.996   2.377  15.903 -1.0024 -0.2594 -0.6283
  466TMC3    C7 6943   4.058   2.146  15.966 -0.3297  0.0547  0.4474
  466TMC3    C8 6944   3.905   2.563  16.077  0.6378 -0.3012  0.1303
  466TMC3    O1 6945   4.072   2.156  15.840  0.4204 -0.4466 -0.5381
  466TMC3    O2 6946   3.973   2.606  15.980  0.1275  0.2215 -0.7416
  467TMC3    C1 6947   0.420   0.760  13.828  0.6021 -0.1676 -0.0272
  467TMC3    C2 6948   0.492   0.784  13.712 -0.0561  0.0303 -0.1965
  467TMC3    C3 6949   0.429   0.792  13.595 -0.7572  0.1279 -0.6517
  467TMC3    C4 6950   0.283   0.746  13.824 -0.4025  0.3519 -0.4401
  467TMC3    C5 6951   0.227   0.780  13.703  0.4598  0.6585 -0.0449
  467TMC3    C6 6952   0.295   0.797  13.584 -0.6030 -0.0024  0.3329
  467TMC3     C 6953   0.477   0.807  13.953  0.1832 -0.2489 -0.1460
  467TMC3     O 6954   0.431   0.749  14.050 -0.3480  0.2128 -0.3216
  467TMC3     H 6955   0.599   0.801  13.711 -0.0729  0.1015 -0.8903
  467TMC3    H1 6956   0.232   0.753  13.919 -2.2643 -1.3337 -1.3106
  467TMC3    H2 6957   0.247   0.801  13.486 -1.0302  0.3483  0.5601
  467TMC3    C7 6958   0.085   0.784  13.694  0.8912 -0.0790  0.9099
  467TMC3    C8 6959   0.518   0.835  13.485 -0.0789  0.4278  0.0469
  467TMC3    O1 6960   0.040   0.847  13.600  0.8296 -0.4583  0.0141
  467TMC3    O2 6961   0.605   0.911  13.510  0.4470  0.7777 -0.0075
  468MPD2     C 6962   4.719   2.970  10.232  0.5666 -0.2218 -0.4453
  468MPD2    C1 6963   0.051   2.956  10.358  0.1715 -0.0933 -0.4335
  468MPD2    C2 6964   0.063   2.828  10.407 -0.0434  0.5256  0.8233
  468MPD2    C3 6965   0.026   2.721  10.326  0.0075 -0.4784  0.2604
  468MPD2    C4 6966   4.702   2.734  10.199 -0.1690 -0.2382  0.0901
  468MPD2    C5 6967   4.694   2.860  10.150  0.1507 -0.2004  0.1866
  468MPD2     H 6968   0.095   2.812  10.509 -1.8289  0.5100  1.3769
  468MPD2    H1 6969   4.667   2.648  10.142 -0.3990  0.5837 -1.0136
  468MPD2    H2 6970   4.692   3.065  10.187 -0.5535  0.5520  1.8742
  468MPD2    H3 6971   4.666   2.883  10.048 -1.4600 -1.2875  0.3863
  468MPD2     N 6972   0.030   2.589  10.376 -0.4759  0.5021 -0.0837
  468MPD2    H5 6973   4.710   2.519  10.315 -1.3079  1.2784 -0.4068
  468MPD2    N1 6974   0.101   3.063  10.436  0.0976  0.0647  0.3862
  468MPD2    H7 6975   0.136   3.033  10.526 -0.9704 -2.8517 -0.1724
  469TMC3    C1 6976   0.163   3.278  10.504  0.4967  0.6451 -0.0435
  469TMC3    C2 6977   0.269   3.222  10.570 -0.8011  0.2658  0.3178
  469TMC3    C3 6978   0.317   3.275  10.684 -0.2492 -0.2933  0.0349
  469TMC3    C4 6979   0.098   3.385  10.557  0.5940  0.0887 -0.3394
  469TMC3    C5 6980   0.133   3.424  10.682  0.4472  0.3365 -0.1136
  469TMC3    C6 6981   0.238   3.371  10.749  0.3308 -0.1248  0.3693
  469TMC3     C 6982   0.097   3.197  10.400 -0.3140  0.0038  0.5385
  469TMC3     O 6983   0.031   3.246  10.315 -0.1279 -0.3407 -0.3568
  469TMC3     H 6984   0.330   3.142  10.530 -1.1387  0.0479  0.2422
  469TMC3    H1 6985   0.009   3.423  10.509 -0.4306 -2.4280 -0.4116
  469TMC3    H2 6986   0.279   3.430  10.831 -2.2465  1.3865  0.5658
  469TMC3    C7 6987   0.058   3.543  10.732 -0.0911  0.7588 -0.4541
  469TMC3    C8 6988   0.451   3.247  10.731 -0.0051 -0.0245 -0.7631
  469TMC3    O1 6989   4.687   3.585  10.657  0.1629  0.0813  0.4092
  469TMC3    O2 6990   0.530   3.198  10.653  0.0426  0.1627 -0.1138
  470TMC3    C1 6991   1.965   4.637   0.899 -0.4682  0.7101 -0.4780
  470TMC3    C2 6992   1.956   0.049   0.887  0.0527 -0.2111 -0.5887
  470TMC3    C3 6993   2.016   0.127   0.983  0.7596  0.8333 -0.6108
  470TMC3    C4 6994   2.036   4.578   1.003 -0.5957 -0.4099 -0.5504
  470TMC3    C5 6995   2.105   4.656   1.094 -0.0454 -0.0613 -0.6402
  470TMC3    C6 6996   2.092   0.072   1.090  0.2735 -0.2100  0.0445
  470TMC3     C 6997   1.895   4.558   0.803 -0.3942  0.3543  1.1946
  470TMC3     O 6998   1.864   4.616   0.697  0.5453  0.6738 -0.0113
  470TMC3     H 6999   1.905   0.081   0.797 -0.7102 -0.7467 -0.3436
  470TMC3    H1 7000   2.051   4.471   1.002  1.2335 -0.1489 -0.8332
  470TMC3    H2 7001   2.121   0.140   1.169  2.4208  1.1373 -1.9039
  470TMC3    C7 7002   2.131   4.588   1.216  0.0356 -0.3181  0.7976
  470TMC3    C8 7003   2.009   0.270   0.979 -0.1305 -0.2168  0.6524
  470TMC3    O1 7004   2.166   4.472   1.213  0.4780 -0.0505  0.0302
  470TMC3    O2 7005   2.043   0.323   1.084  0.2834 -0.1635 -0.1969
  471MPD2     C 7006   2.037   1.038  16.367  0.5306 -0.2885 -0.2470
  471MPD2    C1 7007   2.137   0.942  16.341  0.1875 -0.5767 -0.3563
  471MPD2    C2 7008   2.227   0.902  16.434 -0.4381 -0.4528 -1.0229
  471MPD2    C3 7009   2.203   0.921  16.565 -0.0397  0.6941  0.3028
  471MPD2    C4 7010   2.100   1.005  16.606 -0.5261 -0.0348 -0.3315
  471MPD2    C5 7011   2.033   1.073  16.501 -0.1385 -0.4388 -0.3531
  471MPD2     H 7012   2.304   0.833  16.402  0.4160  0.7490 -1.5669
  471MPD2    H1 7013   2.073   1.022  16.710  0.7642  0.3946 -0.0571
  471MPD2    H2 7014   1.960   1.083  16.305  0.9901 -0.7426 -1.1337
  471MPD2    H3 7015   1.976   1.159  16.533  0.8954  0.0780  0.0956
  471MPD2     N 7016   2.294   0.860  16.657  0.3348 -0.0380 -0.1701
  471MPD2    H5 7017   2.369   0.804  16.616  1.1987  0.3331  0.9023
  471MPD2    N1 7018   2.140   0.868  16.224  0.4270  0.0218 -0.4347
  471MPD2    H7 7019   2.222   0.812  16.205 -0.1174 -0.1706 -2.2165
  472TMC3    C1 7020   2.070   0.772  16.020 -0.0530  0.0616  0.0447
  472TMC3    C2 7021   1.978   0.778  15.925  0.2970  0.3098  0.4675
  472TMC3    C3 7022   1.899   0.670  15.907  0.6450  0.5376  0.0283
  472TMC3    C4 7023   2.112   0.648  16.067  0.3388  0.0016 -0.7921
  472TMC3    C5 7024   2.048   0.537  16.034 -0.0453  0.4204 -0.1331
  472TMC3    C6 7025   1.937   0.545  15.954 -0.1347 -0.3418  0.0622
  472TMC3     C 7026   2.050   0.877  16.120 -0.1590  0.3625 -0.4535
  472TMC3     O 7027   1.942   0.933  16.121 -0.0092  0.4044 -0.3660
  472TMC3     H 7028   1.948   0.879  15.898 -0.6511 -0.6896 -2.1506
  472TMC3    H1 7029   2.200   0.638  16.130 -1.8077  1.9827  2.4962
  472TMC3    H2 7030   1.877   0.462  15.918 -2.8529  2.3260 -1.6393
  472TMC3    C7 7031   2.088   0.414  16.104 -0.1420 -0.2774  0.1594
  472TMC3    C8 7032   1.760   0.685  15.871  0.2310  0.2816 -0.8054
  472TMC3    O1 7033   2.124   0.427  16.221  0.2846  0.3198 -0.3018
  472TMC3    O2 7034   1.737   0.754  15.776 -0.0988 -0.5276 -0.8528
  473MPD2     C 7035   1.525   2.876  13.826  0.2827 -0.6678  0.7775
  473MPD2    C1 7036   1.666   2.862  13.826  0.5320 -0.1184  0.5106
  473MPD2    C2 7037   1.756   2.946  13.885  0.4633 -0.2767  0.2756
  473MPD2    C3 7038   1.705   3.034  13.975  0.3060  0.1781  0.3798
  473MPD2    C4 7039   1.567   3.038  13.993 -1.0193 -0.3159  0.1844
  473MPD2    C5 7040   1.485   2.955  13.923 -0.2214 -0.4516 -0.0159
  473MPD2     H 7041   1.863   2.935  13.873  0.6642  3.2457 -1.0466
  473MPD2    H1 7042   1.513   3.105  14.059  2.8499  1.2764  1.7427
  473MPD2    H2 7043   1.456   2.807  13.779 -0.0948  0.2971 -0.0756
  473MPD2    H3 7044   1.378   2.955  13.942 -0.3265 -0.2171 -0.5959
  473MPD2     N 7045   1.784   3.126  14.050  0.4196  0.0962  0.0828
  473MPD2    H5 7046   1.730   3.188  14.109  0.4160 -0.3669  0.5712
  473MPD2    N1 7047   1.715   2.763  13.747  1.5207  0.0837 -0.2494
  473MPD2    H7 7048   1.814   2.748  13.766  0.9970 -1.1301  1.4784
  474TMC3    C1 7049   1.968   3.245  14.132  0.9073 -0.2059  0.0619
  474TMC3    C2 7050   1.885   3.340  14.181 -0.4714 -0.5945  0.1237
  474TMC3    C3 7051   1.916   3.399  14.300 -0.4950  0.2609  0.9313
  474TMC3    C4 7052   2.074   3.201  14.207  0.0261  0.6786 -0.5766
  474TMC3    C5 7053   2.100   3.268  14.324  0.0624 -0.6373  0.5709
  474TMC3    C6 7054   2.022   3.370  14.373  0.3680  0.5079  0.1854
  474TMC3     C 7055   1.909   3.147  14.033 -0.3360 -0.8664  0.0881
  474TMC3     O 7056   1.994   3.082  13.969 -0.2846 -0.0344  0.2167
  474TMC3     H 7057   1.796   3.382  14.135 -1.1639  1.1260  3.0362
  474TMC3    H1 7058   2.145   3.122  14.185 -0.0471  0.1177  1.1355
  474TMC3    H2 7059   2.027   3.397  14.478 -2.7708  1.1135  0.1758
  474TMC3    C7 7060   2.202   3.206  14.408  0.4872 -0.0827 -0.1611
  474TMC3    C8 7061   1.826   3.501  14.348  0.1270  1.3107 -0.3975
  474TMC3    O1 7062   2.209   3.083  14.393  0.6207  0.1070  0.3208
  474TMC3    O2 7063   1.706   3.468  14.339 -0.2045 -0.1769 -0.5114
  475MPD2     C 7064   1.529   0.832  10.330 -0.1475  0.3984 -0.0184
  475MPD2    C1 7065   1.423   0.785  10.256  0.5837 -0.8858  1.5422
  475MPD2    C2 7066   1.294   0.822  10.288  0.6891 -0.0647 -0.0986
  475MPD2    C3 7067   1.262   0.900  10.398 -0.3186  0.5932 -0.1011
  475MPD2    C4 7068   1.368   0.966  10.450  0.0131 -0.1661 -0.2149
  475MPD2    C5 7069   1.498   0.931  10.419  0.3436 -0.2312 -0.6904
  475MPD2     H 7070   1.210   0.780  10.234 -1.2245  2.1250  1.2093
  475MPD2    H1 7071   1.362   1.043  10.526 -0.4730  0.3478 -0.7664
  475MPD2    H2 7072   1.635   0.813  10.312  0.0326 -0.0919  1.5463
  475MPD2    H3 7073   1.580   0.970  10.477 -2.5331  2.4109  1.6043
  475MPD2     N 7074   1.127   0.925  10.434 -0.5009  0.0310  0.3792
  475MPD2    H5 7075   1.055   0.861  10.402 -0.4721 -0.0108  0.3978
  475MPD2    N1 7076   1.454   0.697  10.148 -0.3278  0.0150 -0.0686
  475MPD2    H7 7077   1.552   0.705  10.124 -0.2964 -0.8636 -0.2516
  476TMC3    C1 7078   1.429   0.589   9.942  0.2457 -0.3223 -0.3977
  476TMC3    C2 7079   1.366   0.655   9.838  0.0887  0.0203 -0.2988
  476TMC3    C3 7080   1.443   0.736   9.757  0.1633 -0.3857 -0.3687
  476TMC3    C4 7081   1.562   0.601   9.955  0.4529 -0.0546 -0.1404
  476TMC3    C5 7082   1.638   0.681   9.869 -0.1750  0.4461 -0.3122
  476TMC3    C6 7083   1.581   0.752   9.769  0.3833  0.7910  0.4713
  476TMC3     C 7084   1.367   0.630  10.065 -0.2872 -0.3736 -0.0712
  476TMC3     O 7085   1.245   0.639  10.059 -0.0508 -0.0466 -0.2850
  476TMC3     H 7086   1.257   0.651   9.838  0.0805  0.2134 -0.9115
  476TMC3    H1 7087   1.610   0.548  10.037  2.4536  0.6022 -0.9073
  476TMC3    H2 7088   1.643   0.822   9.715  1.6316  0.2799  1.2587
  476TMC3    C7 7089   1.757   0.729   9.928  0.8610  0.2528 -0.9383
  476TMC3    C8 7090   1.371   0.840   9.685 -0.2029 -0.5322  0.4777
  476TMC3    O1 7091   1.839   0.646   9.952 -1.2971 -0.3473  0.2586
  476TMC3    O2 7092   1.420   0.949   9.700 -0.1122 -0.2308 -0.0612
  477MPD2     C 7093   3.419   2.267  11.197  0.0998 -0.3755 -0.5049
  477MPD2    C1 7094   3.337   2.306  11.299 -0.6037 -0.2679 -0.0534
  477MPD2    C2 7095   3.373   2.270  11.430  0.1891  0.2653  0.5246
  477MPD2    C3 7096   3.478   2.185  11.455  0.4598  0.1276 -0.5999
  477MPD2    C4 7097   3.561   2.157  11.355  0.0711 -0.1158 -0.4194
  477MPD2    C5 7098   3.535   2.202  11.224 -0.0361 -0.3010 -0.3462
  477MPD2     H 7099   3.304   2.298  11.508 -0.2099 -1.3282  0.7427
  477MPD2    H1 7100   3.647   2.093  11.373  0.4213 -0.4226 -3.2494
  477MPD2    H2 7101   3.400   2.299  11.095  0.8170 -1.0385 -0.8463
  477MPD2    H3 7102   3.608   2.181  11.146 -0.5842  0.1633 -0.9915
  477MPD2     N 7103   3.507   2.124  11.580 -0.6445  0.0454  0.0377
  477MPD2    H5 7104   3.573   2.047  11.576 -1.7713 -0.8581 -1.6134
  477MPD2    N1 7105   3.226   2.382  11.268 -0.0511  0.6394  0.2307
  477MPD2    H7 7106   3.223   2.418  11.173  0.9153  1.4324  0.4965
  478TMC3    C1 7107   3.019   2.520  11.300  0.2808 -0.8348  0.4500
  478TMC3    C2 7108   2.932   2.585  11.387 -1.1699 -0.4607 -0.1192
  478TMC3    C3 7109   2.852   2.683  11.336  0.1937  0.2339  0.0468
  478TMC3    C4 7110   3.016   2.541  11.166 -0.0001  1.0675  0.0894
  478TMC3    C5 7111   2.926   2.624  11.112  0.7951  1.1896 -0.2520
  478TMC3    C6 7112   2.841   2.694  11.203  0.7964  0.1640  0.5643
  478TMC3     C 7113   3.132   2.431  11.356  0.1775 -0.0348 -0.3777
  478TMC3     O 7114   3.142   2.424  11.477  0.3989 -0.1379 -0.4630
  478TMC3     H 7115   2.942   2.577  11.494  1.2544 -0.5401 -0.3689
  478TMC3    H1 7116   3.088   2.491  11.102 -1.4425  0.5476 -1.1277
  478TMC3    H2 7117   2.770   2.760  11.153  0.9129  1.0791  1.6119
  478TMC3    C7 7118   2.943   2.656  10.973 -0.3677  0.0860 -0.5386
  478TMC3    C8 7119   2.724   2.677  11.410  0.2213 -0.4670 -0.1961
  478TMC3    O1 7120   3.060   2.641  10.942 -0.1442  0.5522  1.1579
  478TMC3    O2 7121   2.718   2.586  11.494 -0.6452 -0.5407  0.9973
  479MPD2     C 7122   1.788   0.107  15.217 -0.0120  0.0091 -0.4593
  479MPD2    C1 7123   1.743   0.097  15.348  0.7516 -0.3298  0.0185
  479MPD2    C2 7124   1.825   0.141  15.454  0.0508  0.5863  0.4839
  479MPD2    C3 7125   1.937   0.220  15.421 -0.2384 -0.7549  1.0252
  479MPD2    C4 7126   1.977   0.231  15.286  0.1268 -0.1489  0.2629
  479MPD2    C5 7127   1.911   0.157  15.192  0.2912 -0.0595  0.4917
  479MPD2     H 7128   1.798   0.124  15.558  2.2407 -0.2195  0.9183
  479MPD2    H1 7129   2.065   0.290  15.266 -1.2543  0.8174 -2.9964
  479MPD2    H2 7130   1.729   0.064  15.136 -0.7121  0.2913 -0.1030
  479MPD2    H3 7131   1.950   0.157  15.090  0.4763  1.3052  0.5634
  479MPD2     N 7132   2.006   0.293  15.521  0.2131  0.2167  0.1608
  479MPD2    H5 7133   2.096   0.334  15.497  1.4877 -1.4576  1.9358
  479MPD2    N1 7134   1.615   0.049  15.368  0.3084 -0.0809  0.2872
  479MPD2    H7 7135   1.567   0.017  15.284 -3.3649  0.7705  2.0642
  480TMC3    C1 7136   1.634   0.297  15.823 -0.0795  1.0046  0.4699
  480TMC3    C2 7137   1.560   0.373  15.735 -0.1497 -0.2356 -0.6586
  480TMC3    C3 7138   1.620   0.430  15.621  0.7589 -0.6497 -0.1174
  480TMC3    C4 7139   1.766   0.268  15.788  0.2538 -0.5179  0.2673
  480TMC3    C5 7140   1.824   0.321  15.674  0.4129  0.3610 -0.0473
  480TMC3    C6 7141   1.753   0.404  15.594 -0.0797 -0.8125  0.0150
  480TMC3     C 7142   1.584   0.239  15.943  0.0393  0.0872 -0.3439
  480TMC3     O 7143   1.658   0.167  16.010  0.3735 -0.0873  0.5450
  480TMC3     H 7144   1.452   0.374  15.742 -0.1060  1.5395 -0.0931
  480TMC3    H1 7145   1.817   0.197  15.852  1.0312 -0.1108  0.0960
  480TMC3    H2 7146   1.799   0.462  15.515 -0.7327  1.1442  1.0930
  480TMC3    C7 7147   1.965   0.298  15.655  0.1070  0.1324  0.4961
  480TMC3    C8 7148   1.535   0.460  15.512  0.4810  0.0238 -0.3796
  480TMC3    O1 7149   2.033   0.319  15.756  0.4069  0.1681 -0.3009
  480TMC3    O2 7150   1.420   0.466  15.548 -0.5495  0.0144 -0.1649
  481MPD2     C 7151   3.640   0.224  14.863 -0.0985  0.5056 -0.3026
  481MPD2    C1 7152   3.558   0.120  14.823 -0.4024 -0.2781 -0.4349
  481MPD2    C2 7153   3.506   0.035  14.918 -0.7888  0.2369  0.6172
  481MPD2    C3 7154   3.531   0.063  15.053  0.5337  0.4012 -0.8336
  481MPD2    C4 7155   3.612   0.169  15.095  0.5504 -0.1579  0.0165
  481MPD2    C5 7156   3.661   0.247  14.992 -0.9806  0.2815  0.1615
  481MPD2     H 7157   3.449   4.669  14.890  1.5977 -0.4168 -2.1591
  481MPD2    H1 7158   3.642   0.181  15.198 -1.3423 -0.9853  0.6626
  481MPD2    H2 7159   3.687   0.285  14.787  1.0457 -1.0707 -0.8480
  481MPD2    H3 7160   3.739   0.317  15.019 -1.0500  0.2936  0.3283
  481MPD2     N 7161   3.479   4.712  15.162  0.0670 -0.2298  0.4235
  481MPD2    H5 7162   3.514   0.011  15.255  2.0567  1.8135 -0.7753
  481MPD2    N1 7163   3.526   0.104  14.688  0.9223  0.2607 -0.2832
  481MPD2    H7 7164   3.577   0.170  14.631  0.9061  0.6523  0.1530
  482TMC3    C1 7165   3.450   0.017  14.479 -0.4023  0.5474  0.7677
  482TMC3    C2 7166   3.405   4.629  14.413 -0.8777  0.0453 -0.0576
  482TMC3    C3 7167   3.376   4.648  14.280 -0.2885 -0.2936  0.6373
  482TMC3    C4 7168   3.470   0.139  14.421 -0.2656 -0.3785 -0.2263
  482TMC3    C5 7169   3.454   0.149  14.282  0.1807  0.4206  0.3067
  482TMC3    C6 7170   3.405   0.040  14.208  0.1984  0.7406  0.2252
  482TMC3     C 7171   3.440   0.012  14.624 -0.1650 -0.0360  0.2810
  482TMC3     O 7172   3.365   4.648  14.671 -0.1373 -0.2922 -0.0113
  482TMC3     H 7173   3.374   4.539  14.465 -0.4800  0.4513  0.8847
  482TMC3    H1 7174   3.523   0.214  14.478 -4.4331  2.0232  0.4424
  482TMC3    H2 7175   3.370   0.049  14.106 -2.4129  0.7161  1.1045
  482TMC3    C7 7176   3.439   0.286  14.226 -0.2403 -0.3995 -0.1319
  482TMC3    C8 7177   3.376   4.523  14.204 -0.0628  0.2789  0.2827
  482TMC3    O1 7178   3.412   0.376  14.307  0.1752  0.0439 -0.2726
  482TMC3    O2 7179   3.325   4.427  14.261  0.1518 -0.4729 -0.1641
  483TMC3    C1 7180   1.490   3.536   1.080 -0.6325  0.3251 -0.9259
  483TMC3    C2 7181   1.525   3.664   1.110  0.7120  0.1303  0.1230
  483TMC3    C3 7182   1.653   3.691   1.163  0.2325  0.2966 -0.1330
  483TMC3    C4 7183   1.565   3.432   1.128 -0.0673 -0.0653 -0.6489
  483TMC3    C5 7184   1.692   3.458   1.183  0.4376 -0.4927 -0.2923
  483TMC3    C6 7185   1.738   3.589   1.194  0.1820 -0.4635  0.4274
  483TMC3     C 7186   1.369   3.516   1.004 -0.0671 -0.0272  0.3123
  483TMC3     O 7187   1.317   3.619   0.964  0.4681 -0.0349 -0.3142
  483TMC3     H 7188   1.476   3.745   1.057  0.7847  0.6600  0.8558
  483TMC3    H1 7189   1.539   3.329   1.104 -2.1210 -0.2494  2.2507
  483TMC3    H2 7190   1.839   3.613   1.226 -0.2707  1.5386  0.3387
  483TMC3    C7 7191   1.778   3.350   1.230  0.4223 -0.6029 -0.1033
  483TMC3    C8 7192   1.707   3.817   1.117  0.3810 -0.2504  0.1132
  483TMC3    O1 7193   1.896   3.372   1.262  0.2079 -0.1448 -0.3426
  483TMC3    O2 7194   1.678   3.872   1.016 -0.5897 -0.1666  0.3545
  484MPD2     C 7195   3.877   1.566  12.150  0.9163 -0.1938  0.5579
  484MPD2    C1 7196   3.949   1.515  12.249 -0.1477 -0.4104 -0.6852
  484MPD2    C2 7197   4.066   1.583  12.288 -0.9959  0.0737  0.1834
  484MPD2    C3 7198   4.103   1.699  12.218  0.2706  0.4564  0.2679
  484MPD2    C4 7199   4.022   1.747  12.118  0.5727  0.8271  0.2542
  484MPD2    C5 7200   3.911   1.672  12.073 -0.4579  0.5477  0.0046
  484MPD2     H 7201   4.122   1.564  12.379 -4.0434  1.7115  2.3638
  484MPD2    H1 7202   4.045   1.832  12.056 -2.2366  1.5462  0.2182
  484MPD2    H2 7203   3.785   1.519  12.117  1.1574 -0.6495  0.5316
  484MPD2    H3 7204   3.864   1.687  11.976  1.5112  1.5313 -0.8117
  484MPD2     N 7205   4.226   1.771  12.241  0.3797  0.3414  0.0518
  484MPD2    H5 7206   4.225   1.861  12.194 -0.0185 -0.9911 -2.4742
  484MPD2    N1 7207   3.896   1.405  12.323 -0.9635 -0.5711 -0.2389
  484MPD2    H7 7208   3.813   1.359  12.289 -1.9218  1.0336 -0.0581
  485TMC3    C1 7209   4.462   1.796  12.264  0.4379  0.1327 -0.2138
  485TMC3    C2 7210   4.584   1.760  12.317 -0.1185  0.0762 -0.2024
  485TMC3    C3 7211   4.695   1.843  12.278 -0.1061 -0.8290 -0.3776
  485TMC3    C4 7212   4.441   1.902  12.176 -0.0205  0.7555  0.4069
  485TMC3    C5 7213   4.557   1.981  12.144  0.4047 -0.2109  0.2324
  485TMC3    C6 7214   4.679   1.956  12.200  0.7482 -0.0071 -0.3596
  485TMC3     C 7215   4.344   1.719  12.302 -0.3982  0.6593 -0.2814
  485TMC3     O 7216   4.353   1.614  12.371  0.0189  0.0584 -0.2644
  485TMC3     H 7217   4.595   1.671  12.377  1.3424  0.6042  0.3032
  485TMC3    H1 7218   4.356   1.910  12.109  0.1494  1.9630  0.3400
  485TMC3    H2 7219   0.029   2.036  12.188  2.1307 -1.3137 -0.7920
  485TMC3    C7 7220   4.563   1.977  11.993 -0.1270  0.0080 -1.0837
  485TMC3    C8 7221   0.103   1.791  12.241  0.4151  0.3208  0.3605
  485TMC3    O1 7222   4.462   1.998  11.925  0.2240  0.1001 -0.1574
  485TMC3    O2 7223   0.176   1.863  12.179  0.2273  0.2432  0.3506
  486MPD2     C 7224   1.424   0.199  12.983 -0.1311 -0.3674  0.4435
  486MPD2    C1 7225   1.479   0.192  12.854 -0.3542 -0.7144 -0.2886
  486MPD2    C2 7226   1.443   0.294  12.766  0.5325 -0.9154 -0.2617
  486MPD2    C3 7227   1.369   0.406  12.811  0.0202  0.0792  0.2730
  486MPD2    C4 7228   1.318   0.408  12.936 -0.1385 -0.5235  0.0002
  486MPD2    C5 7229   1.339   0.298  13.021  0.0878 -0.8258  0.6020
  486MPD2     H 7230   1.479   0.300  12.664  1.9935 -0.6595  0.2670
  486MPD2    H1 7231   1.277   0.498  12.981 -0.5035 -0.9710  0.5684
  486MPD2    H2 7232   1.456   0.132  13.062  1.0998  1.2593  1.3397
  486MPD2    H3 7233   1.305   0.299  13.123  1.1151  0.0229  0.9404
  486MPD2     N 7234   1.346   0.500  12.719 -0.3022  0.4003 -0.0524
  486MPD2    H5 7235   1.375   0.481  12.624 -1.7796 -0.2220 -0.3721
  486MPD2    N1 7236   1.547   0.078  12.825  0.4759 -0.5107  0.4296
  486MPD2    H7 7237   1.568   0.008  12.895  1.3021  0.3468  1.0498
  487TMC3    C1 7238   1.652   4.639  12.691 -0.4335 -0.7558 -0.6747
  487TMC3    C2 7239   1.653   4.585  12.565  0.5873 -0.3119 -0.3194
  487TMC3    C3 7240   1.662   4.449  12.555 -0.0415 -0.2978 -0.4168
  487TMC3    C4 7241   1.667   4.569  12.807  0.7631  0.2172  0.4416
  487TMC3    C5 7242   1.688   4.435  12.786 -0.0499 -0.0165 -0.8386
  487TMC3    C6 7243   1.677   4.371  12.664 -0.1584  0.3763  0.5791
  487TMC3     C 7244   1.617   0.053  12.707 -0.4516 -0.2108  0.7825
  487TMC3     O 7245   1.633   0.120  12.604  0.0912 -0.2470 -0.1286
  487TMC3     H 7246   1.627   4.642  12.477 -0.8398  0.2485  0.4731
  487TMC3    H1 7247   1.689   4.621  12.899  0.4816  1.1455 -0.0098
  487TMC3    H2 7248   1.711   4.269  12.649  0.3095  0.7093 -0.6126
  487TMC3    C7 7249   1.643   4.360  12.908  0.6902 -0.2878 -0.4177
  487TMC3    C8 7250   1.634   4.393  12.428 -0.1859 -0.0541 -0.2765
  487TMC3    O1 7251   1.629   4.429  13.009  0.5772 -0.1015  0.0777
  487TMC3    O2 7252   1.685   4.437  12.321 -0.1932 -0.1992 -0.1893
  488MPD2     C 7253   1.683   2.010  16.340 -0.1106 -0.1817  0.3235
  488MPD2    C1 7254   1.702   2.138  16.393  0.0937 -0.1378  0.2060
  488MPD2    C2 7255   1.689   2.160  16.529 -0.3701  0.5697  0.4806
  488MPD2    C3 7256   1.647   2.056  16.619  0.0394 -0.0345 -0.0850
  488MPD2    C4 7257   1.639   1.931  16.560 -0.0316 -0.5771 -0.2457
  488MPD2    C5 7258   1.653   1.903  16.427 -0.3009 -0.3436 -0.1654
  488MPD2     H 7259   1.695   2.264  16.561  0.3758 -1.0795  5.6927
  488MPD2    H1 7260   1.615   1.850  16.627 -1.8520  0.5740  0.4823
  488MPD2    H2 7261   1.706   1.993  16.236 -2.8656 -1.1277 -0.1399
  488MPD2    H3 7262   1.647   1.800  16.395 -1.5501  0.0255 -1.1025
  488MPD2     N 7263   1.611   2.088  16.754  0.1889  0.1888 -0.3708
  488MPD2    H5 7264   1.599   2.188  16.770  0.5050 -0.1686  2.2269
  488MPD2    N1 7265   1.738   2.249  16.308 -0.8334 -0.0934  0.1159
  488MPD2    H7 7266   1.756   2.335  16.359  1.5338 -0.7466  0.3629
  489TMC3    C1 7267   1.497   2.074  16.958  0.5702  0.3008  0.5551
  489TMC3    C2 7268   1.456   2.202  16.942  0.6607 -0.5054 -0.0497
  489TMC3    C3 7269   1.409   2.272  17.047  1.0507  0.1915 -0.4216
  489TMC3    C4 7270   1.506   2.019  17.082 -0.8682 -0.2422 -0.0511
  489TMC3    C5 7271   1.447   2.086  17.186  0.7959  0.2887  0.0583
  489TMC3    C6 7272   1.398   2.217  17.179 -0.0298  0.5929 -0.7422
  489TMC3     C 7273   1.563   2.005  16.852  0.1082  0.0722 -0.6460
  489TMC3     O 7274   1.596   1.887  16.866  0.2329  0.5369 -0.2663
  489TMC3     H 7275   1.459   2.251  16.845 -0.6935 -1.1851 -0.4361
  489TMC3    H1 7276   1.544   1.918  17.096  0.2027  0.3796  1.3898
  489TMC3    H2 7277   1.357   2.270  17.265 -0.8551 -1.3368  0.0587
  489TMC3    C7 7278   1.404   2.013  17.308  0.2030  0.1587 -0.5954
  489TMC3    C8 7279   1.394   2.416  17.032  0.6288 -0.5625  0.0221
  489TMC3    O1 7280   1.362   2.078  17.401  0.6401 -0.2369 -0.2882
  489TMC3    O2 7281   1.413   2.452  16.916 -0.1572 -0.2541  0.4601
  490MPD2     C 7282   2.314   2.194  17.186  0.2752 -0.5938  0.7355
  490MPD2    C1 7283   2.336   2.127  17.307  0.6138 -0.2988  0.2559
  490MPD2    C2 7284   2.458   2.130  17.364  0.3840  0.1280  0.1923
  490MPD2    C3 7285   2.569   2.184  17.298  0.5812 -0.1235  0.1884
  490MPD2    C4 7286   2.554   2.235  17.172  0.0496 -0.1272  0.5376
  490MPD2    C5 7287   2.427   2.253  17.123  0.5048 -0.3316  0.2459
  490MPD2     H 7288   2.466   2.081  17.461  0.1989 -0.0273  0.1300
  490MPD2    H1 7289   2.629   2.283  17.110  0.1241  0.2883  0.9515
  490MPD2    H2 7290   2.214   2.204  17.147  0.1826 -1.6069  0.7040
  490MPD2    H3 7291   2.417   2.308  17.030  2.3725 -0.8563 -0.2660
  490MPD2     N 7292   2.696   2.189  17.352  0.2294 -0.2941 -0.2410
  490MPD2    H5 7293   2.768   2.220  17.287  2.1828 -3.1679  0.5326
  490MPD2    N1 7294   2.237   2.050  17.374 -0.0837 -0.4470 -0.1598
  490MPD2    H7 7295   2.275   1.988  17.445  0.7324  2.1481  1.6714
  491TMC3    C1 7296   2.057   1.913  17.400 -0.2880  0.7628  0.6383
  491TMC3    C2 7297   2.079   1.912  17.536 -0.4824 -0.4335  0.7043
  491TMC3    C3 7298   2.070   1.799  17.610 -0.2681  0.3182 -0.0672
  491TMC3    C4 7299   2.030   1.794  17.337 -0.9456  0.0298 -0.3313
  491TMC3    C5 7300   2.022   1.679  17.412  0.2597  0.4941  0.2872
  491TMC3    C6 7301   2.046   1.679  17.549 -0.7147  0.3441  0.4631
  491TMC3     C 7302   2.113   2.019  17.318  0.1565 -0.1930  0.5055
  491TMC3     O 7303   2.067   2.038  17.207 -0.0935 -0.0015  0.0204
  491TMC3     H 7304   2.085   2.002  17.597 -1.3570 -0.3318  0.6396
  491TMC3    H1 7305   2.022   1.808  17.230 -0.2209  0.9859 -0.2542
  491TMC3    H2 7306   2.021   1.588  17.601  1.1364  0.3171  1.2906
  491TMC3    C7 7307   2.008   1.557  17.349 -0.2932  0.5244  0.2655
  491TMC3    C8 7308   2.113   1.809   0.062  0.6204 -0.3370  0.3785
  491TMC3    O1 7309   2.053   1.463  17.416 -0.3833  0.1860  0.4092
  491TMC3    O2 7310   2.131   1.917   0.113  0.0953 -0.6750  0.1964
  492MPD2     C 7311   2.811   1.336  11.528 -0.0395  0.0132 -0.0360
  492MPD2    C1 7312   2.774   1.234  11.437  0.2598 -0.0737  0.4961
  492MPD2    C2 7313   2.679   1.140  11.477 -0.0631 -0.0073  0.5564
  492MPD2    C3 7314   2.622   1.154  11.606  0.1468 -1.0912 -0.2349
  492MPD2    C4 7315   2.660   1.259  11.684  0.0693 -0.1003  0.1678
  492MPD2    C5 7316   2.754   1.345  11.646 -0.1391  0.3804 -0.3795
  492MPD2     H 7317   2.647   1.065  11.405 -0.5692 -1.4287  2.2597
  492MPD2    H1 7318   2.626   1.275  11.785  1.2176 -0.0024  0.5434
  492MPD2    H2 7319   2.875   1.415  11.490  0.9418 -0.0515  1.5173
  492MPD2    H3 7320   2.781   1.415  11.724 -0.2888 -1.4425  1.3000
  492MPD2     N 7321   2.533   1.056  11.661  0.4134 -0.0318 -0.0596
  492MPD2    H5 7322   2.472   1.092  11.734  0.6357  0.9090 -0.3392
  492MPD2    N1 7323   2.853   1.216  11.319  0.1267  0.7482  0.3272
  492MPD2    H7 7324   2.942   1.265  11.308 -0.5096  1.8364  0.0994
  493TMC3    C1 7325   2.925   1.110  11.122  0.3294 -0.0311  0.0449
  493TMC3    C2 7326   3.007   1.217  11.097  0.5353  0.4320  0.2139
  493TMC3    C3 7327   3.065   1.217  10.973  0.3084 -0.2193 -0.0810
  493TMC3    C4 7328   2.915   1.005  11.032 -1.1310 -0.4356  0.3245
  493TMC3    C5 7329   2.978   1.009  10.913  0.4118  0.2614  0.4092
  493TMC3    C6 7330   3.048   1.123  10.880 -1.1856 -0.3036  0.4849
  493TMC3     C 7331   2.827   1.118  11.225 -0.2805  0.2185  0.0188
  493TMC3     O 7332   2.732   1.049  11.203 -0.7797 -0.2751 -0.0752
  493TMC3     H 7333   3.015   1.303  11.163 -1.8147  1.1569 -0.4486
  493TMC3    H1 7334   2.851   0.918  11.045 -1.5745 -0.7411 -3.9721
  493TMC3    H2 7335   3.101   1.124  10.786  0.4625 -1.3067  1.4037
  493TMC3    C7 7336   2.949   0.907  10.816  0.4773  0.1784  0.3704
  493TMC3    C8 7337   3.176   1.306  10.950 -0.2968 -0.0727  0.3824
  493TMC3    O1 7338   2.940   0.934  10.694 -0.3469  0.3193 -0.1894
  493TMC3    O2 7339   3.233   1.341  11.053 -0.3788 -0.2806 -0.3076
  494TMC3    C1 7340   3.445   3.318   0.876 -0.8104  0.0186  0.9017
  494TMC3    C2 7341   3.508   3.215   0.944 -0.1856  0.2745 -0.2458
  494TMC3    C3 7342   3.538   3.106   0.873 -0.1037  0.7581  1.1800
  494TMC3    C4 7343   3.411   3.304   0.740  0.7865  0.2531 -0.1590
  494TMC3    C5 7344   3.442   3.194   0.677 -0.1651 -0.6965 -0.3996
  494TMC3    C6 7345   3.520   3.093   0.736  0.1207 -0.2149 -0.2317
  494TMC3     C 7346   3.417   3.434   0.956  0.2165 -0.5761 -0.1413
  494TMC3     O 7347   3.456   3.440   1.070 -0.3258 -0.0419 -0.1773
  494TMC3     H 7348   3.546   3.234   1.043  0.1081 -0.7662 -0.1607
  494TMC3    H1 7349   3.358   3.379   0.681 -0.8932 -0.1884  0.7713
  494TMC3    H2 7350   3.541   3.000   0.686 -0.6561 -0.4221 -0.1731
  494TMC3    C7 7351   3.364   3.169   0.556 -0.5255  0.2165 -0.9651
  494TMC3    C8 7352   3.586   3.000   0.960  0.7731  0.3454 -0.0694
  494TMC3    O1 7353   3.282   3.251   0.525  0.0583 -0.1351  0.4670
  494TMC3    O2 7354   3.545   2.983   1.072 -0.3149 -0.0180 -0.1915
  495TMC3    C1 7355   1.697   4.709  14.691  0.4261 -1.0705  0.3569
  495TMC3    C2 7356   1.646   0.038  14.570 -0.1927 -0.1161  0.1552
  495TMC3    C3 7357   1.637   0.174  14.559  0.3142 -0.0745  0.3124
  495TMC3    C4 7358   1.744   0.068  14.790 -0.1401 -0.5644 -0.5384
  495TMC3    C5 7359   1.723   0.205  14.775  0.5443  0.0666  0.1341
  495TMC3    C6 7360   1.666   0.258  14.662 -0.1406  0.0270  0.2527
  495TMC3     C 7361   1.700   4.562  14.716 -0.1656 -0.5035  0.1306
  495TMC3     O 7362   1.789   4.533  14.791 -0.5185  0.0097  0.7770
  495TMC3     H 7363   1.637   4.681  14.496  1.6335  0.2800 -0.5019
  495TMC3    H1 7364   1.782   0.027  14.883 -0.1148 -2.0428 -1.2037
  495TMC3    H2 7365   1.634   0.361  14.658 -1.7602 -0.5720 -2.4132
  495TMC3    C7 7366   1.706   0.268  14.897 -0.4439 -0.0512 -0.2418
  495TMC3    C8 7367   1.551   0.223  14.456 -0.6554  0.1941  0.8098
  495TMC3    O1 7368   1.802   0.324  14.943  0.0556 -0.1711 -0.4328
  495TMC3    O2 7369   1.483   0.320  14.487  0.3351 -0.0545 -0.6562
  496MPD2     C 7370   3.639   0.536  15.355  0.3267 -0.5208 -0.1238
  496MPD2    C1 7371   3.676   0.455  15.455 -0.2151 -0.0613 -0.2627
  496MPD2    C2 7372   3.590   0.441  15.566 -0.4139 -0.2485  0.0265
  496MPD2    C3 7373   3.472   0.508  15.566  0.4543  0.1498 -0.1632
  496MPD2    C4 7374   3.431   0.588  15.465  0.4721 -0.5173  0.1952
  496MPD2    C5 7375   3.518   0.594  15.355  0.3203  0.3185  0.3155
  496MPD2     H 7376   3.618   0.387  15.655 -2.8077 -1.9602 -0.2810
  496MPD2    H1 7377   3.330   0.627  15.463  0.5417 -0.2107  2.3667
  496MPD2    H2 7378   3.690   0.555  15.262  0.6853  0.7248  0.3270
  496MPD2    H3 7379   3.497   0.658  15.270  2.0423  3.4316  2.2227
  496MPD2     N 7380   3.382   0.499  15.683 -0.0704 -0.4793 -0.0152
  496MPD2    H5 7381   3.293   0.546  15.671  0.2313 -0.4846 -2.2972
  496MPD2    N1 7382   3.804   0.386  15.453  0.2710 -0.2255 -0.1090
  496MPD2    H7 7383   3.863   0.402  15.372  0.0199 -0.0703 -0.2607
  497TMC3    C1 7384   3.286   0.459  15.892  0.0125  0.5860  0.5428
  497TMC3    C2 7385   3.167   0.477  15.826 -0.3014  0.5206 -0.0950
  497TMC3    C3 7386   3.053   0.489  15.900 -0.5077  0.2119 -0.2868
  497TMC3    C4 7387   3.301   0.462  16.025 -0.1417 -0.3624 -0.5448
  497TMC3    C5 7388   3.184   0.490  16.099 -0.1117  0.4778  0.3924
  497TMC3    C6 7389   3.065   0.504  16.036 -0.3338  0.2548  0.0646
  497TMC3     C 7390   3.406   0.448  15.807 -0.7085 -0.6654  0.4528
  497TMC3     O 7391   3.503   0.386  15.850 -0.1414 -0.3391 -0.1924
  497TMC3     H 7392   3.161   0.450  15.721 -0.5854  1.0275 -0.2039
  497TMC3    H1 7393   3.402   0.446  16.058 -1.1780 -2.0475  1.7757
  497TMC3    H2 7394   2.972   0.503  16.091 -0.8906  0.7811 -0.8655
  497TMC3    C7 7395   3.176   0.456  16.244  0.6819 -0.7037 -0.5377
  497TMC3    C8 7396   2.933   0.535  15.829  0.5229  0.3661 -0.0379
  497TMC3    O1 7397   3.066   0.443  16.291  0.5498 -0.2708 -0.4711
  497TMC3    O2 7398   2.926   0.510  15.707 -0.6946 -0.3102 -0.4321
  498MPD2     C 7399   0.336   0.661   9.762 -0.1318 -0.0318  0.4033
  498MPD2    C1 7400   0.223   0.624   9.696 -0.3814 -0.0407 -0.4308
  498MPD2    C2 7401   0.186   0.491   9.689 -0.0674 -0.5800  0.4976
  498MPD2    C3 7402   0.270   0.390   9.746 -0.0306 -0.3115  0.0362
  498MPD2    C4 7403   0.385   0.436   9.803  0.3316  0.3736 -0.2713
  498MPD2    C5 7404   0.418   0.564   9.813 -0.3729 -0.3312 -0.0978
  498MPD2     H 7405   0.088   0.456   9.658  0.0019  0.1003 -0.4572
  498MPD2    H1 7406   0.451   0.364   9.851  1.4077  1.3553 -0.3012
  498MPD2    H2 7407   0.378   0.761   9.762  1.0479 -0.5218  2.1677
  498MPD2    H3 7408   0.516   0.593   9.849 -0.8576  0.4401  0.5947
  498MPD2     N 7409   0.232   0.257   9.766 -0.6812 -0.1736  0.3463
  498MPD2    H5 7410   0.138   0.236   9.735 -0.7186  2.3460 -1.2705
  498MPD2    N1 7411   0.127   0.722   9.638  0.6439  0.4486 -0.7453
  498MPD2    H7 7412   0.041   0.689   9.596  1.1096 -1.5457 -0.1411
  499TMC3    C1 7413   0.049   0.921   9.552  0.2370  0.3410  0.6959
  499TMC3    C2 7414   4.642   0.875   9.550 -0.0289 -0.5219 -0.3070
  499TMC3    C3 7415   4.560   0.918   9.454  0.0990 -0.1997 -0.5753
  499TMC3    C4 7416   0.095   1.002   9.455 -0.1175  0.1267  1.2594
  499TMC3    C5 7417   0.007   1.057   9.360 -0.0210 -0.7890  0.4493
  499TMC3    C6 7418   4.598   1.018   9.363  0.0507  0.1195 -0.4102
  499TMC3     C 7419   0.154   0.856   9.627 -0.5567 -0.2873  0.6913
  499TMC3     O 7420   0.260   0.911   9.643 -0.1914  0.1617 -0.5743
  499TMC3     H 7421   4.619   0.798   9.623  0.6625 -0.2628  0.1899
  499TMC3    H1 7422   0.199   1.033   9.460 -0.0881  0.0673  0.9923
  499TMC3    H2 7423   4.519   1.067   9.309  0.8269  2.8778  0.9649
  499TMC3    C7 7424   0.070   1.151   9.272  1.1028  0.3062 -0.3203
  499TMC3    C8 7425   4.424   0.902   9.489 -0.3059 -0.4840  1.2243
  499TMC3    O1 7426   0.190   1.163   9.271  0.1444  0.0819 -0.7639
  499TMC3    O2 7427   4.395   0.890   9.606 -0.0769  0.2955 -0.0587
  500MPD2     C 7428   2.237   2.185   9.624 -0.3205  0.8743  0.9059
  500MPD2    C1 7429   2.151   2.166   9.728 -0.1415 -0.4280  0.4099
  500MPD2    C2 7430   2.019   2.149   9.706 -0.7640 -0.1306  0.3058
  500MPD2    C3 7431   1.970   2.138   9.579  0.2310 -0.4338 -0.1697
  500MPD2    C4 7432   2.062   2.138   9.479 -0.8972 -0.4466  0.1614
  500MPD2    C5 7433   2.189   2.169   9.500 -0.1280  0.3059 -0.1189
  500MPD2     H 7434   1.951   2.162   9.790 -1.1742 -0.1437 -0.0235
  500MPD2    H1 7435   2.038   2.103   9.379 -0.0282  0.4225 -0.3507
  500MPD2    H2 7436   2.336   2.224   9.640  0.0357 -0.0827  1.0504
  500MPD2    H3 7437   2.265   2.189   9.426 -0.6548  1.3077 -0.4022
  500MPD2     N 7438   1.834   2.113   9.546  0.6024  0.2895  0.3521
  500MPD2    H5 7439   1.815   2.105   9.447 -0.4555  0.0098  0.5867
  500MPD2    N1 7440   2.194   2.174   9.863  0.4529  0.0744  0.3788
  500MPD2    H7 7441   2.120   2.182   9.932  0.2138  1.9025 -0.1193
  501TMC3    C1 7442   2.354   2.219  10.037 -0.3195  0.7302 -0.2738
  501TMC3    C2 7443   2.279   2.329  10.077 -0.1339 -0.7134  0.1412
  501TMC3    C3 7444   2.270   2.355  10.211  1.0518 -0.8803 -0.7762
  501TMC3    C4 7445   2.426   2.136  10.129 -0.6920 -0.3173  0.2664
  501TMC3    C5 7446   2.422   2.180  10.261  1.0700 -0.3426  0.2947
  501TMC3    C6 7447   2.334   2.276  10.307 -0.4658  0.7438 -0.0029
  501TMC3     C 7448   2.328   2.161   9.901 -0.3825 -0.1027  0.0215
  501TMC3     O 7449   2.416   2.101   9.840 -0.1968 -0.0064  0.0240
  501TMC3     H 7450   2.241   2.404  10.009 -0.6452  0.8533  2.1531
  501TMC3    H1 7451   2.496   2.062  10.092  0.2905  2.8501 -4.1633
  501TMC3    H2 7452   2.313   2.275  10.413 -2.9079 -0.0437 -0.4960
  501TMC3    C7 7453   2.535   2.155  10.338  0.3405  0.6568 -0.3793
  501TMC3    C8 7454   2.244   2.497  10.253 -0.2457 -0.8147  0.1020
  501TMC3    O1 7455   2.599   2.050  10.322  0.8195 -0.0373  0.5357
  501TMC3    O2 7456   2.315   2.548  10.342 -0.1193  0.2829 -0.1625
  502TMC3    C1 7457   1.339   1.544  15.691 -0.0423  0.0911  0.1446
  502TMC3    C2 7458   1.287   1.673  15.670  0.2515 -0.2198  0.1019
  502TMC3    C3 7459   1.151   1.684  15.638 -0.1975  0.5697 -0.1906
  502TMC3    C4 7460   1.261   1.440  15.696 -0.4699 -0.6799 -0.4333
  502TMC3    C5 7461   1.123   1.465  15.686  0.5237 -0.2855 -0.3153
  502TMC3    C6 7462   1.069   1.580  15.649  0.0484 -0.4650 -0.3068
  502TMC3     C 7463   1.479   1.530  15.722 -0.0864  0.6150 -0.2382
  502TMC3     O 7464   1.550   1.633  15.724 -0.4493 -0.1871 -0.2086
  502TMC3     H 7465   1.358   1.754  15.659  0.6464 -0.6952 -0.7702
  502TMC3    H1 7466   1.293   1.343  15.733 -0.2432 -0.5393 -0.2616
  502TMC3    H2 7467   0.961   1.591  15.648  0.2774  1.7656  1.0354
  502TMC3    C7 7468   1.037   1.351  15.719  0.1545  0.9514 -0.2194
  502TMC3    C8 7469   1.121   1.797  15.552 -0.4698 -0.2178  0.5066
  502TMC3    O1 7470   1.101   1.266  15.779 -0.0505  0.2929  0.3733
  502TMC3    O2 7471   1.200   1.888  15.565  0.4943 -0.2147  0.4344
  503MPD2     C 7472   3.167   2.040  16.928  0.1900 -0.9097 -0.5423
  503MPD2    C1 7473   3.240   2.074  17.042  0.2779  0.7067 -0.6377
  503MPD2    C2 7474   3.299   1.965  17.119 -0.0440  1.0570 -0.1609
  503MPD2    C3 7475   3.283   1.829  17.075 -0.4855 -0.0544 -0.4209
  503MPD2    C4 7476   3.214   1.803  16.961  0.6394 -0.3084 -1.1726
  503MPD2    C5 7477   3.161   1.912  16.891 -0.3133 -0.0749 -0.1266
  503MPD2     H 7478   3.365   1.996  17.199  0.2488  0.8008 -0.3022
  503MPD2    H1 7479   3.215   1.700  16.927  1.7161  0.0072 -2.0896
  503MPD2    H2 7480   3.130   2.114  16.859  2.3073  1.7403  1.1516
  503MPD2    H3 7481   3.121   1.889  16.793 -0.6973 -2.1744  0.5249
  503MPD2     N 7482   3.363   1.736  17.140 -0.2462 -0.0152 -0.0633
  503MPD2    H5 7483   3.421   1.774  17.214 -0.8798  0.4210  0.2063
  503MPD2    N1 7484   3.266   2.202  17.089  0.3993  0.0658  0.4762
  503MPD2    H7 7485   3.304   2.204  17.183  1.0731  0.5104  0.1894
  504TMC3    C1 7486   3.462   1.544  17.198 -0.2215 -0.7054 -0.4463
  504TMC3    C2 7487   3.455   1.410  17.222 -0.8791  0.5197 -0.2986
  504TMC3    C3 7488   3.564   1.349  17.276  0.5713  0.3151 -0.3130
  504TMC3    C4 7489   3.583   1.617  17.211 -0.4022  0.2129  0.1863
  504TMC3    C5 7490   3.692   1.543  17.240  0.2394  0.5705  0.1628
  504TMC3    C6 7491   3.687   1.414  17.281 -0.2430 -0.0501 -0.1636
  504TMC3     C 7492   3.364   1.601  17.114  0.3615  0.4791  0.6705
  504TMC3     O 7493   3.288   1.524  17.061  0.3179 -0.3044 -0.0837
  504TMC3     H 7494   3.361   1.360  17.197  0.5449 -2.7919  0.9627
  504TMC3    H1 7495   3.593   1.716  17.169 -2.3467  0.0955 -0.6047
  504TMC3    H2 7496   3.776   1.359  17.311 -0.7880  0.1852  1.8796
  504TMC3    C7 7497   3.816   1.605  17.199 -0.6071 -0.0785  0.2377
  504TMC3    C8 7498   3.559   1.210  17.318  0.4912 -0.1778 -0.2331
  504TMC3    O1 7499   3.817   1.680  17.103 -0.1016  0.1162  0.5575
  504TMC3    O2 7500   3.469   1.147  17.265 -0.5080  0.3286  0.3250
  505MPD2     C 7501   3.821   0.105  10.066 -0.2397 -0.0742  0.0658
  505MPD2    C1 7502   3.826   4.694  10.117 -0.2087  0.7696 -0.6853
  505MPD2    C2 7503   3.879   4.670  10.244  0.8623 -0.8863  0.1414
  505MPD2    C3 7504   3.930   0.053  10.319 -0.0735 -0.5198  0.3442
  505MPD2    C4 7505   3.927   0.177  10.268 -0.3674 -0.3648  0.0939
  505MPD2    C5 7506   3.879   0.204  10.142  0.1454  0.8330  0.1111
  505MPD2     H 7507   3.878   4.568  10.280 -0.6050 -1.2101 -0.8414
  505MPD2    H1 7508   3.973   0.264  10.314 -0.4636 -0.3067  0.0805
  505MPD2    H2 7509   3.777   0.129   9.970  2.9893  1.9091 -0.9249
  505MPD2    H3 7510   3.876   0.304  10.100  0.0073  0.5582 -0.5331
  505MPD2     N 7511   3.979   0.018  10.447 -0.3680  0.2800 -0.3018
  505MPD2    H5 7512   3.992   4.643  10.475  1.1578  0.6875  0.3953
  505MPD2    N1 7513   3.781   4.596  10.036 -0.2225  0.7779 -0.3583
  505MPD2    H7 7514   3.780   4.614   9.936 -0.1035  2.6503 -0.0296
  506TMC3    C1 7515   3.759   4.375   9.962  0.6081 -0.4781  0.2322
  506TMC3    C2 7516   3.863   4.386   9.872  0.2588 -0.3549  0.6279
  506TMC3    C3 7517   3.912   4.276   9.819 -0.0566  0.0306 -0.9444
  506TMC3    C4 7518   3.721   4.248  10.007  0.4486  0.9639  0.0981
  506TMC3    C5 7519   3.786   4.136   9.962  0.0716 -0.4917 -0.0305
  506TMC3    C6 7520   3.883   4.150   9.866 -0.2089 -0.4892 -0.8304
  506TMC3     C 7521   3.774   4.464  10.071  0.2309  0.0930 -0.2513
  506TMC3     O 7522   3.755   4.406  10.175 -0.5428 -0.1759  0.2530
  506TMC3     H 7523   3.894   4.482   9.833 -2.1762 -0.2866 -1.1373
  506TMC3    H1 7524   3.649   4.235  10.087  0.0426 -0.4803 -0.4946
  506TMC3    H2 7525   3.948   4.071   9.829  0.8242 -0.3224  0.6478
  506TMC3    C7 7526   3.825   4.052  10.074 -0.7935 -0.7150  0.8169
  506TMC3    C8 7527   4.010   4.286   9.722 -0.2017  1.1405 -0.1227
  506TMC3    O1 7528   3.862   3.937  10.056 -0.3127  0.1610  0.3501
  506TMC3    O2 7529   4.014   4.198   9.635  0.0489 -0.0559 -0.3008
  507TMC3    C1 7530   4.464   1.409  14.660  0.2955 -0.2841 -0.0258
  507TMC3    C2 7531   4.468   1.335  14.548 -0.5833  0.1167  0.4934
  507TMC3    C3 7532   4.523   1.388  14.434  0.2451 -0.3769 -0.2602
  507TMC3    C4 7533   4.542   1.525  14.669 -0.2095 -0.4065 -0.0331
  507TMC3    C5 7534   4.593   1.577  14.555 -1.6459 -0.1554 -0.3940
  507TMC3    C6 7535   4.602   1.503  14.441 -0.3883  0.6553 -0.3907
  507TMC3     C 7536   4.348   1.384  14.742 -0.2365 -0.6201  0.1361
  507TMC3     O 7537   4.257   1.320  14.686  0.8853  0.5777  0.2830
  507TMC3     H 7538   4.398   1.253  14.538  0.9779 -1.1368  0.0594
  507TMC3    H1 7539   4.512   1.590  14.751  0.4461  0.8975 -0.8165
  507TMC3    H2 7540   4.664   1.525  14.355  1.3256 -2.0937  0.1321
  507TMC3    C7 7541   4.548   1.713  14.520 -1.0405 -0.5355 -0.7880
  507TMC3    C8 7542   4.447   1.374  14.313 -0.0787  1.0272 -0.2202
  507TMC3    O1 7543   4.512   1.724  14.406 -0.2672 -0.1189  0.5632
  507TMC3    O2 7544   4.349   1.302  14.308  0.2752 -0.7317 -0.6326
  508MPD2     C 7545   0.653   3.551  15.966  1.2188 -0.0932  0.0602
  508MPD2    C1 7546   0.555   3.644  16.001  0.0292  0.8012  0.1337
  508MPD2    C2 7547   0.483   3.703  15.898  0.3898  0.6935  0.8969
  508MPD2    C3 7548   0.519   3.696  15.764 -0.1344  0.1723 -0.2383
  508MPD2    C4 7549   0.625   3.613  15.737 -0.4859 -0.1131 -0.0521
  508MPD2    C5 7550   0.686   3.537  15.835 -0.2230  0.0167 -0.1217
  508MPD2     H 7551   0.400   3.770  15.921 -0.2169 -0.4575  2.0680
  508MPD2    H1 7552   0.676   3.609  15.641  0.4995  0.3240  0.4470
  508MPD2    H2 7553   0.713   3.497  16.039  0.9959  0.6492  0.7827
  508MPD2    H3 7554   0.768   3.473  15.804  0.9932  1.8033 -0.5229
  508MPD2     N 7555   0.447   3.770  15.661  0.1434  0.1037  0.1706
  508MPD2    H5 7556   0.370   3.833  15.684 -1.3197 -1.9703  0.9497
  508MPD2    N1 7557   0.544   3.684  16.137 -0.1278 -0.0924 -0.1196
  508MPD2    H7 7558   0.595   3.628  16.206 -3.1888 -0.5974  1.7504
  509TMC3    C1 7559   0.280   4.091  15.502 -0.6671 -0.3042 -0.4567
  509TMC3    C2 7560   0.346   4.160  15.405 -0.1575  0.0086 -1.0826
  509TMC3    C3 7561   0.460   4.105  15.357  1.3982 -0.0036 -0.1323
  509TMC3    C4 7562   0.318   3.964  15.530 -0.8635  0.0440 -0.6412
  509TMC3    C5 7563   0.427   3.906  15.465 -0.0694 -0.6643  0.1975
  509TMC3    C6 7564   0.505   3.982  15.386 -0.2477  0.3163 -0.8156
  509TMC3     C 7565   0.232   4.168  15.617  0.7612 -0.4367  0.3330
  509TMC3     O 7566   0.260   4.119  15.725  0.0374 -0.6471  0.3380
  509TMC3     H 7567   0.312   4.253  15.359 -0.0918  1.2805  1.4543
  509TMC3    H1 7568   0.265   3.919  15.613  1.6809  0.0659  0.9739
  509TMC3    H2 7569   0.602   3.952  15.349  0.0682 -0.6173  0.7859
  509TMC3    C7 7570   0.485   3.782  15.528  0.5394  0.0757 -0.0993
  509TMC3    C8 7571   0.557   4.209  15.321 -0.0839  0.1572 -0.3520
  509TMC3    O1 7572   0.575   3.729  15.471 -0.1479 -0.3295 -0.2001
  509TMC3    O2 7573   0.654   4.175  15.253 -0.5532  0.0490  0.5026
  510MPD2     C 7574   3.359   1.251  14.548  0.4982 -0.1166  0.6734
  510MPD2    C1 7575   3.377   1.126  14.614  0.0893 -0.1041  0.1996
  510MPD2    C2 7576   3.485   1.043  14.576 -0.3565  0.0215  0.6735
  510MPD2    C3 7577   3.573   1.080  14.470 -0.7476  0.6154  0.4245
  510MPD2    C4 7578   3.548   1.196  14.408 -0.1349  0.1592  0.1130
  510MPD2    C5 7579   3.449   1.280  14.452  0.0370 -0.3256 -0.0831
  510MPD2     H 7580   3.481   0.938  14.606 -1.8546  0.0353  0.5537
  510MPD2    H1 7581   3.620   1.236  14.338 -1.0386 -1.4949 -1.7637
  510MPD2    H2 7582   3.275   1.317  14.569  1.8373  2.6090 -2.6120
  510MPD2    H3 7583   3.448   1.379  14.408 -2.4614 -1.0051 -1.5372
  510MPD2     N 7584   3.678   0.989  14.432 -0.3228  0.2296 -0.6657
  510MPD2    H5 7585   3.707   0.917  14.498 -2.9791  0.4568  0.7507
  510MPD2    N1 7586   3.273   1.104  14.711  0.1038  0.5307  0.2515
  510MPD2    H7 7587   3.198   1.167  14.735 -0.0165  0.3892  0.2442
  511TMC3    C1 7588   3.137   0.960  14.828  0.7593  1.1393  0.0212
  511TMC3    C2 7589   3.110   1.016  14.946 -0.1669 -0.3934  0.2253
  511TMC3    C3 7590   2.995   0.972  15.007  0.6680 -0.2360 -0.5718
  511TMC3    C4 7591   3.069   0.856  14.769 -0.5213 -0.6205 -0.2348
  511TMC3    C5 7592   2.972   0.801  14.843  0.5310  0.3268 -0.8605
  511TMC3    C6 7593   2.925   0.861  14.960  0.1365 -0.1198  0.8295
  511TMC3     C 7594   3.261   0.979  14.768 -1.0134  0.4711 -0.6214
  511TMC3     O 7595   3.325   0.874  14.751  0.4858 -0.3182  0.5004
  511TMC3     H 7596   3.162   1.105  14.979  0.5926 -0.3053 -1.1697
  511TMC3    H1 7597   3.095   0.819  14.671 -0.0870 -0.4357 -0.1898
  511TMC3    H2 7598   2.835   0.829  15.012 -1.2922  0.4008 -1.3514
  511TMC3    C7 7599   2.912   0.684  14.787  0.8816  0.2270  0.3424
  511TMC3    C8 7600   2.964   1.034  15.138  0.2595 -0.3765 -0.2188
  511TMC3    O1 7601   2.922   0.659  14.665  0.1359  0.1012 -0.9597
  511TMC3    O2 7602   2.968   1.156  15.142 -0.7357  0.2880 -0.0042
  512TMC3    C1 7603   2.631   4.520  13.784 -0.3493  0.3200  0.0615
  512TMC3    C2 7604   2.665   4.612  13.882 -0.2423 -0.1033  0.0466
  512TMC3    C3 7605   2.682   4.574  14.014 -0.6789 -0.0054  0.1468
  512TMC3    C4 7606   2.613   4.389  13.821 -0.0812  0.1194 -1.0348
  512TMC3    C5 7607   2.617   4.356  13.955  0.2722 -0.8214  0.2029
  512TMC3    C6 7608   2.655   4.445  14.056  0.0255  0.0471 -0.1734
  512TMC3     C 7609   2.618   4.561  13.648 -0.0729 -0.4506  0.7404
  512TMC3     O 7610   2.647   4.489  13.556 -1.3019 -0.3320  0.6448
  512TMC3     H 7611   2.705   4.709  13.854 -2.7570  0.9155  0.0001
  512TMC3    H1 7612   2.578   4.322  13.744 -0.1958 -0.4451 -0.4869
  512TMC3    H2 7613   2.659   4.428  14.163 -1.0528  1.6317  0.1266
  512TMC3    C7 7614   2.566   4.237  14.005  0.6951 -0.3297 -0.2840
  512TMC3    C8 7615   2.723   4.669  14.114  0.2340 -0.4023 -0.0437
  512TMC3    O1 7616   2.521   4.239  14.120  0.4778  0.2556 -0.2631
  512TMC3    O2 7617   2.757   4.629  14.221 -0.8823 -0.6633 -0.6617
  513MPD2     C 7618   3.940   0.333  13.352 -0.5338 -0.2477 -0.1642
  513MPD2    C1 7619   4.052   0.402  13.302  0.0263 -0.1756  0.6218
  513MPD2    C2 7620   4.176   0.397  13.371 -0.4281  0.0061  0.2334
  513MPD2    C3 7621   4.189   0.328  13.490 -0.0256 -0.1115  0.0879
  513MPD2    C4 7622   4.082   0.246  13.527 -0.0077  0.4301 -0.2788
  513MPD2    C5 7623   3.966   0.250  13.459  0.2523  0.7928  0.0378
  513MPD2     H 7624   4.265   0.443  13.328 -0.2601  1.2381  1.8890
  513MPD2    H1 7625   4.093   0.185  13.616  4.2548  0.5398 -0.7082
  513MPD2    H2 7626   3.843   0.333  13.303  1.5113 -0.9162 -4.1652
  513MPD2    H3 7627   3.883   0.190  13.494  0.8575  0.2910  0.6161
  513MPD2     N 7628   4.309   0.320  13.566  0.5609 -0.2931 -0.2144
  513MPD2    H5 7629   4.388   0.357  13.515  0.3624  1.3446  0.6770
  513MPD2    N1 7630   4.036   0.469  13.180  0.5814 -0.2418 -0.2104
  513MPD2    H7 7631   3.948   0.451  13.134  0.9209 -2.0908 -0.1212
  514TMC3    C1 7632   4.090   0.603  12.987 -0.3184  0.1722  0.1325
  514TMC3    C2 7633   3.985   0.531  12.931  0.5263  0.3944 -0.1730
  514TMC3    C3 7634   4.013   0.452  12.826 -0.0100  0.3349 -0.1043
  514TMC3    C4 7635   4.204   0.618  12.917  0.5932 -0.3742  0.3718
  514TMC3    C5 7636   4.233   0.534  12.815  0.6570 -0.1137  0.1977
  514TMC3    C6 7637   4.141   0.450  12.761 -0.1041  0.2561  0.0188
  514TMC3     C 7638   4.131   0.552  13.120  0.1575 -0.5623 -0.0992
  514TMC3     O 7639   4.249   0.574  13.151 -0.1595  0.6069 -0.2091
  514TMC3     H 7640   3.885   0.527  12.974  0.3189  2.1141 -0.5279
  514TMC3    H1 7641   4.287   0.675  12.956  1.0586 -0.6927 -0.1611
  514TMC3    H2 7642   4.166   0.383  12.680 -0.4923  0.1945 -0.0488
  514TMC3    C7 7643   4.370   0.474  12.830  0.4330 -0.6266 -0.2139
  514TMC3    C8 7644   3.905   0.383  12.769  0.0329  0.4840  0.0952
  514TMC3    O1 7645   4.426   0.425  12.734  0.5603  0.6805 -0.2543
  514TMC3    O2 7646   3.804   0.386  12.836  0.0353  0.3672 -0.1169
  515MPD2     C 7647   1.829   2.032  15.040 -0.2702 -0.2740 -0.2898
  515MPD2    C1 7648   1.862   2.009  14.904 -0.5736 -0.2323 -0.0398
  515MPD2    C2 7649   1.980   2.074  14.859  0.0573 -0.3773  0.5776
  515MPD2    C3 7650   2.064   2.143  14.950  0.4150 -0.1581  0.2945
  515MPD2    C4 7651   2.032   2.160  15.083 -0.6229 -0.2999 -0.1667
  515MPD2    C5 7652   1.914   2.102  15.128  0.0042 -0.3180 -0.2723
  515MPD2     H 7653   2.008   2.073  14.754  2.0808  2.1918  1.0985
  515MPD2    H1 7654   2.093   2.222  15.147 -0.9897  0.1959 -0.3026
  515MPD2    H2 7655   1.740   1.993  15.086  0.0375  1.0505  1.4638
  515MPD2    H3 7656   1.889   2.111  15.234 -2.0352  1.0291 -0.8701
  515MPD2     N 7657   2.178   2.219  14.917 -0.1840 -0.0988 -0.4535
  515MPD2    H5 7658   2.243   2.237  14.993  0.1619  1.4147 -1.0906
  515MPD2    N1 7659   1.773   1.944  14.809 -0.3784  0.2772 -0.7178
  515MPD2    H7 7660   1.817   1.935  14.718  1.6577  1.3223  0.1527
  516TMC3    C1 7661   1.590   1.829  14.726  0.0547  0.3183 -0.2521
  516TMC3    C2 7662   1.643   1.829  14.602  0.3059  0.5127  0.2609
  516TMC3    C3 7663   1.613   1.718  14.526 -0.1803 -0.2993  0.3288
  516TMC3    C4 7664   1.507   1.728  14.770 -0.4673 -0.2056 -0.6738
  516TMC3    C5 7665   1.483   1.621  14.691 -0.2245  0.1405 -0.5086
  516TMC3    C6 7666   1.528   1.616  14.565  0.9721 -0.3275 -0.0613
  516TMC3     C 7667   1.645   1.914  14.830 -0.0596 -0.8073  0.4755
  516TMC3     O 7668   1.579   1.928  14.933  0.2089  0.3317 -0.5257
  516TMC3     H 7669   1.700   1.913  14.564 -0.2540  0.1275 -1.4600
  516TMC3    H1 7670   1.480   1.726  14.875  2.2895 -1.0641  0.0167
  516TMC3    H2 7671   1.506   1.530  14.502 -1.3328 -0.4831  0.9639
  516TMC3    C7 7672   1.382   1.521  14.727 -0.5557 -0.1277  0.1104
  516TMC3    C8 7673   1.625   1.729  14.384  0.6381  0.3341 -0.3144
  516TMC3    O1 7674   1.380   1.404  14.684  0.1925 -0.3018 -0.0332
  516TMC3    O2 7675   1.592   1.633  14.313  0.2483  0.4237  0.2591
  517MPD2     C 7676   1.607   3.784   0.087  0.2180 -0.0264 -0.1773
  517MPD2    C1 7677   1.720   3.744   0.165  0.4690 -0.4915  0.0463
  517MPD2    C2 7678   1.793   3.833   0.233 -0.2341  0.4051 -0.1104
  517MPD2    C3 7679   1.751   3.968   0.256  0.6549  0.0819  0.3164
  517MPD2    C4 7680   1.633   4.005   0.187  0.4198 -0.7323  0.1406
  517MPD2    C5 7681   1.574   3.916   0.102 -0.6240  0.3011 -0.0630
  517MPD2     H 7682   1.888   3.803   0.276  0.2052  2.0069  0.0413
  517MPD2    H1 7683   1.586   4.099   0.212 -0.4641 -1.1411 -0.0032
  517MPD2    H2 7684   1.552   3.715   0.024 -0.1652  1.5571 -1.5730
  517MPD2    H3 7685   1.488   3.944   0.043 -1.5204  1.6801  1.9266
  517MPD2     N 7686   1.817   4.058   0.347 -0.5678 -0.5268  0.3145
  517MPD2    H5 7687   1.788   4.154   0.361  0.2127 -0.4621  1.4851
  517MPD2    N1 7688   1.767   3.614   0.161  0.2646 -0.3407  0.0564
  517MPD2    H7 7689   1.838   3.594   0.231  0.0116 -0.8819  0.1608
  518TMC3    C1 7690   1.779   3.387   0.109 -1.0086  0.1403  0.1859
  518TMC3    C2 7691   1.727   3.265   0.075  0.4107 -0.6813 -0.3022
  518TMC3    C3 7692   1.812   3.156   0.064  0.0704 -0.3377 -0.6711
  518TMC3    C4 7693   1.911   3.405   0.122 -0.3824  0.3411  0.0450
  518TMC3    C5 7694   1.986   3.289   0.117 -0.5371 -0.1628  1.5402
  518TMC3    C6 7695   1.943   3.162   0.092 -0.0716  0.3326  0.4467
  518TMC3     C 7696   1.704   3.507   0.103 -0.0606 -0.0198 -0.2855
  518TMC3     O 7697   1.597   3.499   0.043 -0.0500  0.1489 -0.1148
  518TMC3     H 7698   1.624   3.247   0.049 -0.1121 -1.6177  2.3920
  518TMC3    H1 7699   1.964   3.498   0.136 -2.8528  0.7706  6.5947
  518TMC3    H2 7700   2.010   3.079   0.110  0.3615 -0.3284 -4.2845
  518TMC3    C7 7701   2.126   3.309   0.111  0.8846 -0.3353 -0.7230
  518TMC3    C8 7702   1.764   3.034  17.688  0.5182 -0.6374  0.4285
  518TMC3    O1 7703   2.163   3.422   0.149  0.2291 -0.7574  0.0480
  518TMC3    O2 7704   1.849   2.947  17.656 -0.8846  0.1250 -0.0630
  519MPD2     C 7705   3.482   1.913  14.585  0.2767  0.1920  0.1272
  519MPD2    C1 7706   3.405   1.864  14.482 -0.2236 -0.1878 -0.4266
  519MPD2    C2 7707   3.458   1.772  14.392  0.4121 -0.1749  0.1940
  519MPD2    C3 7708   3.597   1.748  14.393  0.5158  0.2956  0.4313
  519MPD2    C4 7709   3.678   1.799  14.491 -0.4273 -0.2501 -0.5227
  519MPD2    C5 7710   3.620   1.883  14.587  0.1571 -0.0297 -0.7439
  519MPD2     H 7711   3.389   1.740  14.315  0.8776  2.5562 -1.3880
  519MPD2    H1 7712   3.785   1.782  14.495 -0.5872 -1.4293 -1.1955
  519MPD2    H2 7713   3.451   1.982  14.663  0.6169  1.0411 -0.4938
  519MPD2    H3 7714   3.684   1.922  14.665  0.8336 -0.6227 -0.9982
  519MPD2     N 7715   3.657   1.675  14.294  0.2983 -0.3894 -0.5661
  519MPD2    H5 7716   3.756   1.653  14.301  0.4359  1.1836  2.9152
  519MPD2    N1 7717   3.275   1.919  14.461  0.3496  0.3049 -0.0866
  519MPD2    H7 7718   3.237   1.990  14.523 -0.2881  0.0626 -0.1942
  520TMC3    C1 7719   3.676   1.558  14.087  1.0656 -0.3852  1.0930
  520TMC3    C2 7720   3.644   1.580  13.954  0.3101  0.2043  0.3251
  520TMC3    C3 7721   3.683   1.483  13.869  0.1022  0.7169 -0.7909
  520TMC3    C4 7722   3.748   1.450  14.137 -0.0029 -0.1035  0.7036
  520TMC3    C5 7723   3.799   1.372  14.040  0.7380 -0.3364  0.0287
  520TMC3    C6 7724   3.768   1.389  13.907 -0.0280  0.0597  0.1193
  520TMC3     C 7725   3.599   1.644  14.176 -0.0769  0.6365 -0.1929
  520TMC3     O 7726   3.494   1.691  14.126  0.3528 -0.0417 -0.2112
  520TMC3     H 7727   3.602   1.674  13.920 -1.0121 -0.3633  0.3980
  520TMC3    H1 7728   3.782   1.439  14.239  0.8254  0.1234  0.4457
  520TMC3    H2 7729   3.804   1.323  13.828  2.3093 -2.0568  2.9200
  520TMC3    C7 7730   3.908   1.291  14.083 -0.5284  0.2845  0.0924
  520TMC3    C8 7731   3.643   1.499  13.731 -0.4995 -0.1982  0.4687
  520TMC3    O1 7732   3.933   1.299  14.203  0.3705  0.2250 -0.1715
  520TMC3    O2 7733   3.714   1.426  13.657 -0.1931  0.5850  0.0269
  521MPD2     C 7734   4.271   4.622   0.037 -0.2059  0.6626  0.0882
  521MPD2    C1 7735   4.217   4.536  17.633  0.3412 -0.3824 -0.0858
  521MPD2    C2 7736   4.265   4.528  17.499 -0.8651 -0.2579 -0.3735
  521MPD2    C3 7737   4.376   4.607  17.467  0.6060  0.1744 -0.4088
  521MPD2    C4 7738   4.426   4.696  17.557  0.1093 -0.3480 -0.1647
  521MPD2    C5 7739   4.370   4.711  17.684 -0.3805  0.4262 -0.0581
  521MPD2     H 7740   4.222   4.466  17.420  0.6326 -2.8502  0.8653
  521MPD2    H1 7741   4.503   0.047  17.532 -0.0523  0.4050  1.5667
  521MPD2    H2 7742   4.223   4.635   0.134 -0.2378  0.7814  0.0560
  521MPD2    H3 7743   4.412   0.062   0.064 -0.2727  0.2700  0.0403
  521MPD2     N 7744   4.412   4.594  17.332  0.2683 -0.2400 -0.4188
  521MPD2    H5 7745   4.371   4.515  17.283 -1.0405 -0.1295  0.4694
  521MPD2    N1 7746   4.108   4.455  17.678  0.5279  0.0323 -0.5083
  521MPD2    H7 7747   4.092   4.451   0.090 -0.3607 -2.3293 -0.7473
  522TMC3    C1 7748   4.556   4.593  17.144 -0.5775 -0.0571  0.3296
  522TMC3    C2 7749   4.689   4.596  17.113 -0.0234  0.1092 -0.1892
  522TMC3    C3 7750   0.013   4.513  17.010 -0.6121 -0.0861 -0.6988
  522TMC3    C4 7751   4.472   4.507  17.075  0.2836  0.2917  0.5589
  522TMC3    C5 7752   4.523   4.420  16.982  0.2607 -0.2806  0.0838
  522TMC3    C6 7753   4.657   4.423  16.942 -0.3559  0.0686 -0.4855
  522TMC3     C 7754   4.507   4.664  17.259 -0.4966 -0.2008  0.4317
  522TMC3     O 7755   4.561   0.043  17.300 -0.0493 -0.5460  0.2345
  522TMC3     H 7756   0.036   4.645  17.182  1.1388 -1.8237  0.0313
  522TMC3    H1 7757   4.365   4.511  17.094  0.3226  0.6562  0.7054
  522TMC3    H2 7758   4.688   4.352  16.867  1.1603 -0.9867  1.1436
  522TMC3    C7 7759   4.439   4.317  16.930 -0.2515 -0.1516  0.4408
  522TMC3    C8 7760   0.154   4.520  16.981  0.1294 -0.5638 -0.2541
  522TMC3    O1 7761   4.488   4.212  16.892 -0.3344 -0.1514  0.2433
  522TMC3    O2 7762   0.223   4.593  17.050 -0.3573  0.1102  0.6870
  523MPD2     C 7763   2.904   3.869  10.028 -0.5167  0.0147 -0.5076
  523MPD2    C1 7764   2.831   3.790   9.941 -0.0738  0.4682  0.2068
  523MPD2    C2 7765   2.724   3.843   9.872 -0.2458 -0.0314 -0.3254
  523MPD2    C3 7766   2.692   3.968   9.892 -0.0172  0.3384 -0.0755
  523MPD2    C4 7767   2.764   4.045   9.983 -0.2313  0.2122 -0.6580
  523MPD2    C5 7768   2.865   3.993  10.055 -0.1507  0.5028 -0.9657
  523MPD2     H 7769   2.661   3.791   9.801  0.9010  0.4360 -1.6942
  523MPD2    H1 7770   2.731   4.145  10.008 -0.0901 -0.3222  1.6481
  523MPD2    H2 7771   2.991   3.828  10.079  0.0372  0.6940 -0.9092
  523MPD2    H3 7772   2.922   4.062  10.117 -1.2399 -0.3198  0.9092
  523MPD2     N 7773   2.581   4.035   9.823  0.5747  0.2974  0.5959
  523MPD2    H5 7774   2.576   4.135   9.843  0.1369  0.5590 -0.8187
  523MPD2    N1 7775   2.875   3.659   9.923 -0.5608  0.1928  0.7055
  523MPD2    H7 7776   2.958   3.632   9.974 -0.8936  0.3788  1.3455
  524TMC3    C1 7777   2.392   4.047   9.669 -0.2505  0.1922  0.8178
  524TMC3    C2 7778   2.284   3.983   9.613 -0.6205 -0.5947 -0.3058
  524TMC3    C3 7779   2.216   4.048   9.523  0.0098 -0.1618  0.5549
  524TMC3    C4 7780   2.410   4.183   9.655  0.5259  0.3512  0.5288
  524TMC3    C5 7781   2.321   4.249   9.570  0.1676 -0.1242  0.3460
  524TMC3    C6 7782   2.218   4.183   9.508 -0.6853 -0.4401  0.0374
  524TMC3     C 7783   2.479   3.968   9.751 -0.3252 -0.1138  0.4841
  524TMC3     O 7784   2.440   3.851   9.752  0.2538 -0.4644 -0.4128
  524TMC3     H 7785   2.270   3.875   9.609 -0.2145 -0.7302  2.2843
  524TMC3    H1 7786   2.497   4.231   9.698  1.5562  0.6044 -1.8414
  524TMC3    H2 7787   2.171   4.228   9.421 -0.4257  0.2472  0.2521
  524TMC3    C7 7788   2.349   4.392   9.553  0.2012  0.1547  0.0972
  524TMC3    C8 7789   2.128   3.971   9.447  0.0439  0.1245 -0.0639
  524TMC3    O1 7790   2.440   4.435   9.622  0.2004 -0.0680 -0.0205
  524TMC3    O2 7791   2.156   3.851   9.436  0.0932 -0.2192 -0.0005
  525MPD2     C 7792   0.052   1.080  14.572  0.2390 -0.0530  0.6205
  525MPD2    C1 7793   0.169   1.087  14.652 -0.4526 -0.4296 -0.1910
  525MPD2    C2 7794   0.264   1.185  14.626  0.0206  0.6627  0.4600
  525MPD2    C3 7795   0.233   1.295  14.541  0.1787 -0.0540 -0.1741
  525MPD2    C4 7796   0.114   1.282  14.460  0.4543 -0.3819 -0.0141
  525MPD2    C5 7797   0.037   1.166  14.470 -0.0615 -0.4558 -0.0220
  525MPD2     H 7798   0.341   1.195  14.701 -0.4199  1.4186  0.8150
  525MPD2    H1 7799   0.074   1.356  14.391  0.3531  1.1105  1.6394
  525MPD2    H2 7800   4.703   0.998  14.588  0.3307 -0.1781  0.3831
  525MPD2    H3 7801   4.669   1.142  14.414  0.8184 -0.8986 -1.2486
  525MPD2     N 7802   0.320   1.408  14.526 -0.6086 -0.4537  0.3693
  525MPD2    H5 7803   0.283   1.491  14.480  1.9848  0.4218 -0.1494
  525MPD2    N1 7804   0.203   0.987  14.744 -0.5661 -0.5523 -0.4777
  525MPD2    H7 7805   0.300   0.981  14.772 -1.1947 -0.7923  1.6096
  526TMC3    C1 7806   0.152   0.844  14.925  0.4248 -0.0228  0.5219
  526TMC3    C2 7807   0.076   0.854  15.039  0.4522  0.7944 -0.9843
  526TMC3    C3 7808   0.124   0.797  15.151  1.0069 -0.6793  0.1321
  526TMC3    C4 7809   0.272   0.789  14.922 -0.0021  0.2514 -0.8122
  526TMC3    C5 7810   0.317   0.732  15.045 -0.6075  0.4150  0.8351
  526TMC3    C6 7811   0.243   0.735  15.158 -0.2615  0.1905 -0.0248
  526TMC3     C 7812   0.103   0.920  14.808  0.0716 -0.2178  0.4019
  526TMC3     O 7813   4.701   0.953  14.811 -0.1876  0.4217 -0.2770
  526TMC3     H 7814   4.714   0.921  15.029 -1.1672 -0.9130  1.0843
  526TMC3    H1 7815   0.333   0.786  14.833  3.4949  0.4101  1.5406
  526TMC3    H2 7816   0.273   0.694  15.254  0.2704 -0.3576 -0.4253
  526TMC3    C7 7817   0.449   0.692  15.062 -0.2658  0.3023 -0.3943
  526TMC3    C8 7818   0.046   0.801  15.275 -0.4657 -0.2957  1.3449
  526TMC3    O1 7819   0.482   0.644  15.170 -0.1685 -1.0047  0.1501
  526TMC3    O2 7820   0.095   0.742  15.371 -0.5459  0.4288 -0.1149
  527MPD2     C 7821   3.698   4.088   1.855 -0.3947 -0.0954  0.3495
  527MPD2    C1 7822   3.782   3.983   1.841  0.8585 -0.0516 -0.1389
  527MPD2    C2 7823   3.807   3.927   1.715 -0.5242 -0.4358  0.3091
  527MPD2    C3 7824   3.726   3.959   1.615  0.4333 -0.1771 -0.5350
  527MPD2    C4 7825   3.623   4.052   1.632 -0.0871 -0.4282  0.0639
  527MPD2    C5 7826   3.611   4.118   1.750  0.1116  0.4159  0.2187
  527MPD2     H 7827   3.872   3.843   1.695 -0.3839 -0.3132  0.2524
  527MPD2    H1 7828   3.546   4.071   1.558  1.1201 -0.0619 -1.0973
  527MPD2    H2 7829   3.684   4.139   1.950  3.3845 -1.8424  1.8672
  527MPD2    H3 7830   3.529   4.186   1.771 -2.9479 -2.6940 -1.5853
  527MPD2     N 7831   3.750   3.899   1.486 -0.4220 -1.0727 -0.6670
  527MPD2    H5 7832   3.827   3.834   1.477 -1.2571 -2.0185 -0.8875
  527MPD2    N1 7833   3.867   3.941   1.937  0.2517  0.0012  0.8785
  527MPD2    H7 7834   3.943   3.875   1.924  0.8540  0.7197  0.7934
  528TMC3    C1 7835   3.972   3.926   2.147 -0.2291  0.1054 -0.0981
  528TMC3    C2 7836   4.017   3.997   2.252  0.1473 -1.1091  0.5526
  528TMC3    C3 7837   4.130   3.957   2.319 -0.5032 -0.4948 -0.0175
  528TMC3    C4 7838   4.025   3.806   2.105 -0.5255  0.0001 -0.3989
  528TMC3    C5 7839   4.129   3.760   2.184 -0.1602 -0.4215 -0.6239
  528TMC3    C6 7840   4.192   3.840   2.280  0.0983  0.2216 -0.4951
  528TMC3     C 7841   3.866   3.985   2.067 -0.3513 -0.0280 -1.3021
  528TMC3     O 7842   3.809   4.081   2.114 -0.4347 -0.2221 -0.0871
  528TMC3     H 7843   3.962   4.087   2.279 -0.8449 -0.9657 -1.9188
  528TMC3    H1 7844   3.975   3.742   2.033 -0.2181  0.6920 -1.2291
  528TMC3    H2 7845   4.285   3.812   2.329  0.9007 -2.8635 -3.8086
  528TMC3    C7 7846   4.153   3.620   2.177 -0.1956 -0.3874  0.0698
  528TMC3    C8 7847   4.195   4.059   2.398 -0.0291  0.4864 -0.1586
  528TMC3    O1 7848   4.055   3.550   2.134 -0.0483  0.0152  0.4338
  528TMC3    O2 7849   4.151   4.170   2.373  0.2690 -0.2341  0.8607
  529MPD2     C 7850   4.705   1.947   0.815  0.9612 -0.8429 -0.4301
  529MPD2    C1 7851   0.126   1.961   0.807 -0.0078 -0.2287  0.6341
  529MPD2    C2 7852   0.167   2.064   0.722 -0.2143  0.8328 -0.9458
  529MPD2    C3 7853   0.085   2.140   0.638 -0.5951 -0.3502 -0.3659
  529MPD2    C4 7854   4.670   2.115   0.641  0.5781  0.4518  0.2921
  529MPD2    C5 7855   4.623   2.020   0.737 -0.1135 -0.4002 -0.3717
  529MPD2     H 7856   0.273   2.088   0.724  0.3465 -1.6493  0.0486
  529MPD2    H1 7857   4.602   2.160   0.570  2.3777 -1.1491 -2.4000
  529MPD2    H2 7858   4.658   1.884   0.890  0.5715  0.0596  0.0768
  529MPD2    H3 7859   4.518   1.992   0.747  0.2922 -1.5805  0.5775
  529MPD2     N 7860   0.134   2.226   0.536  0.2037  0.0612  0.7193
  529MPD2    H5 7861   0.070   2.265   0.468 -0.5299 -0.3774  1.1642
  529MPD2    N1 7862   0.223   1.897   0.889  0.2485  0.6018  0.2796
  529MPD2    H7 7863   0.319   1.929   0.880  0.0266  1.3661  0.6831
  530TMC3    C1 7864   0.305   1.738   1.049  0.5746 -0.0355 -0.1153
  530TMC3    C2 7865   0.400   1.832   1.069  0.1071  0.1609 -0.1483
  530TMC3    C3 7866   0.458   1.826   1.192  0.2069 -0.4812 -0.1536
  530TMC3    C4 7867   0.263   1.651   1.143  0.2955 -0.1450 -0.0831
  530TMC3    C5 7868   0.324   1.650   1.267  0.7381  0.2111 -0.2568
  530TMC3    C6 7869   0.419   1.743   1.296  0.2629 -0.2145  0.1978
  530TMC3     C 7870   0.204   1.778   0.951 -0.3365 -0.2606  0.2350
  530TMC3     O 7871   0.100   1.720   0.963  0.2049 -0.0043 -0.4631
  530TMC3     H 7872   0.436   1.906   0.998  0.9241  0.8483  0.9600
  530TMC3    H1 7873   0.182   1.582   1.120 -1.2053  2.1535 -1.6624
  530TMC3    H2 7874   0.469   1.747   1.392  1.7407 -1.5161 -0.5086
  530TMC3    C7 7875   0.301   1.539   1.365  0.2121 -0.2518 -0.2189
  530TMC3    C8 7876   0.557   1.925   1.214  0.8306 -0.6366 -0.2810
  530TMC3    O1 7877   0.212   1.465   1.333  0.5730 -0.0728 -0.1229
  530TMC3    O2 7878   0.552   2.032   1.156 -0.0827 -0.1095 -0.8445
  531MPD2     C 7879   0.017   0.272  13.133 -0.4355 -0.3748  0.0193
  531MPD2    C1 7880   4.665   0.354  13.215  0.6888  0.4335  0.3548
  531MPD2    C2 7881   4.557   0.421  13.148  0.3857 -0.6426  0.3277
  531MPD2    C3 7882   4.526   0.404  13.013  0.3987  0.4649 -0.6965
  531MPD2    C4 7883   4.611   0.325  12.939 -0.5532  0.5329  0.1910
  531MPD2    C5 7884   4.715   0.257  13.001  0.2342  0.8993  0.8444
  531MPD2     H 7885   4.501   0.498  13.200 -3.3202 -0.9624 -3.1403
  531MPD2    H1 7886   4.606   0.301  12.834 -0.5640  2.7285 -0.3059
  531MPD2    H2 7887   0.095   0.222  13.190 -0.7345 -2.3787 -1.3698
  531MPD2    H3 7888   0.049   0.175  12.956 -0.6248  1.7211 -1.6801
  531MPD2     N 7889   4.412   0.476  12.959  0.5748  0.2721 -0.3208
  531MPD2    H5 7890   4.355   0.517  13.033  2.7860  3.3464 -0.2950
  531MPD2    N1 7891   4.701   0.367  13.351  0.3062  0.7313 -0.5104
  531MPD2    H7 7892   0.064   0.318  13.379  1.1189  0.9648 -2.5233
  532TMC3    C1 7893   4.639   0.364  13.579  0.6919 -0.5694 -0.3598
  532TMC3    C2 7894   4.525   0.385  13.651  0.9594 -0.0412 -0.3512
  532TMC3    C3 7895   4.468   0.293  13.730  0.1303  0.2204  0.0862
  532TMC3    C4 7896   4.709   0.244  13.578  0.7327 -0.3343  0.4603
  532TMC3    C5 7897   4.644   0.152  13.662  0.3240 -0.0846 -0.2344
  532TMC3    C6 7898   4.524   0.173  13.724  0.0650 -0.0196 -0.7261
  532TMC3     C 7899   4.617   0.421  13.447 -0.1951  0.2704 -0.3076
  532TMC3     O 7900   4.510   0.476  13.434 -0.2512  0.0704 -0.1062
  532TMC3     H 7901   4.488   0.487  13.652  3.3710  0.8280 -0.7844
  532TMC3    H1 7902   0.080   0.222  13.526 -0.2935 -2.6044 -0.4166
  532TMC3    H2 7903   4.476   0.094  13.781  0.1454  0.6383  0.2528
  532TMC3    C7 7904   4.670   0.014  13.645 -0.6249  0.2598  0.1414
  532TMC3    C8 7905   4.326   0.284  13.699  0.2872  0.2717 -0.4963
  532TMC3    O1 7906   4.615   4.653  13.713 -0.3501  0.0153  0.0990
  532TMC3    O2 7907   4.247   0.264  13.795 -0.1466  0.2156  0.0267
  533TMC3    C1 7908   0.476   1.556  14.586  0.1705  0.2169  0.2409
  533TMC3    C2 7909   0.610   1.578  14.603 -0.2947  0.0533  0.1592
  533TMC3    C3 7910   0.659   1.645  14.716  0.4043  0.2590 -0.3679
  533TMC3    C4 7911   0.388   1.619  14.670  0.5631 -0.6388  0.0553
  533TMC3    C5 7912   0.436   1.687  14.773 -1.0391  0.5010 -0.1816
  533TMC3    C6 7913   0.570   1.699  14.806  0.1904  0.3573 -0.0338
  533TMC3     C 7914   0.444   1.417  14.581 -0.9090 -0.0221  0.3509
  533TMC3     O 7915   0.512   1.341  14.647  0.2287  0.5110 -0.1134
  533TMC3     H 7916   0.677   1.515  14.545 -0.3448 -0.3130  0.4929
  533TMC3    H1 7917   0.282   1.607  14.653  0.5703 -1.2167  0.4481
  533TMC3    H2 7918   0.615   1.762  14.882 -2.4029  1.4906  0.5662
  533TMC3    C7 7919   0.341   1.704  14.882 -0.0929 -0.0465  0.1903
  533TMC3    C8 7920   0.791   1.712  14.715  0.3980  0.2055  0.3937
  533TMC3    O1 7921   0.259   1.611  14.899  0.3025 -0.5414 -0.2748
  533TMC3    O2 7922   0.818   1.803  14.793 -0.5267 -0.1624  0.1331
  534MPD2     C 7923   3.214   2.502   2.054  0.0380  0.7218 -0.1169
  534MPD2    C1 7924   3.200   2.626   1.989  0.6311 -0.6987 -0.5850
  534MPD2    C2 7925   3.099   2.646   1.890 -0.2415  1.1128  0.0802
  534MPD2    C3 7926   3.013   2.539   1.868  0.4396 -0.3918  0.7461
  534MPD2    C4 7927   3.012   2.427   1.950  0.5209 -0.1762  0.5192
  534MPD2    C5 7928   3.112   2.410   2.046 -0.1925  0.3250  0.3537
  534MPD2     H 7929   3.091   2.740   1.837  1.0122  0.2615 -1.6045
  534MPD2    H1 7930   2.939   2.347   1.942  3.5126 -2.8753  0.2279
  534MPD2    H2 7931   3.284   2.486   2.134  1.7688  1.7133 -1.4325
  534MPD2    H3 7932   3.110   2.322   2.108  1.4630  0.2766  0.3313
  534MPD2     N 7933   2.913   2.540   1.765  0.2942  0.1138 -0.3571
  534MPD2    H5 7934   2.865   2.454   1.743 -2.4818  1.4425  0.4439
  534MPD2    N1 7935   3.293   2.729   2.015  0.5169 -0.2590 -0.1055
  534MPD2    H7 7936   3.377   2.698   2.063  0.7022  0.8557  0.2760
  535TMC3    C1 7937   2.824   2.584   1.551 -0.0113  0.3451  0.8707
  535TMC3    C2 7938   2.758   2.466   1.573 -0.9440 -0.5451  0.3313
  535TMC3    C3 7939   2.763   2.371   1.470 -0.4372  0.2612 -0.2671
  535TMC3    C4 7940   2.890   2.609   1.432  0.6588 -1.0863 -0.3623
  535TMC3    C5 7941   2.880   2.520   1.332 -0.2065  0.7655  0.0333
  535TMC3    C6 7942   2.828   2.395   1.354 -0.6815 -0.4982 -1.1130
  535TMC3     C 7943   2.908   2.635   1.664 -1.1185 -0.2834 -0.1837
  535TMC3     O 7944   2.955   2.749   1.653  0.0400 -0.3734 -0.0018
  535TMC3     H 7945   2.682   2.461   1.649 -0.7977 -1.0999  0.4396
  535TMC3    H1 7946   2.949   2.700   1.432 -3.2044  1.4349 -2.9271
  535TMC3    H2 7947   2.821   2.333   1.266  0.4633  2.4275 -3.2924
  535TMC3    C7 7948   2.967   2.543   1.214 -0.2759  0.3918 -0.3113
  535TMC3    C8 7949   2.637   2.294   1.457  0.2833 -0.6300 -0.5071
  535TMC3    O1 7950   3.020   2.442   1.172 -0.7836  0.2858 -0.4465
  535TMC3    O2 7951   2.544   2.316   1.531  0.3164 -0.2054  0.4382
  536MPD2     C 7952   2.063   0.561  16.690  0.6490  0.2655  0.9596
  536MPD2    C1 7953   1.973   0.650  16.748 -0.1469 -0.4183  0.1436
  536MPD2    C2 7954   1.871   0.713  16.671 -0.2302  0.8361  0.3530
  536MPD2    C3 7955   1.880   0.702  16.531  0.2174  0.1112  0.3043
  536MPD2    C4 7956   1.983   0.623  16.473 -0.5910  0.5563 -0.0758
  536MPD2    C5 7957   2.063   0.544  16.552  0.3787  0.6853 -0.4784
  536MPD2     H 7958   1.793   0.775  16.714  1.8788  1.9897  2.5203
  536MPD2    H1 7959   1.979   0.616  16.365 -1.7755  1.7166 -0.1003
  536MPD2    H2 7960   2.139   0.512  16.750  0.8710  0.1676  0.6005
  536MPD2    H3 7961   2.137   0.480  16.506 -1.0947 -1.0647 -0.3909
  536MPD2     N 7962   1.785   0.760  16.441 -0.3189 -0.1104 -0.5509
  536MPD2    H5 7963   1.811   0.757  16.343 -0.0765  0.5086 -0.5096
  536MPD2    N1 7964   1.977   0.684  16.884 -0.0128 -0.4835  0.2015
  536MPD2    H7 7965   1.918   0.757  16.924  2.2840  1.7714 -0.5778
  537TMC3    C1 7966   2.064   0.688  17.102 -0.2664 -0.1395  0.2960
  537TMC3    C2 7967   2.041   0.822  17.109 -0.2032  0.4924  0.0968
  537TMC3    C3 7968   2.078   0.887  17.221  0.1827 -0.5042 -0.2904
  537TMC3    C4 7969   2.104   0.610  17.208  0.3411 -0.2462 -0.1147
  537TMC3    C5 7970   2.137   0.682  17.319  0.8238  0.0386  1.0888
  537TMC3    C6 7971   2.128   0.822  17.331  0.4644 -0.4327  0.5202
  537TMC3     C 7972   2.059   0.615  16.977  0.0380  0.0072  0.1867
  537TMC3     O 7973   2.105   0.501  16.976  0.4162  0.7039 -0.1623
  537TMC3     H 7974   1.974   0.859  17.031 -0.4936 -1.9783 -0.8224
  537TMC3    H1 7975   2.104   0.502  17.199  0.2031 -0.2773  0.2460
  537TMC3    H2 7976   2.151   0.884  17.418 -0.2829 -1.6844  1.6170
  537TMC3    C7 7977   2.161   0.607  17.447  0.2103 -0.3153  0.2860
  537TMC3    C8 7978   2.054   1.033  17.231  1.2753  0.0482  0.1103
  537TMC3    O1 7979   2.201   0.673  17.545 -0.0805 -0.0541 -0.1850
  537TMC3    O2 7980   2.084   1.091  17.335  0.6870  0.2305 -0.4119
  538TMC3    C1 7981   3.083   3.962  10.808  0.2115 -0.0317 -0.0399
  538TMC3    C2 7982   3.102   3.849  10.731 -0.6597 -0.1009 -0.4611
  538TMC3    C3 7983   3.048   3.844  10.607 -0.2010  0.4590 -0.4798
  538TMC3    C4 7984   3.009   4.070  10.769 -0.4405 -0.3734 -0.7514
  538TMC3    C5 7985   2.941   4.046  10.649 -0.2985  0.3283  0.4765
  538TMC3    C6 7986   2.959   3.937  10.562 -0.3061 -0.1542  0.8674
  538TMC3     C 7987   3.144   3.968  10.934  0.7150 -0.3159 -0.1041
  538TMC3     O 7988   3.176   4.079  10.971 -0.3827  0.2812 -0.0591
  538TMC3     H 7989   3.142   3.763  10.784 -0.5548  0.4059  0.2792
  538TMC3    H1 7990   2.986   4.143  10.845  2.0258  1.0394 -1.3707
  538TMC3    H2 7991   2.908   3.930  10.466  2.0766 -1.7176 -0.2939
  538TMC3    C7 7992   2.811   4.113  10.634 -0.1154  0.5373 -0.2899
  538TMC3    C8 7993   3.101   3.749  10.508 -0.4520 -0.6504  0.0152
  538TMC3    O1 7994   2.732   4.064  10.551  0.2147  0.0995 -0.0564
  538TMC3    O2 7995   3.039   3.711  10.409  0.0513  0.0038 -0.3977
  539MPD2     C 7996   2.446   2.670  11.506 -0.0525  0.2339 -0.2428
  539MPD2    C1 7997   2.501   2.780  11.444  0.4086  0.0590 -0.4523
  539MPD2    C2 7998   2.438   2.907  11.450  0.1027 -0.1747 -0.4167
  539MPD2    C3 7999   2.305   2.910  11.480  0.1566 -0.0136 -0.1746
  539MPD2    C4 8000   2.243   2.796  11.530  0.5906 -0.3316 -0.7815
  539MPD2    C5 8001   2.313   2.677  11.553  0.0940  0.6802  0.1752
  539MPD2     H 8002   2.501   2.994  11.436 -0.0253  0.1310  0.9201
  539MPD2    H1 8003   2.136   2.792  11.543  0.5830  1.5616 -0.2992
  539MPD2    H2 8004   2.486   2.569  11.504  0.5640  0.4911 -0.8908
  539MPD2    H3 8005   2.258   2.589  11.584  0.1299  0.8348  0.6864
  539MPD2     N 8006   2.224   3.031  11.464  0.2608 -0.2251 -0.1925
  539MPD2    H5 8007   2.125   3.015  11.479  0.2372 -0.8234 -0.9335
  539MPD2    N1 8008   2.632   2.778  11.386  0.2263 -0.1313  0.0871
  539MPD2    H7 8009   2.665   2.869  11.356 -0.9218  0.6343  1.1347
  540TMC3    C1 8010   2.145   3.239  11.395  0.3954 -0.0189 -0.5174
  540TMC3    C2 8011   2.175   3.342  11.311 -0.1824  0.5998 -0.4582
  540TMC3    C3 8012   2.093   3.450  11.319  0.1533  0.0115  0.0259
  540TMC3    C4 8013   2.064   3.253  11.506  0.5579 -0.1164 -0.1611
  540TMC3    C5 8014   2.002   3.369  11.516 -0.0361  0.2361 -0.0479
  540TMC3    C6 8015   2.001   3.464  11.420 -0.1251  0.0210  0.1637
  540TMC3     C 8016   2.262   3.153  11.406  0.3783 -1.4596 -0.2768
  540TMC3     O 8017   2.364   3.183  11.348  0.4495  0.4130  0.0308
  540TMC3     H 8018   2.246   3.329  11.230 -0.0766 -1.2114 -0.0540
  540TMC3    H1 8019   2.043   3.171  11.574  1.8656 -0.9572 -0.7733
  540TMC3    H2 8020   1.947   3.556  11.437  0.7368  0.8700 -1.6899
  540TMC3    C7 8021   1.872   3.367  11.588  0.0073 -0.3201  0.5117
  540TMC3    C8 8022   2.128   3.570  11.238 -0.0168 -0.0859 -0.1109
  540TMC3    O1 8023   1.775   3.437  11.560  0.1256 -0.2712  0.2533
  540TMC3    O2 8024   2.155   3.671  11.301 -0.1906 -0.2918  0.4830
  541MPD2     C 8025   0.915   0.529  12.799  0.2329 -0.1847  0.1851
  541MPD2    C1 8026   0.947   0.413  12.730  0.6487 -0.7567 -0.2047
  541MPD2    C2 8027   0.923   0.402  12.595 -0.6400 -0.4551  0.5796
  541MPD2    C3 8028   0.871   0.505  12.523  0.5050 -0.5197  0.2135
  541MPD2    C4 8029   0.847   0.624  12.592  0.3840 -0.2648 -0.2211
  541MPD2    C5 8030   0.873   0.637  12.726 -0.2750  0.4439  0.4467
  541MPD2     H 8031   0.924   0.305  12.547 -0.3585 -0.0470 -0.2376
  541MPD2    H1 8032   0.797   0.705  12.541  1.8526  0.3836 -0.6258
  541MPD2    H2 8033   0.915   0.537  12.908  1.1688 -0.5650  0.2112
  541MPD2    H3 8034   0.844   0.730  12.774 -1.4044 -0.1568  0.9375
  541MPD2     N 8035   0.840   0.495  12.387 -0.1412  0.1795  0.4664
  541MPD2    H5 8036   0.813   0.584  12.346 -0.3031  0.6563  1.6062
  541MPD2    N1 8037   0.992   0.297  12.806 -0.0664 -0.7422  0.3615
  541MPD2    H7 8038   0.971   0.310  12.904  1.0321 -0.6976  0.5806
  542TMC3    C1 8039   0.801   0.396  12.169 -0.2949  0.1132 -0.3816
  542TMC3    C2 8040   0.821   0.277  12.102  0.7203  0.7319 -0.0951
  542TMC3    C3 8041   0.737   0.250  11.993 -0.7758 -0.6215  0.3712
  542TMC3    C4 8042   0.711   0.490  12.137 -0.2480  0.5304  0.3695
  542TMC3    C5 8043   0.634   0.469  12.028 -0.7329  0.2075 -0.5146
  542TMC3    C6 8044   0.644   0.350  11.955 -0.0972  0.0426  0.6859
  542TMC3     C 8045   0.840   0.384  12.309 -0.1443  0.1201  0.3710
  542TMC3     O 8046   0.870   0.264  12.328  0.7475  0.0128  0.3078
  542TMC3     H 8047   0.907   0.215  12.125  1.0949  0.7793 -1.3762
  542TMC3    H1 8048   0.692   0.581  12.193 -1.7162  0.8126 -0.5749
  542TMC3    H2 8049   0.565   0.311  11.892  0.3509  2.4529 -1.3675
  542TMC3    C7 8050   0.536   0.574  11.999  0.5087  0.6259  0.0159
  542TMC3    C8 8051   0.772   0.142  11.904 -0.4691  0.4555 -0.1181
  542TMC3    O1 8052   0.543   0.675  12.070 -0.2226 -0.0793 -0.4670
  542TMC3    O2 8053   0.740   0.148  11.786  0.1643 -0.2661  0.5136
  543TMC3    C1 8054   0.049   1.617  17.332 -0.5331  0.3054 -0.1361
  543TMC3    C2 8055   0.053   1.485  17.365 -0.1022 -0.5630  0.3060
  543TMC3    C3 8056   4.718   1.443  17.482  0.9167  0.5348 -0.5228
  543TMC3    C4 8057   4.699   1.707  17.405  0.7347  0.1080  0.4236
  543TMC3    C5 8058   4.651   1.665  17.528 -0.3272 -0.2413 -0.2741
  543TMC3    C6 8059   4.659   1.535  17.565 -0.2819 -0.4571  0.0135
  543TMC3     C 8060   0.105   1.666  17.212 -0.5514 -0.0159  0.1783
  543TMC3     O 8061   0.092   1.779  17.182  0.4183  0.3116  0.6099
  543TMC3     H 8062   0.099   1.402  17.313 -1.0671 -2.0161  1.7640
  543TMC3    H1 8063   4.695   1.812  17.379 -2.2300  0.3511  1.7567
  543TMC3    H2 8064   4.607   1.504  17.655 -1.1172  0.1348 -0.2696
  543TMC3    C7 8065   4.540   1.750  17.584  0.4414  0.0823 -0.2889
  543TMC3    C8 8066   0.019   1.318  17.543  0.0563 -0.0441  0.1517
  543TMC3    O1 8067   4.555   1.867  17.549 -0.2151 -0.1566 -0.0755
  543TMC3    O2 8068   4.654   1.275  17.622 -0.2042  0.3443  0.0882
  544MPD2     C 8069   0.240   0.869  17.614  0.5265  0.1543 -0.1421
  544MPD2    C1 8070   0.315   0.941  17.527  0.0389  0.7013  0.0029
  544MPD2    C2 8071   0.282   1.069  17.495  0.4046 -0.0001  0.4034
  544MPD2    C3 8072   0.179   1.130  17.556 -0.1794 -0.7815  0.2541
  544MPD2    C4 8073   0.119   1.070  17.662  0.4251  0.4526 -0.2665
  544MPD2    C5 8074   0.153   0.940   0.005 -0.4253 -0.2828  0.4234
  544MPD2     H 8075   0.330   1.111  17.407  2.0971  1.4521  1.9944
  544MPD2    H1 8076   0.055   1.133   0.035  0.4786 -0.8240  1.0997
  544MPD2    H2 8077   0.258   0.767  17.647  3.5882  1.2323  1.6068
  544MPD2    H3 8078   0.113   0.888   0.091 -0.1789 -0.0772  0.6610
  544MPD2     N 8079   0.138   1.261  17.508  0.3689 -0.1365 -0.0094
  544MPD2    H5 8080   0.194   1.311  17.439  0.1619  1.8046  1.2335
  544MPD2    N1 8081   0.411   0.864  17.467  0.3261 -0.4957  0.5011
  544MPD2    H7 8082   0.411   0.762  17.474  1.4577 -0.5262  0.0307
  545TMC3    C1 8083   0.609   0.796  17.354 -0.0961  0.5099  0.2288
  545TMC3    C2 8084   0.641   0.790  17.219 -0.3255 -0.1141  0.0818
  545TMC3    C3 8085   0.695   0.676  17.172 -0.2822 -0.2054 -0.2799
  545TMC3    C4 8086   0.590   0.670  17.419  0.0246  0.7741 -0.1521
  545TMC3    C5 8087   0.618   0.551  17.353  0.3674  0.1467 -0.4733
  545TMC3    C6 8088   0.677   0.559  17.233  0.0417 -0.2971  0.6977
  545TMC3     C 8089   0.521   0.910  17.393 -0.5310  0.2255  0.4450
  545TMC3     O 8090   0.543   1.021  17.352 -0.2554 -0.3204  0.1407
  545TMC3     H 8091   0.652   0.883  17.164  1.2835  1.0492  2.3849
  545TMC3    H1 8092   0.551   0.662  17.520 -0.7427  0.5760 -0.4559
  545TMC3    H2 8093   0.707   0.460  17.201 -3.2774 -0.7896 -0.8911
  545TMC3    C7 8094   0.611   0.423  17.426  0.0568 -0.1181  0.4410
  545TMC3    C8 8095   0.825   0.688  17.099  0.3841  0.0146 -0.1982
  545TMC3    O1 8096   0.573   0.326  17.364 -0.3135 -0.1372  0.0459
  545TMC3    O2 8097   0.876   0.799  17.098 -0.0424  0.1006  0.5415
  546MPD2     C 8098   1.712   1.654   0.098  0.3427  0.3989  0.1699
  546MPD2    C1 8099   1.708   1.629  17.650  0.3441 -0.0729 -0.1448
  546MPD2    C2 8100   1.718   1.747  17.572  0.5432 -0.2764 -0.1840
  546MPD2    C3 8101   1.731   1.869  17.637 -0.2553 -1.0222 -0.1308
  546MPD2    C4 8102   1.725   1.890   0.083 -0.4995 -0.3554  0.4717
  546MPD2    C5 8103   1.722   1.780   0.157 -0.6683  0.0228 -0.2240
  546MPD2     H 8104   1.708   1.734  17.465  1.0640  0.3340 -0.3080
  546MPD2    H1 8105   1.717   1.988   0.128  1.2570  0.8445 -1.8529
  546MPD2    H2 8106   1.690   1.574   0.167  0.5342 -0.7153 -1.0730
  546MPD2    H3 8107   1.714   1.794   0.264 -0.5423 -3.3388  0.2117
  546MPD2     N 8108   1.738   1.991  17.561 -0.0200  0.4645 -0.1269
  546MPD2    H5 8109   1.758   2.078  17.609  0.9809  0.0447  0.2144
  546MPD2    N1 8110   1.679   1.503  17.598 -0.1728 -0.1655 -0.3589
  546MPD2    H7 8111   1.641   1.435  17.663 -0.3282  0.5613  0.3131
  547TMC3    C1 8112   1.614   1.338  17.437 -0.3200  0.0684  0.7148
  547TMC3    C2 8113   1.595   1.302  17.308 -0.1138  0.1410 -0.0437
  547TMC3    C3 8114   1.520   1.197  17.280  0.1534 -0.4551  0.0731
  547TMC3    C4 8115   1.564   1.258  17.540 -0.7284 -0.0894  0.7130
  547TMC3    C5 8116   1.498   1.149  17.506 -0.2546  0.5980 -0.1551
  547TMC3    C6 8117   1.456   1.128  17.376  0.4194  0.3615 -0.2939
  547TMC3     C 8118   1.672   1.468  17.464  0.2677  0.4240  0.4408
  547TMC3     O 8119   1.687   1.544  17.371 -0.3038 -0.0653  0.2417
  547TMC3     H 8120   1.625   1.368  17.228  1.8410 -1.3785 -0.5588
  547TMC3    H1 8121   1.591   1.278  17.643 -0.8927  2.5477  0.2439
  547TMC3    H2 8122   1.404   1.036  17.352 -0.7184  1.6435 -2.6895
  547TMC3    C7 8123   1.491   1.059  17.616  0.0977 -1.6043  0.5567
  547TMC3    C8 8124   1.474   1.180  17.148  0.1537  0.0686  0.0377
  547TMC3    O1 8125   1.477   1.093   0.044  0.4306 -0.6319 -0.2655
  547TMC3    O2 8126   1.544   1.214  17.055  0.2074 -0.6636  0.4183
  548MPD2     C 8127   1.318   1.951  11.946  0.1792 -0.3346 -1.0625
  548MPD2    C1 8128   1.355   1.891  12.063 -0.3849  0.2150 -0.0664
  548MPD2    C2 8129   1.476   1.822  12.069 -0.7074  0.0520 -0.4122
  548MPD2    C3 8130   1.553   1.808  11.955 -0.3448  0.4804  0.3832
  548MPD2    C4 8131   1.516   1.886  11.849  0.1658  0.0640  0.6486
  548MPD2    C5 8132   1.400   1.951  11.844 -0.2022 -0.1540  0.5676
  548MPD2     H 8133   1.509   1.780  12.163 -0.9364 -0.9699 -0.7940
  548MPD2    H1 8134   1.570   1.879  11.755 -2.7716  0.0331 -1.0134
  548MPD2    H2 8135   1.216   1.989  11.940 -0.1642 -0.5373  3.4821
  548MPD2    H3 8136   1.365   1.983  11.747  0.6575  1.6937  0.8566
  548MPD2     N 8137   1.675   1.741  11.967  0.1577 -0.0596  0.2036
  548MPD2    H5 8138   1.712   1.710  12.056  3.8154  0.4115 -1.1525
  548MPD2    N1 8139   1.263   1.898  12.175 -0.0521  0.2336  0.5012
  548MPD2    H7 8140   1.180   1.953  12.157 -0.8608 -1.9617 -2.4642
  549TMC3    C1 8141   1.174   1.847  12.378 -0.7841 -0.4073  0.4934
  549TMC3    C2 8142   1.106   1.970  12.383  0.0851 -0.6699  0.4645
  549TMC3    C3 8143   0.974   1.961  12.413  0.5303 -0.4404 -0.2314
  549TMC3    C4 8144   1.114   1.730  12.418 -0.0855  0.0470 -0.0932
  549TMC3    C5 8145   0.985   1.728  12.458  0.1870 -0.4632 -0.5165
  549TMC3    C6 8146   0.909   1.845  12.451 -0.3447  0.2133 -0.2752
  549TMC3     C 8147   1.284   1.826  12.292  0.2447  0.2666  0.1899
  549TMC3     O 8148   1.358   1.734  12.320  0.4703  0.4160  0.1763
  549TMC3     H 8149   1.158   2.061  12.355 -0.9996 -0.9494 -2.5288
  549TMC3    H1 8150   1.152   1.633  12.385  0.6368  0.4101 -0.3258
  549TMC3    H2 8151   0.802   1.845  12.470 -0.4810  0.9720 -1.0574
  549TMC3    C7 8152   0.905   1.611  12.437  0.1589  0.7942  0.1224
  549TMC3    C8 8153   0.901   2.077  12.374 -0.1651  0.2291 -0.1293
  549TMC3    O1 8154   0.786   1.627  12.436 -0.1165 -0.1293  0.1104
  549TMC3    O2 8155   0.807   2.067  12.296 -0.3922  0.1973  0.3143
  550TMC3    C1 8156   0.228   4.402  12.143 -0.1907 -0.5493  1.1417
  550TMC3    C2 8157   0.221   4.424  12.278  0.2264 -1.0274 -0.6380
  550TMC3    C3 8158   0.100   4.472  12.330 -0.2185  0.7259 -0.7544
  550TMC3    C4 8159   0.119   4.422  12.060 -0.5362  0.1747  0.3792
  550TMC3    C5 8160   0.002   4.451  12.121 -0.6238 -0.0206 -0.0288
  550TMC3    C6 8161   4.713   4.463  12.251  0.5505 -0.2078 -0.1353
  550TMC3     C 8162   0.339   4.322  12.106  1.1797 -0.3930 -0.1692
  550TMC3     O 8163   0.398   4.257  12.191 -0.1040  0.1005 -0.5365
  550TMC3     H 8164   0.308   4.415  12.342  0.6613 -2.1324 -1.3919
  550TMC3    H1 8165   0.113   4.383  11.959  2.7531  1.2928 -0.2491
  550TMC3    H2 8166   4.615   4.487  12.290  0.0637 -2.7846  0.2578
  550TMC3    C7 8167   4.620   4.511  12.048 -0.0585 -0.4456 -0.3491
  550TMC3    C8 8168   0.105   4.590  12.414  0.4024  0.2822 -0.4551
  550TMC3    O1 8169   4.503   4.512  12.087 -0.3634  0.0600 -0.2524
  550TMC3    O2 8170   0.014   4.669  12.383 -0.0722 -0.3080 -0.7009
  551TMC3    C1 8171   2.416   2.484  13.436 -0.3239  0.3147  0.0788
  551TMC3    C2 8172   2.504   2.538  13.344 -0.0149  0.4679 -0.6423
  551TMC3    C3 8173   2.593   2.630  13.396  0.2339 -0.6821 -0.0357
  551TMC3    C4 8174   2.407   2.538  13.564  0.4724  0.7020 -0.0412
  551TMC3    C5 8175   2.503   2.622  13.607  0.1880  0.6249  0.3014
  551TMC3    C6 8176   2.590   2.674  13.522  0.6951  0.8583  0.4096
  551TMC3     C 8177   2.326   2.387  13.384 -0.6631 -0.9834  0.3810
  551TMC3     O 8178   2.298   2.396  13.262  0.4009  0.0369  0.3372
  551TMC3     H 8179   2.485   2.516  13.240  0.5413  0.8336 -0.8239
  551TMC3    H1 8180   2.344   2.483  13.633  1.8936 -0.2329  0.4917
  551TMC3    H2 8181   2.646   2.761  13.554  2.3437 -0.0395 -0.0533
  551TMC3    C7 8182   2.504   2.675  13.747 -0.4188  0.8135 -0.1635
  551TMC3    C8 8183   2.683   2.705  13.309 -0.4485  0.0627  0.8970
  551TMC3    O1 8184   2.596   2.746  13.777 -0.3929 -0.8811 -0.1725
  551TMC3    O2 8185   2.752   2.793  13.352 -0.2404  0.4187 -0.0453
  552MPD2     C 8186   4.145   4.675  14.313  0.1661  0.0725  0.2347
  552MPD2    C1 8187   4.272   4.635  14.281  0.1793  0.3118 -0.4695
  552MPD2    C2 8188   4.363   4.623  14.379  0.3521  0.5418  0.9086
  552MPD2    C3 8189   4.330   4.640  14.509 -0.4235 -0.2311  0.0834
  552MPD2    C4 8190   4.202   4.680  14.543  0.1201  0.0370  0.6683
  552MPD2    C5 8191   4.113   4.708  14.448 -0.0947 -0.0411 -0.4781
  552MPD2     H 8192   4.467   4.593  14.368  0.7288  1.7323  1.1817
  552MPD2    H1 8193   4.174   4.697  14.646 -1.3920 -1.7354  0.5599
  552MPD2    H2 8194   4.065   4.676  14.239 -0.6635 -0.7563  1.1258
  552MPD2    H3 8195   4.017   0.031  14.473  0.3232  3.1269 -4.5219
  552MPD2     N 8196   4.436   4.621  14.596  0.5504  0.6136  0.2038
  552MPD2    H5 8197   4.523   4.600  14.549 -1.0813  1.8607 -3.3703
  552MPD2    N1 8198   4.306   4.595  14.155  0.0043  0.5579 -0.9604
  552MPD2    H7 8199   4.402   4.568  14.136 -0.2162  1.5110 -3.4592
  553TMC3    C1 8200   4.297   4.531  13.928  0.1896  0.6062  0.6559
  553TMC3    C2 8201   4.250   4.568  13.802 -0.3932 -0.6296  1.2316
  553TMC3    C3 8202   4.308   4.512  13.689 -0.2357 -0.1108 -0.3734
  553TMC3    C4 8203   4.398   4.435  13.948  0.1981  0.3646 -0.1346
  553TMC3    C5 8204   4.456   4.395  13.832 -0.4280 -0.6471  0.2661
  553TMC3    C6 8205   4.416   4.430  13.708 -0.1399  0.3337 -0.3377
  553TMC3     C 8206   4.230   4.596  14.040 -0.8637 -0.1822  0.2246
  553TMC3     O 8207   4.121   4.649  14.021 -0.2087 -0.7726 -0.5918
  553TMC3     H 8208   4.160   4.627  13.792  1.2752  1.8347  0.6662
  553TMC3    H1 8209   4.446   4.413  14.043 -1.0748 -0.4027  0.3319
  553TMC3    H2 8210   4.465   4.382  13.625  0.8856 -0.2282  0.5987
  553TMC3    C7 8211   4.552   4.283  13.853 -0.9579  0.1686 -0.1121
  553TMC3    C8 8212   4.307   4.602  13.570 -0.1033  0.2095  0.0163
  553TMC3    O1 8213   4.531   4.185  13.780  0.6387 -0.6010 -0.1824
  553TMC3    O2 8214   4.208   4.668  13.553 -0.1342  0.1079 -0.1013
  554TMC3    C1 8215   1.491   3.118  11.334  0.5030  0.4831  0.1542
  554TMC3    C2 8216   1.494   3.027  11.232 -0.1192 -0.5052  0.4118
  554TMC3    C3 8217   1.577   3.048  11.128  0.7074 -1.1905  0.4721
  554TMC3    C4 8218   1.572   3.225  11.341  0.5045 -0.2103 -0.4656
  554TMC3    C5 8219   1.655   3.246  11.233 -0.3398  0.3569  0.0431
  554TMC3    C6 8220   1.665   3.152  11.138 -0.6527  0.3021 -0.5759
  554TMC3     C 8221   1.443   3.074  11.464 -0.1173 -0.4420 -0.5517
  554TMC3     O 8222   1.426   3.163  11.545  0.1417 -0.5752  0.1275
  554TMC3     H 8223   1.418   2.950  11.230  0.4106 -1.0736  2.0995
  554TMC3    H1 8224   1.546   3.310  11.404 -1.6722 -1.5894  0.5249
  554TMC3    H2 8225   1.743   3.173  11.065  0.4614  0.5914  0.7029
  554TMC3    C7 8226   1.675   3.374  11.176  0.1095 -0.5447 -0.4243
  554TMC3    C8 8227   1.550   3.009  10.992 -0.0836  0.1177 -0.2358
  554TMC3    O1 8228   1.678   3.390  11.055  0.5348 -0.2898  0.4743
  554TMC3    O2 8229   1.617   3.081  10.917  0.0797 -0.3778 -0.0378
  555TMC3    C1 8230   0.516   3.007  15.181 -0.0205 -0.2420  0.0487
  555TMC3    C2 8231   0.429   3.069  15.266 -0.0766 -0.5907  0.4736
  555TMC3    C3 8232   0.408   3.002  15.384 -0.0045  0.1538  0.6730
  555TMC3    C4 8233   0.586   2.897  15.217 -0.5438  0.0332  0.3882
  555TMC3    C5 8234   0.557   2.826  15.333  0.1497 -0.6380 -0.1847
  555TMC3    C6 8235   0.464   2.881  15.420  0.1716 -0.5235 -0.0575
  555TMC3     C 8236   0.601   3.102  15.114  1.5778 -0.2896 -0.8292
  555TMC3     O 8237   0.722   3.078  15.116 -0.7948  0.3391  0.0885
  555TMC3     H 8238   0.404   3.172  15.245 -1.6361 -1.5833 -2.6156
  555TMC3    H1 8239   0.664   2.873  15.146  0.2427 -0.0640  1.2845
  555TMC3    H2 8240   0.410   2.826  15.497 -0.8239 -0.0169 -0.3930
  555TMC3    C7 8241   0.617   2.700  15.382 -0.0509 -0.3148 -0.3443
  555TMC3    C8 8242   0.401   3.088  15.503 -0.1438  0.1139 -0.0623
  555TMC3    O1 8243   0.582   2.675  15.492 -0.0108 -0.2510  0.4896
  555TMC3    O2 8244   0.364   3.201  15.490  0.0221  0.3387  0.7243
  556MPD2     C 8245   4.222   4.247  10.883 -0.0968  0.2063 -0.0956
  556MPD2    C1 8246   4.090   4.194  10.895  0.1040  0.0240 -0.4530
  556MPD2    C2 8247   4.064   4.070  10.851 -0.0616  0.0006  0.6568
  556MPD2    C3 8248   4.158   3.992  10.789  0.1088 -0.0823  0.2030
  556MPD2    C4 8249   4.290   4.036  10.778  0.0146  0.9395  0.4630
  556MPD2    C5 8250   4.317   4.162  10.838  0.2016 -0.3919 -0.4313
  556MPD2     H 8251   3.961   4.037  10.850  0.8649 -2.8723  0.6344
  556MPD2    H1 8252   4.373   3.985  10.731 -1.5847  1.2170 -2.6219
  556MPD2    H2 8253   4.249   4.348  10.913  2.8370 -0.0362 -1.9006
  556MPD2    H3 8254   4.415   4.207  10.827 -0.4194  0.8067 -1.1601
  556MPD2     N 8255   4.108   3.874  10.723 -0.0565  0.4361 -0.0751
  556MPD2    H5 8256   4.007   3.859  10.731 -0.0525 -0.3326 -1.5941
  556MPD2    N1 8257   3.981   4.268  10.945  0.4811  0.1155  0.1946
  556MPD2    H7 8258   3.888   4.229  10.954  0.0335  1.1283  0.0162
  557TMC3    C1 8259   4.098   3.688  10.593 -0.0971 -0.2816 -0.7009
  557TMC3    C2 8260   4.150   3.644  10.472  0.3956 -0.1384 -0.3054
  557TMC3    C3 8261   4.066   3.596  10.379 -0.1472 -0.0228 -0.2280
  557TMC3    C4 8262   3.970   3.669  10.626 -0.2886 -0.2283  0.3542
  557TMC3    C5 8263   3.890   3.620  10.531 -0.9605  0.8390 -0.1549
  557TMC3    C6 8264   3.931   3.580  10.408  0.0758 -0.2782  0.1147
  557TMC3     C 8265   4.185   3.790  10.657 -0.3327  0.2232 -0.6806
  557TMC3     O 8266   4.306   3.783  10.629 -0.2522 -0.3605 -0.1452
  557TMC3     H 8267   4.257   3.649  10.461  0.7921  1.7926  4.2052
  557TMC3    H1 8268   3.942   3.691  10.728 -1.8124  2.5645 -0.6798
  557TMC3    H2 8269   3.866   3.548  10.327  1.7843  0.6219 -1.6159
  557TMC3    C7 8270   3.746   3.650  10.542  0.3229  0.3529 -0.4952
  557TMC3    C8 8271   4.124   3.607  10.246 -0.2148  0.7984  0.4305
  557TMC3    O1 8272   3.703   3.751  10.596  0.7837  0.2840 -0.1732
  557TMC3    O2 8273   4.213   3.688  10.229 -0.1696 -0.6952  0.2802
  558TMC3    C1 8274   1.601   2.072   9.582 -0.2119 -0.5403  0.1880
  558TMC3    C2 8275   1.522   2.012   9.674  0.9644  0.9704 -0.3323
  558TMC3    C3 8276   1.389   1.987   9.634 -0.7485 -0.6190 -0.4244
  558TMC3    C4 8277   1.557   2.131   9.466  0.6482 -0.4876 -0.2590
  558TMC3    C5 8278   1.432   2.087   9.426  0.3119  0.1622  0.1854
  558TMC3    C6 8279   1.347   2.025   9.508  0.0658 -0.2538 -0.8746
  558TMC3     C 8280   1.730   2.113   9.637 -0.7259  0.1234  0.3237
  558TMC3     O 8281   1.728   2.135   9.757  0.5068 -0.2161 -0.6210
  558TMC3     H 8282   1.567   1.976   9.765 -0.3633  0.1961  0.0142
  558TMC3    H1 8283   1.623   2.174   9.391  2.2004  0.5694  1.7272
  558TMC3    H2 8284   1.240   2.009   9.496  0.1194 -0.7660 -0.6829
  558TMC3    C7 8285   1.382   2.116   9.292 -0.4952 -0.7475 -0.1232
  558TMC3    C8 8286   1.300   1.898   9.708 -0.0157  0.2195  0.2411
  558TMC3    O1 8287   1.436   2.197   9.218 -0.4895 -0.3897  0.3057
  558TMC3    O2 8288   1.184   1.894   9.677  0.6826 -0.5463 -0.4533
  559MPD2     C 8289   1.516   2.767  10.043  0.3247 -0.0078 -0.1802
  559MPD2    C1 8290   1.469   2.673  10.123  0.3099 -0.0546  0.6459
  559MPD2    C2 8291   1.555   2.615  10.214  0.0007  0.0018  0.3181
  559MPD2    C3 8292   1.679   2.667  10.238  0.1260 -0.0681 -0.5091
  559MPD2    C4 8293   1.722   2.767  10.160  0.1518 -0.7576  0.1039
  559MPD2    C5 8294   1.645   2.808  10.057 -0.2869 -0.1017 -0.2965
  559MPD2     H 8295   1.519   2.530  10.270  1.5936 -0.2048  1.0152
  559MPD2    H1 8296   1.822   2.802  10.180  0.7189 -1.2760 -1.7914
  559MPD2    H2 8297   1.454   2.811   9.966  1.7260  1.6646 -0.3550
  559MPD2    H3 8298   1.688   2.871   9.980  1.7293 -1.1152 -0.0117
  559MPD2     N 8299   1.757   2.612  10.343  0.0945  0.2207 -0.1185
  559MPD2    H5 8300   1.750   2.514  10.368  0.9064  0.6087  1.6259
  559MPD2    N1 8301   1.332   2.648  10.120  0.4176  0.0903 -0.0964
  559MPD2    H7 8302   1.276   2.718  10.072  0.1411  0.3795  0.6389
  560TMC3    C1 8303   1.941   2.582  10.485  0.1922 -0.0758 -0.4416
  560TMC3    C2 8304   1.925   2.446  10.478  0.7485 -0.3407 -1.0327
  560TMC3    C3 8305   1.982   2.363  10.573 -0.4488 -0.4729  0.6131
  560TMC3    C4 8306   2.017   2.642  10.585 -0.2645  0.1506 -0.3177
  560TMC3    C5 8307   2.071   2.561  10.672 -0.3422 -0.7400 -0.3518
  560TMC3    C6 8308   2.055   2.423  10.668 -0.2729  0.5196  0.0828
  560TMC3     C 8309   1.863   2.676  10.400 -0.1052 -0.8321  0.1286
  560TMC3     O 8310   1.875   2.794  10.420 -0.2187 -0.1302 -0.0417
  560TMC3     H 8311   1.879   2.395  10.394  0.4003 -1.9135  0.1227
  560TMC3    H1 8312   2.032   2.749  10.587  1.0804  0.0119 -2.4313
  560TMC3    H2 8313   2.109   2.360  10.738 -1.4300  0.1521  0.6370
  560TMC3    C7 8314   2.136   2.615  10.799 -0.0774 -0.3343 -0.5745
  560TMC3    C8 8315   1.959   2.224  10.577 -0.7205  0.1310  0.0791
  560TMC3    O1 8316   2.138   2.528  10.885  0.0066 -0.2737  0.5267
  560TMC3    O2 8317   1.849   2.187  10.528 -0.4235  0.0658 -0.5897
  561TMC3    C1 8318   4.093   1.494  10.968 -0.0804  0.0566 -0.4210
  561TMC3    C2 8319   4.039   1.417  11.076 -0.1130  1.0746  0.2426
  561TMC3    C3 8320   4.038   1.474  11.196  0.4935  0.7490  0.7946
  561TMC3    C4 8321   4.142   1.626  10.991  0.6300  0.0776  0.3559
  561TMC3    C5 8322   4.130   1.676  11.114 -0.0286  0.1919  0.1793
  561TMC3    C6 8323   4.078   1.603  11.215  0.1881 -0.5222  0.0811
  561TMC3     C 8324   4.108   1.429  10.841  0.7022 -0.9381 -0.7450
  561TMC3     O 8325   4.031   1.342  10.813  0.0999 -0.2513  0.0269
  561TMC3     H 8326   3.997   1.317  11.063  1.2129  0.3553  1.4910
  561TMC3    H1 8327   4.193   1.683  10.915 -0.4808  0.4540 -0.1109
  561TMC3    H2 8328   4.094   1.644  11.313  0.0630 -0.3456  0.0268
  561TMC3    C7 8329   4.149   1.821  11.143  0.1003 -0.7685 -0.0869
  561TMC3    C8 8330   3.994   1.409  11.317 -0.0673 -0.9637  0.2721
  561TMC3    O1 8331   4.101   1.869  11.248 -0.3978  0.2072 -0.7901
  561TMC3    O2 8332   4.008   1.289  11.319 -0.5531 -0.1061  0.0178
  562TMC3    C1 8333   0.444   3.184  16.504 -0.2829  0.2442 -0.3239
  562TMC3    C2 8334   0.421   3.292  16.422  0.0940 -0.0267  0.2719
  562TMC3    C3 8335   0.358   3.279  16.305  0.1861  0.3308  0.0860
  562TMC3    C4 8336   0.421   3.060  16.457  0.3995  0.2548  0.4226
  562TMC3    C5 8337   0.358   3.055  16.335 -0.7517 -0.5381  0.5815
  562TMC3    C6 8338   0.312   3.158  16.260  0.0713 -0.1461 -0.3405
  562TMC3     C 8339   0.503   3.197  16.638 -0.3587  0.2731 -0.4036
  562TMC3     O 8340   0.529   3.104  16.710  0.1547  0.2902  0.0509
  562TMC3     H 8341   0.453   3.391  16.454  0.5582  0.5811 -2.0515
  562TMC3    H1 8342   0.429   2.978  16.527 -0.1945  1.6434  2.1327
  562TMC3    H2 8343   0.264   3.130  16.167  0.2596  2.2638 -1.1638
  562TMC3    C7 8344   0.305   2.921  16.306  0.6714 -0.8819  0.7686
  562TMC3    C8 8345   0.315   3.399  16.244  0.2527  0.6272  0.1454
  562TMC3    O1 8346   0.228   2.921  16.213 -0.0440  0.3872  0.2606
  562TMC3    O2 8347   0.335   3.499  16.308 -0.2252  0.7084  0.3101
  563MPD2     C 8348   2.348   0.224  15.795  0.3697 -0.3017  0.1464
  563MPD2    C1 8349   2.437   0.120  15.822 -0.9165 -0.1958  0.7442
  563MPD2    C2 8350   2.548   0.145  15.897 -0.3405 -0.4209 -0.2717
  563MPD2    C3 8351   2.566   0.267  15.958 -0.4152 -0.9458 -0.0205
  563MPD2    C4 8352   2.473   0.365  15.943 -0.5339 -0.2856 -0.4917
  563MPD2    C5 8353   2.371   0.350  15.849  0.2204  0.5103 -0.8910
  563MPD2     H 8354   2.612   0.062  15.925  1.0014  0.4883 -0.6367
  563MPD2    H1 8355   2.481   0.463  15.990 -1.6722 -0.3571 -0.1533
  563MPD2    H2 8356   2.267   0.200  15.726  0.5304 -1.8690  0.4961
  563MPD2    H3 8357   2.299   0.428  15.831 -2.1228 -1.3101  0.5699
  563MPD2     N 8358   2.659   0.271  16.066  0.0624 -0.5398  0.1199
  563MPD2    H5 8359   2.723   0.192  16.067 -0.9908 -1.3721  0.9122
  563MPD2    N1 8360   2.399   4.712  15.791 -0.1508 -0.1065  0.1157
  563MPD2    H7 8361   2.302   4.695  15.766 -1.2186  2.1592  2.7080
  564TMC3    C1 8362   2.399   4.498  15.860  0.3973 -0.0961 -0.8274
  564TMC3    C2 8363   2.384   4.376  15.801 -0.2273  0.7821  0.4363
  564TMC3    C3 8364   2.298   4.290  15.859  0.4188  0.6422  0.1978
  564TMC3    C4 8365   2.357   4.529  15.984  0.3147  0.8245  0.0536
  564TMC3    C5 8366   2.291   4.430  16.053 -0.3630 -0.6205  0.3215
  564TMC3    C6 8367   2.248   4.320  15.985  0.1125 -0.3182  0.2905
  564TMC3     C 8368   2.476   4.604  15.795 -0.7060  0.0114 -0.1379
  564TMC3     O 8369   2.601   4.596  15.793 -0.0784  0.1294 -0.5146
  564TMC3     H 8370   2.452   4.351  15.720  2.4011  1.5414  2.4120
  564TMC3    H1 8371   2.388   4.623  16.027 -1.6613  1.1073  0.8917
  564TMC3    H2 8372   2.171   4.255  16.025 -1.3408  2.1367  1.4684
  564TMC3    C7 8373   2.386   4.391  16.155 -0.5685 -0.6940  1.1151
  564TMC3    C8 8374   2.310   4.145  15.840  0.0975 -0.5857 -0.0172
  564TMC3    O1 8375   2.444   4.479  16.224 -0.2906  0.3750  0.4450
  564TMC3    O2 8376   2.287   4.086  15.945 -0.8108  0.1301  0.2267
  565TMC3    C1 8377   3.626   0.968   9.769  0.3936  0.2562  0.0114
  565TMC3    C2 8378   3.593   0.871   9.866  0.1442 -0.2857  0.1945
  565TMC3    C3 8379   3.548   0.748   9.834 -0.6833 -0.4505 -0.2888
  565TMC3    C4 8380   3.607   0.942   9.641  1.0285  0.4008  0.2935
  565TMC3    C5 8381   3.573   0.812   9.611 -0.6715  0.3476 -0.4144
  565TMC3    C6 8382   3.538   0.716   9.699  0.5330  0.0531 -0.6099
  565TMC3     C 8383   3.694   1.094   9.800  0.2475 -0.3636 -0.4455
  565TMC3     O 8384   3.758   1.152   9.716 -0.4609 -0.0751  0.7990
  565TMC3     H 8385   3.620   0.882   9.970  0.8707  0.9207 -0.1180
  565TMC3    H1 8386   3.627   1.015   9.563 -0.7507 -1.5669 -1.9691
  565TMC3    H2 8387   3.510   0.614   9.675 -0.1979  0.0374  0.3468
  565TMC3    C7 8388   3.567   0.767   9.466  0.2940 -0.5378 -0.0494
  565TMC3    C8 8389   3.478   0.681   9.938 -0.0535 -0.4154 -0.3376
  565TMC3    O1 8390   3.560   0.643   9.447  0.0430 -0.3581  0.6606
  565TMC3    O2 8391   3.493   0.716  10.055 -0.2651 -0.1505 -0.0124
  566MPD2     C 8392   4.480   3.312  14.379  0.6387 -0.2093 -0.3505
  566MPD2    C1 8393   4.584   3.274  14.296 -0.3767 -0.0116  0.2578
  566MPD2    C2 8394   4.565   3.178  14.208  0.5052  0.0249 -0.0255
  566MPD2    C3 8395   4.439   3.123  14.175  0.5145 -0.0927  0.1260
  566MPD2    C4 8396   4.332   3.177  14.240 -0.3690  0.4584  0.0655
  566MPD2    C5 8397   4.359   3.265  14.346  0.5620  0.5090 -0.5090
  566MPD2     H 8398   4.646   3.133  14.152 -0.4003  0.5810 -1.7717
  566MPD2    H1 8399   4.233   3.155  14.204  1.0471 -1.2849 -2.7647
  566MPD2    H2 8400   4.497   3.379  14.463  0.0960 -0.8560  0.2817
  566MPD2    H3 8401   4.280   3.322  14.394  2.0474  1.6827  0.5477
  566MPD2     N 8402   4.422   3.036  14.058  0.7271 -0.5071  0.3946
  566MPD2    H5 8403   4.331   3.037  14.014  1.7347 -3.6511 -1.7372
  566MPD2    N1 8404   4.713   3.326  14.306 -0.3264 -0.6461 -0.4160
  566MPD2    H7 8405   0.056   3.296  14.233 -0.7665 -2.1877 -0.1687
  567TMC3    C1 8406   0.177   3.426  14.362  0.2504 -0.5612 -0.5080
  567TMC3    C2 8407   0.201   3.445  14.230 -0.5039  0.9241 -0.1967
  567TMC3    C3 8408   0.323   3.404  14.185 -0.0314 -0.4406 -0.3395
  567TMC3    C4 8409   0.270   3.389  14.446 -0.1116 -0.5112 -0.0957
  567TMC3    C5 8410   0.394   3.352  14.401  0.2264 -0.0350  0.8152
  567TMC3    C6 8411   0.428   3.369  14.267  0.4674 -0.4196 -0.3889
  567TMC3     C 8412   0.042   3.416  14.393 -0.0534 -0.0898 -0.1310
  567TMC3     O 8413   0.007   3.453  14.506 -0.1588 -0.1302 -0.0418
  567TMC3     H 8414   0.123   3.476  14.162 -0.6248  1.2021  0.0703
  567TMC3    H1 8415   0.239   3.387  14.549  0.3579 -0.0584  0.0548
  567TMC3    H2 8416   0.522   3.334  14.227 -0.2883 -2.0408 -0.7529
  567TMC3    C7 8417   0.477   3.265  14.482 -0.2561 -0.9202  0.6599
  567TMC3    C8 8418   0.348   3.402  14.043  0.3936 -0.2887  0.3829
  567TMC3    O1 8419   0.586   3.234  14.438  0.1999 -0.6473  0.1244
  567TMC3    O2 8420   0.249   3.374  13.976 -0.4054  0.1423 -0.1117
  568MPD2     C 8421   2.590   2.884  16.578  0.0532  0.0836  0.0424
  568MPD2    C1 8422   2.457   2.915  16.597 -0.6233  0.1288  0.3838
  568MPD2    C2 8423   2.393   2.970  16.488 -0.2805 -0.2314 -0.7688
  568MPD2    C3 8424   2.453   3.010  16.375 -0.8000 -0.5747  0.1747
  568MPD2    C4 8425   2.581   2.966  16.354  0.0037 -0.3996 -0.0316
  568MPD2    C5 8426   2.647   2.892  16.448  0.8428 -0.1045 -0.3256
  568MPD2     H 8427   2.295   3.013  16.505  0.4489  0.9670  0.4420
  568MPD2    H1 8428   2.638   2.986  16.264 -0.3399  1.0539  0.0694
  568MPD2    H2 8429   2.655   2.844  16.654 -1.0380 -0.5270  0.6624
  568MPD2    H3 8430   2.748   2.856  16.431  0.8772 -0.5807  0.8873
  568MPD2     N 8431   2.391   3.107  16.294 -0.1075  0.0426  0.6163
  568MPD2    H5 8432   2.298   3.133  16.326  1.1689  1.3206  3.2420
  568MPD2    N1 8433   2.414   2.910  16.730  0.5333  0.3292 -0.1424
  568MPD2    H7 8434   2.474   2.862  16.795  0.6152  0.6653  0.0274
  569TMC3    C1 8435   2.339   3.250  16.106 -0.1856 -0.1905 -0.5619
  569TMC3    C2 8436   2.250   3.314  16.190  0.4784  0.5194  0.9177
  569TMC3    C3 8437   2.211   3.442  16.154 -0.2089 -0.1584 -0.2359
  569TMC3    C4 8438   2.380   3.298  15.986  0.6952 -0.1808 -0.2363
  569TMC3    C5 8439   2.333   3.420  15.950 -0.1279  0.6268 -0.2946
  569TMC3    C6 8440   2.253   3.497  16.036 -0.3174  0.1705  0.0034
  569TMC3     C 8441   2.423   3.147  16.166 -0.2660  0.1929  0.0285
  569TMC3     O 8442   2.519   3.107  16.096  0.4038 -1.0096 -0.4436
  569TMC3     H 8443   2.225   3.271  16.287  0.6022  0.0784  0.7565
  569TMC3    H1 8444   2.451   3.249  15.920  0.6127 -3.1334  1.8596
  569TMC3    H2 8445   2.211   3.592  16.007 -0.0474  0.3968  0.3542
  569TMC3    C7 8446   2.398   3.483  15.828  0.2415 -0.6497 -0.2945
  569TMC3    C8 8447   2.136   3.523  16.251 -0.7717  0.4358 -0.3535
  569TMC3    O1 8448   2.465   3.423  15.747 -0.4168  0.4438 -0.6804
  569TMC3    O2 8449   2.050   3.476  16.323 -0.1275  0.5961  0.1847
  570TMC3    C1 8450   1.795   2.381  16.125 -0.0672 -0.1257  0.1042
  570TMC3    C2 8451   1.848   2.392  15.999  0.4566 -0.4914  0.0369
  570TMC3    C3 8452   1.878   2.513  15.950 -0.3910  0.2365  0.1322
  570TMC3    C4 8453   1.766   2.497  16.200  0.3497  0.0543  0.1755
  570TMC3    C5 8454   1.786   2.622  16.136 -0.0146 -0.3384  0.2792
  570TMC3    C6 8455   1.849   2.626  16.016 -0.6946  0.0109 -0.1251
  570TMC3     C 8456   1.754   2.245  16.171  0.9531  0.4040 -0.0683
  570TMC3     O 8457   1.753   2.150  16.098  0.1304  0.2891 -0.1304
  570TMC3     H 8458   1.868   2.300  15.945  0.1580 -1.1382  1.0142
  570TMC3    H1 8459   1.697   2.493  16.283  1.2879  0.1481  0.9638
  570TMC3    H2 8460   1.867   2.719  15.963  2.0930  1.2793  3.0358
  570TMC3    C7 8461   1.731   2.739  16.194 -0.5779  0.0759 -0.4583
  570TMC3    C8 8462   1.979   2.521  15.845 -0.3256  0.0698  0.0877
  570TMC3    O1 8463   1.713   2.739  16.313  0.0848 -0.1237  0.2550
  570TMC3    O2 8464   2.031   2.630  15.832  0.2466 -1.2318 -0.0544
  571MPD2     C 8465   4.450   4.011  17.232  0.5600  0.2373 -0.0794
  571MPD2    C1 8466   4.368   4.010  17.343  0.0017  0.1514  0.9949
  571MPD2    C2 8467   4.386   4.107  17.438  0.6499 -0.2878  0.0944
  571MPD2    C3 8468   4.484   4.207  17.422  0.1704  0.0575 -0.7284
  571MPD2    C4 8469   4.560   4.206  17.306  0.0023  0.0649 -0.1508
  571MPD2    C5 8470   4.545   4.108  17.213 -0.4523  0.0526 -0.6161
  571MPD2     H 8471   4.332   4.100  17.532 -0.5810  1.5202 -0.4845
  571MPD2    H1 8472   4.630   4.288  17.297  2.2882 -1.9215 -0.6566
  571MPD2    H2 8473   4.444   3.932  17.158  0.8752 -0.2387  0.4047
  571MPD2    H3 8474   4.602   4.101  17.121  0.3284  1.8423 -0.2543
  571MPD2     N 8475   4.520   4.295  17.526  0.2186 -0.1224 -0.0344
  571MPD2    H5 8476   4.593   4.359  17.496 -1.3234  0.8562 -1.6599
  571MPD2    N1 8477   4.270   3.904  17.358 -0.3993  0.2881  0.0100
  571MPD2    H7 8478   4.265   3.831  17.287  0.3633  0.8548 -0.6312
  572TMC3    C1 8479   4.527   4.398   0.051 -0.3363 -0.3217  0.0685
  572TMC3    C2 8480   4.474   4.424   0.173  0.7031 -0.2562  0.0635
  572TMC3    C3 8481   4.519   4.533   0.246 -0.4421  0.5691 -0.8216
  572TMC3    C4 8482   4.630   4.473   0.008  0.4218 -0.1933  0.1865
  572TMC3    C5 8483   4.680   4.575   0.083  0.9129  0.7414  0.1902
  572TMC3    C6 8484   4.623   4.607   0.201 -0.3913 -0.1597  0.1073
  572TMC3     C 8485   4.471   4.290  17.657 -0.4162 -0.4759 -0.1664
  572TMC3     O 8486   4.394   4.213   0.020  0.2136 -0.1946  0.4796
  572TMC3     H 8487   4.378   4.378   0.192  0.4303  0.8471  1.3411
  572TMC3    H1 8488   4.688   4.458  17.607  1.8320 -1.8243  1.3775
  572TMC3    H2 8489   4.665   4.677   0.272  1.0754 -0.9702  0.0316
  572TMC3    C7 8490   0.056   4.662   0.028 -0.3160  0.5098  0.6897
  572TMC3    C8 8491   4.451   4.575   0.370  0.4712  0.6287 -0.1864
  572TMC3    O1 8492   0.078   4.661  17.595 -0.1699  0.4852  0.0179
  572TMC3    O2 8493   4.436   4.698   0.382  0.0911 -0.5055 -0.2473
  573MPD2     C 8494   1.087   0.047   1.101 -0.0611  0.2797  0.1992
  573MPD2    C1 8495   1.159   0.148   1.054  0.1257  0.1631  0.0253
  573MPD2    C2 8496   1.197   0.138   0.921 -0.5586 -0.2425  0.1687
  573MPD2    C3 8497   1.159   0.038   0.837  0.3639  0.3864  0.5138
  573MPD2    C4 8498   1.081   4.659   0.894 -0.5079  0.1810 -0.1931
  573MPD2    C5 8499   1.043   4.664   1.021 -0.6421  0.5783 -0.0641
  573MPD2     H 8500   1.253   0.221   0.880 -0.3692 -0.3965  0.1194
  573MPD2    H1 8501   1.061   4.568   0.838  1.5173 -1.9522  2.5963
  573MPD2    H2 8502   1.048   0.055   1.202  1.3490 -0.1627  0.7878
  573MPD2    H3 8503   0.990   4.584   1.072  1.0838 -0.3759  0.2279
  573MPD2     N 8504   1.180   0.026   0.694 -0.7551  0.0140  0.8453
  573MPD2    H5 8505   1.122   4.677   0.651 -0.8057 -0.5740  1.8642
  573MPD2    N1 8506   1.186   0.257   1.136 -0.0945 -0.0621 -0.4044
  573MPD2    H7 8507   1.161   0.245   1.233  0.3713 -1.5299 -0.4700
  574TMC3    C1 8508   1.246   0.091   0.473 -0.5876  0.9371  0.6177
  574TMC3    C2 8509   1.121   0.057   0.431 -0.2905  0.0898 -0.0047
  574TMC3    C3 8510   1.099   0.097   0.303  0.3251 -0.0535 -0.1381
  574TMC3    C4 8511   1.349   0.150   0.397  0.2509 -0.2880  0.5157
  574TMC3    C5 8512   1.319   0.172   0.268 -0.0713 -0.5331  0.0335
  574TMC3    C6 8513   1.188   0.168   0.228  0.1917 -0.0352 -0.0545
  574TMC3     C 8514   1.263   0.109   0.616  0.3715  0.2525 -0.3794
  574TMC3     O 8515   1.347   0.194   0.657  0.3645 -0.6926  0.1926
  574TMC3     H 8516   1.043   0.030   0.501  1.2497 -0.8393  1.3695
  574TMC3    H1 8517   1.447   0.146   0.443 -0.2842  1.2999  1.7670
  574TMC3    H2 8518   1.165   0.190   0.124 -2.1726  1.7508  0.8482
  574TMC3    C7 8519   1.430   0.195   0.180 -0.0482  0.4762  0.7611
  574TMC3    C8 8520   0.968   0.084   0.252 -0.0585 -0.8972 -0.1290
  574TMC3    O1 8521   1.535   0.241   0.225  0.3096  0.1976 -0.4720
  574TMC3    O2 8522   0.900   4.709   0.287  0.3936  0.1850  0.7459
  575TMC3    C1 8523   3.695   0.139  10.587 -0.3141  0.1011  0.2694
  575TMC3    C2 8524   3.687   0.006  10.571  0.6132  0.1518 -0.9584
  575TMC3    C3 8525   3.616   4.698  10.462  0.0388  0.9417  0.3125
  575TMC3    C4 8526   3.651   0.239  10.499  0.3470 -0.2814 -0.2424
  575TMC3    C5 8527   3.586   0.189  10.389 -0.9640 -0.9987 -0.2385
  575TMC3    C6 8528   3.557   0.065  10.373  0.6738  0.0341  0.1678
  575TMC3     C 8529   3.749   0.187  10.720 -0.5407 -0.7286 -0.9153
  575TMC3     O 8530   3.833   0.120  10.777  0.5490 -0.3173 -0.3544
  575TMC3     H 8531   3.724   4.655  10.642 -0.7072  2.1789  1.7896
  575TMC3    H1 8532   3.676   0.344  10.508  2.5568 -0.8552  0.1451
  575TMC3    H2 8533   3.519   0.023  10.280  1.4978 -0.0537 -0.1305
  575TMC3    C7 8534   3.546   0.285  10.289 -0.0227 -0.3826 -0.7771
  575TMC3    C8 8535   3.540   4.576  10.468  0.2916 -0.1482 -0.6284
  575TMC3    O1 8536   3.608   0.392  10.280  0.5783 -0.2236  0.1075
  575TMC3    O2 8537   3.419   4.589  10.441 -0.3215  0.4974  0.2600
  576MPD2     C 8538   3.410   2.194  12.435 -0.1371  0.2239 -0.2525
  576MPD2    C1 8539   3.400   2.249  12.308 -0.5110 -0.2731  0.0199
  576MPD2    C2 8540   3.371   2.381  12.298 -0.3533 -0.5037 -0.1956
  576MPD2    C3 8541   3.360   2.466  12.412  0.4386  0.2502 -0.3263
  576MPD2    C4 8542   3.372   2.410  12.541  0.6046 -0.7621  0.2416
  576MPD2    C5 8543   3.396   2.275  12.547 -0.3395 -0.1082  0.0200
  576MPD2     H 8544   3.358   2.424  12.199 -1.5895 -0.3630  0.0298
  576MPD2    H1 8545   3.355   2.461  12.634  0.9968 -0.6989  0.2802
  576MPD2    H2 8546   3.437   2.090  12.449  1.2198  0.6492  0.2842
  576MPD2    H3 8547   3.397   2.232  12.646  0.4571  3.0659  1.3770
  576MPD2     N 8548   3.334   2.604  12.389 -0.2011  0.3102 -0.2525
  576MPD2    H5 8549   3.301   2.627  12.295 -2.0837 -1.4030 -0.0204
  576MPD2    N1 8550   3.408   2.171  12.190  0.0630 -0.1950 -0.0605
  576MPD2    H7 8551   3.396   2.220  12.102  0.1556 -1.0608 -0.5555
  577TMC3    C1 8552   3.471   1.999  12.040 -0.8165 -0.5624  0.0898
  577TMC3    C2 8553   3.533   1.881  12.019  0.1672 -0.5258 -0.0062
  577TMC3    C3 8554   3.561   1.849  11.889 -0.0679  0.1623 -0.0020
  577TMC3    C4 8555   3.441   2.085  11.939  0.4492 -0.1043  0.0439
  577TMC3    C5 8556   3.469   2.050  11.810  0.8410  0.3605  0.4934
  577TMC3    C6 8557   3.534   1.930  11.783 -0.2285  0.5689  0.0639
  577TMC3     C 8558   3.439   2.034  12.179 -0.1096 -0.4366  0.3361
  577TMC3     O 8559   3.444   1.947  12.265  0.7730 -0.2914 -0.1452
  577TMC3     H 8560   3.543   1.811  12.101  2.6455  0.2584  0.3661
  577TMC3    H1 8561   3.389   2.179  11.955  1.9383  0.6933  0.1730
  577TMC3    H2 8562   3.532   1.890  11.682 -0.8066 -2.1209  1.1449
  577TMC3    C7 8563   3.435   2.145  11.695 -0.8258  0.4010  0.1483
  577TMC3    C8 8564   3.617   1.711  11.868  0.1194 -0.5032 -0.2668
  577TMC3    O1 8565   3.345   2.223  11.723  0.0148 -0.0116 -1.0667
  577TMC3    O2 8566   3.598   1.630  11.956 -0.4573  0.2309 -0.0869
  578MPD2     C 8567   1.352   2.799   1.367 -0.0917 -0.5777  0.2908
  578MPD2    C1 8568   1.328   2.697   1.274  0.2458 -0.1882 -0.4397
  578MPD2    C2 8569   1.398   2.578   1.291  0.1316  0.3620 -0.0331
  578MPD2    C3 8570   1.509   2.570   1.377  0.1283  0.1866  0.7669
  578MPD2    C4 8571   1.512   2.666   1.478  0.2503 -0.2158  0.3339
  578MPD2    C5 8572   1.437   2.779   1.468  0.6164 -0.4430  0.0537
  578MPD2     H 8573   1.379   2.488   1.233  0.4950 -0.2256  0.7712
  578MPD2    H1 8574   1.587   2.671   1.556  1.0289  1.3756 -0.4970
  578MPD2    H2 8575   1.286   2.885   1.371  1.7086  0.6665  3.9613
  578MPD2    H3 8576   1.451   2.847   1.551 -1.0927 -1.2492  1.0125
  578MPD2     N 8577   1.598   2.468   1.363 -1.1856 -0.6041  0.0990
  578MPD2    H5 8578   1.578   2.391   1.300  1.2426 -2.1295  1.1744
  578MPD2    N1 8579   1.216   2.702   1.185 -0.0983 -0.3599  0.0531
  578MPD2    H7 8580   1.159   2.784   1.197  0.3097  0.0338 -0.7043
  579TMC3    C1 8581   1.788   2.336   1.386 -0.5931 -0.1703  0.3209
  579TMC3    C2 8582   1.929   2.341   1.381  0.0701 -0.5273  0.1291
  579TMC3    C3 8583   1.993   2.220   1.370 -0.5941 -0.4342 -0.5813
  579TMC3    C4 8584   1.717   2.222   1.378 -0.3012  0.2904 -0.5635
  579TMC3    C5 8585   1.786   2.103   1.364 -0.0577 -0.0331 -0.1540
  579TMC3    C6 8586   1.921   2.103   1.358  0.0469 -0.9185  0.0317
  579TMC3     C 8587   1.721   2.459   1.435  0.2805 -0.4568 -0.6815
  579TMC3     O 8588   1.773   2.539   1.504  0.0320  0.7350  0.4650
  579TMC3     H 8589   1.989   2.428   1.408  1.0594 -1.2338  0.2050
  579TMC3    H1 8590   1.609   2.224   1.387 -0.1951  1.4255  0.3789
  579TMC3    H2 8591   1.977   2.011   1.363  1.8889  0.2152  0.4260
  579TMC3    C7 8592   1.719   1.976   1.334 -0.2332 -0.2332 -0.3141
  579TMC3    C8 8593   2.132   2.218   1.368 -0.6279  0.7987  0.3008
  579TMC3    O1 8594   1.785   1.878   1.342  0.2740  0.2383 -0.2505
  579TMC3    O2 8595   2.188   2.306   1.431 -0.3396  0.5963 -0.6819
  580TMC3    C1 8596   0.921   1.277  11.544 -0.4889  0.0724  0.5037
  580TMC3    C2 8597   0.926   1.217  11.424 -0.7999 -0.3911  0.6628
  580TMC3    C3 8598   0.999   1.099  11.414  0.2359  0.0429 -0.4570
  580TMC3    C4 8599   0.960   1.213  11.659 -0.1046 -0.6892 -0.3976
  580TMC3    C5 8600   0.998   1.080  11.643  0.3959  0.1029  0.6373
  580TMC3    C6 8601   1.032   1.029  11.524 -0.1811  0.3203 -0.1145
  580TMC3     C 8602   0.969   1.416  11.538  0.2834  0.3703 -0.5060
  580TMC3     O 8603   0.926   1.476  11.444 -0.5074 -0.5228  0.1748
  580TMC3     H 8604   0.908   1.265  11.329 -0.9961  0.4639  1.1339
  580TMC3    H1 8605   0.955   1.253  11.759  0.2971 -0.0700 -0.6237
  580TMC3    H2 8606   1.091   0.938  11.512  1.0670  1.0831  0.2359
  580TMC3    C7 8607   1.017   0.993  11.763 -0.1435 -0.0159  0.0092
  580TMC3    C8 8608   1.089   1.113  11.305  1.5707  0.5201 -0.8496
  580TMC3    O1 8609   1.020   1.051  11.873  0.3063  0.0494  0.4436
  580TMC3    O2 8610   1.045   1.127  11.190 -0.1645  0.1013 -0.4347
  581MPD2     C 8611   3.629   1.420  14.856 -0.2134  0.0788  0.0613
  581MPD2    C1 8612   3.527   1.352  14.918 -0.0512  0.0353  0.1181
  581MPD2    C2 8613   3.403   1.387  14.885  0.5226  0.9000 -0.2177
  581MPD2    C3 8614   3.372   1.482  14.789 -0.6094  0.4599  1.3327
  581MPD2    C4 8615   3.479   1.556  14.737  0.4461 -0.0307 -0.4966
  581MPD2    C5 8616   3.609   1.525  14.772 -0.0393 -0.3001 -0.1440
  581MPD2     H 8617   3.319   1.342  14.937  0.4935  0.2648 -0.8079
  581MPD2    H1 8618   3.462   1.641  14.671 -0.1397 -0.1074 -0.4426
  581MPD2    H2 8619   3.730   1.401  14.888  1.0183 -0.1723 -4.0171
  581MPD2    H3 8620   3.697   1.570  14.727 -0.7788  1.7522  0.4429
  581MPD2     N 8621   3.241   1.513  14.746 -0.0265 -0.1051 -0.0314
  581MPD2    H5 8622   3.230   1.600  14.695 -2.9786  0.2087  1.1222
  581MPD2    N1 8623   3.561   1.256  15.009  0.0682  0.6132 -0.0880
  581MPD2    H7 8624   3.658   1.231  15.025  0.1817  0.8621 -0.3863
  582TMC3    C1 8625   3.549   1.086  15.155  0.1471  0.2633 -0.3285
  582TMC3    C2 8626   3.648   1.148  15.227 -0.7799  0.5762 -0.1016
  582TMC3    C3 8627   3.670   1.100  15.353  0.1400  0.4062 -0.1509
  582TMC3    C4 8628   3.472   0.986  15.213  0.0123  0.0696  0.1256
  582TMC3    C5 8629   3.480   0.951  15.347  0.0343 -0.0357  0.3452
  582TMC3    C6 8630   3.591   1.002  15.413  0.1305 -0.3545  0.6678
  582TMC3     C 8631   3.476   1.173  15.072  0.1411 -0.3276  0.4450
  582TMC3     O 8632   3.355   1.179  15.093  0.3988  0.1175 -0.5564
  582TMC3     H 8633   3.697   1.242  15.207  2.2171 -2.2464 -6.3350
  582TMC3    H1 8634   3.388   0.958  15.150 -0.2132 -1.9312  1.3355
  582TMC3    H2 8635   3.605   1.008  15.520  0.1910 -1.5390  0.7218
  582TMC3    C7 8636   3.364   0.956  15.430 -0.0854  0.0629  0.1723
  582TMC3    C8 8637   3.705   1.202  15.447  0.2850 -0.7673 -0.1422
  582TMC3    O1 8638   3.371   0.886  15.531 -0.9747 -0.3487  0.3094
  582TMC3    O2 8639   3.662   1.316  15.429 -0.2945 -0.4635 -0.1946
  583MPD2     C 8640   3.571   2.766  16.817 -0.5583  0.0202 -0.1549
  583MPD2    C1 8641   3.568   2.904  16.801 -0.1326  0.4349 -0.0805
  583MPD2    C2 8642   3.520   2.980  16.905 -0.8910 -0.0335  0.0794
  583MPD2    C3 8643   3.478   2.927  17.023  0.2300  0.8524 -0.4895
  583MPD2    C4 8644   3.471   2.795  17.035 -0.1575 -0.4300 -0.0421
  583MPD2    C5 8645   3.528   2.721  16.936  0.1807 -0.2313 -0.5733
  583MPD2     H 8646   3.522   3.088  16.896  2.2442  0.1525  3.1325
  583MPD2    H1 8647   3.434   2.750  17.126 -0.7072 -1.2641 -0.6810
  583MPD2    H2 8648   3.611   2.701  16.740 -0.8521 -0.0337 -0.2641
  583MPD2    H3 8649   3.538   2.613  16.939  1.2412 -0.0752  1.1892
  583MPD2     N 8650   3.425   3.016  17.117 -0.6115  0.3006 -0.9111
  583MPD2    H5 8651   3.420   3.115  17.096 -0.4811  0.1408 -1.6844
  583MPD2    N1 8652   3.617   2.965  16.683  0.0415  0.3673  0.5329
  583MPD2    H7 8653   3.609   3.067  16.687  0.9827  0.4969 -0.9429
  584TMC3    C1 8654   3.355   3.099  17.329 -0.0414  0.0282  0.0175
  584TMC3    C2 8655   3.361   3.224  17.268  0.3169  0.8683 -0.0722
  584TMC3    C3 8656   3.339   3.331  17.354  0.1468 -0.7589  0.8133
  584TMC3    C4 8657   3.316   3.082  17.464 -0.2893 -0.7721 -0.3064
  584TMC3    C5 8658   3.281   3.194  17.542 -1.0034  0.2184 -0.7206
  584TMC3    C6 8659   3.299   3.321  17.489 -0.1470  0.4110 -1.1687
  584TMC3     C 8660   3.403   2.988  17.250 -0.3478  0.0727  0.1011
  584TMC3     O 8661   3.433   2.885  17.313 -0.2576  0.9293 -0.5571
  584TMC3     H 8662   3.394   3.253  17.169  1.2413 -0.3163 -0.1000
  584TMC3    H1 8663   3.322   2.980  17.500 -0.6180 -0.8349 -0.4238
  584TMC3    H2 8664   3.291   3.406  17.556  0.5019 -1.5327  1.3439
  584TMC3    C7 8665   3.291   3.179   0.001 -0.3828  0.1956 -0.5149
  584TMC3    C8 8666   3.353   3.466  17.298 -0.6582  0.5098  0.7214
  584TMC3    O1 8667   3.329   3.273   0.073  0.0299  0.4708 -0.2471
  584TMC3    O2 8668   3.331   3.482  17.179 -0.6336  0.3512  0.4736
  585MPD2     C 8669   3.082   2.117   0.592  0.1264  1.0532 -0.2780
  585MPD2    C1 8670   3.175   2.165   0.510  0.1749 -0.6370  0.0039
  585MPD2    C2 8671   3.157   2.155   0.369  0.6025  0.1026  0.5116
  585MPD2    C3 8672   3.045   2.092   0.321  0.0997  0.6342 -0.6865
  585MPD2    C4 8673   2.948   2.045   0.408  0.5260  0.3354 -0.5279
  585MPD2    C5 8674   2.968   2.058   0.541  0.1190 -0.1235  0.8979
  585MPD2     H 8675   3.229   2.199   0.302 -1.6931  1.0895 -1.3285
  585MPD2    H1 8676   2.855   1.999   0.377  0.5465 -0.2254  0.2407
  585MPD2    H2 8677   3.085   2.130   0.700  1.9103 -0.6460 -0.1294
  585MPD2    H3 8678   2.900   2.015   0.613  0.7773  1.2708  2.3669
  585MPD2     N 8679   3.020   2.075   0.181  0.2323  0.1601  0.0599
  585MPD2    H5 8680   2.927   2.039   0.162  0.2306  0.1242  0.1364
  585MPD2    N1 8681   3.281   2.240   0.567 -0.1543  0.1575  0.1292
  585MPD2    H7 8682   3.264   2.267   0.664  1.4639  0.7843  0.2348
  586TMC3    C1 8683   3.053   2.112  17.636  0.2133  0.7539  0.5161
  586TMC3    C2 8684   3.118   2.040  17.540  0.2541 -0.6420 -0.8657
  586TMC3    C3 8685   3.054   2.016  17.421 -0.1013  0.3947  0.2258
  586TMC3    C4 8686   2.930   2.162  17.608  0.7290 -0.1167  0.1261
  586TMC3    C5 8687   2.871   2.148  17.484  0.2369  0.1550 -0.2244
  586TMC3    C6 8688   2.934   2.078  17.388 -0.6855  0.0021 -0.4706
  586TMC3     C 8689   3.106   2.109   0.081  0.0717  0.0146  0.2695
  586TMC3     O 8690   3.228   2.112   0.092  0.3457 -0.4635  0.2820
  586TMC3     H 8691   3.206   1.985  17.568  0.2096 -0.6345 -0.7089
  586TMC3    H1 8692   2.897   2.226   0.000  0.7684  0.7837 -0.5661
  586TMC3    H2 8693   2.898   2.076  17.286  2.0641 -0.9051 -1.3901
  586TMC3    C7 8694   2.728   2.158  17.477 -0.3098 -0.5650 -0.0489
  586TMC3    C8 8695   3.083   1.890  17.363 -0.1838  0.1650 -0.5653
  586TMC3    O1 8696   2.664   2.159  17.577 -0.5952 -0.1182  0.2592
  586TMC3    O2 8697   3.179   1.825  17.408  0.0693 -0.5800 -0.3481
  587TMC3    C1 8698   0.106   0.682  16.474  0.1955  0.0153 -0.0377
  587TMC3    C2 8699   0.141   0.813  16.474  0.5590 -0.0560  0.5424
  587TMC3    C3 8700   0.269   0.843  16.443  0.2006 -0.3516 -0.1830
  587TMC3    C4 8701   0.182   0.582  16.426  0.2683 -0.3138 -0.0228
  587TMC3    C5 8702   0.312   0.623  16.384 -0.1306  0.7655 -0.9512
  587TMC3    C6 8703   0.357   0.747  16.398 -0.2759 -0.0498 -0.3822
  587TMC3     C 8704   4.690   0.649  16.510 -0.4175  0.4261  0.0397
  587TMC3     O 8705   4.656   0.538  16.550  0.4628  0.3926 -0.2629
  587TMC3     H 8706   0.078   0.889  16.519 -1.2664 -1.2312 -0.0337
  587TMC3    H1 8707   0.140   0.483  16.439 -1.6865  0.5076 -0.1012
  587TMC3    H2 8708   0.448   0.782  16.352  0.7030 -0.0056  1.6038
  587TMC3    C7 8709   0.391   0.535  16.310 -0.3606  0.6070 -0.6388
  587TMC3    C8 8710   0.311   0.981  16.410 -0.1456  0.6907 -0.2912
  587TMC3    O1 8711   0.507   0.567  16.273 -0.1686  0.1904 -0.0108
  587TMC3    O2 8712   0.418   0.992  16.359 -0.6557 -0.2858 -0.5907
  588TMC3    C1 8713   2.921   2.500   9.807 -0.1624 -0.3579 -0.4996
  588TMC3    C2 8714   2.918   2.374   9.755 -0.3609 -0.8123 -0.8455
  588TMC3    C3 8715   3.004   2.279   9.801 -0.1004 -0.0037 -0.3821
  588TMC3    C4 8716   3.014   2.527   9.911  0.4667 -0.2939  0.8061
  588TMC3    C5 8717   3.094   2.424   9.958 -0.2486 -0.0492  0.8709
  588TMC3    C6 8718   3.087   2.300   9.907 -0.2117 -0.0591  0.5648
  588TMC3     C 8719   2.897   2.608   9.713  0.3838  0.6417 -0.4226
  588TMC3     O 8720   2.822   2.593   9.611  0.0289 -0.0334 -0.1151
  588TMC3     H 8721   2.849   2.358   9.673 -0.2923  0.1280 -1.0925
  588TMC3    H1 8722   3.013   2.614   9.976  0.3961  0.7902 -0.6366
  588TMC3    H2 8723   3.118   2.214   9.964  0.9827 -0.2875 -0.4222
  588TMC3    C7 8724   3.217   2.462  10.030  0.6628  0.0376 -0.9208
  588TMC3    C8 8725   2.969   2.149   9.757 -0.2628  0.2676  0.2831
  588TMC3    O1 8726   3.273   2.380  10.104  0.5296  0.0619  0.0652
  588TMC3    O2 8727   2.861   2.126   9.703 -0.2224  0.2702 -0.1001
  589TMC3    C1 8728   1.656   0.960   1.320 -0.7468  0.0394 -0.3067
  589TMC3    C2 8729   1.697   0.977   1.447 -0.3210  0.4053  0.7013
  589TMC3    C3 8730   1.825   0.930   1.467  0.9745  0.0526  0.7647
  589TMC3    C4 8731   1.733   0.911   1.219 -0.0319  0.4770 -0.9218
  589TMC3    C5 8732   1.861   0.859   1.256  0.6822 -0.3053  0.2478
  589TMC3    C6 8733   1.911   0.867   1.380 -0.1103  0.5226  0.3683
  589TMC3     C 8734   1.514   0.963   1.287  0.1792  0.0511  0.1784
  589TMC3     O 8735   1.470   0.884   1.205 -0.2550 -0.1646 -1.0891
  589TMC3     H 8736   1.637   1.024   1.524 -1.0751  1.3651 -0.4661
  589TMC3    H1 8737   1.689   0.880   1.125 -0.7563  0.7087 -0.6535
  589TMC3    H2 8738   2.001   0.812   1.405 -1.2485 -1.8601 -0.8720
  589TMC3    C7 8739   1.924   0.761   1.171 -0.7469 -0.0200  0.8284
  589TMC3    C8 8740   1.880   0.958   1.600  0.8478 -0.7945  0.0087
  589TMC3    O1 8741   1.993   0.679   1.228 -0.9245 -0.1585 -0.5302
  589TMC3    O2 8742   1.803   0.962   1.697  0.1786 -0.4664 -0.2513
  590MPD2     C 8743   0.900   3.886  16.874 -0.1025 -0.5106 -0.0905
  590MPD2    C1 8744   0.877   3.900  16.738 -0.7454 -0.6534 -0.1306
  590MPD2    C2 8745   0.970   3.966  16.662  0.9621  0.1197  0.3589
  590MPD2    C3 8746   1.071   4.039  16.720  0.0108  0.2502  0.4838
  590MPD2    C4 8747   1.089   4.037  16.861 -0.2870  0.2668 -0.1654
  590MPD2    C5 8748   1.006   3.957  16.933 -0.8704 -0.0947  0.3106
  590MPD2     H 8749   0.955   3.980  16.556 -2.0680  2.4447  1.1014
  590MPD2    H1 8750   1.181   4.069  16.910 -1.5697  2.9878  0.4319
  590MPD2    H2 8751   0.837   3.825  16.938  0.1060  0.6722  1.2316
  590MPD2    H3 8752   1.036   3.927  17.033 -0.5658  0.1755  0.2989
  590MPD2     N 8753   1.162   4.103  16.635  0.0311 -0.2622 -0.4987
  590MPD2    H5 8754   1.161   4.071  16.539 -1.9444  0.5754 -0.7541
  590MPD2    N1 8755   0.770   3.829  16.686 -0.4535  0.7272 -0.0714
  590MPD2    H7 8756   0.706   3.790  16.755  1.6772 -1.2684  0.7669
  591TMC3    C1 8757   1.303   4.285  16.575  0.1008  0.1925  0.8375
  591TMC3    C2 8758   1.373   4.207  16.491 -0.5579  0.3453 -0.2874
  591TMC3    C3 8759   1.410   4.262  16.374 -0.5166  0.6464 -0.1363
  591TMC3    C4 8760   1.300   4.422  16.570 -0.1344 -0.7273  0.6149
  591TMC3    C5 8761   1.346   4.479  16.457 -0.2092  0.4473 -0.4638
  591TMC3    C6 8762   1.394   4.398  16.358  0.1428  0.0221  0.6793
  591TMC3     C 8763   1.212   4.227  16.673 -0.6203  0.1068  0.6579
  591TMC3     O 8764   1.182   4.299  16.769 -0.3979 -0.5046 -0.2117
  591TMC3     H 8765   1.371   4.100  16.507 -1.1204  0.0526 -2.2783
  591TMC3    H1 8766   1.227   4.471  16.633  1.9078  1.6340  1.1272
  591TMC3    H2 8767   1.409   4.451  16.265  0.2535 -0.9064  0.1721
  591TMC3    C7 8768   1.281   4.602  16.415 -0.0443  0.8092  0.0264
  591TMC3    C8 8769   1.470   4.174  16.273 -0.1446 -0.0612  0.6030
  591TMC3    O1 8770   1.174   4.626  16.470 -0.3408 -0.5930  0.4639
  591TMC3    O2 8771   1.522   4.068  16.308  0.3353 -0.3397  0.1904
  592MPD2     C 8772   2.204   0.858  11.013 -0.3901  0.2237  0.3360
  592MPD2    C1 8773   2.196   0.898  11.139 -0.2363  0.3542 -0.4347
  592MPD2    C2 8774   2.121   0.825  11.229  0.7764 -0.1011  0.2330
  592MPD2    C3 8775   2.030   0.730  11.194  0.0701 -0.5186  0.1614
  592MPD2    C4 8776   2.034   0.689  11.058 -0.4463 -0.2281 -0.0139
  592MPD2    C5 8777   2.130   0.752  10.969 -0.0415 -0.3617  0.4592
  592MPD2     H 8778   2.118   0.862  11.331 -2.2736  1.4639 -0.4016
  592MPD2    H1 8779   1.967   0.613  11.020  1.3848 -1.7671 -0.1520
  592MPD2    H2 8780   2.258   0.924  10.946 -2.1358  1.2772 -0.0300
  592MPD2    H3 8781   2.136   0.725  10.864  1.1609 -2.4673  1.0719
  592MPD2     N 8782   1.942   0.678  11.295  0.6088 -0.6089 -0.4051
  592MPD2    H5 8783   1.936   0.722  11.387 -0.7542  0.0688 -0.8205
  592MPD2    N1 8784   2.261   1.021  11.170 -0.4233 -0.4587  0.3792
  592MPD2    H7 8785   2.315   1.069  11.100 -0.9514  0.9334  0.9376
  593TMC3    C1 8786   2.336   1.201  11.294 -0.0742  0.1595  0.0972
  593TMC3    C2 8787   2.290   1.286  11.394  0.0019  0.1799  0.3664
  593TMC3    C3 8788   2.368   1.400  11.413  0.7580  0.0185 -0.3142
  593TMC3    C4 8789   2.445   1.225  11.219 -0.2966 -0.5605  0.0981
  593TMC3    C5 8790   2.514   1.339  11.243 -0.2541 -0.6155  0.0052
  593TMC3    C6 8791   2.485   1.422  11.347 -0.3338  0.3607  0.3808
  593TMC3     C 8792   2.261   1.082  11.290  0.1287  0.1700 -0.5451
  593TMC3     O 8793   2.214   1.047  11.399 -0.1956  0.1040 -0.5615
  593TMC3     H 8794   2.200   1.266  11.450  0.8728 -0.6631  1.4868
  593TMC3    H1 8795   2.477   1.143  11.156  0.7650 -0.0888  0.0180
  593TMC3    H2 8796   2.539   1.514  11.364 -0.8986  0.3912  2.0049
  593TMC3    C7 8797   2.610   1.386  11.148  0.3748  0.3147 -0.5734
  593TMC3    C8 8798   2.318   1.484  11.529  0.7300  0.0341  0.1638
  593TMC3    O1 8799   2.678   1.485  11.178 -0.7168  0.5881 -0.0480
  593TMC3    O2 8800   2.213   1.455  11.588  0.1967  0.1852  0.4541
  594MPD2     C 8801   0.184   4.687  14.308 -0.0915  0.3850 -0.1739
  594MPD2    C1 8802   0.243   4.707  14.429  0.0514 -0.1285 -0.7447
  594MPD2    C2 8803   0.363   0.055  14.432  0.6915  0.8867 -0.3013
  594MPD2    C3 8804   0.433   0.094  14.316  0.3022 -0.4366  0.2973
  594MPD2    C4 8805   0.378   0.065  14.196  0.0092 -0.1818  0.6263
  594MPD2    C5 8806   0.249   0.010  14.190  0.8321 -0.5310 -0.1852
  594MPD2     H 8807   0.407   0.082  14.527 -2.9284  1.1901  1.2659
  594MPD2    H1 8808   0.424   0.085  14.100 -0.6189  1.5934  0.6830
  594MPD2    H2 8809   0.083   4.649  14.293 -0.6818  1.2657  1.5844
  594MPD2    H3 8810   0.202   4.712  14.095  0.0447  0.0148  0.0896
  594MPD2     N 8811   0.549   0.169  14.328  0.5611 -0.4182  0.4387
  594MPD2    H5 8812   0.579   0.197  14.421  1.6541 -2.2124  0.6252
  594MPD2    N1 8813   0.166   4.680  14.536  0.3433 -0.1948  0.1565
  594MPD2    H7 8814   0.080   4.628  14.519  0.1217  0.3446 -0.3730
  595TMC3    C1 8815   0.942   0.390  14.267  0.3952 -0.3742 -0.5449
  595TMC3    C2 8816   0.856   0.297  14.209 -0.6016  0.0062 -0.2719
  595TMC3    C3 8817   0.725   0.305  14.247 -0.6528 -0.3034  0.4503
  595TMC3    C4 8818   0.901   0.494  14.344  0.4300 -0.2613 -0.6613
  595TMC3    C5 8819   0.772   0.498  14.377 -0.3180 -0.6620  0.7441
  595TMC3    C6 8820   0.685   0.401  14.334  0.2187 -0.4473 -0.1787
  595TMC3     C 8821   1.084   0.347  14.273  0.2326 -0.0670  0.1938
  595TMC3     O 8822   1.148   0.394  14.368 -0.3391 -0.2155 -0.5236
  595TMC3     H 8823   0.880   0.215  14.143  1.1473 -0.9210  1.5329
  595TMC3    H1 8824   0.966   0.572  14.382 -0.4870  0.9479 -1.5763
  595TMC3    H2 8825   0.582   0.418  14.362  0.7173  0.7379  0.8995
  595TMC3    C7 8826   0.734   0.566  14.499  0.2340 -0.0894 -0.2367
  595TMC3    C8 8827   0.645   0.181  14.230  0.2473  0.2367  0.1144
  595TMC3    O1 8828   0.613   0.590  14.497  0.7958 -0.2805  0.1024
  595TMC3    O2 8829   0.653   0.113  14.126  0.1551 -0.1420 -0.5486
  596MPD2     C 8830   4.330   2.717  16.711 -0.1182  0.5328 -0.0961
  596MPD2    C1 8831   4.360   2.842  16.661  0.7219  0.6161  0.4002
  596MPD2    C2 8832   4.364   2.859  16.525 -0.0034 -0.1117  0.3899
  596MPD2    C3 8833   4.356   2.755  16.435 -0.6700 -0.3808  0.1801
  596MPD2    C4 8834   4.311   2.638  16.483  0.2081  0.6075 -0.4974
  596MPD2    C5 8835   4.299   2.622  16.623 -0.7635 -0.5104  0.8550
  596MPD2     H 8836   4.401   2.954  16.490 -0.2865  1.1154  3.4326
  596MPD2    H1 8837   4.295   2.548  16.424  2.1870 -0.8095  1.1226
  596MPD2    H2 8838   4.321   2.682  16.813 -1.7273 -1.0102 -0.7672
  596MPD2    H3 8839   4.254   2.534  16.667  0.0315 -0.2469  2.1973
  596MPD2     N 8840   4.363   2.774  16.293  0.1687  0.1558  0.5755
  596MPD2    H5 8841   4.322   2.700  16.237  0.8043  0.3314 -0.1127
  596MPD2    N1 8842   4.378   2.960  16.736 -0.2363 -0.4521 -0.2943
  596MPD2    H7 8843   4.390   3.045  16.683 -1.0036  0.1520  0.5074
  597TMC3    C1 8844   4.359   3.095  16.924  0.5682  0.7444 -0.0299
  597TMC3    C2 8845   4.406   3.202  16.853 -0.2941 -0.4079 -0.1983
  597TMC3    C3 8846   4.377   3.328  16.892  0.3251  0.1673  0.5947
  597TMC3    C4 8847   4.268   3.109  17.034 -0.0020 -0.6843  0.0555
  597TMC3    C5 8848   4.241   3.235  17.073 -0.1429 -0.3703  0.1026
  597TMC3    C6 8849   4.287   3.344  16.995  1.2316  0.0367 -0.4197
  597TMC3     C 8850   4.377   2.960  16.874 -0.0576  0.3286  0.3586
  597TMC3     O 8851   4.347   2.867  16.950 -0.6462 -0.2195  0.4340
  597TMC3     H 8852   4.487   3.180  16.784  0.6060 -0.7951  0.9809
  597TMC3    H1 8853   4.220   3.024  17.079 -0.4374 -0.9092 -0.8243
  597TMC3    H2 8854   4.271   3.450  17.012 -0.0913 -0.4899  1.5884
  597TMC3    C7 8855   4.120   3.249  17.162 -0.3034  0.4727  0.2278
  597TMC3    C8 8856   4.427   3.437  16.823 -0.4392  0.3584 -0.4306
  597TMC3    O1 8857   4.069   3.144  17.198  0.0244 -0.3272  0.0973
  597TMC3    O2 8858   4.404   3.549  16.875 -0.0535 -0.6497 -0.5018
  598TMC3    C1 8859   2.742   4.663  15.454 -0.4513  0.2299  0.0338
  598TMC3    C2 8860   2.644   4.568  15.461 -0.5574  0.4044 -0.2501
  598TMC3    C3 8861   2.561   4.539  15.360  0.3578  0.2938 -0.3360
  598TMC3    C4 8862   2.744   0.016  15.336 -0.0062  0.1497 -0.4976
  598TMC3    C5 8863   2.648   4.714  15.242  0.0066 -0.9089  0.3979
  598TMC3    C6 8864   2.562   4.610  15.246 -0.2679 -0.1545  0.0654
  598TMC3     C 8865   2.867   4.653  15.523 -0.4791  0.8468  0.3596
  598TMC3     O 8866   2.969   4.701  15.467  0.8158  0.0558 -0.0090
  598TMC3     H 8867   2.628   4.531  15.562 -0.4926  2.0423  0.3606
  598TMC3    H1 8868   2.821   0.091  15.318 -2.1279  2.4652  0.0877
  598TMC3    H2 8869   2.480   4.608  15.176 -0.7280 -2.3043  0.6686
  598TMC3    C7 8870   2.652   0.068  15.115  0.0783 -0.0945 -0.1418
  598TMC3    C8 8871   2.480   4.419  15.379 -0.2602 -0.1018 -0.0924
  598TMC3    O1 8872   2.598   0.003  15.031 -0.1335 -0.2130 -0.1909
  598TMC3    O2 8873   2.486   4.383  15.494  0.7940  0.2104 -0.1985
  599MPD2     C 8874   2.481   2.029  15.516  0.2784 -0.1946 -0.3925
  599MPD2    C1 8875   2.546   2.011  15.641 -0.5810 -0.0945 -0.6968
  599MPD2    C2 8876   2.481   2.021  15.764 -0.2476 -0.3276 -0.0415
  599MPD2    C3 8877   2.345   2.026  15.755  0.0857  0.4818 -0.1586
  599MPD2    C4 8878   2.274   2.024  15.639 -0.7132  0.4261 -0.3608
  599MPD2    C5 8879   2.341   2.029  15.516 -0.5678 -0.8810  0.1129
  599MPD2     H 8880   2.526   2.023  15.862  2.2854 -0.8157 -1.2024
  599MPD2    H1 8881   2.166   2.036  15.647 -0.9222 -2.4604  1.3156
  599MPD2    H2 8882   2.537   2.022  15.424 -1.3256 -2.4214 -1.2136
  599MPD2    H3 8883   2.292   2.037  15.420  0.6515 -0.2510 -0.4548
  599MPD2     N 8884   2.281   2.027  15.877  0.5512  0.0387  0.1449
  599MPD2    H5 8885   2.323   2.070  15.958 -0.3920  0.9663  0.1422
  599MPD2    N1 8886   2.687   1.989  15.636  0.1153 -0.0797  0.2456
  599MPD2    H7 8887   2.735   1.993  15.546  0.3539  0.0208  0.3749
  600TMC3    C1 8888   2.105   1.998  16.030  0.0544  0.0528  0.2309
  600TMC3    C2 8889   2.045   1.901  16.102 -0.1662  0.6389  1.1312
  600TMC3    C3 8890   2.019   1.938  16.230 -0.2479 -0.0899  0.0911
  600TMC3    C4 8891   2.112   2.131  16.067 -1.1006  0.1184 -0.1681
  600TMC3    C5 8892   2.077   2.157  16.198 -0.9992 -0.0979 -0.0750
  600TMC3    C6 8893   2.040   2.062  16.283  0.5808 -0.1915  0.3256
  600TMC3     C 8894   2.158   1.966  15.903 -1.1468  0.3433  0.3855
  600TMC3     O 8895   2.089   1.895  15.829 -0.2140 -0.0130 -0.1855
  600TMC3     H 8896   2.048   1.797  16.072 -1.0331  0.5466  1.3834
  600TMC3    H1 8897   2.179   2.199  16.015  0.6508 -0.4640  1.3340
  600TMC3    H2 8898   2.008   2.091  16.382  0.5689  0.7058  0.0606
  600TMC3    C7 8899   2.091   2.289  16.259  0.4795  0.0842  0.4886
  600TMC3    C8 8900   2.004   1.822  16.315  0.4637  0.1966  0.2006
  600TMC3    O1 8901   2.084   2.299  16.381 -1.0458  0.2807 -0.1567
  600TMC3    O2 8902   2.062   1.829  16.422  0.4520  0.0912 -0.7434
  601MPD2     C 8903   0.287   0.397   0.060  0.0613 -0.1697 -0.0836
  601MPD2    C1 8904   0.220   0.333  17.648 -0.0378  0.3942 -0.4161
  601MPD2    C2 8905   0.152   0.212  17.674  0.5197 -0.4022 -0.0121
  601MPD2    C3 8906   0.165   0.148   0.101  0.6185 -0.2215  0.2555
  601MPD2    C4 8907   0.233   0.206   0.204 -0.2548  0.4682  0.5630
  601MPD2    C5 8908   0.293   0.324   0.178  0.3623  0.0148 -0.3705
  601MPD2     H 8909   0.096   0.166  17.593  1.0378 -0.5575 -0.2794
  601MPD2    H1 8910   0.251   0.148   0.294  2.4393  0.3059 -0.0642
  601MPD2    H2 8911   0.343   0.489   0.050 -1.9219  0.7714 -2.5221
  601MPD2    H3 8912   0.334   0.369   0.268  0.6281  0.0892 -0.5276
  601MPD2     N 8913   0.114   0.017   0.120  0.3770  0.1347  0.0110
  601MPD2    H5 8914   0.106   4.694   0.211 -1.4498 -0.8128 -0.6023
  601MPD2    N1 8915   0.201   0.385  17.516 -0.2852  0.3404  0.0475
  601MPD2    H7 8916   0.155   0.331  17.443 -1.9513 -0.1991  1.5023
  602TMC3    C1 8917   0.192   0.528  17.343 -0.2942  0.2004 -0.3264
  602TMC3    C2 8918   0.243   0.643  17.284 -0.1304 -0.1183 -0.2413
  602TMC3    C3 8919   0.159   0.716  17.215  0.5703  0.3972 -0.4907
  602TMC3    C4 8920   0.065   0.486  17.319 -0.4317  0.0241 -0.1245
  602TMC3    C5 8921   4.707   0.561  17.245 -0.4426  0.4962  0.2795
  602TMC3    C6 8922   0.025   0.680  17.193  0.4082 -0.2249  0.1827
  602TMC3     C 8923   0.243   0.509  17.475  0.3079 -0.2790  0.0430
  602TMC3     O 8924   0.329   0.585  17.513 -0.3443 -0.5754 -0.0441
  602TMC3     H 8925   0.345   0.677  17.300 -0.2407  0.6369 -1.1776
  602TMC3    H1 8926   0.018   0.409  17.380  0.3116  0.4814  1.0268
  602TMC3    H2 8927   4.685   0.733  17.122 -1.0383  0.7405  2.1435
  602TMC3    C7 8928   4.563   0.558  17.283  0.3667 -0.6291 -0.6472
  602TMC3    C8 8929   0.195   0.861  17.188  0.5227 -0.5744  0.0267
  602TMC3    O1 8930   4.522   0.455  17.335 -0.0299  0.2795 -0.0642
  602TMC3    O2 8931   0.308   0.896  17.157  0.4982 -0.3007  0.5042
  603TMC3    C1 8932   3.485   0.291  11.057 -0.0125  0.3861  0.2522
  603TMC3    C2 8933   3.488   0.276  11.195  0.3328  0.3790  1.1052
  603TMC3    C3 8934   3.447   0.379  11.276  0.6287  0.2283 -0.2070
  603TMC3    C4 8935   3.457   0.412  10.998  0.6544 -0.3595 -0.0831
  603TMC3    C5 8936   3.396   0.504  11.081 -0.1269 -0.0011  0.7093
  603TMC3    C6 8937   3.397   0.499  11.223 -0.5308 -0.3441  0.1297
  603TMC3     C 8938   3.494   0.176  10.967 -0.6559  0.1358  0.3509
  603TMC3     O 8939   3.462   0.194  10.849  0.7984  0.0775  0.3916
  603TMC3     H 8940   3.541   0.206  11.259 -0.8445 -0.7901  0.8026
  603TMC3    H1 8941   3.466   0.425  10.891  1.2070 -1.7674 -0.2160
  603TMC3    H2 8942   3.342   0.581  11.268  1.6989  1.0191  0.3307
  603TMC3    C7 8943   3.376   0.636  11.026  0.5089 -0.6603 -0.5878
  603TMC3    C8 8944   3.394   0.349  11.406 -0.1503 -0.7064  0.1937
  603TMC3    O1 8945   3.407   0.729  11.094 -0.0422 -0.7764 -0.4471
  603TMC3    O2 8946   3.358   0.233  11.419 -0.1713  0.1321  0.0800
  604MPD2     C 8947   3.292   3.793  16.384  0.0647  0.3335  0.3962
  604MPD2    C1 8948   3.324   3.923  16.405  0.2056  0.3829  0.4200
  604MPD2    C2 8949   3.434   3.975  16.329 -0.4370  0.2689  0.3174
  604MPD2    C3 8950   3.492   3.903  16.225 -0.0907  0.3319  0.4438
  604MPD2    C4 8951   3.454   3.777  16.213  0.0398 -0.0193 -0.6335
  604MPD2    C5 8952   3.354   3.719  16.287  0.7146  0.2432 -0.0764
  604MPD2     H 8953   3.460   4.079  16.347  1.8035  0.1887 -2.4946
  604MPD2    H1 8954   3.503   3.720  16.135  2.9294  0.3710  0.9051
  604MPD2    H2 8955   3.215   3.744  16.443 -1.0859 -0.6593 -1.9220
  604MPD2    H3 8956   3.328   3.616  16.264 -2.2179  0.8372  0.4904
  604MPD2     N 8957   3.578   3.966  16.128  0.4213 -0.0220 -0.1026
  604MPD2    H5 8958   3.606   4.061  16.152 -0.6796  0.6025 -1.3066
  604MPD2    N1 8959   3.250   3.988  16.506 -0.6878 -0.4050 -0.2341
  604MPD2    H7 8960   3.163   3.949  16.542 -1.7281  0.1630 -2.1199
  605TMC3    C1 8961   3.172   4.170  16.621 -0.2727  0.0442 -0.2161
  605TMC3    C2 8962   3.199   4.268  16.714 -0.1799 -0.0534  0.1156
  605TMC3    C3 8963   3.126   4.383  16.706 -0.0834  0.7598 -0.8661
  605TMC3    C4 8964   3.064   4.176  16.536 -0.4406  0.5770 -0.9019
  605TMC3    C5 8965   2.988   4.288  16.535 -0.5666 -0.0453 -0.8007
  605TMC3    C6 8966   3.017   4.393  16.625 -0.1433  0.3783 -0.1751
  605TMC3     C 8967   3.292   4.107  16.567 -0.3244  0.4082  0.7165
  605TMC3     O 8968   3.397   4.169  16.557 -0.2019  0.5876 -0.3255
  605TMC3     H 8969   3.282   4.266  16.783  1.6175 -0.2180 -2.0720
  605TMC3    H1 8970   3.059   4.114  16.448  0.5878 -1.7287  0.6747
  605TMC3    H2 8971   2.947   4.473  16.643 -1.5841 -0.9904  0.2751
  605TMC3    C7 8972   2.867   4.300  16.454 -0.5993  0.5024  0.7669
  605TMC3    C8 8973   3.163   4.481  16.810 -0.4700  0.8656 -0.1026
  605TMC3    O1 8974   2.822   4.415  16.435 -0.0071  0.8294  0.4838
  605TMC3    O2 8975   3.266   4.454  16.874  0.5475 -0.5601  0.1493
  606TMC3    C1 8976   4.693   2.696  16.972  0.1553 -0.1292  0.4372
  606TMC3    C2 8977   4.720   2.667  17.103  0.1363  0.3366 -0.5130
  606TMC3    C3 8978   4.663   2.551  17.159  0.2525  0.8561 -0.1474
  606TMC3    C4 8979   4.623   2.612  16.887  0.0392 -0.3613  0.3276
  606TMC3    C5 8980   4.582   2.494  16.941  0.2159  0.5303  0.1559
  606TMC3    C6 8981   4.604   2.459  17.078  0.0656 -0.3195 -0.0256
  606TMC3     C 8982   4.721   2.836  16.935  0.1330 -0.2289  0.5514
  606TMC3     O 8983   0.021   2.914  17.022  0.7946  0.4077  0.0793
  606TMC3     H 8984   0.023   2.746  17.173  1.0620  1.2092 -1.8390
  606TMC3    H1 8985   4.597   2.627  16.783  0.3421  1.3481  0.5050
  606TMC3    H2 8986   4.595   2.356  17.109  0.2662  0.0202  1.1506
  606TMC3    C7 8987   4.535   2.387  16.860  0.3039 -0.4736 -0.4930
  606TMC3    C8 8988   4.652   2.538  17.300 -0.2279  0.3767 -0.4697
  606TMC3    O1 8989   4.585   2.374  16.746  0.0419 -0.8417  0.1817
  606TMC3    O2 8990   4.721   2.609  17.371 -0.1130 -0.0392  0.6855
  607MPD2     C 8991   2.042   0.330  11.563  0.0548  0.5036  0.0848
  607MPD2    C1 8992   2.044   0.406  11.683 -0.2995 -0.3513 -0.9676
  607MPD2    C2 8993   1.991   0.343  11.796  0.3068  0.6131  0.3067
  607MPD2    C3 8994   1.963   0.205  11.810 -0.1910 -0.3222 -0.5773
  607MPD2    C4 8995   1.977   0.126  11.697 -0.2628  0.6197  0.6995
  607MPD2    C5 8996   2.021   0.195  11.580  0.0209  0.7560  0.0794
  607MPD2     H 8997   1.986   0.408  11.883  3.8669  0.8910  0.2966
  607MPD2    H1 8998   1.966   0.018  11.698  0.3801  0.5443 -0.4035
  607MPD2    H2 8999   2.070   0.367  11.465 -0.0842  0.1073 -0.1051
  607MPD2    H3 9000   2.041   0.130  11.496 -1.8947  1.6669 -1.0707
  607MPD2     N 9001   1.929   0.152  11.944 -0.6239 -0.2762 -0.2117
  607MPD2    H5 9002   1.914   0.229  12.008 -0.5906 -1.0356  0.7084
  607MPD2    N1 9003   2.088   0.538  11.700 -0.1323  0.4586  0.7758
  607MPD2    H7 9004   2.082   0.570  11.796  0.7867 -1.1104  1.3561
  608TMC3    C1 9005   2.217   0.738  11.667 -0.6685  0.9370  0.6067
  608TMC3    C2 9006   2.185   0.773  11.796  0.4075  0.2252  0.5241
  608TMC3    C3 9007   2.266   0.863  11.859 -0.5334  0.1737 -0.0782
  608TMC3    C4 9008   2.315   0.799  11.597 -0.0207  0.2077 -0.1241
  608TMC3    C5 9009   2.389   0.887  11.664  0.2960  0.5543  0.5495
  608TMC3    C6 9010   2.363   0.921  11.796 -0.4331  0.1559  0.1899
  608TMC3     C 9011   2.169   0.611  11.617 -0.0859  0.1908  0.0755
  608TMC3     O 9012   2.208   0.566  11.512 -0.0566  0.1860 -0.1268
  608TMC3     H 9013   2.105   0.722  11.847 -1.3855  2.3635 -0.1503
  608TMC3    H1 9014   2.334   0.783  11.491 -1.1106  1.2697 -0.4770
  608TMC3    H2 9015   2.437   0.968  11.862 -0.5945  0.4053  0.1940
  608TMC3    C7 9016   2.509   0.933  11.602 -0.3473 -0.4092  0.4169
  608TMC3    C8 9017   2.267   0.868  12.002  0.6626 -0.0569 -0.1399
  608TMC3    O1 9018   2.563   0.877  11.508  0.1622  0.1112  0.2716
  608TMC3    O2 9019   2.315   0.967  12.054  0.7056  0.1079 -0.1803
  609TMC3    C1 9020   1.617   3.723   9.395  0.4019  0.3432 -0.6574
  609TMC3    C2 9021   1.690   3.612   9.366 -0.3831  0.2467 -0.1904
  609TMC3    C3 9022   1.819   3.613   9.415 -0.3013 -0.7784  0.8040
  609TMC3    C4 9023   1.645   3.804   9.503  0.4086  0.0309 -0.2658
  609TMC3    C5 9024   1.775   3.802   9.551 -0.0764  0.3358  0.4958
  609TMC3    C6 9025   1.867   3.709   9.503  0.0733  0.6310  0.0671
  609TMC3     C 9026   1.484   3.739   9.343 -0.2601 -0.1769 -0.0607
  609TMC3     O 9027   1.434   3.849   9.359  0.0717 -0.5693 -0.3908
  609TMC3     H 9028   1.655   3.551   9.283  0.4486  1.9770 -1.8155
  609TMC3    H1 9029   1.566   3.874   9.531  0.4421 -1.4708  3.6091
  609TMC3    H2 9030   1.973   3.711   9.524  0.1418 -0.7051 -0.2024
  609TMC3    C7 9031   1.804   3.901   9.652  0.2271 -0.3060  1.1626
  609TMC3    C8 9032   1.903   3.499   9.384  0.7046 -0.7797  0.8414
  609TMC3    O1 9033   1.740   4.003   9.671 -0.0695  0.2077 -0.2230
  609TMC3    O2 9034   2.023   3.513   9.378 -0.5235  0.4999  0.2230
  610TMC3    C1 9035   2.382   0.859  13.122  0.4047  0.3301  0.1346
  610TMC3    C2 9036   2.388   0.919  13.000  0.3419 -0.1086  0.3622
  610TMC3    C3 9037   2.470   0.872  12.901  0.2907  0.0518  0.5055
  610TMC3    C4 9038   2.478   0.766  13.153  0.4297 -0.4213  0.4676
  610TMC3    C5 9039   2.552   0.714  13.051 -0.4237 -0.1759  0.0907
  610TMC3    C6 9040   2.549   0.763  12.924 -0.0238 -0.0340  0.5060
  610TMC3     C 9041   2.313   0.933  13.220 -0.0226  0.2536 -0.0093
  610TMC3     O 9042   2.267   1.040  13.185 -0.1539 -0.9413  0.2297
  610TMC3     H 9043   2.319   0.994  12.964 -0.7386  0.1421  2.9401
  610TMC3    H1 9044   2.483   0.709  13.245  0.2253  0.0766  0.7909
  610TMC3    H2 9045   2.623   0.739  12.848  1.1067  0.3674  1.4724
  610TMC3    C7 9046   2.624   0.591  13.069  0.5440  0.1067  0.0385
  610TMC3    C8 9047   2.451   0.932  12.771  0.7166 -0.6593  0.4139
  610TMC3    O1 9048   2.672   0.592  13.181 -0.3058  0.0749 -0.2717
  610TMC3    O2 9049   2.401   1.044  12.765  0.1298  0.0382  0.2814
  611MPD2     C 9050   2.782   0.069  10.315  0.3950 -0.1647  0.0773
  611MPD2    C1 9051   2.706   0.162  10.246  0.5848  0.5220  0.9994
  611MPD2    C2 9052   2.764   0.284  10.218  0.5898 -0.0765  0.3002
  611MPD2    C3 9053   2.900   0.309  10.246 -0.0005  0.4771 -0.1738
  611MPD2    C4 9054   2.962   0.216  10.324  0.2377  0.1308  0.4758
  611MPD2    C5 9055   2.910   0.098  10.352 -0.7140 -0.2800  0.1486
  611MPD2     H 9056   2.715   0.362  10.161  0.6398 -0.2055  0.0805
  611MPD2    H1 9057   3.061   0.239  10.362 -0.3535  0.4886  1.8144
  611MPD2    H2 9058   2.741   4.694  10.342  2.0883 -0.9463 -0.1300
  611MPD2    H3 9059   2.975   0.032  10.407 -2.7459  0.0432  2.9582
  611MPD2     N 9060   2.958   0.438  10.227 -0.1910  0.2283  0.0379
  611MPD2    H5 9061   3.036   0.463  10.286 -0.2828 -1.6198  0.9245
  611MPD2    N1 9062   2.576   0.123  10.208 -0.0117 -0.3690 -0.3943
  611MPD2    H7 9063   2.553   0.026  10.226 -1.0335 -0.1082 -0.2837
  612TMC3    C1 9064   3.009   0.640  10.121  0.0635 -0.1970 -0.1466
  612TMC3    C2 9065   3.060   0.679  10.237  0.3125 -0.2473  0.0876
  612TMC3    C3 9066   3.151   0.782  10.228  0.6625  0.2780 -0.1298
  612TMC3    C4 9067   3.039   0.695  10.000  0.7628  0.0031 -0.1795
  612TMC3    C5 9068   3.109   0.815  10.001 -0.3495  0.6541 -0.3952
  612TMC3    C6 9069   3.169   0.862  10.115  0.5203  0.1374  0.2540
  612TMC3     C 9070   2.930   0.518  10.121  0.5600  0.3934  0.3102
  612TMC3     O 9071   2.855   0.502  10.028  0.0899  0.1627 -0.3142
  612TMC3     H 9072   3.025   0.643  10.333 -0.4712 -2.6665 -1.1352
  612TMC3    H1 9073   3.007   0.648   9.908 -0.2527  0.9576 -0.3160
  612TMC3    H2 9074   3.223   0.956  10.122  1.2064 -0.4299  2.6213
  612TMC3    C7 9075   3.149   0.870   9.867  0.4232 -0.5310 -0.1083
  612TMC3    C8 9076   3.187   0.851  10.347  0.4042 -0.3794  0.3073
  612TMC3    O1 9077   3.110   0.813   9.767 -0.1209  0.6994  0.4509
  612TMC3    O2 9078   3.179   0.974  10.338  0.2260  0.0900 -0.1905
  613MPD2     C 9079   0.795   2.809  16.818  0.0457  0.3828 -0.3625
  613MPD2    C1 9080   0.846   2.764  16.699  0.1930 -0.4715 -0.1904
  613MPD2    C2 9081   0.850   2.626  16.673 -0.5836 -0.4511  0.2140
  613MPD2    C3 9082   0.794   2.539  16.767  0.0785  0.4865 -0.1864
  613MPD2    C4 9083   0.761   2.582  16.893 -0.2980  0.7370 -0.9620
  613MPD2    C5 9084   0.754   2.717  16.907 -0.2870 -0.0879 -0.9239
  613MPD2     H 9085   0.887   2.576  16.585 -1.5098  1.9699 -1.5517
  613MPD2    H1 9086   0.705   2.519  16.962  1.0573  0.9107  0.2673
  613MPD2    H2 9087   0.791   2.915  16.839  0.2681 -0.0389  1.8708
  613MPD2    H3 9088   0.710   2.765  16.994  2.3508 -0.6828  0.7401
  613MPD2     N 9089   0.788   2.408  16.722  0.1532  0.4105 -0.4707
  613MPD2    H5 9090   0.827   2.394  16.629 -0.7684 -1.8493 -0.5171
  613MPD2    N1 9091   0.891   2.862  16.609  0.4570  0.1754  0.1648
  613MPD2    H7 9092   0.852   2.956  16.618 -0.3616 -0.2300  0.9139
  614TMC3    C1 9093   0.965   2.947  16.396  0.5034 -0.0370  0.3954
  614TMC3    C2 9094   1.052   2.912  16.296  0.3553  0.3704  0.6174
  614TMC3    C3 9095   1.034   2.929  16.165 -0.0963 -0.1134 -0.5213
  614TMC3    C4 9096   0.852   3.007  16.347  0.1825 -0.7765 -0.5784
  614TMC3    C5 9097   0.837   3.024  16.214  0.1208 -0.5389 -0.4855
  614TMC3    C6 9098   0.926   2.989  16.116  0.1577 -0.5131 -0.5404
  614TMC3     C 9099   0.951   2.833  16.488  0.5323  0.0253 -0.0421
  614TMC3     O 9100   0.987   2.726  16.442 -0.0178  0.3232  0.3034
  614TMC3     H 9101   1.146   2.869  16.331  0.5741 -0.9459 -1.5837
  614TMC3    H1 9102   0.767   3.013  16.413  1.5729  0.2355  1.1248
  614TMC3    H2 9103   0.915   2.997  16.008 -1.8970  0.3905 -0.2603
  614TMC3    C7 9104   0.719   3.096  16.173  0.0686 -0.3658 -0.0047
  614TMC3    C8 9105   1.073   2.810  16.096 -0.3573  0.5991 -0.2079
  614TMC3    O1 9106   0.671   3.177  16.252  0.4830 -0.4787 -0.2344
  614TMC3    O2 9107   1.108   2.820  15.980  0.0166 -0.9620 -0.0232
  615MPD2     C 9108   0.450   4.376  16.245 -0.3421 -0.0744  0.2858
  615MPD2    C1 9109   0.319   4.383  16.296  0.6027  0.9596  0.5828
  615MPD2    C2 9110   0.227   4.298  16.237  0.0428 -0.7413  0.0100
  615MPD2    C3 9111   0.254   4.220  16.128  0.2144  0.6462  1.2031
  615MPD2    C4 9112   0.381   4.200  16.088  0.4492  0.6184 -0.5479
  615MPD2    C5 9113   0.475   4.284  16.146  0.7754  0.1316  0.2971
  615MPD2     H 9114   0.124   4.310  16.269 -0.8491 -1.1587 -2.6855
  615MPD2    H1 9115   0.407   4.151  15.995  1.1653  2.5624 -1.3753
  615MPD2    H2 9116   0.523   4.452  16.268 -0.6479  0.3652 -0.1849
  615MPD2    H3 9117   0.575   4.288  16.105 -0.2059  2.2363 -1.8736
  615MPD2     N 9118   0.161   4.144  16.059 -0.2552  0.3093 -0.1121
  615MPD2    H5 9119   0.191   4.096  15.975  0.2162  0.5208 -0.0631
  615MPD2    N1 9120   0.273   4.483  16.384 -0.0359  0.3429  0.4788
  615MPD2    H7 9121   0.173   4.500  16.385  0.1339  1.3138  1.0922
  616TMC3    C1 9122   0.288   4.681  16.523  0.2825 -0.1999  0.3050
  616TMC3    C2 9123   0.345   0.078  16.529  0.1058 -0.5217  0.1170
  616TMC3    C3 9124   0.276   0.185  16.584  0.0320 -0.0279  0.0354
  616TMC3    C4 9125   0.163   4.662  16.572 -0.6340  0.3586 -0.8995
  616TMC3    C5 9126   0.098   0.050  16.622 -0.2810  0.2762  0.5045
  616TMC3    C6 9127   0.147   0.175  16.633  0.1834  0.0416  0.9853
  616TMC3     C 9128   0.356   4.571  16.453  0.6635 -0.1643 -0.0002
  616TMC3     O 9129   0.477   4.586  16.459  0.5354 -0.4922  0.4286
  616TMC3     H 9130   0.439   0.094  16.478  0.0059  1.0005  0.4102
  616TMC3    H1 9131   0.116   4.563  16.567 -0.9055  0.4124  0.7666
  616TMC3    H2 9132   0.098   0.267  16.662  1.1224  1.0079 -0.4412
  616TMC3    C7 9133   4.701   0.017  16.695  0.9055 -0.4735  0.6401
  616TMC3    C8 9134   0.347   0.314  16.609  0.6300 -0.0690  0.5160
  616TMC3    O1 9135   4.648   4.635  16.667 -0.1207 -0.3877 -0.0302
  616TMC3    O2 9136   0.285   0.393  16.681 -0.7869  0.0895  0.1248
  617MPD2     C 9137   3.299   3.058  14.080  0.2648  0.5437 -0.6190
  617MPD2    C1 9138   3.309   2.929  14.113 -0.0400 -0.8589  0.2877
  617MPD2    C2 9139   3.193   2.855  14.119 -0.0376 -0.1704  0.0455
  617MPD2    C3 9140   3.070   2.905  14.098  0.1348 -0.1640  0.2685
  617MPD2    C4 9141   3.063   3.039  14.061  0.2410  0.1635  0.2063
  617MPD2    C5 9142   3.177   3.113  14.055 -0.3350 -0.4573  0.2419
  617MPD2     H 9143   3.202   2.751  14.148 -0.5026 -0.0837  0.5185
  617MPD2    H1 9144   2.961   3.072  14.043  0.9354  1.7594 -0.7112
  617MPD2    H2 9145   3.393   3.113  14.078  0.3910  0.3322 -0.5511
  617MPD2    H3 9146   3.175   3.211  14.010  0.3840  0.9506  3.2593
  617MPD2     N 9147   2.955   2.829  14.084 -0.0418 -0.6623 -0.3076
  617MPD2    H5 9148   2.873   2.875  14.045  0.5292  1.2385  0.7693
  617MPD2    N1 9149   3.439   2.870  14.133  0.1901  0.1529  0.4524
  617MPD2    H7 9150   3.517   2.936  14.140  1.1661 -0.8201 -1.1435
  618TMC3    C1 9151   3.602   2.706  14.137 -0.1576  0.6117  0.4906
  618TMC3    C2 9152   3.636   2.572  14.106 -0.8665  0.9711  0.3203
  618TMC3    C3 9153   3.770   2.535  14.125 -0.8594 -0.5264  0.2504
  618TMC3    C4 9154   3.698   2.796  14.165  0.0706 -0.5583  0.2190
  618TMC3    C5 9155   3.831   2.756  14.184 -0.0125 -0.1102  0.0935
  618TMC3    C6 9156   3.869   2.624  14.170 -0.5983 -0.0249 -0.0147
  618TMC3     C 9157   3.464   2.740  14.107 -0.4176  0.1724 -0.3182
  618TMC3     O 9158   3.386   2.654  14.072  0.4161 -0.2717  0.5697
  618TMC3     H 9159   3.561   2.503  14.070  0.8260  0.6910 -2.5892
  618TMC3    H1 9160   3.667   2.898  14.179 -1.2729 -1.0416  0.7976
  618TMC3    H2 9161   3.969   2.593  14.200  0.1402  0.9244 -1.4622
  618TMC3    C7 9162   3.930   2.864  14.219 -0.1473 -0.7277  0.0683
  618TMC3    C8 9163   3.800   2.417  14.038  0.0710  0.1151 -0.1461
  618TMC3    O1 9164   3.888   2.964  14.274 -0.8336 -0.1319 -0.5288
  618TMC3    O2 9165   3.705   2.380  13.971  0.0088 -0.4057 -0.1532
  619MPD2     C 9166   0.215   4.041  13.326 -0.2757  0.7214 -0.1565
  619MPD2    C1 9167   0.121   4.125  13.272 -0.0546  0.1183  0.3331
  619MPD2    C2 9168   0.005   4.137  13.333 -0.1861 -0.1306  0.3260
  619MPD2    C3 9169   4.703   4.066  13.453  0.2243  0.6901 -0.3776
  619MPD2    C4 9170   0.082   3.993  13.515  0.4510  0.4779  0.6753
  619MPD2    C5 9171   0.202   3.989  13.447  0.1135 -0.1174  0.0260
  619MPD2     H 9172   4.655   4.204  13.287  0.0923 -0.8618 -1.1856
  619MPD2    H1 9173   0.062   3.932  13.602 -1.4972  1.3404  0.8517
  619MPD2    H2 9174   0.313   4.023  13.283  0.2607  2.0549  0.4993
  619MPD2    H3 9175   0.283   3.933  13.493  1.0769  0.6192 -0.7737
  619MPD2     N 9176   4.573   4.055  13.507  0.7844 -0.0484 -0.0884
  619MPD2    H5 9177   4.559   3.985  13.578 -0.8222  0.0395 -0.3115
  619MPD2    N1 9178   0.138   4.198  13.155  0.0146 -0.0159 -0.1746
  619MPD2    H7 9179   0.065   4.267  13.140  0.3138  0.5879  1.1786
  620TMC3    C1 9180   0.239   4.311  12.984  0.1286 -0.4253 -0.5712
  620TMC3    C2 9181   0.109   4.353  12.960  0.7220 -0.4432  0.4151
  620TMC3    C3 9182   0.073   4.482  12.976  0.1795 -0.3714 -0.2815
  620TMC3    C4 9183   0.333   4.406  13.011 -0.0587  0.3646  0.3993
  620TMC3    C5 9184   0.295   4.533  13.033  0.2617  0.1712 -0.0297
  620TMC3    C6 9185   0.163   4.579  13.013 -0.1438  0.5982 -0.1149
  620TMC3     C 9186   0.248   4.203  13.077  0.6300 -0.1769 -0.0204
  620TMC3     O 9187   0.356   4.150  13.097 -0.0453  0.4544  0.1051
  620TMC3     H 9188   0.031   4.286  12.926  0.9481 -0.1698 -0.6419
  620TMC3    H1 9189   0.435   4.382  13.040  0.8518  2.0817 -1.4141
  620TMC3    H2 9190   0.140   4.682  13.040  0.0718  0.3948  0.8222
  620TMC3    C7 9191   0.340   4.583  13.161  0.9684  1.1355 -0.5613
  620TMC3    C8 9192   4.683   4.492  13.060 -0.3924 -0.5726 -0.4391
  620TMC3    O1 9193   0.336   4.703  13.184 -0.3674 -0.5124  0.0735
  620TMC3    O2 9194   4.640   4.388  13.111  1.1521  0.5684  0.7588
  621MPD2     C 9195   0.483   3.511  10.013  0.5935 -0.1010 -0.3338
  621MPD2    C1 9196   0.602   3.486  10.086 -0.1384  0.1710  0.2391
  621MPD2    C2 9197   0.704   3.580  10.076  0.8523  0.1410 -0.0614
  621MPD2    C3 9198   0.693   3.693   9.994  0.0868  0.4411  0.2449
  621MPD2    C4 9199   0.574   3.717   9.935 -0.3345 -0.6107 -0.1201
  621MPD2    C5 9200   0.471   3.628   9.944 -0.4048 -0.0718 -0.2645
  621MPD2     H 9201   0.795   3.562  10.131 -0.1529 -0.2095  1.4784
  621MPD2    H1 9202   0.550   3.807   9.880  0.5251 -1.2464 -1.5310
  621MPD2    H2 9203   0.397   3.445  10.014  1.7458 -1.5456  2.9215
  621MPD2    H3 9204   0.381   3.654   9.889  0.5547  1.3752 -1.1526
  621MPD2     N 9205   0.802   3.784   9.981 -0.1062  0.1790  0.1575
  621MPD2    H5 9206   0.898   3.755  10.001 -0.5506 -1.3447  0.1125
  621MPD2    N1 9207   0.629   3.363  10.159  0.0928  0.1271 -0.8496
  621MPD2    H7 9208   0.721   3.355  10.202 -0.4917  2.0370  0.7565
  622TMC3    C1 9209   0.594   3.146  10.236  0.4979 -0.3041 -0.4501
  622TMC3    C2 9210   0.490   3.056  10.261 -0.3587  0.5210 -0.0325
  622TMC3    C3 9211   0.504   2.924  10.226  0.2184 -0.3818 -0.1262
  622TMC3    C4 9212   0.704   3.100  10.168  0.8075  1.2983  0.0293
  622TMC3    C5 9213   0.707   2.968  10.122 -0.0420 -0.6520  0.3006
  622TMC3    C6 9214   0.617   2.879  10.168  0.9703 -0.4342  0.4494
  622TMC3     C 9215   0.541   3.258  10.168 -0.2118  0.1952  0.4511
  622TMC3     O 9216   0.425   3.247  10.123 -0.1974  1.1445  0.1367
  622TMC3     H 9217   0.394   3.077  10.306 -1.2917  0.1487 -1.8180
  622TMC3    H1 9218   0.789   3.163  10.145  1.8343 -0.7930 -1.9594
  622TMC3    H2 9219   0.644   2.776  10.190  0.0675 -0.4155  1.6807
  622TMC3    C7 9220   0.823   2.922  10.056 -0.4299  0.1286 -0.6534
  622TMC3    C8 9221   0.391   2.877  10.148 -0.7551 -0.3349  0.0035
  622TMC3    O1 9222   0.926   2.974  10.086 -0.1078 -0.6636 -0.1641
  622TMC3    O2 9223   0.384   2.758  10.122  0.1994 -0.3822  0.1068
  623MPD2     C 9224   3.210   0.095  16.230 -0.1826 -0.0369 -0.0698
  623MPD2    C1 9225   3.137   0.061  16.346 -0.1950 -0.2920  0.3489
  623MPD2    C2 9226   3.217   0.041  16.463 -0.2204 -0.0159 -0.0499
  623MPD2    C3 9227   3.351   0.039  16.466  0.2493  0.4542 -0.0609
  623MPD2    C4 9228   3.415   0.053  16.345  0.0591 -0.5217  0.3440
  623MPD2    C5 9229   3.342   0.075  16.229 -0.2882 -0.0633  0.3809
  623MPD2     H 9230   3.162   0.010  16.552  0.6426 -0.7123  0.2343
  623MPD2    H1 9231   3.523   0.060  16.338 -0.2033  1.2794 -1.8350
  623MPD2    H2 9232   3.164   0.106  16.133 -1.9820  1.1395  0.9142
  623MPD2    H3 9233   3.397   0.079  16.136 -1.1869 -0.6747 -0.1724
  623MPD2     N 9234   3.423   0.001  16.581  0.2795 -0.4080  0.3964
  623MPD2    H5 9235   3.363   0.004  16.663 -2.4242  0.6615 -1.6160
  623MPD2    N1 9236   2.997   0.075  16.327 -0.7580 -0.4836 -0.2605
  623MPD2    H7 9237   2.962   0.131  16.250 -1.5553 -0.9265 -0.2137
  624TMC3    C1 9238   3.694   4.529  16.883 -0.7273 -0.7046  0.9651
  624TMC3    C2 9239   3.635   4.593  16.989  0.2049  1.0474  0.1225
  624TMC3    C3 9240   3.556   4.699  16.959 -0.8041  0.1491 -0.0804
  624TMC3    C4 9241   3.673   4.569  16.755 -0.2915 -1.3208  0.0977
  624TMC3    C5 9242   3.601   4.681  16.730 -0.0328  0.7897  0.2149
  624TMC3    C6 9243   3.526   0.016  16.831 -0.1146  0.1781 -0.2528
  624TMC3     C 9244   3.813   4.463  16.918  0.7984 -0.8374 -0.1946
  624TMC3     O 9245   3.853   4.480  17.035  0.4127 -0.0288  0.3364
  624TMC3     H 9246   3.648   4.557  17.091 -1.0895 -0.5776 -0.2969
  624TMC3    H1 9247   3.719   4.531  16.664 -1.1293 -0.0309 -0.8588
  624TMC3    H2 9248   3.473   0.109  16.813  0.6180  1.2852  3.4592
  624TMC3    C7 9249   3.559   4.700  16.590  0.1955 -0.0585 -0.1322
  624TMC3    C8 9250   3.531   0.070  17.075 -0.5178  0.2598  0.7285
  624TMC3    O1 9251   3.653   4.712  16.512 -0.1843  0.4041  0.2826
  624TMC3    O2 9252   3.624   0.068  17.151 -0.1382  0.8563 -0.6019
  625MPD2     C 9253   4.158   0.460   0.574 -0.3290 -0.7876 -0.6006
  625MPD2    C1 9254   4.207   0.585   0.606  0.4188 -0.1975 -0.4660
  625MPD2    C2 9255   4.324   0.599   0.680  0.0199  0.8623 -0.1610
  625MPD2    C3 9256   4.402   0.496   0.711  0.4604  0.5498 -0.2585
  625MPD2    C4 9257   4.360   0.373   0.668  0.1581 -0.0396 -0.1168
  625MPD2    C5 9258   4.233   0.353   0.615 -0.1067  0.4445  0.2101
  625MPD2     H 9259   4.348   0.703   0.699 -1.6202  1.0848  0.7306
  625MPD2    H1 9260   4.405   0.276   0.687  0.7244 -0.3723 -3.1700
  625MPD2    H2 9261   4.065   0.444   0.520 -1.5196 -2.1283  1.8571
  625MPD2    H3 9262   4.190   0.256   0.595  0.5845  0.0603  0.6178
  625MPD2     N 9263   4.519   0.523   0.774 -0.5845  0.0395 -0.5438
  625MPD2    H5 9264   4.534   0.622   0.791  1.2220  0.0977 -2.3773
  625MPD2    N1 9265   4.132   0.703   0.570  0.5784  0.5236  0.7714
  625MPD2    H7 9266   4.175   0.793   0.590 -1.9303  1.0936  3.6008
  626TMC3    C1 9267   3.960   0.848   0.487 -0.2745 -0.1716  0.5929
  626TMC3    C2 9268   3.877   0.882   0.378  0.2804  0.3374 -0.9701
  626TMC3    C3 9269   3.854   1.013   0.359 -0.3212  0.4443  0.5462
  626TMC3    C4 9270   3.997   0.947   0.577  0.6300 -0.3593 -0.0726
  626TMC3    C5 9271   3.936   1.068   0.568 -0.6823  0.0059  0.4488
  626TMC3    C6 9272   3.868   1.104   0.455  0.0807 -0.5855 -0.8090
  626TMC3     C 9273   3.997   0.713   0.520 -0.6192 -0.7644 -0.2527
  626TMC3     O 9274   3.927   0.629   0.466  0.4726 -0.0916 -0.0447
  626TMC3     H 9275   3.868   0.805   0.302  1.2986 -1.2958  0.5618
  626TMC3    H1 9276   4.068   0.925   0.656 -2.0046 -2.3601  1.6892
  626TMC3    H2 9277   3.824   1.202   0.438 -1.1305 -0.8954  0.5975
  626TMC3    C7 9278   3.982   1.180   0.652  0.2620 -0.1081 -0.0406
  626TMC3    C8 9279   3.774   1.060   0.245  0.9746  0.2782 -0.3521
  626TMC3    O1 9280   4.100   1.177   0.689  0.0874 -0.1909  0.8496
  626TMC3    O2 9281   3.800   1.171   0.202 -0.7143 -0.2908 -0.1325
  627MPD2     C 9282   2.539   1.412  14.326  1.1706 -0.5861  0.6115
  627MPD2    C1 9283   2.601   1.354  14.434  0.0211 -0.5668  0.6137
  627MPD2    C2 9284   2.555   1.246  14.496 -0.2935  0.4268  0.0760
  627MPD2    C3 9285   2.447   1.181  14.447 -0.4536 -0.2109 -1.1157
  627MPD2    C4 9286   2.382   1.231  14.331 -0.9909 -0.5223  0.0532
  627MPD2    C5 9287   2.425   1.348  14.271 -0.8520 -0.4662 -0.3385
  627MPD2     H 9288   2.594   1.216  14.592  0.3662  0.3194 -0.2257
  627MPD2    H1 9289   2.289   1.184  14.303 -0.6614 -0.4515 -1.1256
  627MPD2    H2 9290   2.576   1.502  14.279 -0.9858 -0.3915 -0.7266
  627MPD2    H3 9291   2.378   1.390  14.183  2.1993 -1.3439 -2.3856
  627MPD2     N 9292   2.404   1.067  14.523 -0.3934 -0.0884  0.7245
  627MPD2    H5 9293   2.460   1.054  14.607  0.3478  4.0810  0.9018
  627MPD2    N1 9294   2.709   1.415  14.506 -0.2239 -0.4444 -0.4810
  627MPD2    H7 9295   2.738   1.373  14.593  1.6326 -1.9487 -1.8173
  628TMC3    C1 9296   2.856   1.588  14.583  0.2308  0.1414  0.2703
  628TMC3    C2 9297   2.924   1.504  14.658 -0.4608 -0.8150 -0.1002
  628TMC3    C3 9298   3.013   1.544  14.749  0.6299  0.1748 -0.2738
  628TMC3    C4 9299   2.878   1.723  14.597 -0.0688  0.0489  1.1058
  628TMC3    C5 9300   2.980   1.770  14.676  0.6421 -0.3315 -0.0980
  628TMC3    C6 9301   3.057   1.679  14.741  0.9552  0.1173 -0.0944
  628TMC3     C 9302   2.754   1.550  14.482  0.0199 -0.2898 -0.1094
  628TMC3     O 9303   2.723   1.635  14.399 -0.2713 -0.6078 -0.4357
  628TMC3     H 9304   2.915   1.396  14.653  0.7427 -0.9647  0.8719
  628TMC3    H1 9305   2.803   1.786  14.550  0.4914  0.0470  0.2115
  628TMC3    H2 9306   3.131   1.723  14.807  0.1048 -1.1607  1.7140
  628TMC3    C7 9307   2.997   1.907  14.703  0.4398 -0.1027 -0.5432
  628TMC3    C8 9308   3.120   1.451  14.774  0.3901 -1.3240  0.2222
  628TMC3    O1 9309   3.110   1.946  14.733 -0.0944 -0.0434 -1.0217
  628TMC3    O2 9310   3.103   1.336  14.808  0.2472 -0.5903  0.6125
  629MPD2     C 9311   0.754   0.605  16.701  0.2493 -0.3215 -0.6837
  629MPD2    C1 9312   0.794   0.491  16.633 -0.0259 -0.4422 -0.3619
  629MPD2    C2 9313   0.697   0.398  16.590 -0.7036 -0.7569 -0.0537
  629MPD2    C3 9314   0.565   0.425  16.609  0.1398 -0.6258  0.4394
  629MPD2    C4 9315   0.529   0.543  16.676  0.1565  0.1361  1.1011
  629MPD2    C5 9316   0.618   0.630  16.724  0.0328 -0.3687  1.2445
  629MPD2     H 9317   0.731   0.306  16.545  2.2372  0.4798 -0.3847
  629MPD2    H1 9318   0.423   0.560  16.691  0.0096  0.6044 -0.4613
  629MPD2    H2 9319   0.833   0.666  16.743  0.2007  0.6475 -1.9923
  629MPD2    H3 9320   0.580   0.723  16.767  2.3481  1.5419 -0.8420
  629MPD2     N 9321   0.481   0.314  16.584  0.3623  0.0424  0.2639
  629MPD2    H5 9322   0.521   0.223  16.561  1.2232  1.3664 -3.5280
  629MPD2    N1 9323   0.930   0.470  16.613  0.3666 -0.8696 -0.1592
  629MPD2    H7 9324   0.994   0.548  16.622  0.3659 -1.0870  1.6017
  630TMC3    C1 9325   1.128   0.366  16.582  0.0035 -0.5378  0.3215
  630TMC3    C2 9326   1.174   0.457  16.494  0.3032 -0.3061  0.3377
  630TMC3    C3 9327   1.305   0.452  16.460 -0.1033  0.2471 -0.1692
  630TMC3    C4 9328   1.202   0.265  16.630 -0.9979 -0.0008 -0.6442
  630TMC3    C5 9329   1.334   0.266  16.607 -0.0284  0.4475 -0.5743
  630TMC3    C6 9330   1.387   0.354  16.514  0.1031  0.2777 -0.3673
  630TMC3     C 9331   0.988   0.346  16.590  0.0721  0.6241 -0.3151
  630TMC3     O 9332   0.948   0.233  16.609 -0.7734 -0.2005  0.3165
  630TMC3     H 9333   1.112   0.526  16.438  0.1865 -0.0800  0.7466
  630TMC3    H1 9334   1.161   0.212  16.716 -1.9055  2.2255  0.2767
  630TMC3    H2 9335   1.487   0.338  16.476  0.6322  2.8545 -0.0534
  630TMC3    C7 9336   1.414   0.203  16.709  0.3778 -0.0839  1.2639
  630TMC3    C8 9337   1.363   0.518  16.344  0.2302  1.0314 -0.2800
  630TMC3    O1 9338   1.353   0.108  16.763  0.5360  0.3219 -0.3520
  630TMC3    O2 9339   1.485   0.535  16.352  0.5780 -0.2256 -0.3467
  631MPD2     C 9340   3.968   4.494  15.887  0.1553 -0.1103 -0.2355
  631MPD2    C1 9341   4.062   4.508  15.782 -0.5320 -0.1249  0.9103
  631MPD2    C2 9342   4.168   4.424  15.778  0.5459 -0.6299  0.1567
  631MPD2    C3 9343   4.182   4.323  15.870 -0.9732 -0.7934  1.0244
  631MPD2    C4 9344   4.078   4.293  15.963  0.1692 -0.2754  0.4140
  631MPD2    C5 9345   3.973   4.379  15.967  0.0823  0.3926  0.2596
  631MPD2     H 9346   4.254   4.434  15.713  0.2453  0.2001 -0.1107
  631MPD2    H1 9347   4.093   4.214  16.036 -0.1809  0.7471  1.5991
  631MPD2    H2 9348   3.890   4.567  15.901 -0.0297 -0.2618 -0.4607
  631MPD2    H3 9349   3.900   4.371  16.047 -0.7730  0.4343 -0.5143
  631MPD2     N 9350   4.301   4.251  15.862 -0.2270 -0.4315 -0.7805
  631MPD2    H5 9351   4.374   4.270  15.795  0.7495 -0.0213  0.3960
  631MPD2    N1 9352   4.062   4.624  15.708 -0.1376 -0.2824  0.0779
  631MPD2    H7 9353   3.983   4.682  15.734  1.4342  0.5532  3.0095
  632TMC3    C1 9354   4.120   0.051  15.536 -0.1062 -0.2256  0.1439
  632TMC3    C2 9355   4.029   0.139  15.590 -0.3362  0.1253 -0.1284
  632TMC3    C3 9356   3.962   0.217  15.499 -0.2229  0.1511 -0.3256
  632TMC3    C4 9357   4.161   0.050  15.408  0.6388  0.8137 -0.6272
  632TMC3    C5 9358   4.087   0.127  15.323 -0.5120  0.2200  0.2717
  632TMC3    C6 9359   4.000   0.217  15.368 -0.4932 -0.2561  0.9212
  632TMC3     C 9360   4.152   4.660  15.614 -0.0491  0.6667  0.1656
  632TMC3     O 9361   4.239   4.593  15.568 -0.2275 -0.0908 -0.3854
  632TMC3     H 9362   3.998   0.133  15.694 -0.8860  1.8936 -0.1910
  632TMC3    H1 9363   4.239   4.705  15.373 -0.1615 -0.8070  0.7035
  632TMC3    H2 9364   3.954   0.287  15.299 -0.4351  0.2761  1.4238
  632TMC3    C7 9365   4.143   0.148  15.190 -0.2265  0.4614  0.2094
  632TMC3    C8 9366   3.855   0.304  15.549 -0.0845  0.5218 -0.2677
  632TMC3    O1 9367   4.064   0.186  15.102 -0.3174 -0.1152 -0.2341
  632TMC3    O2 9368   3.810   0.267  15.658  0.3652 -0.0936  0.3950
  633MPD2     C 9369   3.803   2.643  17.323 -0.4484  0.2912 -0.3892
  633MPD2    C1 9370   3.784   2.621  17.187  0.1013 -0.0361  0.1165
  633MPD2    C2 9371   3.752   2.498  17.145  0.4157  0.7847 -0.5083
  633MPD2    C3 9372   3.742   2.393  17.235  0.2266 -0.1977  0.1583
  633MPD2    C4 9373   3.769   2.411  17.366  0.3084 -0.1538 -0.2956
  633MPD2    C5 9374   3.783   2.542  17.410 -0.0135 -0.1600 -0.6180
  633MPD2     H 9375   3.743   2.484  17.038 -3.3984  1.6078 -0.2888
  633MPD2    H1 9376   3.756   2.327  17.434  1.7988 -0.4970 -0.4477
  633MPD2    H2 9377   3.813   2.742  17.367  1.7287 -1.9444  4.1086
  633MPD2    H3 9378   3.778   2.549  17.518 -0.5883 -1.6003 -0.5523
  633MPD2     N 9379   3.722   2.264  17.191  1.0161  0.1204 -0.3117
  633MPD2    H5 9380   3.742   2.187  17.254  0.2646 -0.4008 -0.7055
  633MPD2    N1 9381   3.801   2.725  17.088  0.4731  0.2073  0.0969
  633MPD2    H7 9382   3.791   2.696  16.992 -0.5123  1.3326 -0.1341
  634TMC3    C1 9383   3.872   2.918  16.990 -0.0993  0.2945  0.1072
  634TMC3    C2 9384   3.947   2.849  16.898  0.3238  0.2084 -0.2311
  634TMC3    C3 9385   4.001   2.921  16.795 -0.0546 -0.0930  0.2692
  634TMC3    C4 9386   3.855   3.052  16.985 -0.6555 -0.1095  0.1600
  634TMC3    C5 9387   3.919   3.126  16.886  0.0696 -0.8260  0.0804
  634TMC3    C6 9388   3.991   3.059  16.795  0.3151  0.0369  1.1401
  634TMC3     C 9389   3.821   2.854  17.112  0.2747 -0.0789 -0.0905
  634TMC3     O 9390   3.825   2.919  17.218  0.2228 -0.1669  0.1360
  634TMC3     H 9391   3.943   2.740  16.902  0.8787  0.1806 -0.3739
  634TMC3    H1 9392   3.808   3.105  17.067 -2.4287 -1.2596 -0.1177
  634TMC3    H2 9393   4.032   3.114  16.711 -0.6280 -2.2067 -0.8233
  634TMC3    C7 9394   3.856   3.243  16.840 -0.0594 -1.0646  0.6292
  634TMC3    C8 9395   3.976   2.849  16.667  0.5859  0.4721 -0.2107
  634TMC3    O1 9396   3.867   3.259  16.718 -0.9909  0.2121  0.9299
  634TMC3    O2 9397   3.910   2.747  16.659  0.2398  0.5216 -0.2649
  635TMC3    C1 9398   4.110   3.766  17.455 -0.3265 -0.0016 -0.1197
  635TMC3    C2 9399   4.188   3.671  17.391  0.1880 -0.6768 -0.3265
  635TMC3    C3 9400   4.198   3.552  17.449  0.5978  0.3067  0.3222
  635TMC3    C4 9401   4.050   3.748  17.580  0.6699  0.8160  0.1695
  635TMC3    C5 9402   4.068   3.620  17.634 -0.2304 -0.9706 -0.0683
  635TMC3    C6 9403   4.142   3.523  17.572  0.4718 -0.2358  0.1219
  635TMC3     C 9404   4.167   3.902  17.449  0.2718  0.0233 -0.6827
  635TMC3     O 9405   4.143   3.976  17.549 -0.8827 -0.4090 -0.0394
  635TMC3     H 9406   4.224   3.679  17.289 -0.3348 -2.7965 -0.6769
  635TMC3    H1 9407   3.995   3.826  17.630 -0.3896  0.3894 -0.3387
  635TMC3    H2 9408   4.146   3.428  17.625  2.2097  1.3044  2.7738
  635TMC3    C7 9409   4.039   3.593   0.088  0.7855  0.0546 -0.5916
  635TMC3    C8 9410   4.298   3.458  17.400  0.1365  0.1359  0.2620
  635TMC3    O1 9411   4.042   3.477   0.124  0.2282 -0.0827  0.2425
  635TMC3    O2 9412   4.338   3.492  17.290  0.3395  0.0889 -0.0885
  636MPD2     C 9413   0.193   2.637  16.275  0.0831 -0.4321 -0.0001
  636MPD2    C1 9414   0.291   2.675  16.367 -0.0764  0.4357 -0.6216
  636MPD2    C2 9415   0.355   2.579  16.440  0.2564  0.0533 -0.3513
  636MPD2    C3 9416   0.333   2.445  16.420 -0.2468 -0.1672 -0.1129
  636MPD2    C4 9417   0.231   2.408  16.337 -0.9396 -0.0411  0.5481
  636MPD2    C5 9418   0.161   2.505  16.268 -0.2181 -0.5228  0.1535
  636MPD2     H 9419   0.445   2.611  16.490 -0.1081  0.5192  0.0066
  636MPD2    H1 9420   0.212   2.309  16.297  1.3014 -0.5669  0.7920
  636MPD2    H2 9421   0.137   2.713  16.222 -1.2761 -0.5765  1.2216
  636MPD2    H3 9422   0.089   2.465  16.197 -1.9161  0.4079  1.3404
  636MPD2     N 9423   0.421   2.350  16.474 -0.0529  0.3534  0.7267
  636MPD2    H5 9424   0.485   2.385  16.545  1.3603 -2.8514  1.0360
  636MPD2    N1 9425   0.336   2.806  16.382  0.4011  0.3904 -0.2003
  636MPD2    H7 9426   0.417   2.819  16.442 -1.2344  1.8999  1.6472
  637TMC3    C1 9427   0.552   2.170  16.501 -0.4027  0.2360  0.9091
  637TMC3    C2 9428   0.579   2.203  16.628  0.2265  0.4193  0.0445
  637TMC3    C3 9429   0.707   2.198  16.674 -0.1127 -1.1303 -0.1015
  637TMC3    C4 9430   0.651   2.144  16.418  0.2212 -0.6754  0.4535
  637TMC3    C5 9431   0.780   2.154  16.460 -0.2265  0.2130 -0.5910
  637TMC3    C6 9432   0.812   2.162  16.592 -0.5069  0.4857  0.4667
  637TMC3     C 9433   0.431   2.216  16.437  0.0099 -0.0318 -1.2894
  637TMC3     O 9434   0.391   2.165  16.336  0.4388  0.7759  0.0865
  637TMC3     H 9435   0.494   2.230  16.690  0.7549 -0.3093  1.0728
  637TMC3    H1 9436   0.628   2.155  16.312  1.4230 -2.1762  0.0375
  637TMC3    H2 9437   0.912   2.195  16.618 -1.3587  3.1900  0.2475
  637TMC3    C7 9438   0.853   2.261  16.394 -0.0360 -1.0905 -0.2261
  637TMC3    C8 9439   0.734   2.300  16.779 -0.4834 -0.1427 -0.3200
  637TMC3    O1 9440   0.891   2.359  16.465 -0.4414  0.3764 -0.4696
  637TMC3    O2 9441   0.663   2.288  16.878 -0.3654 -0.2790  0.4094
  638MPD2     C 9442   0.341   1.948  15.158 -0.3064  1.2018  0.0837
  638MPD2    C1 9443   0.314   1.832  15.093 -0.3296  0.4632 -1.5014
  638MPD2    C2 9444   0.250   1.729  15.155  0.6553 -0.7897 -0.6193
  638MPD2    C3 9445   0.220   1.742  15.290  0.3307  0.3658 -0.4168
  638MPD2    C4 9446   0.255   1.856  15.363 -0.5329  0.2685 -0.1753
  638MPD2    C5 9447   0.317   1.956  15.293  0.6040  0.2172 -0.2062
  638MPD2     H 9448   0.218   1.633  15.115 -0.1435  0.0055 -1.8813
  638MPD2    H1 9449   0.238   1.865  15.470  0.8093 -0.0746  0.0668
  638MPD2    H2 9450   0.393   2.033  15.113  0.0944  0.2736 -1.2123
  638MPD2    H3 9451   0.340   2.047  15.348  0.3113 -0.4090  0.9647
  638MPD2     N 9452   0.160   1.625  15.355  0.0065 -0.4180  0.2796
  638MPD2    H5 9453   0.116   1.550  15.302  1.2761 -1.5272  0.7697
  638MPD2    N1 9454   0.361   1.814  14.961  0.4998  0.2303  0.4019
  638MPD2    H7 9455   0.419   1.891  14.928  1.5666 -0.5174  0.4984
  639TMC3    C1 9456   0.121   1.449  15.500  0.1607 -0.7156 -0.5111
  639TMC3    C2 9457   0.046   1.391  15.405 -0.0919  0.4498 -0.0339
  639TMC3    C3 9458   0.055   1.259  15.376  0.0561  0.2160  0.2812
  639TMC3    C4 9459   0.208   1.373  15.572 -0.2236 -0.2682 -0.1851
  639TMC3    C5 9460   0.216   1.243  15.544  0.0839 -0.5691 -0.0525
  639TMC3    C6 9461   0.139   1.179  15.448 -0.2522 -0.6338 -0.0183
  639TMC3     C 9462   0.166   1.582  15.486  0.3880 -0.3817  0.5672
  639TMC3     O 9463   0.241   1.629  15.575 -0.6421 -0.2792  0.0217
  639TMC3     H 9464   4.691   1.451  15.358  0.1982  0.8903  0.0577
  639TMC3    H1 9465   0.282   1.414  15.640  0.4000  0.8534 -1.5276
  639TMC3    H2 9466   0.146   1.071  15.439  0.0886 -0.6079 -0.0887
  639TMC3    C7 9467   0.326   1.171  15.606  0.3082 -0.3350  0.4490
  639TMC3    C8 9468   4.706   1.200  15.260 -0.6352 -0.8135  0.7771
  639TMC3    O1 9469   0.306   1.055  15.627 -0.3625  0.1904 -0.1431
  639TMC3    O2 9470   0.054   1.138  15.184  0.4222 -0.2464  0.3783
  640MPD2     C 9471   0.505   4.611   9.502  0.0709  0.2627 -0.3451
  640MPD2    C1 9472   0.614   4.690   9.493  0.3576 -0.0018 -0.2989
  640MPD2    C2 9473   0.597   0.103   9.469  0.4657 -0.5270  0.2544
  640MPD2    C3 9474   0.472   0.167   9.451  0.3796 -0.3674 -0.5226
  640MPD2    C4 9475   0.369   0.084   9.470  1.4775  0.2775 -0.0441
  640MPD2    C5 9476   0.384   4.671   9.493 -0.1054  0.1381 -0.0086
  640MPD2     H 9477   0.690   0.156   9.454 -1.6077  2.5997 -1.7146
  640MPD2    H1 9478   0.270   0.127   9.458  0.9452 -0.6076  1.1278
  640MPD2    H2 9479   0.512   4.505   9.522  1.0689  0.3800 -0.0572
  640MPD2    H3 9480   0.296   4.608   9.498 -0.6689  0.9840  0.6715
  640MPD2     N 9481   0.447   0.301   9.436  0.2281  0.1337 -0.3046
  640MPD2    H5 9482   0.352   0.329   9.415  0.4990  0.1875 -1.4873
  640MPD2    N1 9483   0.738   4.627   9.508 -0.2705  0.0305 -0.0153
  640MPD2    H7 9484   0.745   4.529   9.533  0.6519  0.0786 -0.1109
  641TMC3    C1 9485   0.968   4.601   9.496  0.1237  0.4349  0.2499
  641TMC3    C2 9486   1.089   4.645   9.540  0.4154 -0.2620  0.2910
  641TMC3    C3 9487   1.198   4.561   9.548 -0.1927  0.1263 -0.5588
  641TMC3    C4 9488   0.962   4.468   9.463  0.2764 -1.1078  0.3162
  641TMC3    C5 9489   1.056   4.379   9.486  0.6905  0.2160  0.0052
  641TMC3    C6 9490   1.186   4.426   9.523 -0.2592 -0.1138 -0.6731
  641TMC3     C 9491   0.855   4.693   9.511  0.0798 -0.3062  0.1009
  641TMC3     O 9492   0.889   0.089   9.499  0.2064  0.3070  0.1181
  641TMC3     H 9493   1.098   0.027   9.570  2.1664  0.0941 -1.4213
  641TMC3    H1 9494   0.866   4.424   9.435 -0.1655 -0.5907  1.0138
  641TMC3    H2 9495   1.262   4.350   9.538  3.6394  3.2400 -3.5470
  641TMC3    C7 9496   1.032   4.235   9.477 -0.2688 -0.4514  0.0003
  641TMC3    C8 9497   1.324   4.616   9.590 -0.1017  0.2208  0.5621
  641TMC3    O1 9498   1.132   4.173   9.442 -0.2153 -0.2650  0.0634
  641TMC3    O2 9499   1.412   4.529   9.589 -0.9960 -0.3232 -0.1997
  642TMC3    C1 9500   1.844   1.607  11.888  0.1089  0.2200 -0.2486
  642TMC3    C2 9501   1.920   1.639  11.997  0.0043  0.1115  0.3240
  642TMC3    C3 9502   1.989   1.537  12.057  0.2968 -0.7013  0.5881
  642TMC3    C4 9503   1.834   1.477  11.829  0.7409  0.0930  0.6415
  642TMC3    C5 9504   1.905   1.385  11.902 -0.2814 -0.1615  0.2344
  642TMC3    C6 9505   1.991   1.410  12.004  0.9422 -0.4932  0.0931
  642TMC3     C 9506   1.732   1.682  11.858 -0.6154  0.0652 -0.6093
  642TMC3     O 9507   1.693   1.685  11.743 -0.4948 -0.7647  0.6841
  642TMC3     H 9508   1.934   1.741  12.031  0.2480 -0.1681  1.0689
  642TMC3    H1 9509   1.761   1.460  11.751  2.4679 -0.9485 -0.7450
  642TMC3    H2 9510   2.057   1.333  12.042  1.3022  0.3443  1.1740
  642TMC3    C7 9511   1.878   1.247  11.862  0.0471  0.7182 -0.2364
  642TMC3    C8 9512   2.094   1.579  12.150  0.6469  0.3225 -0.5099
  642TMC3    O1 9513   1.802   1.220  11.767 -0.5207  0.1779  0.4364
  642TMC3    O2 9514   2.120   1.695  12.158 -0.5172 -0.3075  0.4754
  643TMC3    C1 9515   1.329   0.816   0.723  0.5052 -0.2395  0.2129
  643TMC3    C2 9516   1.217   0.748   0.733  0.6781 -0.5131 -0.0329
  643TMC3    C3 9517   1.160   0.666   0.639  0.6317  0.2493  0.0337
  643TMC3    C4 9518   1.398   0.816   0.602 -0.5287  0.1984  0.0651
  643TMC3    C5 9519   1.341   0.736   0.509 -0.1547  0.8535 -0.0469
  643TMC3    C6 9520   1.228   0.661   0.520 -0.4869 -0.7537 -0.3308
  643TMC3     C 9521   1.337   0.945   0.789  0.2134  0.6120 -0.4374
  643TMC3     O 9522   1.237   1.009   0.805  0.1429  0.2061  0.2402
  643TMC3     H 9523   1.175   0.754   0.833  2.1445 -0.1069  0.5551
  643TMC3    H1 9524   1.472   0.892   0.578  1.4238 -1.1019  1.9420
  643TMC3    H2 9525   1.182   0.615   0.433 -2.3392  2.7262 -1.2015
  643TMC3    C7 9526   1.365   0.785   0.372  0.5139 -0.0353  0.5019
  643TMC3    C8 9527   1.027   0.704   0.610  0.0007 -0.3308 -0.0660
  643TMC3    O1 9528   1.386   0.904   0.351  0.1817 -0.4214  0.2455
  643TMC3    O2 9529   0.976   0.626   0.532  0.1624  0.0936 -0.2346
  644MPD2     C 9530   1.650   0.848   9.336  0.1101  0.4499 -0.7028
  644MPD2    C1 9531   1.545   0.760   9.345  0.5789 -0.1714 -0.0518
  644MPD2    C2 9532   1.414   0.808   9.345 -0.1084  1.0439 -0.7222
  644MPD2    C3 9533   1.390   0.939   9.310 -0.4886  0.2238 -0.3497
  644MPD2    C4 9534   1.492   1.029   9.281  0.1736  0.2186 -0.4568
  644MPD2    C5 9535   1.621   0.979   9.292  1.0043  0.5392  0.5367
  644MPD2     H 9536   1.328   0.743   9.346  0.3806  0.3568 -2.4488
  644MPD2    H1 9537   1.471   1.129   9.246  4.7249  0.7958 -1.5088
  644MPD2    H2 9538   1.752   0.814   9.345 -0.8063 -1.5626  1.9187
  644MPD2    H3 9539   1.705   1.038   9.258  1.0757  0.8924  1.3332
  644MPD2     N 9540   1.255   0.971   9.288 -0.2955 -0.3178  0.7537
  644MPD2    H5 9541   1.191   0.906   9.331 -1.5610  0.4226 -0.0153
  644MPD2    N1 9542   1.582   0.620   9.351  0.0867 -0.3248  0.3207
  644MPD2    H7 9543   1.681   0.597   9.349  0.0719 -0.2723 -1.5378
  645TMC3    C1 9544   1.068   1.090   9.238  0.5406  0.6478  0.0760
  645TMC3    C2 9545   1.001   0.974   9.201  0.1871  0.6174  0.7693
  645TMC3    C3 9546   0.865   0.970   9.193 -0.1208 -0.2279 -0.7328
  645TMC3    C4 9547   0.996   1.204   9.258  0.0693 -0.5514 -0.2168
  645TMC3    C5 9548   0.859   1.193   9.262 -0.3049 -0.0371 -0.2723
  645TMC3    C6 9549   0.789   1.077   9.231  0.3324 -0.0698 -0.3161
  645TMC3     C 9550   1.206   1.095   9.245  0.5910 -0.2974 -0.3831
  645TMC3     O 9551   1.263   1.197   9.217  0.6244 -0.5964 -0.0567
  645TMC3     H 9552   1.051   0.883   9.169 -0.6483 -0.5939  2.8698
  645TMC3    H1 9553   1.057   1.290   9.284 -0.1244  0.0389 -1.7517
  645TMC3    H2 9554   0.681   1.069   9.238  0.3215 -0.3964 -0.8624
  645TMC3    C7 9555   0.794   1.317   9.297  0.1611 -0.5627  0.2409
  645TMC3    C8 9556   0.801   0.840   9.165  0.2627 -0.2723 -0.4865
  645TMC3    O1 9557   0.861   1.419   9.307 -0.7524 -0.5273  0.6619
  645TMC3    O2 9558   0.865   0.743   9.196 -0.2856 -0.3535  0.4366
  646MPD2     C 9559   0.274   0.409  14.853 -0.2243 -0.0817  0.6495
  646MPD2    C1 9560   0.168   0.432  14.933  0.2416 -0.2703  0.3473
  646MPD2    C2 9561   0.048   0.498  14.889 -1.0561  0.1033 -0.2424
  646MPD2    C3 9562   0.043   0.538  14.757 -0.5431  0.1546 -0.0751
  646MPD2    C4 9563   0.158   0.514  14.677  0.5229 -0.3720 -0.7802
  646MPD2    C5 9564   0.262   0.444  14.725  0.1359 -0.2409 -0.0330
  646MPD2     H 9565   4.683   0.501  14.955 -1.6747 -3.4489 -0.8707
  646MPD2    H1 9566   0.167   0.541  14.572  1.4032 -2.5244 -1.2717
  646MPD2    H2 9567   0.361   0.353  14.886 -0.5495 -0.8687  0.1798
  646MPD2    H3 9568   0.342   0.414  14.658  0.2871 -1.4299  0.6823
  646MPD2     N 9569   4.658   0.624  14.708 -1.0302 -0.1605  0.7995
  646MPD2    H5 9570   4.592   0.660  14.776 -2.1841 -1.3942  0.3485
  646MPD2    N1 9571   0.191   0.389  15.064  0.2899 -0.7274  0.2258
  646MPD2    H7 9572   0.272   0.331  15.080 -1.1529 -2.2609  1.9118
  647TMC3    C1 9573   0.171   0.342  15.288 -0.3246  0.2402  0.0730
  647TMC3    C2 9574   0.103   0.268  15.380  0.2470 -0.3978 -0.2813
  647TMC3    C3 9575   0.161   0.212  15.484 -0.4448 -0.1111 -0.1887
  647TMC3    C4 9576   0.306   0.358  15.304 -0.2526  0.8112  0.2538
  647TMC3    C5 9577   0.369   0.302  15.407 -0.9342 -0.4267 -0.5043
  647TMC3    C6 9578   0.292   0.238  15.512 -0.3479 -0.7841 -0.6225
  647TMC3     C 9579   0.104   0.389  15.167 -0.5885 -0.0120  0.4418
  647TMC3     O 9580   4.703   0.415  15.174  0.5285  0.5494  0.1647
  647TMC3     H 9581   4.718   0.268  15.361 -0.0594  3.7754  1.3882
  647TMC3    H1 9582   0.363   0.404  15.224 -2.6307 -0.5275 -2.1969
  647TMC3    H2 9583   0.353   0.190  15.587  0.4696  0.1836 -0.6667
  647TMC3    C7 9584   0.512   0.285  15.403  0.4962 -0.3469  0.3232
  647TMC3    C8 9585   0.117   0.083  15.513  0.7305  0.1737 -0.0218
  647TMC3    O1 9586   0.574   0.273  15.507  0.7139  0.2206  0.5401
  647TMC3    O2 9587   0.033   0.035  15.443 -0.9041  0.5874 -0.3163
  648TMC3    C1 9588   4.409   2.885  16.090  0.3106  0.1964  0.1148
  648TMC3    C2 9589   4.402   2.766  16.024 -0.0565  0.2567  0.1702
  648TMC3    C3 9590   4.379   2.761  15.888 -0.9319  0.2110  0.3881
  648TMC3    C4 9591   4.384   3.004  16.030  0.6516  0.1964  0.3373
  648TMC3    C5 9592   4.353   2.996  15.900  0.1365 -0.2133 -0.6827
  648TMC3    C6 9593   4.356   2.879  15.822 -0.0132  0.5702 -0.3479
  648TMC3     C 9594   4.424   2.887  16.237  0.2467  0.2586  0.2102
  648TMC3     O 9595   4.482   2.982  16.291 -0.2265 -0.2039  0.1573
  648TMC3     H 9596   4.436   2.673  16.067 -1.1177  0.1006  0.6537
  648TMC3    H1 9597   4.406   3.096  16.084  0.2735  1.7870 -2.2025
  648TMC3    H2 9598   4.334   2.879  15.715 -0.7366  0.7599 -0.2026
  648TMC3    C7 9599   4.298   3.114  15.842  0.0276 -0.2899 -0.4765
  648TMC3    C8 9600   4.393   2.638  15.813 -0.0980  0.3333  0.5106
  648TMC3    O1 9601   4.307   3.130  15.722  0.4802  0.1285 -0.2905
  648TMC3    O2 9602   4.317   2.642  15.714 -0.1214  0.9016 -0.0061
  649TMC3    C1 9603   3.792   3.689  12.878 -0.5097  0.6725  0.2807
  649TMC3    C2 9604   3.917   3.736  12.878  0.2803  0.3784  0.2120
  649TMC3    C3 9605   3.981   3.690  12.987 -0.3938 -0.2224  0.0446
  649TMC3    C4 9606   3.726   3.621  12.980 -0.4311  0.0464 -0.1879
  649TMC3    C5 9607   3.796   3.584  13.087 -0.4543  0.4740 -0.3288
  649TMC3    C6 9608   3.930   3.613  13.092  0.6056 -0.6125  0.1472
  649TMC3     C 9609   3.709   3.723  12.764  0.7219  0.1900  0.2046
  649TMC3     O 9610   3.587   3.706  12.770 -0.2327  0.2342  0.8479
  649TMC3     H 9611   3.954   3.810  12.808  0.4990 -0.2367 -0.3167
  649TMC3    H1 9612   3.619   3.603  12.981 -0.3104 -0.4058  3.4654
  649TMC3    H2 9613   3.981   3.596  13.186  4.6015  0.5200 -1.8442
  649TMC3    C7 9614   3.725   3.568  13.210 -0.4006  0.4583 -0.5271
  649TMC3    C8 9615   4.105   3.751  13.024  0.3475 -0.3434  0.4348
  649TMC3    O1 9616   3.789   3.601  13.310 -0.2523  0.2839  0.8054
  649TMC3    O2 9617   4.124   3.747  13.145 -0.2018  0.5085  0.3576
  650TMC3    C1 9618   1.231   0.681  12.609  0.5106 -0.7515  1.0383
  650TMC3    C2 9619   1.177   0.803  12.629 -0.5581 -0.0809  0.4345
  650TMC3    C3 9620   1.123   0.860  12.519 -0.3299 -0.2191  0.4598
  650TMC3    C4 9621   1.230   0.614  12.489  0.2443 -0.0432  0.3550
  650TMC3    C5 9622   1.174   0.677  12.386 -0.3312  0.1393 -0.0461
  650TMC3    C6 9623   1.117   0.803  12.397 -0.6153  0.2222  0.0406
  650TMC3     C 9624   1.267   0.615  12.737 -0.4556 -0.2788 -0.1724
  650TMC3     O 9625   1.212   0.663  12.837  0.1802  0.3922 -0.0348
  650TMC3     H 9626   1.176   0.849  12.727 -0.2032 -2.6416  1.6385
  650TMC3    H1 9627   1.269   0.516  12.464 -0.7893  0.0094 -1.4846
  650TMC3    H2 9628   1.083   0.855  12.308 -1.3595 -4.0949 -2.2598
  650TMC3    C7 9629   1.155   0.608  12.264 -0.7811 -0.2097 -0.4962
  650TMC3    C8 9630   1.062   0.987  12.546  0.7364 -0.1659 -0.4491
  650TMC3    O1 9631   1.158   0.482  12.265  0.0196  0.1604 -0.1179
  650TMC3    O2 9632   1.103   1.067  12.632 -0.1468 -0.6967  0.0387
  651MPD2     C 9633   0.479   2.027  10.296 -0.7145 -0.0763 -0.5737
  651MPD2    C1 9634   0.444   2.159  10.321  0.5763 -0.5192  0.2128
  651MPD2    C2 9635   0.531   2.255  10.286 -0.2905  0.0154 -0.5041
  651MPD2    C3 9636   0.649   2.223  10.223 -0.1664  0.4457  0.5122
  651MPD2    C4 9637   0.680   2.095  10.197  0.2155  0.1117  0.1791
  651MPD2    C5 9638   0.592   1.995  10.230  0.4069 -0.4233 -0.4226
  651MPD2     H 9639   0.511   2.361  10.301 -2.6992 -0.4173 -0.7435
  651MPD2    H1 9640   0.777   2.069  10.155 -0.5800 -1.3143 -0.7895
  651MPD2    H2 9641   0.417   1.940  10.309 -1.6695  0.9178  1.4145
  651MPD2    H3 9642   0.627   1.894  10.215  2.1176  0.0709  0.1671
  651MPD2     N 9643   0.737   2.330  10.200 -0.5572 -0.3158 -0.6198
  651MPD2    H5 9644   0.700   2.421  10.226 -0.7554 -0.0289 -1.9055
  651MPD2    N1 9645   0.325   2.198  10.385  0.1459  0.4572  0.2385
  651MPD2    H7 9646   0.323   2.299  10.395  1.7823  0.7308 -2.0694
  652TMC3    C1 9647   1.129   2.579  10.175  0.8963 -0.0884 -0.2409
  652TMC3    C2 9648   1.068   2.458  10.162 -0.3203  0.5075  0.1556
  652TMC3    C3 9649   0.936   2.455  10.187 -0.7344  0.3239 -0.3039
  652TMC3    C4 9650   1.067   2.687  10.225 -0.5567 -0.1442  0.3294
  652TMC3    C5 9651   0.943   2.679  10.271 -1.4326 -0.1348 -0.3481
  652TMC3    C6 9652   0.872   2.560  10.247  0.3095 -0.2130 -0.0004
  652TMC3     C 9653   1.264   2.561  10.202  0.3386 -0.1071 -0.6203
  652TMC3     O 9654   1.307   2.460  10.260 -0.4864  0.2119 -0.8427
  652TMC3     H 9655   1.129   2.369  10.149  0.1361  1.0043 -1.0730
  652TMC3    H1 9656   1.130   2.775  10.232 -2.2007  1.0123  0.4900
  652TMC3    H2 9657   0.773   2.553  10.290  0.1614  0.6042 -0.1996
  652TMC3    C7 9658   0.901   2.755  10.386 -0.7911 -0.8275  0.1103
  652TMC3    C8 9659   0.867   2.333  10.155  0.4796  0.6013  0.1299
  652TMC3    O1 9660   0.803   2.712  10.445 -0.0273  0.1564 -0.6518
  652TMC3    O2 9661   0.933   2.244  10.107  0.0483  0.1394 -0.4986
  653MPD2     C 9662   3.657   2.737   0.120 -0.0335 -0.5391  0.2651
  653MPD2    C1 9663   3.620   2.841   0.046 -0.0451 -0.3283 -0.0788
  653MPD2    C2 9664   3.541   2.807  17.621  0.1060  0.7320 -0.5038
  653MPD2    C3 9665   3.515   2.676  17.589  0.3055  0.9059 -0.2158
  653MPD2    C4 9666   3.555   2.572  17.669 -0.6161 -0.2006 -0.2902
  653MPD2    C5 9667   3.613   2.607   0.100  0.2234 -0.4522 -0.3727
  653MPD2     H 9668   3.539   2.889  17.550 -0.5514  0.1603 -1.1374
  653MPD2    H1 9669   3.543   2.465  17.657  1.3500 -0.3835 -0.7530
  653MPD2    H2 9670   3.713   2.744   0.212  0.6501  0.9399 -0.2604
  653MPD2    H3 9671   3.647   2.531   0.169  0.0538  0.5388  0.8086
  653MPD2     N 9672   3.450   2.653  17.467  0.1521 -0.4157  0.1217
  653MPD2    H5 9673   3.432   2.733  17.407 -1.0220 -0.7751 -0.0028
  653MPD2    N1 9674   3.640   2.975   0.076  0.1443 -0.2190  0.1109
  653MPD2    H7 9675   3.605   3.043   0.009 -2.3849  0.8318  2.5428
  654TMC3    C1 9676   3.338   2.550  17.289  0.0554  0.4181  0.0226
  654TMC3    C2 9677   3.242   2.646  17.286 -0.3646  0.2090  0.1016
  654TMC3    C3 9678   3.156   2.653  17.182 -0.2456 -0.4198 -0.7783
  654TMC3    C4 9679   3.343   2.443  17.203 -0.8829  0.5062  0.6915
  654TMC3    C5 9680   3.250   2.443  17.102  0.8831 -0.1765  0.1939
  654TMC3    C6 9681   3.157   2.543  17.093 -0.6164 -0.2307 -0.4474
  654TMC3     C 9682   3.414   2.533  17.412  0.6290 -0.0137 -0.1072
  654TMC3     O 9683   3.438   2.418  17.454 -0.1773  0.3772  0.1673
  654TMC3     H 9684   3.239   2.733  17.352 -0.5682  0.2522  0.0363
  654TMC3    H1 9685   3.419   2.367  17.219 -2.5609 -1.3650 -0.1600
  654TMC3    H2 9686   3.071   2.533  17.027 -1.1799 -0.6456  0.3475
  654TMC3    C7 9687   3.224   2.320  17.027  0.1112  0.1503 -0.6619
  654TMC3    C8 9688   3.045   2.744  17.166 -0.4288  0.5375  0.6366
  654TMC3    O1 9689   3.160   2.333  16.922  0.0047  0.3300  0.6097
  654TMC3    O2 9690   2.977   2.728  17.065 -0.2966  0.2145 -0.0928
  655MPD2     C 9691   0.156   2.952  15.798 -0.4498  0.3455  0.2601
  655MPD2    C1 9692   0.067   3.029  15.725 -0.0801  1.0643  1.2793
  655MPD2    C2 9693   0.034   2.994  15.596  0.3387 -0.2023  0.2845
  655MPD2    C3 9694   0.089   2.886  15.535  0.5056 -0.1602  0.1580
  655MPD2    C4 9695   0.183   2.814  15.611 -0.3345  0.1843 -0.5350
  655MPD2    C5 9696   0.210   2.840  15.741  0.2794 -0.4089 -0.6614
  655MPD2     H 9697   4.681   3.048  15.539 -2.9566 -1.8419  3.0485
  655MPD2    H1 9698   0.241   2.740  15.558 -0.0402 -0.7643  1.1193
  655MPD2    H2 9699   0.183   2.987  15.897  1.0116 -3.3653  1.1600
  655MPD2    H3 9700   0.287   2.784  15.793  0.6327  2.2196  1.6342
  655MPD2     N 9701   0.069   2.854  15.398 -0.6980 -0.5103  0.8057
  655MPD2    H5 9702   0.133   2.786  15.357 -0.9846  0.8309 -1.8219
  655MPD2    N1 9703   4.717   3.142  15.780  0.0135  0.0236 -0.1843
  655MPD2    H7 9704   4.665   3.197  15.712  2.5594 -1.5569 -3.4306
  656TMC3    C1 9705   4.622   3.298  15.942  0.2322  0.5676 -0.2802
  656TMC3    C2 9706   4.592   3.315  16.073 -0.0213 -0.2639  0.0828
  656TMC3    C3 9707   4.500   3.408  16.111  0.9555 -0.3355  0.0723
  656TMC3    C4 9708   4.579   3.391  15.854  0.3605  0.5008  0.0530
  656TMC3    C5 9709   4.494   3.493  15.887 -0.3873 -0.6245  0.8039
  656TMC3    C6 9710   4.455   3.495  16.017  0.2453 -0.3691  0.2247
  656TMC3     C 9711   4.707   3.179  15.910  1.1482 -1.0695  0.3753
  656TMC3     O 9712   0.025   3.113  16.008  0.4659 -0.4736  0.7009
  656TMC3     H 9713   4.633   3.255  16.154 -1.9809 -0.8973  0.5868
  656TMC3    H1 9714   4.608   3.378  15.750 -2.5467  0.1628 -0.7227
  656TMC3    H2 9715   4.354   3.533  16.031  0.6277  0.4867  0.6554
  656TMC3    C7 9716   4.444   3.580  15.779  0.1109 -0.0082 -0.1663
  656TMC3    C8 9717   4.409   3.392  16.223  0.1337  0.6632 -0.2840
  656TMC3    O1 9718   4.466   3.545  15.663 -0.9018  0.3029 -0.0119
  656TMC3    O2 9719   4.378   3.279  16.242 -0.6713  0.0701 -0.4543
  657TMC3    C1 9720   3.815   2.315  14.752 -0.3035  0.4026  0.1737
  657TMC3    C2 9721   3.783   2.337  14.883  0.5928 -0.1032  0.4313
  657TMC3    C3 9722   3.712   2.454  14.916  0.0507  0.6457 -0.0451
  657TMC3    C4 9723   3.769   2.394  14.653  0.3316  0.1305 -0.3506
  657TMC3    C5 9724   3.704   2.509  14.687 -0.7494 -0.4541 -0.1823
  657TMC3    C6 9725   3.680   2.547  14.816  0.2637  0.0214  0.1248
  657TMC3     C 9726   3.866   2.190  14.716  0.1065 -0.7977  0.0854
  657TMC3     O 9727   3.795   2.138  14.634  0.4987 -0.3565 -0.3548
  657TMC3     H 9728   3.811   2.269  14.962  0.8757 -1.1690 -0.5787
  657TMC3    H1 9729   3.798   2.374  14.550 -0.6923  0.5145 -0.7113
  657TMC3    H2 9730   3.650   2.647  14.846  0.0036  0.0679 -0.2863
  657TMC3    C7 9731   3.695   2.613  14.588 -0.7269 -0.2156 -0.1916
  657TMC3    C8 9732   3.743   2.522  15.041  0.2260  0.0257  0.8549
  657TMC3    O1 9733   3.795   2.631  14.521 -0.5153 -0.2502  0.9754
  657TMC3    O2 9734   3.683   2.626  15.060  0.5577  0.4828 -0.1005
  658MPD2     C 9735   0.537   2.908  14.849 -0.2967  0.3786  0.1031
  658MPD2    C1 9736   0.405   2.944  14.844 -0.3285 -0.3068  0.1836
  658MPD2    C2 9737   0.367   3.042  14.756 -0.3153  0.5554  0.5815
  658MPD2    C3 9738   0.452   3.101  14.664  0.0648 -0.1034  0.4484
  658MPD2    C4 9739   0.582   3.072  14.683 -0.2213  0.3504  0.2688
  658MPD2    C5 9740   0.630   2.982  14.778 -0.2119 -0.0983 -0.1105
  658MPD2     H 9741   0.264   3.078  14.751  0.1858  1.8568 -0.3979
  658MPD2    H1 9742   0.659   3.119  14.623  1.0285 -0.3845  1.2923
  658MPD2    H2 9743   0.587   2.847  14.923 -3.5648 -1.5404  0.7473
  658MPD2    H3 9744   0.736   2.963  14.786 -0.0491  1.0063  0.3262
  658MPD2     N 9745   0.399   3.198  14.574 -0.0699  0.3879  0.4268
  658MPD2    H5 9746   0.300   3.217  14.586 -0.5151  0.4945 -3.2086
  658MPD2    N1 9747   0.314   2.878  14.926  0.4982  0.3000 -0.2965
  658MPD2    H7 9748   0.350   2.819  15.000 -0.1986 -1.0322 -1.0181
  659TMC3    C1 9749   0.091   2.811  14.982  0.2525 -0.2879 -0.3927
  659TMC3    C2 9750   0.097   2.848  15.117  0.0766 -0.4150  0.1925
  659TMC3    C3 9751   4.700   2.840  15.183 -0.0016  1.1772 -0.6338
  659TMC3    C4 9752   4.695   2.776  14.921 -0.1904 -0.1858 -0.2060
  659TMC3    C5 9753   4.584   2.763  14.996  0.4414 -0.1079  0.0191
  659TMC3    C6 9754   4.584   2.804  15.123  0.2849  0.1709  0.0968
  659TMC3     C 9755   0.178   2.879  14.892 -0.0528  0.3835 -0.0820
  659TMC3     O 9756   0.129   2.896  14.783  0.4722  0.1000 -0.4841
  659TMC3     H 9757   0.190   2.888  15.154  0.1120 -0.3908  0.0762
  659TMC3    H1 9758   4.693   2.753  14.815 -0.2880 -1.8519  0.1627
  659TMC3    H2 9759   4.498   2.801  15.189  0.3080  3.2324  0.2347
  659TMC3    C7 9760   4.452   2.747  14.936 -1.1183 -0.0151  0.1928
  659TMC3    C8 9761   4.702   2.908  15.307  0.0623 -0.1229  0.1861
  659TMC3    O1 9762   4.367   2.811  14.997  0.4323 -0.4021 -0.1675
  659TMC3    O2 9763   4.611   2.987  15.330  0.4123  0.1435 -0.3569
  660MPD2     C 9764   3.079   1.462  12.613 -0.3183 -0.1801  0.2358
  660MPD2    C1 9765   2.973   1.544  12.577  0.4199 -0.5369  0.5977
  660MPD2    C2 9766   2.870   1.550  12.668 -0.1423 -0.5745  0.7102
  660MPD2    C3 9767   2.865   1.463  12.779  0.7007 -0.7052  0.1028
  660MPD2    C4 9768   2.977   1.385  12.807  0.0543 -0.1054 -0.1724
  660MPD2    C5 9769   3.084   1.387  12.725  0.5379 -0.0220 -0.2941
  660MPD2     H 9770   2.783   1.613  12.650 -0.7680 -1.7934 -0.5452
  660MPD2    H1 9771   2.988   1.318  12.891 -0.4126 -0.6898 -0.5785
  660MPD2    H2 9772   3.162   1.451  12.544 -0.3004  0.5515  0.1323
  660MPD2    H3 9773   3.172   1.329  12.749  0.7254 -0.2612 -1.5665
  660MPD2     N 9774   2.756   1.450  12.866 -0.0056 -0.5225 -0.1808
  660MPD2    H5 9775   2.755   1.368  12.925 -0.4321  1.7689  3.0063
  660MPD2    N1 9776   2.989   1.631  12.461  0.0835 -0.4318  0.0819
  660MPD2    H7 9777   3.072   1.624  12.403 -0.6891  1.6407 -1.2697
  661TMC3    C1 9778   2.922   1.803  12.301  0.2728 -0.1125  0.6543
  661TMC3    C2 9779   3.023   1.763  12.215 -0.0447  0.7003 -0.4450
  661TMC3    C3 9780   3.013   1.790  12.081 -1.0333 -1.1066 -0.9040
  661TMC3    C4 9781   2.805   1.857  12.254  0.2102  0.7238 -0.4105
  661TMC3    C5 9782   2.787   1.864  12.119 -0.1065  0.4432  0.3365
  661TMC3    C6 9783   2.885   1.824  12.031  0.4966  0.1895  0.0631
  661TMC3     C 9784   2.901   1.732  12.433  0.1123 -0.4689  0.7208
  661TMC3     O 9785   2.805   1.768  12.496 -0.3718 -0.0811 -0.3572
  661TMC3     H 9786   3.119   1.728  12.250  0.1031  0.4748 -1.0923
  661TMC3    H1 9787   2.734   1.903  12.321 -2.0058 -2.2790 -0.6887
  661TMC3    H2 9788   2.876   1.848  11.925 -3.0707 -0.0291  0.2987
  661TMC3    C7 9789   2.657   1.865  12.069  0.0139 -0.6399 -0.1398
  661TMC3    C8 9790   3.120   1.755  11.992  0.0411  0.3977  0.4600
  661TMC3    O1 9791   2.572   1.906  12.147 -0.4265 -0.3981  0.1128
  661TMC3    O2 9792   3.196   1.668  12.019 -0.3525 -0.0623 -0.2806
  662MPD2     C 9793   3.018   1.433  17.171  0.1427  0.1948 -0.0683
  662MPD2    C1 9794   3.060   1.475  17.292 -0.6177 -0.0315  0.1966
  662MPD2    C2 9795   3.043   1.603  17.335 -0.4572 -0.1812 -0.9127
  662MPD2    C3 9796   2.993   1.696  17.247 -0.2853 -0.0162  0.9080
  662MPD2    C4 9797   2.934   1.656  17.128  0.1239 -0.7185  0.2369
  662MPD2    C5 9798   2.947   1.523  17.097 -0.3141 -0.4035 -0.3333
  662MPD2     H 9799   3.079   1.626  17.434  0.3001 -0.2392 -1.1692
  662MPD2    H1 9800   2.890   1.731  17.064  2.4487 -0.5763 -1.1911
  662MPD2    H2 9801   3.039   1.334  17.133  1.1303  0.2594  0.3080
  662MPD2    H3 9802   2.905   1.495  17.001 -1.8890 -0.1775  0.3010
  662MPD2     N 9803   2.993   1.834  17.279  0.2801  0.4973  0.5169
  662MPD2    H5 9804   2.942   1.907  17.230 -1.6113 -1.8415 -1.0115
  662MPD2    N1 9805   3.112   1.384  17.384 -0.4186 -0.2274  0.0108
  662MPD2    H7 9806   3.134   1.430  17.472  0.9604 -1.3668  0.2657
  663TMC3    C1 9807   3.219   1.192  17.474 -0.0368 -0.2347 -0.7891
  663TMC3    C2 9808   3.286   1.279  17.547 -0.2249  0.3829 -0.4617
  663TMC3    C3 9809   3.323   1.266  17.681 -0.8323 -0.4973 -0.0574
  663TMC3    C4 9810   3.183   1.077  17.534  0.4903 -0.5512  0.5653
  663TMC3    C5 9811   3.212   1.056  17.668 -0.6051 -0.4709 -0.5830
  663TMC3    C6 9812   3.268   1.156   0.054 -0.0770 -0.2882 -0.2203
  663TMC3     C 9813   3.140   1.245  17.364 -0.3995  0.2564 -0.0106
  663TMC3     O 9814   3.097   1.173  17.277  0.5316 -0.3845 -0.3694
  663TMC3     H 9815   3.329   1.360  17.490  0.9099  0.6295  0.7331
  663TMC3    H1 9816   3.117   1.010  17.480 -0.8126  0.3389  1.0544
  663TMC3    H2 9817   3.300   1.131   0.154  1.2867  0.2500 -0.5354
  663TMC3    C7 9818   3.163   0.933   0.049  0.9176 -0.4713  0.8198
  663TMC3    C8 9819   3.314   1.395   0.066  0.5187 -0.0141 -0.0713
  663TMC3    O1 9820   3.177   0.929   0.171  0.3305 -0.0898  0.1251
  663TMC3    O2 9821   3.333   1.495  17.688  0.1157  0.0053 -0.1987
  664MPD2     C 9822   1.302   4.467   0.140 -0.4842  1.0266 -0.5082
  664MPD2    C1 9823   1.424   4.525   0.155 -0.4212 -0.0841 -0.8305
  664MPD2    C2 9824   1.458   4.557   0.279  0.0816 -0.8804 -0.5458
  664MPD2    C3 9825   1.383   4.527   0.390  0.1552 -0.4740 -0.8760
  664MPD2    C4 9826   1.261   4.471   0.373 -0.2153 -0.5490  0.6024
  664MPD2    C5 9827   1.232   4.435   0.244  0.7857 -0.4822 -0.2837
  664MPD2     H 9828   1.554   4.606   0.287 -0.7050  0.6327 -0.1596
  664MPD2    H1 9829   1.193   4.442   0.452 -0.5501  0.2603  0.6084
  664MPD2    H2 9830   1.273   4.432   0.041 -2.5455 -0.7639  0.7261
  664MPD2    H3 9831   1.141   4.382   0.217  0.6979  0.6607 -2.2334
  664MPD2     N 9832   1.439   4.547   0.518  0.4417  0.0172  0.2849
  664MPD2    H5 9833   1.526   4.598   0.532  0.2219  0.5297 -0.1723
  664MPD2    N1 9834   1.499   4.561   0.039  0.3736  0.3597 -0.4284
  664MPD2    H7 9835   1.593   4.598   0.054  0.4530 -0.4534  1.0681
  665TMC3    C1 9836   1.472   4.538   0.750 -0.1038 -0.2846 -0.2619
  665TMC3    C2 9837   1.426   4.497   0.873  0.4336  0.1934 -0.0189
  665TMC3    C3 9838   1.460   4.567   0.983 -0.4196 -0.2370  0.3304
  665TMC3    C4 9839   1.543   4.657   0.739  0.2143 -0.7663  0.2369
  665TMC3    C5 9840   1.578   0.005   0.855 -0.3033  0.1467  1.1098
  665TMC3    C6 9841   1.533   4.681   0.981  0.2257  0.5213 -0.0450
  665TMC3     C 9842   1.397   4.488   0.633 -0.6231  0.6844  0.0039
  665TMC3     O 9843   1.295   4.426   0.656  0.0032 -0.4002 -0.4863
  665TMC3     H 9844   1.357   4.413   0.876  0.6351  0.0841  1.6715
  665TMC3    H1 9845   1.571   4.696   0.642 -0.7064  1.8358  1.0243
  665TMC3    H2 9846   1.564   0.008   1.073 -0.1479  1.6366 -0.5091
  665TMC3    C7 9847   1.603   0.144   0.834  0.1314  0.4326 -0.7473
  665TMC3    C8 9848   1.405   4.532   1.115 -0.0283 -0.2334 -0.0432
  665TMC3    O1 9849   1.654   0.164   0.727 -0.3891 -0.5420  0.1050
  665TMC3    O2 9850   1.437   4.604   1.206  0.1104  0.4330  0.1265
  666TMC3    C1 9851   0.931   3.967   9.917  1.0145 -0.3446  0.1051
  666TMC3    C2 9852   1.047   3.892   9.957  0.4990  0.4358 -0.4943
  666TMC3    C3 9853   1.165   3.962   9.964  0.1796  0.4752  0.8460
  666TMC3    C4 9854   0.940   4.095   9.878  1.3375  0.4294  0.2170
  666TMC3    C5 9855   1.064   4.158   9.884  0.6855  0.0276 -0.3696
  666TMC3    C6 9856   1.175   4.093   9.932  0.1704  0.4310  0.2533
  666TMC3     C 9857   0.802   3.907   9.922 -0.2670  0.0165 -0.3332
  666TMC3     O 9858   0.707   3.971   9.887  0.2626 -0.2041  0.2978
  666TMC3     H 9859   1.039   3.789   9.991  0.4081 -0.0202 -1.8889
  666TMC3    H1 9860   0.850   4.140   9.838  1.3764 -0.6992 -1.1733
  666TMC3    H2 9861   1.264   4.149   9.960  0.8186  0.0298 -0.9616
  666TMC3    C7 9862   1.048   4.299   9.864  0.6421  0.1491 -0.5865
  666TMC3    C8 9863   1.275   3.883  10.015 -0.7045 -0.2975 -0.5498
  666TMC3    O1 9864   0.936   4.344   9.837  0.2869  0.4474 -0.3202
  666TMC3    O2 9865   1.247   3.767  10.042  0.4193  0.2466 -0.3926
  667MPD2     C 9866   2.031   4.060  14.756 -0.1376  0.3822 -0.4032
  667MPD2    C1 9867   1.974   4.060  14.879  0.4197  0.4370  0.2133
  667MPD2    C2 9868   1.895   3.954  14.924  0.7637  0.4254  0.3799
  667MPD2    C3 9869   1.854   3.850  14.837  0.2739 -0.3253 -0.4590
  667MPD2    C4 9870   1.911   3.857  14.708 -0.6632 -0.1084 -0.3658
  667MPD2    C5 9871   2.005   3.952  14.674 -0.4905 -0.0183  0.0654
  667MPD2     H 9872   1.845   3.970  15.019 -1.2072  1.7014 -0.8716
  667MPD2    H1 9873   1.883   3.793  14.625 -2.3438 -0.5332  0.5309
  667MPD2    H2 9874   2.087   4.145  14.718 -0.1863  1.4987  2.0467
  667MPD2    H3 9875   2.047   3.951  14.574  1.5511  1.2714  0.9050
  667MPD2     N 9876   1.763   3.756  14.875  0.0628 -0.2325  0.3461
  667MPD2    H5 9877   1.740   3.693  14.799 -1.0898  0.5592  0.0398
  667MPD2    N1 9878   1.976   4.166  14.973  0.0060 -0.4739 -0.5861
  667MPD2    H7 9879   1.929   4.146  15.061 -0.7636 -0.3011 -0.9586
  668TMC3    C1 9880   1.988   4.371  15.082 -0.3390  0.1887 -0.2292
  668TMC3    C2 9881   2.084   4.456  15.131 -0.1813  0.0402 -0.1887
  668TMC3    C3 9882   2.072   4.499  15.266 -0.2782 -0.1857 -0.3335
  668TMC3    C4 9883   1.877   4.339  15.160 -0.2805 -0.4950  0.2466
  668TMC3    C5 9884   1.864   4.410  15.279 -0.5874 -0.0707  0.5545
  668TMC3    C6 9885   1.960   4.485  15.334 -0.2768  0.2122  0.2428
  668TMC3     C 9886   2.022   4.299  14.961 -0.2112 -0.6288  0.4739
  668TMC3     O 9887   2.089   4.350  14.872 -0.1661 -0.0578  0.5625
  668TMC3     H 9888   2.176   4.474  15.077  0.3674 -0.1478  0.6737
  668TMC3    H1 9889   1.798   4.280  15.116 -1.3153  1.5962 -0.7098
  668TMC3    H2 9890   1.953   4.521  15.436 -0.1652 -1.1919  0.7451
  668TMC3    C7 9891   1.732   4.409  15.353  0.0656 -0.1202  0.2429
  668TMC3    C8 9892   2.163   4.597  15.308 -0.4206 -0.5106 -1.0734
  668TMC3    O1 9893   1.744   4.428  15.473 -0.2283  0.1600  0.2400
  668TMC3    O2 9894   2.193   4.604  15.423  0.5635 -0.1762 -0.1550
  669TMC3    C1 9895   0.011   4.470  14.909  0.1966  0.3139  0.0576
  669TMC3    C2 9896   4.599   4.514  14.888  0.2513  0.5610 -1.4369
  669TMC3    C3 9897   4.572   4.596  14.777  0.5191  0.0973 -0.2047
  669TMC3    C4 9898   0.115   4.537  14.849 -0.4137 -0.2354 -0.1345
  669TMC3    C5 9899   0.083   4.629  14.750 -0.5110 -0.5627 -0.4232
  669TMC3    C6 9900   4.674   4.656  14.707  0.5916  0.1389  0.2497
  669TMC3     C 9901   0.027   4.332  14.965  0.6632  0.4315  0.2006
  669TMC3     O 9902   4.666   4.280  15.040 -0.0745 -0.1061 -0.3099
  669TMC3     H 9903   4.519   4.463  14.941  0.9730  0.6897 -0.2024
  669TMC3    H1 9904   0.221   4.515  14.849 -0.8174 -2.1224 -3.1519
  669TMC3    H2 9905   4.656   0.011  14.632  1.2719 -0.5210 -0.5874
  669TMC3    C7 9906   0.194   4.690  14.669  0.5442 -0.9198  0.4271
  669TMC3    C8 9907   4.433   4.614  14.734  0.7313  0.1374 -0.0323
  669TMC3    O1 9908   0.301   4.693  14.726 -1.1023 -1.0916  0.5211
  669TMC3    O2 9909   4.335   4.596  14.811 -0.1526 -0.1517  1.1749
  670MPD2     C 9910   3.332   2.289  13.666  0.0424  0.2846  0.5061
  670MPD2    C1 9911   3.433   2.281  13.761 -0.3663  0.0531 -0.4241
  670MPD2    C2 9912   3.393   2.256  13.895  0.3907  0.2390 -0.4238
  670MPD2    C3 9913   3.258   2.249  13.928  0.7815  0.2376 -0.4197
  670MPD2    C4 9914   3.161   2.262  13.831 -0.3708 -0.1816 -0.5571
  670MPD2    C5 9915   3.198   2.276  13.702 -0.7622 -0.6896 -0.4303
  670MPD2     H 9916   3.466   2.253  13.975 -0.8998  3.0949  0.8361
  670MPD2    H1 9917   3.054   2.259  13.845  0.1606 -4.3510  2.5370
  670MPD2    H2 9918   3.350   2.307  13.561  0.1801 -1.2809  0.2545
  670MPD2    H3 9919   3.131   2.308  13.624 -0.3034 -1.3405 -1.0888
  670MPD2     N 9920   3.217   2.215  14.058  0.3757 -0.0454 -0.3651
  670MPD2    H5 9921   3.293   2.176  14.114 -0.1365 -1.7630 -0.8516
  670MPD2    N1 9922   3.566   2.294  13.724 -0.1587 -0.4272  0.0348
  670MPD2    H7 9923   3.634   2.326  13.792  0.0257 -0.5541 -0.0900
  671TMC3    C1 9924   3.048   2.159  14.219  0.2480  0.0518  1.0162
  671TMC3    C2 9925   3.142   2.080  14.282 -0.1492 -0.2681 -0.3950
  671TMC3    C3 9926   3.098   1.951  14.312  0.0239 -0.4337 -0.9082
  671TMC3    C4 9927   2.928   2.107  14.198 -0.5346 -0.5937  0.3465
  671TMC3    C5 9928   2.892   1.982  14.216 -0.4956 -0.0661 -0.5011
  671TMC3    C6 9929   2.982   1.893  14.272 -1.1253  0.0617  0.0720
  671TMC3     C 9930   3.087   2.238  14.105  0.5073 -0.2417  0.7527
  671TMC3     O 9931   3.000   2.314  14.066 -0.0220 -0.0439  0.6003
  671TMC3     H 9932   3.236   2.120  14.316  0.1720  0.0486 -1.6560
  671TMC3    H1 9933   2.859   2.175  14.149  0.4763 -0.3150 -0.7122
  671TMC3    H2 9934   2.966   1.789  14.297 -1.7149  0.1367 -0.0019
  671TMC3    C7 9935   2.805   1.938  14.113  0.4067 -0.5975  0.4901
  671TMC3    C8 9936   3.181   1.859  14.388  0.1667 -0.2629  0.1151
  671TMC3    O1 9937   2.797   2.008  14.015  0.5413 -0.1401  0.2073
  671TMC3    O2 9938   3.161   1.741  14.378 -0.2788  0.4058 -0.7616
  672MPD2     C 9939   0.023   2.582   0.671 -0.7134 -0.3613 -0.1666
  672MPD2    C1 9940   4.620   2.636   0.701 -0.0154 -0.4408 -0.1622
  672MPD2    C2 9941   4.617   2.762   0.751  0.3252 -0.8264  0.7646
  672MPD2    C3 9942   0.011   2.819   0.805 -1.0267  0.5094  0.0994
  672MPD2    C4 9943   0.134   2.758   0.778 -0.4120  0.1875  0.2988
  672MPD2    C5 9944   0.140   2.643   0.706  0.4064  0.3860  0.2581
  672MPD2     H 9945   4.521   2.809   0.766  0.2769 -0.4397 -0.7592
  672MPD2    H1 9946   0.231   2.799   0.805  0.3185  0.1932 -2.3041
  672MPD2    H2 9947   0.030   2.483   0.626 -0.6352 -0.2332 -0.4341
  672MPD2    H3 9948   0.233   2.602   0.667 -1.4992 -3.3212 -0.4584
  672MPD2     N 9949   0.005   2.925   0.901  0.1055 -0.4385  0.3011
  672MPD2    H5 9950   0.088   2.937   0.958 -0.5636 -0.6776  1.3308
  672MPD2    N1 9951   4.511   2.552   0.679  0.2083 -0.2426  0.1965
  672MPD2    H7 9952   4.533   2.461   0.639 -0.7100 -0.5575  0.4134
  673TMC3    C1 9953   4.294   2.477   0.669 -0.2494  0.0702 -0.2015
  673TMC3    C2 9954   4.348   2.350   0.704  0.8146  1.0344 -0.2623
  673TMC3    C3 9955   4.259   2.252   0.721  0.5939  0.0548 -0.3232
  673TMC3    C4 9956   4.155   2.497   0.662  0.4392  0.1738 -0.1619
  673TMC3    C5 9957   4.074   2.390   0.675  0.4470  0.3019  0.1377
  673TMC3    C6 9958   4.129   2.268   0.696 -0.1892  0.4790 -0.0244
  673TMC3     C 9959   4.385   2.588   0.690 -0.1829 -0.2109  0.7479
  673TMC3     O 9960   4.341   2.699   0.724 -0.6516  0.2014 -0.3093
  673TMC3     H 9961   4.448   2.334   0.743 -0.3501 -0.2033  2.2318
  673TMC3    H1 9962   4.122   2.597   0.637 -2.5571 -0.9323 -0.5868
  673TMC3    H2 9963   4.076   2.174   0.701 -2.1958  1.5235 -1.3698
  673TMC3    C7 9964   3.977   2.403   0.778 -0.3249 -0.0071  0.1546
  673TMC3    C8 9965   4.297   2.124   0.788  0.2932 -0.1807  0.3665
  673TMC3    O1 9966   3.954   2.307   0.849  0.0735  0.2914 -0.5981
  673TMC3    O2 9967   4.259   2.022   0.739  0.3569 -0.5078  0.3692
  674MPD2     C 9968   4.233   2.362   0.320  0.3702 -0.2363 -0.0880
  674MPD2    C1 9969   4.150   2.259   0.365 -0.0034  0.2094  0.2407
  674MPD2    C2 9970   4.016   2.288   0.380  0.0932 -0.4489 -0.2231
  674MPD2    C3 9971   3.975   2.421   0.390  1.0779 -0.3059  0.0615
  674MPD2    C4 9972   4.064   2.525   0.370  1.1554  0.3623  0.2988
  674MPD2    C5 9973   4.193   2.491   0.328 -0.4340  0.2795  0.3553
  674MPD2     H 9974   3.953   2.201   0.397  1.5541 -1.3779  0.3738
  674MPD2    H1 9975   4.034   2.629   0.370  1.0462  0.3319  0.6976
  674MPD2    H2 9976   4.330   2.332   0.282  2.2002  2.1420  2.7319
  674MPD2    H3 9977   4.266   2.567   0.303 -2.2381  1.8061 -0.2996
  674MPD2     N 9978   3.840   2.439   0.427 -0.3418  0.1964 -0.0749
  674MPD2    H5 9979   3.782   2.356   0.435  0.1006 -0.1065 -0.0240
  674MPD2    N1 9980   4.203   2.128   0.392 -0.3344  0.0812 -0.2221
  674MPD2    H7 9981   4.131   2.059   0.409  1.4691 -2.5251 -3.1258
  675TMC3    C1 9982   4.340   1.940   0.402 -0.1609 -0.4096 -0.0828
  675TMC3    C2 9983   4.224   1.871   0.409  0.3854  0.0072  0.2395
  675TMC3    C3 9984   4.225   1.756   0.473  0.0393  0.1902 -0.2694
  675TMC3    C4 9985   4.453   1.898   0.472  0.2713  0.3596 -0.1285
  675TMC3    C5 9986   4.449   1.782   0.542 -1.0130  0.2454 -0.0094
  675TMC3    C6 9987   4.334   1.706   0.536 -0.6366 -0.5826 -0.2205
  675TMC3     C 9988   4.331   2.083   0.385 -1.1020  0.3019 -0.2045
  675TMC3     O 9989   4.431   2.150   0.361 -0.1276  1.0106  0.3861
  675TMC3     H 9990   4.139   1.896   0.347  0.5921  1.9506  0.7150
  675TMC3    H1 9991   4.541   1.959   0.486 -0.6375  1.2980  1.5968
  675TMC3    H2 9992   4.332   1.606   0.577  0.2782 -0.8363 -0.7911
  675TMC3    C7 9993   4.571   1.714   0.587 -0.0874 -0.6085  0.2313
  675TMC3    C8 9994   4.119   1.660   0.443  0.3814 -0.2087 -0.2616
  675TMC3    O1 9995   4.558   1.613   0.656 -0.3212  0.1159  0.1671
  675TMC3    O2 9996   4.149   1.540   0.451 -0.2589  0.1438  0.2042
  676MPD2     C 9997   1.514   0.327  10.842 -0.1796  0.1273 -0.4363
  676MPD2    C1 9998   1.419   0.266  10.924  0.5635 -0.0173 -0.0621
  676MPD2    C2 9999   1.411   0.131  10.934 -0.3084  0.5800 -0.2301
  676MPD2    C310000   1.497   0.045  10.856  0.0283 -1.0277 -0.0966
  676MPD2    C410001   1.584   0.110  10.769 -0.2770 -0.3438 -0.7445
  676MPD2    C510002   1.595   0.246  10.769 -0.0952  0.4317  0.0256
  676MPD2     H10003   1.342   0.094  11.009  0.3097 -0.8439 -0.3686
  676MPD2    H110004   1.649   0.067  10.693 -0.2058  1.3514 -1.6366
  676MPD2    H210005   1.525   0.435  10.834 -1.3758  0.4006  1.6438
  676MPD2    H310006   1.669   0.291  10.704 -1.7547  0.8639 -1.5834
  676MPD2     N10007   1.488   4.626  10.870 -0.0362  0.3725  0.9480
  676MPD2    H510008   1.427   4.588  10.941 -0.9964 -0.0929 -0.1266
  676MPD2    N110009   1.337   0.350  11.008  0.3383 -0.3485  0.3549
  676MPD2    H710010   1.271   0.298  11.065 -1.9782  0.7936 -1.3176
  677TMC3    C110011   1.237   0.545  11.104  0.2026  0.7441 -0.1380
  677TMC3    C210012   1.137   0.467  11.118 -0.1773 -1.1081  0.1473
  677TMC3    C310013   1.070   0.462  11.229  0.3417 -0.5740  0.0786
  677TMC3    C410014   1.280   0.628  11.200 -0.0042 -0.6050  0.5726
  677TMC3    C510015   1.208   0.631  11.316  0.3458  0.6292 -0.4111
  677TMC3    C610016   1.091   0.556  11.335 -0.3522 -0.5375 -0.3646
  677TMC3     C10017   1.337   0.492  11.019  0.5254  0.3032 -0.3608
  677TMC3     O10018   1.428   0.565  10.984 -0.5149  0.3320 -0.0197
  677TMC3     H10019   1.095   0.405  11.040 -1.4682  0.5326 -0.4602
  677TMC3    H110020   1.375   0.677  11.183 -1.1177  1.4136  0.0882
  677TMC3    H210021   1.025   0.552  11.421  1.8720  0.0819  1.3684
  677TMC3    C710022   1.258   0.703  11.431  0.1493 -0.3976 -0.2097
  677TMC3    C810023   0.968   0.360  11.240  0.2803 -0.6333 -0.2388
  677TMC3    O110024   1.220   0.664  11.538 -0.3437 -0.0932  0.3559
  677TMC3    O210025   0.893   0.343  11.141  0.4938 -0.0183 -0.2844
  678MPD2     C10026   2.284   0.917   1.906 -0.7435 -0.5991 -0.0492
  678MPD2    C110027   2.326   0.900   1.779  0.8329  0.5848  0.1416
  678MPD2    C210028   2.235   0.912   1.674  0.6351 -0.1677  0.2797
  678MPD2    C310029   2.103   0.941   1.700  0.3490  0.0070 -0.1697
  678MPD2    C410030   2.061   0.950   1.830  0.0509  0.1469 -0.5118
  678MPD2    C510031   2.152   0.935   1.933  0.3821 -0.0594  0.1248
  678MPD2     H10032   2.275   0.874   1.581 -0.4992  1.4937 -0.8865
  678MPD2    H110033   1.958   0.980   1.851  0.4160  0.6767  0.4981
  678MPD2    H210034   2.344   0.897   1.994  3.1454 -1.9067 -2.9938
  678MPD2    H310035   2.121   0.946   2.036  1.0253  1.8310  0.1226
  678MPD2     N10036   2.014   0.948   1.598 -0.2078  0.1863  0.3844
  678MPD2    H510037   2.058   0.936   1.507 -0.3542 -1.6797  0.5571
  678MPD2    N110038   2.457   0.854   1.744  0.0867  0.1280 -0.3378
  678MPD2    H710039   2.475   0.837   1.645  0.5152  2.3811 -0.6622
  679TMC3    C110040   2.874   0.654   1.754 -0.1098  0.9489  0.0739
  679TMC3    C210041   2.759   0.688   1.828 -0.0644  0.8044  0.2176
  679TMC3    C310042   2.676   0.782   1.768 -0.6111  0.2953 -0.6018
  679TMC3    C410043   2.899   0.702   1.626 -0.7935  0.1923 -0.3297
  679TMC3    C510044   2.816   0.797   1.579 -0.1122  0.0934 -0.3830
  679TMC3    C610045   2.704   0.837   1.647 -0.4258  0.1849  0.2511
  679TMC3     C10046   2.953   0.546   1.792  0.7264  0.6498  0.3853
  679TMC3     O10047   3.003   0.478   1.702  0.1448 -0.0004 -0.6040
  679TMC3     H10048   2.736   0.657   1.929  0.2964  1.1437  0.4053
  679TMC3    H110049   2.983   0.661   1.571 -0.8039 -0.8814  0.4470
  679TMC3    H210050   2.640   0.918   1.614  1.3742  0.8193 -1.6675
  679TMC3    C710051   2.848   0.862   1.455 -0.0836 -0.1145 -0.4220
  679TMC3    C810052   2.544   0.802   1.830  0.0810  0.5652  0.5010
  679TMC3    O110053   2.784   0.961   1.439 -0.0477  0.0840 -0.1637
  679TMC3    O210054   2.540   0.794   1.957 -0.1100  0.3128  0.5060
  680MPD2     C10055   3.642   4.236  13.869  0.1591 -0.1687  0.3790
  680MPD2    C110056   3.551   4.195  13.966 -1.3709 -0.6488 -0.5945
  680MPD2    C210057   3.488   4.292  14.041  0.1372 -0.8996  0.1953
  680MPD2    C310058   3.515   4.430  14.017 -0.3614  0.3159  0.5762
  680MPD2    C410059   3.594   4.464  13.906  0.3338 -0.0425  0.2667
  680MPD2    C510060   3.662   4.367  13.840  0.1776  0.1590 -1.0758
  680MPD2     H10061   3.417   4.271  14.120  0.0333  2.1182  0.8844
  680MPD2    H110062   3.622   4.568  13.891  2.5815 -0.7312 -0.3871
  680MPD2    H210063   3.701   4.160  13.820  0.5660  2.1611 -2.6890
  680MPD2    H310064   3.726   4.398  13.759  1.9698 -0.5732  0.0768
  680MPD2     N10065   3.460   4.535  14.097 -0.2922  0.2435  0.3442
  680MPD2    H510066   3.492   4.626  14.066 -1.0814  0.5501  0.4140
  680MPD2    N110067   3.506   4.064  13.982  0.3902  0.0342 -0.3059
  680MPD2    H710068   3.449   4.047  14.064  0.0957 -0.0316 -0.5253
  681TMC3    C110069   3.470   3.829  13.940  0.0038 -0.2964  0.2493
  681TMC3    C210070   3.424   3.808  14.070 -0.0279  0.6656 -0.8277
  681TMC3    C310071   3.362   3.691  14.102  0.6351 -0.0761 -0.5934
  681TMC3    C410072   3.459   3.730  13.850 -0.5395  0.8725  0.1023
  681TMC3    C510073   3.413   3.606  13.881  0.4496  0.4284 -0.5986
  681TMC3    C610074   3.359   3.589  14.005  0.3064 -0.2951 -0.6088
  681TMC3     C10075   3.525   3.957  13.895 -0.6460  0.0584  0.1173
  681TMC3     O10076   3.592   3.959  13.792  0.1169 -0.8255 -0.2873
  681TMC3     H10077   3.447   3.887  14.142 -1.2867  1.0107 -0.8004
  681TMC3    H110078   3.500   3.752  13.752 -0.2296  3.1806  0.7488
  681TMC3    H210079   3.314   3.492  14.025  0.6003 -0.2892  0.0573
  681TMC3    C710080   3.401   3.500  13.780 -0.5264  0.0465  0.3697
  681TMC3    C810081   3.309   3.668  14.241  0.6858  0.0495 -0.4240
  681TMC3    O110082   3.311   3.420  13.801 -0.1067 -0.0816  0.1002
  681TMC3    O210083   3.285   3.552  14.275 -0.2574  0.2934  0.1979
  682MPD2     C10084   0.591   0.781  10.391 -0.1305 -0.4308  0.0488
  682MPD2    C110085   0.611   0.652  10.451 -0.3491 -0.3046  0.8587
  682MPD2    C210086   0.592   0.639  10.590 -0.1587  0.1726  0.1471
  682MPD2    C310087   0.567   0.746  10.677 -0.5043  0.3125 -0.1601
  682MPD2    C410088   0.564   0.872  10.614 -0.0830  0.0813  0.0036
  682MPD2    C510089   0.560   0.885  10.475  0.1292 -0.0065  0.3397
  682MPD2     H10090   0.600   0.540  10.633 -0.0783  0.9165  1.8465
  682MPD2    H110091   0.557   0.962  10.675  1.1906  0.4553 -0.4027
  682MPD2    H210092   0.598   0.802  10.285 -0.2140  1.1437  0.3490
  682MPD2    H310093   0.544   0.979  10.425 -0.9960 -1.2919 -1.6917
  682MPD2     N10094   0.561   0.741  10.818 -0.6269 -0.4440  0.3181
  682MPD2    H510095   0.559   0.829  10.869  1.3120  0.9229 -1.9896
  682MPD2    N110096   0.628   0.536  10.374 -0.2794 -0.0698  0.0718
  682MPD2    H710097   0.632   0.450  10.427  0.1734 -0.3171 -0.3566
  683TMC3    C110098   0.506   0.757  11.225  0.4699  0.3533 -0.0330
  683TMC3    C210099   0.419   0.668  11.275 -0.6181 -0.3787  0.0109
  683TMC3    C310100   0.378   0.562  11.198  0.1774 -0.5134  0.4883
  683TMC3    C410101   0.555   0.743  11.091  0.4855  0.2487  1.2947
  683TMC3    C510102   0.515   0.634  11.026 -0.2968 -0.1256  1.0018
  683TMC3    C610103   0.427   0.543  11.073 -0.3427 -0.1475  0.1470
  683TMC3     C10104   0.550   0.865  11.308  0.4753 -1.0264  0.4940
  683TMC3     O10105   0.601   0.961  11.253 -0.4847 -0.2735 -0.7632
  683TMC3     H10106   0.363   0.688  11.365  0.0966  0.1327  0.3462
  683TMC3    H110107   0.625   0.816  11.052 -0.0580 -1.1669 -2.3736
  683TMC3    H210108   0.419   0.443  11.032 -1.5929 -0.4939  1.2423
  683TMC3    C710109   0.527   0.619  10.882 -0.5221  0.1132 -0.3029
  683TMC3    C810110   0.283   0.474  11.253 -0.0891 -0.0692  0.6613
  683TMC3    O110111   0.485   0.511  10.837  0.4045 -0.6016 -0.1104
  683TMC3    O210112   0.216   0.517  11.350  0.3313  0.1104 -0.2355
  684MPD2     C10113   2.855   0.661  16.788  0.2178  0.1319 -0.2949
  684MPD2    C110114   2.898   0.643  16.661 -0.1510 -0.2239 -0.8532
  684MPD2    C210115   2.972   0.744  16.603  0.1738 -0.1248 -0.1802
  684MPD2    C310116   3.015   0.853  16.677  0.0307 -0.6962 -0.5140
  684MPD2    C410117   2.978   0.863  16.810 -0.1445 -0.0915 -0.0001
  684MPD2    C510118   2.900   0.764  16.859 -0.3927  0.2543  0.3170
  684MPD2     H10119   3.013   0.721  16.506  0.0636  1.4497 -0.6071
  684MPD2    H110120   2.999   0.941  16.882  1.4572 -0.7896  0.2719
  684MPD2    H210121   2.783   0.595  16.835  0.0898  1.9574  2.0885
  684MPD2    H310122   2.867   0.777  16.962  0.9253 -0.3889  0.8132
  684MPD2     N10123   3.097   0.953  16.628 -0.6646 -0.4477 -0.3129
  684MPD2    H510124   3.133   1.025  16.689  1.2713 -1.5825 -0.1278
  684MPD2    N110125   2.864   0.535  16.580  0.4836 -0.7351 -0.1259
  684MPD2    H710126   2.902   0.534  16.485  1.2872  0.9937  0.1799
  685TMC3    C110127   2.752   0.343  16.513  0.6413 -0.2462 -0.2892
  685TMC3    C210128   2.739   0.396  16.391  0.3408 -0.5328 -0.1126
  685TMC3    C310129   2.755   0.322  16.277  0.0748  0.8189  0.2391
  685TMC3    C410130   2.776   0.213  16.527  0.5206 -0.3295 -0.1536
  685TMC3    C510131   2.805   0.140  16.415  0.8303  0.2795 -0.5244
  685TMC3    C610132   2.782   0.187  16.287  0.5964  0.3832  0.4954
  685TMC3     C10133   2.792   0.427  16.622 -0.2805 -0.2389 -0.3457
  685TMC3     O10134   2.786   0.385  16.735  0.2042 -0.5198  0.0473
  685TMC3     H10135   2.722   0.503  16.380 -0.0011 -0.3375  2.4994
  685TMC3    H110136   2.790   0.181  16.629  0.7121  0.8770  0.1942
  685TMC3    H210137   2.801   0.126  16.199 -1.0442 -1.2691  1.2850
  685TMC3    C710138   2.910   0.042  16.425 -0.1910 -0.4238  0.2364
  685TMC3    C810139   2.671   0.367  16.162 -0.3224 -1.0825 -0.0624
  685TMC3    O110140   2.941   4.716  16.534 -0.1315  0.2415  0.4035
  685TMC3    O210141   2.606   0.466  16.180 -0.2524 -0.6043 -0.4089
  686MPD2     C10142   4.474   4.429  15.448  0.3217  0.0768  0.5560
  686MPD2    C110143   4.524   4.407  15.569  0.8554  0.4557 -0.3511
  686MPD2    C210144   4.589   4.290  15.598  0.3637  0.6626  0.0754
  686MPD2    C310145   4.580   4.183  15.511 -0.3270 -0.1066 -0.0462
  686MPD2    C410146   4.526   4.202  15.390 -0.8533  0.0261  0.1963
  686MPD2    C510147   4.471   4.325  15.361 -0.2862 -0.1116  0.1671
  686MPD2     H10148   4.649   4.281  15.687 -0.5377 -0.8645  0.5427
  686MPD2    H110149   4.524   4.124  15.315  0.0514  1.2912 -1.1336
  686MPD2    H210150   4.427   4.523  15.421  2.0855  0.6250 -0.5835
  686MPD2    H310151   4.441   4.337  15.257 -2.6172  0.7612  0.9423
  686MPD2     N10152   4.633   4.052  15.536 -0.8114  0.0087 -0.1854
  686MPD2    H510153   4.628   3.988  15.457 -1.7482  0.2278 -0.2943
  686MPD2    N110154   4.518   4.516  15.660 -0.7903 -0.5723  0.2933
  686MPD2    H710155   4.463   4.595  15.627  0.3753  0.1877  0.1479
  687TMC3    C110156   4.639   4.062  15.777  0.7626 -0.1176  0.3584
  687TMC3    C210157   4.507   4.077  15.804  0.3875  0.4041  0.3515
  687TMC3    C310158   4.456   4.074  15.934 -0.7936 -0.0352 -0.0816
  687TMC3    C410159   4.721   4.047  15.878  0.1252  0.2042  0.2918
  687TMC3    C510160   4.669   4.047  16.006  0.0563  0.4211 -0.6177
  687TMC3    C610161   4.537   4.058  16.040  0.5095 -0.0325 -0.2757
  687TMC3     C10162   4.674   3.995  15.651  0.1637  0.2227 -0.7127
  687TMC3     O10163   0.010   3.888  15.660  0.1966 -0.1842  0.2782
  687TMC3     H10164   4.437   4.072  15.721  0.4306  0.6573  0.3003
  687TMC3    H110165   0.103   4.020  15.858  0.4708  1.7881 -0.0755
  687TMC3    H210166   4.500   4.073  16.141 -0.9253  0.2192 -0.8327
  687TMC3    C710167   0.035   4.111  16.102 -0.3210  0.6217  0.9265
  687TMC3    C810168   4.338   4.156  15.960 -0.3986  0.6528  0.0647
  687TMC3    O110169   4.702   4.137  16.209  0.6834 -0.0673 -0.6546
  687TMC3    O210170   4.285   4.146  16.072  0.8404  0.0677  0.2214
  688MPD2     C10171   3.786   3.560  17.408  0.6424 -0.0454 -0.1141
  688MPD2    C110172   3.837   3.439  17.446  0.2129  0.4801 -0.5441
  688MPD2    C210173   3.924   3.367  17.359  0.4450  0.4700 -0.2111
  688MPD2    C310174   3.964   3.432  17.243  0.3601  0.2283 -0.2021
  688MPD2    C410175   3.918   3.558  17.215 -0.0393  0.2652  0.1794
  688MPD2    C510176   3.833   3.623  17.300  0.1846 -0.1438  0.3971
  688MPD2     H10177   3.970   3.277  17.397  0.7039  0.2595 -1.0290
  688MPD2    H110178   3.950   3.621  17.132  0.3596 -0.9273 -0.5816
  688MPD2    H210179   3.718   3.616  17.471 -1.6255 -1.6661 -1.1321
  688MPD2    H310180   3.800   3.725  17.285 -0.7014 -0.4284  0.3702
  688MPD2     N10181   4.061   3.379  17.158  0.4451  0.5422 -0.2707
  688MPD2    H510182   4.088   3.439  17.080  0.9359 -0.5953 -0.9764
  688MPD2    N110183   3.800   3.379  17.566  0.3095  0.3461  0.1099
  688MPD2    H710184   3.851   3.297  17.598  0.7240 -0.2611 -2.1220
  689TMC3    C110185   3.671   3.336   0.079  0.2384 -0.6308 -0.0255
  689TMC3    C210186   3.614   3.393   0.187  0.5163  0.2246  0.2873
  689TMC3    C310187   3.599   3.318   0.304 -0.0685  0.8166  0.1060
  689TMC3    C410188   3.712   3.207   0.079  0.2931  0.2213 -0.5762
  689TMC3    C510189   3.720   3.150   0.200 -1.0189 -0.0889  0.3307
  689TMC3    C610190   3.661   3.198   0.315  0.2592  0.1691 -0.3953
  689TMC3     C10191   3.684   3.412  17.644  0.1144  0.6457 -0.2040
  689TMC3     O10192   3.618   3.512  17.635 -0.6264 -0.2392 -0.4265
  689TMC3     H10193   3.577   3.494   0.173 -0.5346  0.0591  1.9452
  689TMC3    H110194   3.762   3.163  17.682  0.1105  0.2464 -0.6974
  689TMC3    H210195   3.681   3.143   0.406  1.9720 -0.1289 -0.9636
  689TMC3    C710196   3.711   3.011   0.186  0.2934  0.2077  1.6140
  689TMC3    C810197   3.589   3.386   0.432 -0.1282 -0.4904 -0.8477
  689TMC3    O110198   3.751   2.948   0.280 -0.2647  0.0067  0.1795
  689TMC3    O210199   3.670   3.356   0.518  0.0765  0.4428 -0.1012
  690MPD2     C10200   0.954   0.751  15.845 -0.1051  0.2417 -0.9118
  690MPD2    C110201   0.919   0.654  15.754  0.3460 -0.3929 -0.8358
  690MPD2    C210202   0.938   0.684  15.621  0.6655 -0.9294 -0.1330
  690MPD2    C310203   1.001   0.794  15.571 -0.2736 -0.2415  0.1164
  690MPD2    C410204   1.027   0.896  15.659  0.1255  0.0655 -0.0694
  690MPD2    C510205   1.014   0.873  15.793  0.5155 -0.3613 -0.1843
  690MPD2     H10206   0.901   0.605  15.555 -1.3006  1.0814 -1.4434
  690MPD2    H110207   1.070   0.990  15.626 -1.1893  1.5013  2.3617
  690MPD2    H210208   0.948   0.734  15.952 -1.0647  2.2746 -0.6573
  690MPD2    H310209   1.056   0.944  15.863 -1.9229  0.1017  0.7904
  690MPD2     N10210   1.009   0.825  15.437  0.1481  0.2235  0.1677
  690MPD2    H510211   1.046   0.916  15.412 -0.1469  0.4268  0.4685
  690MPD2    N110212   0.860   0.531  15.788  0.4347 -0.2352 -0.0720
  690MPD2    H710213   0.833   0.476  15.707  0.0353 -1.8493  1.1515
  691TMC3    C110214   0.739   0.364  15.909 -0.0686 -0.0595  0.3304
  691TMC3    C210215   0.606   0.369  15.938 -0.5678 -0.4959  0.7343
  691TMC3    C310216   0.530   0.276  15.875 -0.1670  0.0731 -0.2345
  691TMC3    C410217   0.790   0.268  15.826 -0.0803 -0.1909  0.4066
  691TMC3    C510218   0.706   0.171  15.774 -0.0439 -0.2789  0.0683
  691TMC3    C610219   0.577   0.176  15.796  0.2982  0.0060  0.1597
  691TMC3     C10220   0.805   0.495  15.910  0.6242  0.0389  0.4633
  691TMC3     O10221   0.789   0.568  16.009 -0.0454  0.4823 -0.0762
  691TMC3     H10222   0.569   0.453  15.994 -0.2480  0.7900 -0.9873
  691TMC3    H110223   0.898   0.272  15.818  0.0625 -0.8833  2.0256
  691TMC3    H210224   0.510   0.102  15.754 -0.7176  0.8944  0.2225
  691TMC3    C710225   0.774   0.068  15.702 -0.2793  0.4215 -0.2374
  691TMC3    C810226   0.384   0.300  15.890 -0.2215 -0.0702 -0.1231
  691TMC3    O110227   0.892   0.084  15.669 -0.4990 -0.1147 -0.0975
  691TMC3    O210228   0.316   0.216  15.836  0.2338 -0.4921 -0.2499
  692TMC3    C110229   2.888   1.934  15.748 -0.2865 -0.3037  0.1055
  692TMC3    C210230   2.960   2.017  15.674  0.2453 -0.5870  0.3433
  692TMC3    C310231   3.097   2.026  15.691  0.3783 -0.2185  0.4401
  692TMC3    C410232   2.945   1.853  15.847 -0.0529  0.0091  0.0780
  692TMC3    C510233   3.078   1.848  15.845  0.4862  0.0906  0.1897
  692TMC3    C610234   3.158   1.925  15.765 -0.3704 -0.9091 -0.5850
  692TMC3     C10235   2.751   1.933  15.743 -0.3673 -0.4006 -0.1680
  692TMC3     O10236   2.696   1.868  15.833  0.0409  0.1368 -0.4627
  692TMC3     H10237   2.910   2.093  15.614  1.4495  0.5594  0.7749
  692TMC3    H110238   2.890   1.780  15.905 -1.9452  2.1050  0.9597
  692TMC3    H210239   3.265   1.922  15.784 -0.7823 -2.6810  1.5078
  692TMC3    C710240   3.139   1.735  15.911 -0.4587 -0.4690 -0.3058
  692TMC3    C810241   3.137   2.163  15.736  0.4952 -0.0623  0.1805
  692TMC3    O110242   3.086   1.682  16.009  0.6344  0.2805  0.4751
  692TMC3    O210243   3.228   2.223  15.678  0.2719  1.0076 -0.2524
  693MPD2     C10244   2.407   4.339  10.855 -0.5741  0.0966  0.4577
  693MPD2    C110245   2.415   4.232  10.771 -0.5126 -0.5363 -0.4260
  693MPD2    C210246   2.537   4.202  10.714 -0.4194 -0.4280 -0.1674
  693MPD2    C310247   2.654   4.268  10.755  0.6048  0.8125  0.1264
  693MPD2    C410248   2.638   4.365  10.852  0.4438 -0.2835  0.2183
  693MPD2    C510249   2.519   4.402  10.899  0.5985 -0.0516  0.1146
  693MPD2     H10250   2.536   4.121  10.642  1.9739  0.7639 -1.5466
  693MPD2    H110251   2.724   4.410  10.899  0.8679  0.9303 -1.7210
  693MPD2    H210252   2.326   4.351  10.926  0.3686  3.9974  0.8589
  693MPD2    H310253   2.499   4.467  10.983 -1.1722 -1.5755  0.8724
  693MPD2     N10254   2.782   4.214  10.726  0.0702  0.1641 -0.1594
  693MPD2    H510255   2.860   4.249  10.781  0.1181 -0.6927  0.3101
  693MPD2    N110256   2.291   4.166  10.750  0.2565 -0.0808  1.1930
  693MPD2    H710257   2.211   4.207  10.797 -0.4999 -1.6679  1.2720
  694TMC3    C110258   2.139   3.996  10.655 -0.1085  0.3340  0.1904
  694TMC3    C210259   2.117   3.885  10.570 -0.2232  0.2351 -0.2793
  694TMC3    C310260   2.022   3.793  10.605  0.0078 -0.2980 -0.0313
  694TMC3    C410261   2.058   4.024  10.759 -0.8994  0.0359 -0.2246
  694TMC3    C510262   1.968   3.918  10.791  0.5658  0.0047  0.2382
  694TMC3    C610263   1.948   3.807  10.718  1.1601  0.1076 -0.1079
  694TMC3     C10264   2.276   4.064  10.655  0.2247 -0.0169 -0.6554
  694TMC3     O10265   2.351   4.023  10.568 -0.1546 -0.4683 -0.1934
  694TMC3     H10266   2.165   3.891  10.473 -0.9983 -2.1923 -0.8104
  694TMC3    H110267   2.078   4.105  10.827 -1.6443 -1.3870  1.6879
  694TMC3    H210268   1.863   3.745  10.745  0.0372  2.6238  2.0674
  694TMC3    C710269   1.931   3.921  10.931 -0.1640  0.0822  0.6720
  694TMC3    C810270   1.966   3.716  10.491  0.4829  0.1049  0.3256
  694TMC3    O110271   1.951   4.019  10.999  0.3037 -0.2254 -1.0104
  694TMC3    O210272   1.851   3.690  10.499 -0.4048 -0.6651  0.1143
  695MPD2     C10273   3.538   1.544  13.464 -0.4507 -0.0985  0.3449
  695MPD2    C110274   3.471   1.584  13.577 -0.2561 -0.0493  0.0024
  695MPD2    C210275   3.344   1.634  13.574  0.3843 -0.9652 -0.0249
  695MPD2    C310276   3.275   1.635  13.459  0.4082  0.4663  0.0524
  695MPD2    C410277   3.337   1.591  13.342 -0.5687 -0.0041 -0.1361
  695MPD2    C510278   3.466   1.540  13.350  0.5830 -0.5339 -0.0236
  695MPD2     H10279   3.283   1.659  13.660  2.2668 -0.0966  1.0589
  695MPD2    H110280   3.293   1.583  13.243 -1.5964  0.7973  0.2523
  695MPD2    H210281   3.644   1.519  13.466 -0.1688  1.0042 -0.5141
  695MPD2    H310282   3.516   1.501  13.262 -0.6138  1.5353 -1.6165
  695MPD2     N10283   3.144   1.675  13.451 -0.3657 -0.0653  0.0338
  695MPD2    H510284   3.087   1.693  13.533 -1.0636 -0.7810 -0.2910
  695MPD2    N110285   3.526   1.564  13.708 -0.0791 -0.6461  0.0870
  695MPD2    H710286   3.465   1.585  13.786  1.1385 -0.5237  1.0057
  696TMC3    C110287   2.951   1.788  13.353  0.2783  0.3490  0.2730
  696TMC3    C210288   2.861   1.739  13.447 -0.5300 -0.1061 -0.5440
  696TMC3    C310289   2.739   1.798  13.459  0.3448 -0.4582  0.2451
  696TMC3    C410290   2.915   1.887  13.270 -0.2996  0.0887 -0.0673
  696TMC3    C510291   2.800   1.955  13.299 -0.0237  0.4188 -0.0263
  696TMC3    C610292   2.714   1.916  13.396  0.3994  0.4817 -0.3005
  696TMC3     C10293   3.078   1.724  13.337 -0.0188  0.3068  0.2376
  696TMC3     O10294   3.113   1.729  13.218  0.0622  0.3157 -0.0127
  696TMC3     H10295   2.887   1.650  13.504 -0.0537  1.2186  1.2943
  696TMC3    H110296   2.992   1.919  13.201 -0.7738  3.8302  1.1659
  696TMC3    H210297   2.629   1.978  13.423  0.1908  0.2250 -0.3814
  696TMC3    C710298   2.818   2.094  13.287 -0.1909  0.0796  0.1079
  696TMC3    C810299   2.712   1.819  13.595  0.1219 -0.4250  0.1373
  696TMC3    O110300   2.850   2.132  13.177 -0.1177 -0.1143  0.1378
  696TMC3    O210301   2.707   1.930  13.643 -0.2215 -0.2679  0.0764
  697MPD2     C10302   2.842   3.164  15.582 -0.0910 -0.5224  0.0800
  697MPD2    C110303   2.799   3.127  15.458 -0.1183  0.1846  0.2072
  697MPD2    C210304   2.780   3.225  15.358 -0.2844 -0.7012  0.4631
  697MPD2    C310305   2.779   3.361  15.392 -0.0387 -0.9012 -0.4004
  697MPD2    C410306   2.804   3.395  15.524 -0.6194  0.4380 -0.2459
  697MPD2    C510307   2.828   3.296  15.614 -0.1252 -0.0523  0.0406
  697MPD2     H10308   2.755   3.190  15.258  3.1799 -1.1238 -0.2372
  697MPD2    H110309   2.799   3.498  15.557  1.6668  0.8928 -1.2993
  697MPD2    H210310   2.864   3.087  15.655 -0.3321 -1.1549 -0.5116
  697MPD2    H310311   2.853   3.324  15.716  1.2945 -0.6129 -0.1558
  697MPD2     N10312   2.746   3.446  15.290  0.6438 -0.3573  0.1558
  697MPD2    H510313   2.724   3.398  15.203 -1.9107 -0.3949  0.8543
  697MPD2    N110314   2.784   2.991  15.414 -0.0587 -0.2606 -0.0137
  697MPD2    H710315   2.746   2.966  15.324  0.9056  0.9441 -0.7517
  698TMC3    C110316   2.669   3.634  15.186  0.9661 -1.1179 -0.3472
  698TMC3    C210317   2.676   3.777  15.173 -0.7374  0.4224 -0.4631
  698TMC3    C310318   2.589   3.824  15.082  0.8175 -0.5891 -0.5543
  698TMC3    C410319   2.598   3.553  15.097 -0.8168  0.9362  0.0757
  698TMC3    C510320   2.519   3.619  15.005 -0.0028 -0.2348  0.5070
  698TMC3    C610321   2.516   3.752  15.001 -0.3473 -0.2402  0.1570
  698TMC3     C10322   2.739   3.582  15.301  0.0141 -0.4360 -0.6519
  698TMC3     O10323   2.770   3.656  15.399 -0.0882 -0.0448  0.2446
  698TMC3     H10324   2.753   3.829  15.229 -0.4372 -1.5337  0.9159
  698TMC3    H110325   2.587   3.446  15.113 -2.3700  0.9144 -1.1381
  698TMC3    H210326   2.444   3.796  14.933  2.4204  0.5254 -2.2651
  698TMC3    C710327   2.453   3.546  14.896  0.6394  0.5278 -0.3019
  698TMC3    C810328   2.591   3.963  15.040  0.5061 -0.3424 -0.2293
  698TMC3    O110329   2.387   3.616  14.825  0.2092 -0.3750 -0.2110
  698TMC3    O210330   2.528   3.997  14.939  0.1520  0.0933 -0.7727
  699TMC3    C110331   2.532   1.469  12.931 -0.7558 -0.3738  0.2205
  699TMC3    C210332   2.567   1.385  13.032  0.8307  0.1597 -0.3249
  699TMC3    C310333   2.463   1.346  13.115 -0.1892 -0.0343 -0.1447
  699TMC3    C410334   2.407   1.519  12.911 -0.9570  0.0763  0.2406
  699TMC3    C510335   2.308   1.479  12.999 -0.6775 -0.2321 -0.4553
  699TMC3    C610336   2.334   1.393  13.102  0.6355 -0.5099 -0.0444
  699TMC3     C10337   2.647   1.526  12.861 -0.1147 -0.0046  0.1804
  699TMC3     O10338   2.628   1.632  12.799 -0.3585  0.1216 -0.2556
  699TMC3     H10339   2.668   1.362  13.064  0.9096 -0.2994 -0.9161
  699TMC3    H110340   2.393   1.578  12.822 -0.9828 -1.1663 -0.5707
  699TMC3    H210341   2.252   1.380  13.171 -0.0446 -1.7522 -1.1014
  699TMC3    C710342   2.173   1.496  12.953 -0.4720 -0.6504  0.2180
  699TMC3    C810343   2.490   1.268  13.237  0.4737 -0.9314  0.2218
  699TMC3    O110344   2.080   1.438  13.005  0.3585 -0.2549  0.2717
  699TMC3    O210345   2.417   1.289  13.329 -0.5100 -0.0087 -0.0885
  700TMC3    C110346   1.666   3.880  17.383  0.1147 -0.8018 -0.6539
  700TMC3    C210347   1.690   3.741  17.382 -0.4673  0.8355  0.4913
  700TMC3    C310348   1.791   3.700  17.464  0.0069  0.2690 -0.0064
  700TMC3    C410349   1.743   3.970  17.461 -0.1240 -0.6405  0.1883
  700TMC3    C510350   1.837   3.917  17.546 -0.0535  0.7851 -0.4528
  700TMC3    C610351   1.867   3.783  17.544  0.4311  1.1788  0.5078
  700TMC3     C10352   1.588   3.930  17.270 -0.6627  0.1255  0.3726
  700TMC3     O10353   1.495   3.860  17.229 -0.2811  0.6335 -0.6795
  700TMC3     H10354   1.628   3.682  17.316  0.7185  2.0406 -1.7148
  700TMC3    H110355   1.730   4.077  17.446 -0.9483 -0.2272  3.8123
  700TMC3    H210356   1.937   3.743  17.617  3.4264  1.2544 -2.3254
  700TMC3    C710357   1.927   4.009  17.612  0.2019 -0.2859  0.3077
  700TMC3    C810358   1.838   3.564  17.453  0.4472 -0.8067  0.1419
  700TMC3    O110359   2.036   3.973  17.656 -0.3277  0.0995  0.0920
  700TMC3    O210360   1.960   3.562  17.477 -0.1366  0.4015  0.1069
  701TMC3    C110361   1.830   2.679  15.577  0.5145 -0.0483  0.3550
  701TMC3    C210362   1.868   2.620  15.462  0.5726  0.2231 -0.2276
  701TMC3    C310363   1.971   2.678  15.391  0.2740 -0.3096 -0.3621
  701TMC3    C410364   1.903   2.787  15.632  0.2124 -0.2910 -0.5123
  701TMC3    C510365   2.014   2.826  15.562  0.5360  0.3967  0.2904
  701TMC3    C610366   2.049   2.777  15.442 -0.2730  0.7133  0.1436
  701TMC3     C10367   1.711   2.638  15.654 -0.2612  0.1979 -0.0222
  701TMC3     O10368   1.684   2.708  15.749 -0.4385 -0.6380 -0.6370
  701TMC3     H10369   1.813   2.535  15.423 -0.8088  0.7653  0.5044
  701TMC3    H110370   1.866   2.825  15.727 -0.8584  0.5780 -1.2836
  701TMC3    H210371   2.142   2.809  15.396  1.8835 -0.4041  3.6843
  701TMC3    C710372   2.099   2.921  15.638 -0.7635 -0.3323 -0.4192
  701TMC3    C810373   2.008   2.625  15.262 -0.0064  0.2563 -0.3550
  701TMC3    O110374   2.172   2.995  15.576 -0.2601 -0.3695 -0.4022
  701TMC3    O210375   2.089   2.691  15.203 -0.3542 -0.2906  0.0448
  702MPD2     C10376   1.967   4.152  10.429  0.7328 -0.6022 -0.2819
  702MPD2    C110377   1.895   4.263  10.467  0.5799  0.0921  0.1436
  702MPD2    C210378   1.942   4.378  10.417 -0.5108 -0.0862 -0.4852
  702MPD2    C310379   2.040   4.394  10.327 -0.5574  0.7178 -0.3895
  702MPD2    C410380   2.090   4.279  10.269  0.9901  0.4309 -0.4339
  702MPD2    C510381   2.056   4.159  10.328  0.2319  0.0177  0.3627
  702MPD2     H10382   1.904   4.474  10.451  0.9296  0.4302 -0.2978
  702MPD2    H110383   2.165   4.286  10.191 -0.3319  0.3883 -1.6999
  702MPD2    H210384   1.931   4.061  10.474 -1.7050  0.4646 -0.0860
  702MPD2    H310385   2.100   4.067  10.290 -0.9903  0.2100 -1.5348
  702MPD2     N10386   2.073   4.524  10.288  0.0661 -0.5479 -0.3666
  702MPD2    H510387   2.023   4.600  10.333  0.7867 -0.3969  0.1897
  702MPD2    N110388   1.796   4.274  10.565  0.4716  0.5592  0.5359
  702MPD2    H710389   1.756   4.366  10.579 -0.9123 -0.3432  2.4845
  703TMC3    C110390   2.198   4.700  10.188  0.0289  0.0484  0.0287
  703TMC3    C210391   2.092   0.066  10.196  0.2235 -0.0416  0.5483
  703TMC3    C310392   2.119   0.200  10.165  0.0462  0.0055  0.4315
  703TMC3    C410393   2.335   0.020  10.186 -1.2028 -0.3378  0.0525
  703TMC3    C510394   2.354   0.157  10.163 -0.0357 -0.2188 -0.5151
  703TMC3    C610395   2.250   0.242  10.138 -0.2365 -0.2303  1.1461
  703TMC3     C10396   2.176   4.557  10.201  0.5141  0.7070  0.2707
  703TMC3     O10397   2.255   4.483  10.145 -0.3560 -0.2443  0.1360
  703TMC3     H10398   1.995   0.036  10.233  0.0935  0.5934  0.7097
  703TMC3    H110399   2.414   4.667  10.183 -2.1260 -1.2140 -2.2950
  703TMC3    H210400   2.281   0.338  10.099 -0.4830 -0.2257  0.9631
  703TMC3    C710401   2.483   0.216  10.160  0.1739 -0.4643 -0.3124
  703TMC3    C810402   2.020   0.303  10.200 -0.1599 -0.2526  0.1815
  703TMC3    O110403   2.497   0.330  10.120  0.0458 -0.4938 -0.3581
  703TMC3    O210404   2.072   0.414  10.219  0.2631 -0.3620 -0.4501
  704TMC3    C110405   4.104   3.094  12.670 -0.1796 -0.4296 -0.1416
  704TMC3    C210406   4.202   3.078  12.573  0.0786  1.2025 -0.1020
  704TMC3    C310407   4.303   2.992  12.604 -0.0119  0.9445 -0.5176
  704TMC3    C410408   4.123   3.057  12.800  0.8744 -0.0752  0.0500
  704TMC3    C510409   4.245   2.992  12.830 -0.0862 -0.1285 -0.2309
  704TMC3    C610410   4.331   2.957  12.728 -0.1050 -0.3610  0.1986
  704TMC3     C10411   3.970   3.090  12.622 -0.3911 -0.0801  0.2159
  704TMC3     O10412   3.882   3.126  12.697 -0.2228  0.4017  0.1363
  704TMC3     H10413   4.187   3.106  12.469 -1.2358  4.1164  0.8811
  704TMC3    H110414   4.047   3.073  12.876  0.1638  1.3743 -0.9769
  704TMC3    H210415   4.401   2.878  12.755  1.2125  0.8431  0.3085
  704TMC3    C710416   4.266   2.918  12.958 -0.4160 -0.2882  0.6533
  704TMC3    C810417   4.391   2.966  12.486 -0.2275  0.0266  0.0968
  704TMC3    O110418   4.383   2.909  12.992 -0.4713 -0.2212  0.1045
  704TMC3    O210419   4.333   2.964  12.378 -0.1183 -0.2425  0.1571
  705MPD2     C10420   3.257   1.570  16.600  0.0134  0.0762 -0.2999
  705MPD2    C110421   3.218   1.670  16.521  0.0439  0.5856 -0.0191
  705MPD2    C210422   3.104   1.743  16.550 -0.6751  0.0716  0.2856
  705MPD2    C310423   3.030   1.701  16.658 -0.9462  0.1137 -0.7248
  705MPD2    C410424   3.068   1.595  16.735 -0.0346 -0.4940 -0.3132
  705MPD2    C510425   3.189   1.533  16.710  0.2241 -0.2042  0.2247
  705MPD2     H10426   3.085   1.830  16.489  1.0187  1.1041  1.2518
  705MPD2    H110427   3.004   1.552  16.811 -0.4369  0.0733 -0.3274
  705MPD2    H210428   3.353   1.521  16.589  0.1622  0.2272  0.3746
  705MPD2    H310429   3.211   1.439  16.759  0.3178  0.5092  1.5545
  705MPD2     N10430   2.911   1.767  16.693 -0.1533  0.3998 -0.4495
  705MPD2    H510431   2.857   1.715  16.761 -0.3249  2.3163  0.8702
  705MPD2    N110432   3.291   1.716  16.406 -0.4510 -0.3664  0.5928
  705MPD2    H710433   3.252   1.796  16.357 -0.5925 -0.6617  0.2199
  706TMC3    C110434   3.589   1.617  16.043  0.2366  0.6693  0.5431
  706TMC3    C210435   3.569   1.734  15.978  0.2301  0.4691  0.4466
  706TMC3    C310436   3.484   1.831  16.027  0.2590 -0.4500  0.2738
  706TMC3    C410437   3.518   1.586  16.157  0.2905  0.5238  0.6727
  706TMC3    C510438   3.427   1.677  16.208 -0.3674  0.0335  0.4221
  706TMC3    C610439   3.413   1.805  16.148 -0.4504 -0.2870  0.6778
  706TMC3     C10440   3.703   1.534  16.014 -0.1193 -0.3183 -0.0310
  706TMC3     O10441   3.772   1.494  16.105  0.8825  0.7990  0.2442
  706TMC3     H10442   3.642   1.752  15.899 -1.4092  1.0295 -0.9240
  706TMC3    H110443   3.535   1.486  16.193 -3.3784 -0.1018  0.6661
  706TMC3    H210444   3.358   1.884  16.196 -0.0500 -1.0439  2.3863
  706TMC3    C710445   3.390   1.638  16.345  0.3821  0.2869 -0.3400
  706TMC3    C810446   3.483   1.963  15.974 -0.2839  0.4248  0.0331
  706TMC3    O110447   3.434   1.529  16.383  0.3602  0.0366  0.8431
  706TMC3    O210448   3.389   2.035  15.999 -0.0165  0.3553 -0.4278
  707TMC3    C110449   0.284   0.731   1.418 -0.0318 -0.2184  0.0703
  707TMC3    C210450   0.276   0.621   1.495  0.2307  0.4331 -0.2344
  707TMC3    C310451   0.158   0.579   1.539 -0.9283 -0.2455  0.0961
  707TMC3    C410452   0.173   0.802   1.388 -0.4288  0.3154 -0.5641
  707TMC3    C510453   0.053   0.756   1.432  0.1926 -0.1248 -0.1472
  707TMC3    C610454   0.041   0.642   1.508  0.0600  0.3284  0.2094
  707TMC3     C10455   0.424   0.775   1.388  0.8034  0.5290  0.4430
  707TMC3     O10456   0.506   0.746   1.477 -0.0879  0.3908 -0.2231
  707TMC3     H10457   0.364   0.560   1.508  1.3247  2.8227  3.3834
  707TMC3    H110458   0.180   0.865   1.300  0.6364  0.6908 -0.2154
  707TMC3    H210459   4.666   0.604   1.537 -0.8835  0.8558 -2.2033
  707TMC3    C710460   4.666   0.781   1.349  0.5219 -1.0027  0.5235
  707TMC3    C810461   0.152   0.458   1.619 -0.1704 -0.1390  0.0431
  707TMC3    O110462   4.590   0.688   1.340 -0.3062 -0.1140 -0.0514
  707TMC3    O210463   0.040   0.424   1.645  0.3798  0.2149  0.5873
  708MPD2     C10464   1.648   3.779  13.920 -0.2783 -0.4627 -0.3651
  708MPD2    C110465   1.562   3.886  13.901  0.7699 -0.1203 -0.2513
  708MPD2    C210466   1.448   3.901  13.979  0.6221  0.5062 -0.2864
  708MPD2    C310467   1.415   3.806  14.078 -0.1061 -0.0157  0.3710
  708MPD2    C410468   1.513   3.712  14.105  0.0324  0.4927  0.1766
  708MPD2    C510469   1.626   3.696  14.028  0.0487 -0.3214  0.6269
  708MPD2     H10470   1.385   3.989  13.970 -0.0718 -0.0367 -0.6695
  708MPD2    H110471   1.479   3.632  14.170  0.6281 -0.6462 -0.9097
  708MPD2    H210472   1.735   3.772  13.855  2.0182 -0.1310  2.6935
  708MPD2    H310473   1.681   3.604  14.042  1.0994 -0.3943 -3.8350
  708MPD2     N10474   1.305   3.816  14.160 -0.1512  0.1810 -0.0564
  708MPD2    H510475   1.318   3.774  14.251  1.5118  0.7270 -0.0364
  708MPD2    N110476   1.575   3.978  13.792  0.0674 -0.5305 -0.1734
  708MPD2    H710477   1.631   3.963  13.709 -0.4901 -3.4097 -0.0501
  709TMC3    C110478   1.463   4.148  13.677 -0.3757  0.2740 -0.2074
  709TMC3    C210479   1.456   4.051  13.579  0.4921  0.1146 -0.5511
  709TMC3    C310480   1.334   4.036  13.519  0.1552  0.1578 -0.5008
  709TMC3    C410481   1.359   4.238  13.692 -0.6216 -0.8019 -0.5058
  709TMC3    C510482   1.242   4.223  13.626  0.0928  0.4043  0.1048
  709TMC3    C610483   1.231   4.123  13.537  0.2241  0.3858 -0.0031
  709TMC3     C10484   1.528   4.109  13.802  0.0715  0.5001 -0.1105
  709TMC3     O10485   1.492   4.177  13.894  0.7145 -0.1018 -0.2096
  709TMC3     H10486   1.533   3.982  13.548  1.4052  1.3675 -1.0608
  709TMC3    H110487   1.378   4.316  13.764  0.9141 -0.4737 -1.2616
  709TMC3    H210488   1.144   4.100  13.477 -0.3161  0.7941  0.6283
  709TMC3    C710489   1.126   4.258  13.707  0.1931  0.0478 -0.2519
  709TMC3    C810490   1.330   3.996  13.377 -0.0173 -0.5263 -0.6964
  709TMC3    O110491   1.158   4.329  13.804  0.7962  0.0364 -0.5823
  709TMC3    O210492   1.250   3.909  13.350 -0.3808 -0.1885 -0.4068
  710TMC3    C110493   2.698   1.463   0.870 -0.4508 -0.2051 -0.3300
  710TMC3    C210494   2.777   1.497   0.765 -0.4527 -0.1920  0.3483
  710TMC3    C310495   2.905   1.430   0.757 -0.2174 -0.6558 -0.4826
  710TMC3    C410496   2.728   1.385   0.972  0.1148  0.0519 -0.0960
  710TMC3    C510497   2.844   1.314   0.957 -0.2009 -0.2613 -0.8496
  710TMC3    C610498   2.933   1.333   0.849 -0.0905  0.0984 -0.0276
  710TMC3     C10499   2.557   1.501   0.859  0.2697  0.0665 -0.0321
  710TMC3     O10500   2.510   1.546   0.755  0.1097  0.0804  0.3007
  710TMC3     H10501   2.744   1.567   0.689 -0.4471  0.9416  1.3948
  710TMC3    H110502   2.667   1.370   1.061 -0.2494  0.1026 -0.3363
  710TMC3    H210503   3.036   1.300   0.845  0.0442  0.3179  1.6742
  710TMC3    C710504   2.883   1.217   1.056 -0.1358  0.5093 -0.6892
  710TMC3    C810505   2.987   1.432   0.638  0.5343  0.0674  0.4121
  710TMC3    O110506   2.830   1.234   1.165 -0.5051 -0.0099  0.0784
  710TMC3    O210507   3.032   1.320   0.609 -0.1178  0.7156 -0.3108
  711TMC3    C110508   2.362   2.290  14.807  0.6009 -0.1627 -0.1214
  711TMC3    C210509   2.380   2.372  14.910 -0.0567  0.3244  0.2381
  711TMC3    C310510   2.510   2.401  14.947  0.0111  0.4615  0.0542
  711TMC3    C410511   2.463   2.218  14.750 -0.0125  0.2042  0.5718
  711TMC3    C510512   2.591   2.245  14.786  0.0635 -1.1092 -0.0653
  711TMC3    C610513   2.616   2.338  14.881  0.1744 -0.4713 -0.1712
  711TMC3     C10514   2.232   2.232  14.792 -0.4727 -0.6116  0.6083
  711TMC3     O10515   2.193   2.194  14.682 -0.4590 -0.3971  0.0708
  711TMC3     H10516   2.295   2.424  14.953  1.6620  3.2632  0.1054
  711TMC3    H110517   2.430   2.154  14.668  2.7564 -0.7662  0.2293
  711TMC3    H210518   2.719   2.367  14.902 -0.0943 -0.9504  1.8253
  711TMC3    C710519   2.656   2.128  14.829  0.0407  0.4825 -0.3451
  711TMC3    C810520   2.515   2.418  15.095  0.3512 -0.0607 -0.3068
  711TMC3    O110521   2.742   2.150  14.917 -0.4665  0.2312  0.2114
  711TMC3    O210522   2.414   2.423  15.163 -0.4703 -0.1745 -0.1265
  712MPD2     C10523   4.315   3.352  13.888  0.1196 -0.1760 -1.1591
  712MPD2    C110524   4.190   3.369  13.820  1.1009  0.0126 -0.2271
  712MPD2    C210525   4.183   3.491  13.749  0.5828  0.3612  0.8930
  712MPD2    C310526   4.284   3.582  13.758  0.6085 -0.2251 -0.2046
  712MPD2    C410527   4.394   3.566  13.835 -0.9738 -0.6754 -0.1560
  712MPD2    C510528   4.403   3.453  13.906 -0.5219 -0.6313  0.3085
  712MPD2     H10529   4.096   3.512  13.688  0.7271 -0.5767  0.3597
  712MPD2    H110530   4.474   3.639  13.844 -0.2416 -1.4787 -0.0407
  712MPD2    H210531   4.336   3.263  13.947 -1.2565 -0.1890 -0.6863
  712MPD2    H310532   4.487   3.435  13.972  1.1677 -1.5666 -2.0876
  712MPD2     N10533   4.273   3.714  13.708 -0.3626 -0.9594 -0.1249
  712MPD2    H510534   4.343   3.776  13.747  1.0954 -2.6841  0.0226
  712MPD2    N110535   4.091   3.271  13.805 -0.0203  0.7311  0.2594
  712MPD2    H710536   4.024   3.284  13.730  2.8896  0.1384 -2.4474
  713TMC3    C110537   4.199   3.913  13.600  0.6269 -0.0667 -0.3210
  713TMC3    C210538   4.327   3.949  13.557 -0.2234  0.1406 -0.3093
  713TMC3    C310539   4.344   4.086  13.522 -0.1770 -0.2772 -0.5700
  713TMC3    C410540   4.091   3.990  13.591  0.1570  0.7206  0.5283
  713TMC3    C510541   4.110   4.117  13.554  0.3513  0.0816 -0.1261
  713TMC3    C610542   4.234   4.164  13.533  0.3645  0.2506 -0.0564
  713TMC3     C10543   4.176   3.769  13.622 -0.3575 -0.3976 -0.3100
  713TMC3     O10544   4.074   3.715  13.575  0.3868  0.1330 -0.3394
  713TMC3     H10545   4.400   3.872  13.535  1.3571  1.5419  0.0372
  713TMC3    H110546   3.993   3.956  13.623  1.0871 -2.3179  0.1059
  713TMC3    H210547   4.253   4.270  13.525  0.2507  0.2048 -1.0475
  713TMC3    C710548   4.003   4.209  13.564 -0.0700 -0.4085  0.5348
  713TMC3    C810549   4.470   4.140  13.478  0.6350  0.1504 -0.6939
  713TMC3    O110550   4.047   4.324  13.580  0.6753 -0.6918  0.0886
  713TMC3    O210551   4.476   4.252  13.421  0.5503  0.1668  0.3710
  714MPD2     C10552   0.961   2.095   1.470 -0.3064 -0.0959  0.7272
  714MPD2    C110553   0.964   1.960   1.469 -0.3232 -0.2364  0.0136
  714MPD2    C210554   0.868   1.887   1.403  0.1915  0.4713 -0.0596
  714MPD2    C310555   0.762   1.949   1.353 -0.0071  0.6904 -0.3412
  714MPD2    C410556   0.752   2.088   1.359 -0.2451  0.4018 -0.0052
  714MPD2    C510557   0.851   2.155   1.420  0.2432 -0.3187  0.1834
  714MPD2     H10558   0.871   1.779   1.407 -1.7771  0.4631  0.9189
  714MPD2    H110559   0.663   2.143   1.330  0.1482 -0.0045 -1.9586
  714MPD2    H210560   1.031   2.152   1.530  0.0136  0.1940  0.0805
  714MPD2    H310561   0.847   2.263   1.431  0.3030 -0.2263 -0.7011
  714MPD2     N10562   0.653   1.869   1.299 -0.2945 -0.2055 -0.5924
  714MPD2    H510563   0.645   1.771   1.324  0.7253 -0.0244  0.4897
  714MPD2    N110564   1.070   1.901   1.534 -0.0602  0.4065 -0.5245
  714MPD2    H710565   1.119   1.963   1.598  0.1642 -1.5478  1.2331
  715TMC3    C110566   1.222   1.742   1.620 -0.7508  0.7196 -0.3508
  715TMC3    C210567   1.326   1.658   1.592  0.2852  0.5248 -0.0473
  715TMC3    C310568   1.414   1.626   1.694  0.6502 -0.2844  0.1620
  715TMC3    C410569   1.199   1.791   1.745  1.0475  0.1496 -0.4710
  715TMC3    C510570   1.298   1.769   1.836 -0.0476 -0.7516 -0.5259
  715TMC3    C610571   1.405   1.684   1.820 -0.3345 -0.1287  0.4188
  715TMC3     C10572   1.115   1.765   1.523  0.1796 -0.1642 -0.7605
  715TMC3     O10573   1.073   1.670   1.459 -0.3352  0.5169 -0.4837
  715TMC3     H10574   1.341   1.619   1.492 -2.5683  0.2292 -0.3772
  715TMC3    H110575   1.114   1.854   1.772  0.4877  0.5045 -3.0282
  715TMC3    H210576   1.474   1.669   1.902  0.4981  0.9389 -0.0880
  715TMC3    C710577   1.274   1.827   1.967  0.1953  0.3771 -0.1470
  715TMC3    C810578   1.547   1.567   1.656  0.5724 -0.1383 -0.0607
  715TMC3    O110579   1.209   1.927   1.977  0.0750 -0.2515  0.3819
  715TMC3    O210580   1.561   1.557   1.536 -0.2043 -0.1907  0.1109
  716MPD2     C10581   1.432   0.240   9.675 -0.0963 -0.1084 -1.1448
  716MPD2    C110582   1.439   0.103   9.672  0.3898  0.2531  0.3364
  716MPD2    C210583   1.544   0.033   9.736 -0.7453  0.7735 -0.2883
  716MPD2    C310584   1.654   0.111   9.780 -0.2748 -0.4229 -0.0377
  716MPD2    C410585   1.653   0.253   9.769 -0.2834  0.4110  0.1097
  716MPD2    C510586   1.537   0.312   9.718 -0.1169  0.3745 -0.5433
  716MPD2     H10587   1.543   4.646   9.736  0.7678  0.7646  0.1746
  716MPD2    H110588   1.725   0.313   9.823 -0.9111 -0.1858  1.5952
  716MPD2    H210589   1.350   0.291   9.625 -0.3752  1.5857  1.0520
  716MPD2    H310590   1.527   0.420   9.726  1.4187  0.3867  1.2877
  716MPD2     N10591   1.772   0.040   9.814 -0.2060 -0.1763  0.1883
  716MPD2    H510592   1.767   4.661   9.825  0.7515 -0.4830 -2.0403
  716MPD2    N110593   1.329   0.032   9.613 -0.1653  0.4162  0.8563
  716MPD2    H710594   1.244   0.088   9.601 -1.6214 -2.7530 -3.5616
  717TMC3    C110595   2.010   4.718   9.826 -0.4138 -0.3837 -0.5234
  717TMC3    C210596   1.980   4.582   9.822  0.0161  0.4282 -0.3958
  717TMC3    C310597   2.080   4.486   9.851  0.3520  0.4725  0.1515
  717TMC3    C410598   2.143   0.028   9.841  0.1552  1.0417 -1.0327
  717TMC3    C510599   2.244   4.657   9.866  0.4553  0.3706  0.6468
  717TMC3    C610600   2.213   4.525   9.861 -0.6395 -0.4716 -0.4273
  717TMC3     C10601   1.904   0.096   9.818  0.1643 -0.4496 -0.1503
  717TMC3     O10602   1.948   0.212   9.808 -0.0650  0.1040  0.9110
  717TMC3     H10603   1.878   4.549   9.809  0.3156 -0.2185 -1.0416
  717TMC3    H110604   2.171   0.131   9.825 -3.0011  2.0530  0.0071
  717TMC3    H210605   2.295   4.454   9.866  0.2149  0.6168  0.7516
  717TMC3    C710606   2.383   4.697   9.863 -0.2653 -0.4366 -0.2049
  717TMC3    C810607   2.037   4.352   9.835 -0.5601  0.0063 -0.1576
  717TMC3    O110608   2.399   0.093   9.838  0.2093  0.0958  0.0189
  717TMC3    O210609   1.955   4.347   9.743  0.6926  0.3022  0.5450
  718MPD2     C10610   0.518   3.910  12.914  0.4002 -0.3782 -0.1292
  718MPD2    C110611   0.510   3.791  12.849  0.3016  0.6220  0.5171
  718MPD2    C210612   0.594   3.688  12.888 -0.4014  0.0644 -1.0139
  718MPD2    C310613   0.660   3.697  13.011 -0.9732  0.6071 -0.1462
  718MPD2    C410614   0.657   3.815  13.084  1.3169  0.3950 -0.9728
  718MPD2    C510615   0.593   3.920  13.026 -0.3557  0.3881 -0.4412
  718MPD2     H10616   0.600   3.593  12.837 -2.3865 -1.2498  1.2020
  718MPD2    H110617   0.704   3.824  13.181 -0.9428 -0.8419  0.2503
  718MPD2    H210618   0.470   4.002  12.884  1.7719 -0.1680 -1.6834
  718MPD2    H310619   0.600   4.013  13.081 -1.7113  0.1706  0.0888
  718MPD2     N10620   0.735   3.581  13.048  0.0752  0.3241  0.1302
  718MPD2    H510621   0.725   3.498  12.990 -1.2813  0.7449 -0.2395
  718MPD2    N110622   0.421   3.773  12.742  0.9594 -0.7532  0.3267
  718MPD2    H710623   0.376   3.861  12.718  0.1908 -1.0113  0.8276
  719TMC3    C110624   0.303   3.673  12.558 -0.1696  0.6110 -0.1854
  719TMC3    C210625   0.233   3.565  12.558  0.5853 -0.3673  0.2407
  719TMC3    C310626   0.206   3.502  12.448  0.2349  1.1823 -0.1751
  719TMC3    C410627   0.343   3.727  12.441 -0.2369 -0.5190 -0.6696
  719TMC3    C510628   0.315   3.669  12.322  0.0445  0.0148 -0.0654
  719TMC3    C610629   0.236   3.556  12.326 -0.2387 -0.0925  0.5642
  719TMC3     C10630   0.400   3.660  12.666 -0.3717  0.0112 -0.8245
  719TMC3     O10631   0.427   3.544  12.695 -0.1687  0.2741 -0.3692
  719TMC3     H10632   0.192   3.533  12.653 -0.9787  0.5167 -0.1337
  719TMC3    H110633   0.421   3.803  12.449 -1.6198  0.9586 -1.2140
  719TMC3    H210634   0.194   3.519  12.234 -0.1698  1.4783 -0.1047
  719TMC3    C710635   0.399   3.670  12.203 -0.3223 -0.5754 -0.0657
  719TMC3    C810636   0.239   3.361  12.456  0.6347  0.3534  0.0994
  719TMC3    O110637   0.405   3.565  12.139 -0.4022 -0.3142  0.3455
  719TMC3    O210638   0.175   3.281  12.395 -0.3888 -0.6943  0.0289
  720MPD2     C10639   3.627   0.675  14.140  0.6114  0.2568 -0.0794
  720MPD2    C110640   3.683   0.592  14.040  0.0406  0.2712 -0.6376
  720MPD2    C210641   3.770   0.491  14.079 -0.2034  0.0756 -0.4775
  720MPD2    C310642   3.830   0.489  14.211 -0.4226  0.6870 -0.1341
  720MPD2    C410643   3.758   0.568  14.301 -0.8163 -0.1452 -0.0834
  720MPD2    C510644   3.660   0.656  14.268 -0.5229 -0.5271  0.1801
  720MPD2     H10645   3.812   0.421  14.008  0.0115  0.4598 -0.7263
  720MPD2    H110646   3.766   0.563  14.409  1.3689  3.0935 -0.1184
  720MPD2    H210647   3.548   0.748  14.129  1.3052  0.9120 -0.7122
  720MPD2    H310648   3.606   0.718  14.339 -2.7274 -0.8379 -1.2260
  720MPD2     N10649   3.943   0.413  14.236 -0.2608 -0.7746 -0.3254
  720MPD2    H510650   3.992   0.380  14.154  1.6937 -1.0144  0.9227
  720MPD2    N110651   3.660   0.619  13.904 -0.4713  0.1468  0.2092
  720MPD2    H710652   3.699   0.555  13.836 -1.3105 -0.6721  0.5044
  721TMC3    C110653   4.144   0.368  14.352 -0.1918  0.0256  0.4639
  721TMC3    C210654   4.197   0.310  14.469  0.7795  0.2498 -0.7040
  721TMC3    C310655   4.339   0.312  14.479 -0.0587  0.2380  0.2892
  721TMC3    C410656   4.211   0.409  14.249  0.2755 -0.2753 -0.4092
  721TMC3    C510657   4.345   0.412  14.259  0.3536 -0.4530 -0.0610
  721TMC3    C610658   4.408   0.364  14.373  0.6664  0.5177  0.3722
  721TMC3     C10659   4.005   0.416  14.359  0.1496 -0.2326  0.1949
  721TMC3     O10660   3.961   0.437  14.470  0.5405 -0.0066  0.1774
  721TMC3     H10661   4.131   0.274  14.547  0.5995  0.9372 -0.5423
  721TMC3    H110662   4.165   0.445  14.158  1.9950  0.7208 -0.8842
  721TMC3    H210663   4.516   0.370  14.378  0.4762  1.4200  3.0452
  721TMC3    C710664   4.426   0.467  14.147 -0.6192  0.0279 -0.0948
  721TMC3    C810665   4.420   0.279  14.599 -0.1883  0.1210  0.4625
  721TMC3    O110666   4.546   0.482  14.163 -0.6111 -0.2026  0.5998
  721TMC3    O210667   4.540   0.286  14.587  0.3591  0.0082  0.2806
  722MPD2     C10668   3.067   3.510  13.301 -0.0365  0.9486 -0.7094
  722MPD2    C110669   2.986   3.618  13.268 -0.3319 -0.6451 -0.2988
  722MPD2    C210670   2.852   3.604  13.278  0.5587 -0.2792 -0.6891
  722MPD2    C310671   2.801   3.482  13.335  0.0972  0.2406 -0.4739
  722MPD2    C410672   2.881   3.382  13.369  0.4048  1.3435 -0.3209
  722MPD2    C510673   3.012   3.388  13.333  0.1486 -0.3573  0.3254
  722MPD2     H10674   2.785   3.675  13.231 -1.7993 -1.9060  0.1942
  722MPD2    H110675   2.852   3.290  13.418 -0.4040  1.0092 -1.4259
  722MPD2    H210676   3.173   3.512  13.278  0.3847 -0.8828  1.1666
  722MPD2    H310677   3.063   3.293  13.338  1.4668  0.3114 -0.6448
  722MPD2     N10678   2.664   3.479  13.356  0.6976  0.1637  0.2789
  722MPD2    H510679   2.607   3.563  13.354  1.2746  0.5219 -0.8529
  722MPD2    N110680   3.027   3.743  13.228 -0.1612  0.1229  0.3486
  722MPD2    H710681   2.964   3.806  13.180 -0.5812 -1.2423 -0.8853
  723TMC3    C110682   2.468   3.413  13.454  0.5946  0.4158 -0.3544
  723TMC3    C210683   2.366   3.322  13.443 -0.8097 -0.8914 -0.4318
  723TMC3    C310684   2.267   3.333  13.535  0.0415  0.0644  0.4949
  723TMC3    C410685   2.473   3.509  13.551  0.2684  0.8784 -0.6622
  723TMC3    C510686   2.366   3.511  13.638 -0.2189  0.2405  0.0380
  723TMC3    C610687   2.266   3.428  13.630  0.4572  0.5745  0.0979
  723TMC3     C10688   2.601   3.371  13.396  0.1204 -0.1168  0.7918
  723TMC3     O10689   2.632   3.255  13.383 -0.1108 -0.0252  0.1782
  723TMC3     H10690   2.381   3.229  13.390  0.9581 -2.0335  2.1141
  723TMC3    H110691   2.565   3.554  13.585 -0.8374  2.4335  0.2888
  723TMC3    H210692   2.169   3.437  13.677  0.4264 -0.6558  0.2739
  723TMC3    C710693   2.375   3.574  13.767  0.2900 -0.4089 -0.1893
  723TMC3    C810694   2.153   3.239  13.527 -0.0639  0.2125  0.4965
  723TMC3    O110695   2.301   3.528  13.856 -0.6171  0.0367 -0.8934
  723TMC3    O210696   2.101   3.218  13.634  0.0537 -0.0759  0.1761
  724TMC3    C110697   3.265   1.783   9.348 -0.3450  0.0832 -0.1789
  724TMC3    C210698   3.329   1.844   9.451 -0.3355 -0.3104 -0.2078
  724TMC3    C310699   3.415   1.758   9.518 -0.4981 -0.0921  0.1731
  724TMC3    C410700   3.289   1.655   9.307 -0.2771  0.1384 -0.4860
  724TMC3    C510701   3.395   1.587   9.360  0.4542 -0.8709  0.0216
  724TMC3    C610702   3.454   1.632   9.471  0.4745  0.1007 -0.0797
  724TMC3     C10703   3.140   1.842   9.297  0.0817 -0.7198 -0.0826
  724TMC3     O10704   3.050   1.767   9.257 -0.6055 -0.0079  0.3006
  724TMC3     H10705   3.272   1.923   9.499  0.0363 -2.2169  3.2861
  724TMC3    H110706   3.231   1.618   9.223 -1.3006  0.0810  0.2495
  724TMC3    H210707   3.537   1.576   9.514 -0.4503 -3.1345 -2.4880
  724TMC3    C710708   3.486   1.525   9.262  0.8318  0.3925 -0.4141
  724TMC3    C810709   3.498   1.823   9.617  0.1541 -0.7714  0.1419
  724TMC3    O110710   3.607   1.543   9.278  0.0521 -0.3037  0.1791
  724TMC3    O210711   3.567   1.753   9.692 -0.6906 -0.3161  0.3527
  725TMC3    C110712   4.640   0.700  12.675 -0.5694 -0.0460  0.7714
  725TMC3    C210713   4.565   0.747  12.574  0.4258 -0.6453  0.5999
  725TMC3    C310714   4.547   0.663  12.466 -0.1495  0.0912  0.5093
  725TMC3    C410715   4.704   0.579  12.677  0.4999 -0.4308 -0.5794
  725TMC3    C510716   4.690   0.506  12.564 -0.5563 -0.6619  0.3386
  725TMC3    C610717   4.611   0.541  12.456 -0.0345 -0.4375 -0.1331
  725TMC3     C10718   4.671   0.793  12.786  0.1424 -1.1437 -0.3745
  725TMC3     O10719   4.654   0.916  12.766  0.0062  0.0864  0.5860
  725TMC3     H10720   4.500   0.833  12.584  1.0605 -0.2153  1.0064
  725TMC3    H110721   0.034   0.533  12.761  3.1531 -1.1906 -2.6237
  725TMC3    H210722   4.598   0.482  12.366  1.1790 -3.0705  1.4026
  725TMC3    C710723   0.029   0.379  12.555  0.0669  0.2825  0.6011
  725TMC3    C810724   4.428   0.686  12.390 -0.4251  0.0331  0.8628
  725TMC3    O110725   4.698   0.306  12.475 -0.1958  0.2309  0.0196
  725TMC3    O210726   4.358   0.587  12.363  0.6858  0.0062 -0.0198
  726MPD2     C10727   2.766   1.705  10.019 -0.6964  0.2022 -0.2946
  726MPD2    C110728   2.710   1.783  10.118  0.4618 -0.1531 -0.4026
  726MPD2    C210729   2.583   1.767  10.166 -0.4404 -0.0439  0.3510
  726MPD2    C310730   2.505   1.667  10.116  0.4062 -0.7599 -0.1354
  726MPD2    C410731   2.559   1.575  10.026 -0.3779 -0.4328  0.1418
  726MPD2    C510732   2.689   1.603   9.973 -0.1231 -0.5366 -0.2103
  726MPD2     H10733   2.546   1.827  10.248  0.5609  1.0870 -0.0267
  726MPD2    H110734   2.503   1.505   9.965  0.1988 -0.7154 -0.0608
  726MPD2    H210735   2.870   1.722   9.991 -0.5509  0.7002  0.5501
  726MPD2    H310736   2.713   1.537   9.890  0.4427 -0.7201  0.1003
  726MPD2     N10737   2.371   1.649  10.160 -0.0646  0.8633  0.0225
  726MPD2    H510738   2.317   1.569  10.127  1.7793 -1.3840  2.4198
  726MPD2    N110739   2.783   1.890  10.162 -0.1594  0.5762 -0.4603
  726MPD2    H710740   2.732   1.958  10.218 -0.3435  1.5831 -1.8643
  727TMC3    C110741   2.931   2.069  10.173  0.4902  0.8155  0.4693
  727TMC3    C210742   3.050   2.103  10.229 -0.2084 -0.7879  1.2187
  727TMC3    C310743   3.066   2.231  10.262  0.0186 -0.3003  0.0024
  727TMC3    C410744   2.832   2.165  10.147  0.8670 -0.1385 -0.5420
  727TMC3    C510745   2.853   2.293  10.187 -0.6087 -0.6090 -0.4187
  727TMC3    C610746   2.970   2.327  10.244 -0.1518  0.3479  0.0359
  727TMC3     C10747   2.909   1.931  10.121  0.2910 -0.3345  0.3567
  727TMC3     O10748   3.003   1.863  10.090 -0.4421 -0.2594 -0.2088
  727TMC3     H10749   3.123   2.026  10.247  1.4546  0.2653 -1.0110
  727TMC3    H110750   2.728   2.136  10.134  0.8936  0.0608 -1.1781
  727TMC3    H210751   2.990   2.431  10.269  1.3918  0.0079  0.2583
  727TMC3    C710752   2.763   2.393  10.146 -0.0012  0.9398 -0.4366
  727TMC3    C810753   3.176   2.259  10.353  0.3853 -0.4647 -0.8305
  727TMC3    O110754   2.768   2.500  10.201 -0.3918 -0.9870  0.0076
  727TMC3    O210755   3.263   2.175  10.369 -0.3115 -0.4140 -0.0076
  728TMC3    C110756   1.044   0.766  15.204 -0.4300  0.4080  0.0309
  728TMC3    C210757   1.134   0.703  15.128  0.0637 -0.1202  0.1038
  728TMC3    C310758   1.181   0.752  15.008 -0.1223  0.0330  0.5247
  728TMC3    C410759   0.993   0.884  15.160  0.3403  0.0189 -0.5527
  728TMC3    C510760   1.025   0.935  15.035  0.7205  0.3208 -0.1840
  728TMC3    C610761   1.126   0.875  14.959 -0.1708  0.0915  0.1229
  728TMC3     C10762   1.011   0.725  15.342 -0.0710 -0.2544 -1.0048
  728TMC3     O10763   0.994   0.603  15.349 -0.6888  0.0469  0.2693
  728TMC3     H10764   1.172   0.609  15.169 -2.1471 -1.3374 -0.6310
  728TMC3    H110765   0.903   0.918  15.210 -0.8615  1.9105 -4.0359
  728TMC3    H210766   1.163   0.923  14.869  0.9855 -1.4695 -0.2351
  728TMC3    C710767   0.989   1.080  15.018 -0.5507  0.2406  0.2602
  728TMC3    C810768   1.321   0.710  14.975 -0.4786  0.0013 -0.4657
  728TMC3    O110769   0.890   1.113  15.087  0.1873 -0.0814  0.0834
  728TMC3    O210770   1.396   0.681  15.069 -0.2212  0.4074 -0.1313
  729MPD2     C10771   3.328   2.165  16.345 -0.0800 -0.1448 -0.6680
  729MPD2    C110772   3.466   2.145  16.359  0.1847 -0.0258  0.0404
  729MPD2    C210773   3.501   2.068  16.466 -0.2104  0.0658 -0.2729
  729MPD2    C310774   3.412   2.038  16.567  0.4027  0.3364  0.6242
  729MPD2    C410775   3.276   2.058  16.555 -0.0347 -0.1157  0.4087
  729MPD2    C510776   3.235   2.121  16.436 -0.3340  0.0900 -0.1525
  729MPD2     H10777   3.608   2.051  16.474 -0.0663  1.5634  0.9436
  729MPD2    H110778   3.200   2.039  16.630 -0.5148  0.9044  0.1857
  729MPD2    H210779   3.286   2.228  16.267 -1.3191  0.2892  0.3501
  729MPD2    H310780   3.129   2.139  16.421 -0.5984 -2.0303 -0.8302
  729MPD2     N10781   3.454   1.989  16.693  0.7535 -0.0940  0.3930
  729MPD2    H510782   3.393   1.984  16.774 -1.8372 -2.7936 -1.7484
  729MPD2    N110783   3.561   2.208  16.271  0.4705 -0.1333  0.4602
  729MPD2    H710784   3.520   2.265  16.197  2.3893 -0.0700 -0.5618
  730TMC3    C110785   3.613   1.949  16.871 -0.5569 -0.1363  0.1716
  730TMC3    C210786   3.737   1.882  16.890 -0.3797  0.2123  0.0072
  730TMC3    C310787   3.831   1.934  16.968 -0.1055 -0.3251 -0.3405
  730TMC3    C410788   3.584   2.055  16.951  0.7127 -0.4792  0.8435
  730TMC3    C510789   3.679   2.097  17.041 -0.4626  1.2117  0.9466
  730TMC3    C610790   3.800   2.041  17.047  0.3613 -0.3807  0.1229
  730TMC3     C10791   3.588   1.964  16.728 -0.4214 -0.9090  0.3347
  730TMC3     O10792   3.686   1.936  16.661 -0.0250  0.8004 -0.0855
  730TMC3     H10793   3.761   1.797  16.827 -0.8232 -0.2217  0.4248
  730TMC3    H110794   3.490   2.107  16.933  1.1721 -0.5287 -1.6502
  730TMC3    H210795   3.865   2.077  17.125 -1.9186 -0.4823  2.0503
  730TMC3    C710796   3.666   2.237  17.068  0.4200 -0.3197 -0.0561
  730TMC3    C810797   3.973   1.906  16.939  0.0734  0.9705 -0.7650
  730TMC3    O110798   3.595   2.311  17.005 -0.1002 -0.1502  0.6299
  730TMC3    O210799   4.002   1.818  16.856 -0.5340  0.0005 -0.3690
  731MPD2     C10800   3.647   0.169  12.391 -0.7590  0.1692  0.1486
  731MPD2    C110801   3.768   0.209  12.342  0.1246  0.0428 -0.8649
  731MPD2    C210802   3.856   0.265  12.428  0.1881  0.1033  0.0411
  731MPD2    C310803   3.823   0.287  12.560 -0.1905 -0.7225  1.4429
  731MPD2    C410804   3.701   0.250  12.607  0.0527 -0.0939 -0.7624
  731MPD2    C510805   3.614   0.184  12.526  0.8069 -0.2712 -0.1441
  731MPD2     H10806   3.954   0.297  12.395  0.7538 -0.2925  1.3407
  731MPD2    H110807   3.680   0.252  12.714  0.6367 -2.8614 -0.5787
  731MPD2    H210808   3.573   0.120  12.329  0.1369  0.2092 -0.9511
  731MPD2    H310809   3.523   0.143  12.569 -0.9577  1.9713 -1.7418
  731MPD2     N10810   3.921   0.347  12.637 -0.6805  0.1032 -0.5227
  731MPD2    H510811   4.002   0.388  12.591 -0.9513 -1.0999 -2.0651
  731MPD2    N110812   3.793   0.164  12.206  0.0237  0.0055 -0.0125
  731MPD2    H710813   3.723   0.117  12.150  0.0427 -0.8007  0.6324
  732TMC3    C110814   3.910   0.146  12.000  0.1259  0.1209  0.1331
  732TMC3    C210815   3.812   0.073  11.942  0.2303 -0.8285  0.1717
  732TMC3    C310816   3.830   0.020  11.816  0.4375  0.4228 -0.4107
  732TMC3    C410817   4.015   0.190  11.923 -0.6137 -0.6146 -0.3683
  732TMC3    C510818   4.025   0.139  11.789 -0.4503 -0.3295 -0.3097
  732TMC3    C610819   3.938   0.053  11.741  1.1933  0.5708  0.0907
  732TMC3     C10820   3.906   0.191  12.132  0.1368 -0.6622 -0.1127
  732TMC3     O10821   4.015   0.238  12.164  0.2161 -0.3427 -0.1656
  732TMC3     H10822   3.731   0.049  12.009  0.4907 -0.1266  0.7405
  732TMC3    H110823   4.094   0.251  11.964 -1.4749  1.5316 -1.9226
  732TMC3    H210824   3.956   0.011  11.643  1.1550 -1.9482  1.1754
  732TMC3    C710825   4.160   0.142  11.727 -0.0473 -0.1081 -0.8001
  732TMC3    C810826   3.756   4.622  11.779 -0.6601  0.4366  0.0464
  732TMC3    O110827   4.165   0.190  11.609 -0.1249  0.0009  0.2463
  732TMC3    O210828   3.790   4.556  11.682  0.0532 -0.1076  0.0002
  733TMC3    C110829   0.656   3.275  13.269  0.2575 -0.0823  0.6256
  733TMC3    C210830   0.747   3.373  13.287  0.3760  0.7527  0.9437
  733TMC3    C310831   0.829   3.418  13.188 -0.6473  0.0335  0.1773
  733TMC3    C410832   0.641   3.209  13.148  0.4023 -0.5613 -0.4591
  733TMC3    C510833   0.736   3.237  13.055  0.3928 -0.0999  0.6799
  733TMC3    C610834   0.822   3.339  13.075  1.0009  0.9497  0.2275
  733TMC3     C10835   0.546   3.248  13.368 -0.2851 -0.0072 -0.2645
  733TMC3     O10836   0.581   3.223  13.483 -0.0388 -0.0168 -0.0178
  733TMC3     H10837   0.752   3.424  13.383  1.6139 -2.1939  2.4547
  733TMC3    H110838   0.559   3.142  13.128 -0.9903  1.3313 -1.0335
  733TMC3    H210839   0.887   3.364  12.991 -0.1870  0.0717 -0.9628
  733TMC3    C710840   0.673   3.257  12.927 -0.1644 -0.1295 -0.2957
  733TMC3    C810841   0.801   3.560  13.173 -0.1506  0.1288  0.1183
  733TMC3    O110842   0.674   3.373  12.887 -0.3918  0.3703  0.1474
  733TMC3    O210843   0.803   3.629  13.276  0.6895  0.5021  0.7159
  734MPD2     C10844   2.197   0.587  12.429  0.7216  0.0215 -0.0825
  734MPD2    C110845   2.142   0.521  12.321 -0.2305 -0.3279  0.2059
  734MPD2    C210846   2.144   0.582  12.196 -0.3652  0.3986  0.3517
  734MPD2    C310847   2.201   0.711  12.183  0.6897 -0.5964  0.1853
  734MPD2    C410848   2.241   0.781  12.292  0.2086 -1.3171 -0.0120
  734MPD2    C510849   2.235   0.722  12.414 -0.3513  0.0293 -0.6827
  734MPD2     H10850   2.100   0.533  12.110  0.2550  0.0354  0.2446
  734MPD2    H110851   2.283   0.881  12.287  2.2317 -2.1605 -0.2634
  734MPD2    H210852   2.194   0.544  12.528  0.1289 -0.4846 -0.3174
  734MPD2    H310853   2.276   0.785  12.492 -2.8659  0.8583 -0.0389
  734MPD2     N10854   2.209   0.753  12.050 -0.3121 -0.1359 -0.2708
  734MPD2    H510855   2.201   0.671  11.990  1.1494  0.2442 -0.9655
  734MPD2    N110856   2.079   0.395  12.341  0.2722 -0.0227  0.5407
  734MPD2    H710857   2.094   0.355  12.433  0.6017  2.1306  1.4355
  735TMC3    C110858   1.997   0.185  12.259  0.0184 -0.0926 -1.0782
  735TMC3    C210859   1.896   0.135  12.185 -0.1990 -0.1397  0.1762
  735TMC3    C310860   1.920   0.012  12.128  1.3016 -0.3074  0.0338
  735TMC3    C410861   2.106   0.114  12.303  0.6818 -0.0384  0.2311
  735TMC3    C510862   2.121   4.709  12.246 -0.6156  1.0061 -1.1147
  735TMC3    C610863   2.026   4.651  12.171 -0.5419  0.7654  0.2714
  735TMC3     C10864   1.999   0.331  12.249 -0.0114  0.4162  0.2266
  735TMC3     O10865   1.927   0.382  12.160  0.2873 -0.4355 -0.2850
  735TMC3     H10866   1.809   0.194  12.160  1.0793  1.6832  0.0777
  735TMC3    H110867   2.186   0.153  12.364  1.3732 -0.5806 -0.3214
  735TMC3    H210868   2.068   4.579  12.102  1.9063 -0.8029  3.4133
  735TMC3    C710869   2.260   4.664  12.225  0.3562 -0.3811  0.4736
  735TMC3    C810870   1.919   0.021  11.985  0.0242 -1.1293  0.3379
  735TMC3    O110871   2.344   0.029  12.211  0.1851  0.1304  0.3328
  735TMC3    O210872   1.955   4.641  11.921  0.0809  0.2657  0.1709
  736MPD2     C10873   2.381   4.312  12.212  0.7434 -0.6472 -0.1825
  736MPD2    C110874   2.386   4.453  12.202  0.5410  0.4592 -0.0688
  736MPD2    C210875   2.507   4.513  12.171 -0.2320  0.5654  0.5123
  736MPD2    C310876   2.622   4.431  12.157  0.0635  0.3630  0.5489
  736MPD2    C410877   2.606   4.293  12.156 -0.1954 -0.9676 -0.8554
  736MPD2    C510878   2.490   4.231  12.198 -0.2390  0.3646  0.0746
  736MPD2     H10879   2.509   4.619  12.149  0.8596  0.7844  1.6935
  736MPD2    H110880   2.692   4.228  12.142  0.1234 -0.3899 -1.6037
  736MPD2    H210881   2.293   4.258  12.245 -0.4665  1.2039 -0.4153
  736MPD2    H310882   2.483   4.123  12.206 -4.3715  0.6229 -0.3746
  736MPD2     N10883   2.750   4.487  12.121 -0.1844  0.3373 -0.1524
  736MPD2    H510884   2.820   4.420  12.090  1.9770  1.9297  1.2839
  736MPD2    N110885   2.270   4.529  12.231 -0.0364 -0.0817 -0.2642
  736MPD2    H710886   2.185   4.481  12.258  0.7736 -1.5727 -0.3754
  737TMC3    C110887   2.898   4.641  12.035 -0.0806 -0.2785  0.5304
  737TMC3    C210888   2.972   0.032  12.057  0.1771  0.0254  0.3283
  737TMC3    C310889   3.081   0.051  11.970  1.4783  0.5224 -0.3845
  737TMC3    C410890   2.933   4.547  11.937  0.3348  0.5907  0.3630
  737TMC3    C510891   3.052   4.563  11.876  0.4524 -0.4760  0.0608
  737TMC3    C610892   3.134   4.673  11.890 -0.0217 -0.3695 -0.3646
  737TMC3     C10893   2.778   4.619  12.107 -0.6396  0.3127  0.3143
  737TMC3     O10894   2.718   4.717  12.155  0.4337  0.1012 -0.0042
  737TMC3     H10895   2.937   0.105  12.129  1.5989  1.0414 -0.0201
  737TMC3    H110896   2.868   4.473  11.891 -1.6250  1.5302  1.6064
  737TMC3    H210897   3.238   4.687  11.863  0.4938 -3.5743  0.0407
  737TMC3    C710898   3.108   4.442  11.820  0.5940  0.2083 -0.4707
  737TMC3    C810899   3.134   0.187  11.958 -0.7285  0.0633 -0.1517
  737TMC3    O110900   3.056   4.334  11.849 -0.1932 -0.0693  0.6340
  737TMC3    O210901   3.112   0.263  12.050  0.2096  0.5594  0.2567
  738MPD2     C10902   2.660   4.245  14.999  0.8743  0.4514  0.5805
  738MPD2    C110903   2.717   4.171  15.098 -0.0494 -0.7581  0.4781
  738MPD2    C210904   2.807   4.227  15.190  0.5200 -0.8143  0.1097
  738MPD2    C310905   2.845   4.363  15.183 -0.1253 -0.3053  0.1639
  738MPD2    C410906   2.782   4.435  15.088 -0.5318 -0.2382 -0.5476
  738MPD2    C510907   2.702   4.376  14.991  0.5071  0.1050 -0.2661
  738MPD2     H10908   2.854   4.164  15.265  0.3757 -1.7643 -0.6001
  738MPD2    H110909   2.819   4.536  15.071 -0.6248 -0.3294 -1.2932
  738MPD2    H210910   2.588   4.201  14.931 -0.0932 -2.7101  3.6131
  738MPD2    H310911   2.650   4.432  14.914 -1.2966 -1.7223 -0.3401
  738MPD2     N10912   2.958   4.421  15.243 -0.5236  1.0014  0.1509
  738MPD2    H510913   2.980   4.512  15.204  0.0012  0.2827 -1.2307
  738MPD2    N110914   2.678   4.040  15.116 -0.0059  0.5536  0.0962
  738MPD2    H710915   2.727   3.998  15.194  0.4224  0.2070 -0.3532
  739TMC3    C110916   3.181   4.405  15.325 -0.7192 -0.4310 -0.4761
  739TMC3    C210917   3.205   4.527  15.272 -0.3465  0.0474  0.1949
  739TMC3    C310918   3.333   4.562  15.271 -0.4336 -1.3299 -0.1146
  739TMC3    C410919   3.274   4.330  15.393  0.0409  0.1988  0.6021
  739TMC3    C510920   3.401   4.381  15.392  0.1851  0.4108  0.9673
  739TMC3    C610921   3.430   4.496  15.338 -0.1959  0.7968  0.3818
  739TMC3     C10922   3.046   4.351  15.325 -0.3066  0.0149 -0.5713
  739TMC3     O10923   3.028   4.244  15.383 -0.0029 -0.2264 -0.1984
  739TMC3     H10924   3.135   4.578  15.207  0.6324  0.4395 -0.5659
  739TMC3    H110925   3.253   4.231  15.433  1.2565  0.3768  1.6843
  739TMC3    H210926   3.532   4.521  15.315 -0.7908  2.5295 -0.3842
  739TMC3    C710927   3.507   4.282  15.387  0.1357 -0.3470 -0.0725
  739TMC3    C810928   3.372   4.627  15.147  0.3860  0.0767 -0.0255
  739TMC3    O110929   3.614   4.319  15.430 -0.0457  0.4134  0.3922
  739TMC3    O210930   3.298   4.621  15.049  0.4557 -0.1820  0.1778
  740TMC3    C110931   3.856   0.923  14.288  0.2902 -0.3579  0.2141
  740TMC3    C210932   3.924   0.878  14.395  0.4764  0.5709  0.0572
  740TMC3    C310933   4.035   0.804  14.374 -0.3545  0.2424  0.0885
  740TMC3    C410934   3.893   0.894  14.158  0.6254  0.2393  0.9443
  740TMC3    C510935   4.003   0.813  14.149  0.2187 -0.0254 -0.0715
  740TMC3    C610936   4.075   0.761  14.253 -0.5360 -0.5736  0.1386
  740TMC3     C10937   3.733   0.995  14.304  0.0188 -0.0954 -0.4100
  740TMC3     O10938   3.691   1.057  14.206  0.9469 -0.0273  0.6252
  740TMC3     H10939   3.898   0.910  14.495 -0.7346 -3.1682  0.9508
  740TMC3    H110940   3.829   0.920  14.075  3.1866  0.2791 -1.0051
  740TMC3    H210941   4.162   0.702  14.225 -0.8354 -0.5417 -0.8605
  740TMC3    C710942   4.028   0.744  14.026 -0.2057 -0.2949  0.1361
  740TMC3    C810943   4.099   0.732  14.479 -0.5037 -0.3131 -0.0747
  740TMC3    O110944   4.061   0.624  14.027 -0.1636 -0.3225  0.3072
  740TMC3    O210945   4.196   0.663  14.443  0.1728 -0.2723  0.1207
  741TMC3    C110946   3.018   0.033  14.607 -0.4731  0.5793  0.4569
  741TMC3    C210947   2.900   4.691  14.579  0.7458 -0.4463  0.3826
  741TMC3    C310948   2.836   4.648  14.690  0.3822 -0.5423  1.0011
  741TMC3    C410949   3.075   0.055  14.729 -0.3307 -0.5168  0.2871
  741TMC3    C510950   3.010   0.003  14.834 -0.3539 -0.3656  0.0808
  741TMC3    C610951   2.888   4.657  14.814  0.1167 -0.2429 -0.6216
  741TMC3     C10952   3.089   0.090  14.495  0.1223 -0.4742  0.4777
  741TMC3     O10953   3.143   0.200  14.510 -0.1251 -0.2796 -0.9907
  741TMC3     H10954   2.854   4.667  14.484  2.3049  1.4949 -0.8664
  741TMC3    H110955   3.164   0.116  14.739  2.3763 -4.6573  1.4788
  741TMC3    H210956   2.834   4.635  14.906  0.4062  0.4431 -0.2798
  741TMC3    C710957   3.043   0.049  14.973 -0.1401  0.1389  0.1503
  741TMC3    C810958   2.711   4.578  14.670 -0.6561 -0.1534 -0.0845
  741TMC3    O110959   2.976   4.708  15.057  0.3568 -0.0571 -0.0747
  741TMC3    O210960   2.613   4.620  14.724 -0.1797  0.2654 -0.0914
  742TMC3    C110961   3.159   3.673  15.265  0.0831 -0.0663 -0.2053
  742TMC3    C210962   3.079   3.670  15.156 -0.3750  0.3107 -0.2221
  742TMC3    C310963   3.098   3.565  15.074 -0.0257  0.4632 -0.2808
  742TMC3    C410964   3.264   3.589  15.283  0.0661 -0.8319  0.3647
  742TMC3    C510965   3.283   3.485  15.196  0.6541 -0.2580 -0.1768
  742TMC3    C610966   3.190   3.467  15.089  0.6705  0.3809 -0.6665
  742TMC3     C10967   3.145   3.783  15.366  0.2853 -0.0168 -0.2581
  742TMC3     O10968   3.046   3.848  15.351  0.0380  0.0524  0.2278
  742TMC3     H10969   2.978   3.709  15.158 -1.0062 -1.4645  2.3450
  742TMC3    H110970   3.330   3.595  15.369  0.5509  1.4344 -0.1878
  742TMC3    H210971   3.198   3.382  15.022  1.8182 -0.3940  0.4511
  742TMC3    C710972   3.407   3.409  15.190  0.5235 -0.0762  0.3095
  742TMC3    C810973   2.992   3.538  14.985  0.2433 -0.4764 -0.1954
  742TMC3    O110974   3.428   3.341  15.092  0.4609 -0.2855  1.1424
  742TMC3    O210975   2.982   3.414  14.955 -0.0507 -0.5146 -0.4203
  743MPD2     C10976   1.225   0.464   1.994 -0.6083 -0.6314  0.6864
  743MPD2    C110977   1.267   0.352   1.921  0.2848  0.5648  0.2156
  743MPD2    C210978   1.404   0.320   1.915  0.4267 -0.2900 -0.9515
  743MPD2    C310979   1.490   0.393   1.985 -0.4057  0.4259 -0.5661
  743MPD2    C410980   1.453   0.512   2.046 -0.3140 -0.1759  0.1391
  743MPD2    C510981   1.319   0.545   2.047 -0.0659 -0.0148  0.2124
  743MPD2     H10982   1.445   0.231   1.870  0.8846  0.3411 -1.7965
  743MPD2    H110983   1.519   0.568   2.110 -0.0980 -1.0755  0.7031
  743MPD2    H210984   1.120   0.490   1.997 -0.5349 -0.2659  0.0184
  743MPD2    H310985   1.291   0.631   2.107 -1.2151 -0.7800  0.7905
  743MPD2     N10986   1.627   0.345   1.995  0.6980  0.0804  0.4370
  743MPD2    H510987   1.633   0.255   1.948 -1.1198  0.1193  0.1448
  743MPD2    N110988   1.166   0.264   1.875 -0.5068 -0.0574  0.3563
  743MPD2    H710989   1.071   0.299   1.886 -0.1133  1.2312 -0.2619
  744TMC3    C110990   1.067   0.088   1.770  0.3054  0.1949  0.6527
  744TMC3    C210991   0.941   0.135   1.806  0.0060 -0.2422 -0.1094
  744TMC3    C310992   0.837   0.055   1.788 -0.2265 -0.4133  0.6579
  744TMC3    C410993   1.084   4.689   1.716 -0.2417 -0.7884  0.3899
  744TMC3    C510994   0.968   4.610   1.707 -0.4768  0.0842 -0.1862
  744TMC3    C610995   0.840   4.647   1.745  0.4589 -0.2313  0.2969
  744TMC3     C10996   1.193   0.152   1.809 -0.0373  0.9295  0.2786
  744TMC3     O10997   1.293   0.093   1.776  0.2899  0.1829 -0.2236
  744TMC3     H10998   0.920   0.233   1.848 -1.3215 -1.5527  2.2899
  744TMC3    H110999   1.186   4.653   1.707  0.0853  0.3786 -0.6628
  744TMC3    H211000   0.752   4.606   1.697  0.0205 -0.8724  1.6576
  744TMC3    C711001   0.982   4.511   1.599 -0.3650 -0.1432 -0.1139
  744TMC3    C811002   0.719   0.120   1.740 -0.5084  0.4426 -0.3251
  744TMC3    O111003   0.891   4.431   1.594 -0.2651 -0.8404  0.1934
  744TMC3    O211004   0.740   0.232   1.695 -0.9719  0.4437  0.7258
  745TMC3    C111005   3.976   3.082  13.839 -0.3426  0.4729 -0.5324
  745TMC3    C211006   3.881   3.090  13.934 -0.2551 -0.3486 -0.6839
  745TMC3    C311007   3.751   3.062  13.906  1.2973  0.0908  0.4203
  745TMC3    C411008   3.941   3.047  13.709 -0.0182 -0.2374  0.6209
  745TMC3    C511009   3.808   3.029  13.684 -0.0225  0.1642 -0.8346
  745TMC3    C611010   3.708   3.030  13.781  0.0137 -0.1242 -0.1795
  745TMC3     C11011   4.093   3.147  13.863 -0.0826  0.0517  0.4044
  745TMC3     O11012   4.160   3.102  13.959  0.0981 -0.1738 -0.2626
  745TMC3     H11013   3.909   3.131  14.030  1.8571 -1.3870 -0.8621
  745TMC3    H111014   4.025   3.034  13.642 -1.4529 -1.2901 -0.9603
  745TMC3    H211015   3.605   3.018  13.751  0.1678 -1.4341 -0.1900
  745TMC3    C711016   3.768   3.033  13.543  0.0664 -0.2827 -0.5509
  745TMC3    C811017   3.655   3.146  13.983 -0.2514  0.4821  0.2734
  745TMC3    O111018   3.645   3.019  13.522 -0.0356  0.3814 -0.1028
  745TMC3    O211019   3.605   3.102  14.090 -0.1602 -0.6044  0.0430
  746TMC3    C111020   1.553   4.408  10.825  1.1260 -1.1425  0.2996
  746TMC3    C211021   1.659   4.337  10.768 -0.1021  0.3547  0.0039
  746TMC3    C311022   1.643   4.214  10.718  0.0418 -0.2080  0.1975
  746TMC3    C411023   1.429   4.355  10.830 -0.0055 -0.1065  0.3914
  746TMC3    C511024   1.422   4.227  10.788 -0.4545 -0.4920  0.5455
  746TMC3    C611025   1.525   4.156  10.734  0.6568  0.3699 -0.3431
  746TMC3     C11026   1.581   4.548  10.803 -0.4619 -0.3657 -0.2021
  746TMC3     O11027   1.672   4.569  10.725 -0.4060  0.6936 -0.2072
  746TMC3     H11028   1.759   4.376  10.778  0.1937 -0.6916  1.0876
  746TMC3    H111029   1.343   4.407  10.872  0.8537  1.2484  0.4539
  746TMC3    H211030   1.503   4.062  10.685 -2.4541  1.2840 -0.6649
  746TMC3    C711031   1.290   4.176  10.768 -0.2953 -0.1050  0.4623
  746TMC3    C811032   1.735   4.172  10.623  0.3545  0.1716 -0.4377
  746TMC3    O111033   1.217   4.231  10.689  0.6354 -0.8242  0.0082
  746TMC3    O211034   1.735   4.054  10.591  0.1762 -0.4152 -0.7538
  747TMC3    C111035   3.860   4.437  11.045 -0.8911  0.5257  0.1256
  747TMC3    C211036   3.817   4.354  11.149  0.2670 -0.1066 -0.0146
  747TMC3    C311037   3.753   4.409  11.258 -0.4611  0.1772 -0.3556
  747TMC3    C411038   3.846   4.575  11.061 -1.0007 -0.8523 -0.0151
  747TMC3    C511039   3.819   4.628  11.187 -0.0175  1.4810  0.3292
  747TMC3    C611040   3.762   4.543  11.279  0.6374  0.1551 -0.7300
  747TMC3     C11041   3.980   4.401  10.972  0.5749 -0.3026 -0.0743
  747TMC3     O11042   4.063   4.486  10.944 -0.5186 -0.8301 -0.3671
  747TMC3     H11043   3.807   4.248  11.135  0.9305 -0.4275  1.8864
  747TMC3    H111044   3.873   4.641  10.980  0.5229 -1.1462  0.2507
  747TMC3    H211045   3.734   4.577  11.378 -0.0917  0.1586 -0.9376
  747TMC3    C711046   3.919   4.721  11.237 -0.1014 -0.0885 -0.5347
  747TMC3    C811047   3.679   4.331  11.354 -0.0413  0.0502 -0.4004
  747TMC3    O111048   3.909   0.052  11.345 -0.4449 -0.0436  0.1638
  747TMC3    O211049   3.688   4.208  11.336  0.2819  0.7356 -0.6547
  748MPD2     C11050   0.094   0.670   1.920 -0.1493  0.1051 -0.5553
  748MPD2    C111051   0.223   0.636   1.932  0.0542 -0.2809 -0.5820
  748MPD2    C211052   0.320   0.712   1.874  0.0455 -0.1930  0.4189
  748MPD2    C311053   0.289   0.821   1.794  0.2840  0.9869 -0.2375
  748MPD2    C411054   0.155   0.844   1.768 -0.4968 -0.3983 -0.4210
  748MPD2    C511055   0.061   0.770   1.834  0.3433  0.2043  0.3179
  748MPD2     H11056   0.425   0.692   1.893  0.1626  0.0287  0.0008
  748MPD2    H111057   0.123   0.918   1.695 -0.1976  1.1405  1.0294
  748MPD2    H211058   0.013   0.611   1.961  0.5898 -0.9003 -0.5447
  748MPD2    H311059   4.679   0.795   1.812  0.2266 -0.9079 -0.3977
  748MPD2     N11060   0.395   0.893   1.739 -0.1681  0.1421  0.0793
  748MPD2    H511061   0.486   0.874   1.779  0.3942  2.4731 -0.1134
  748MPD2    N111062   0.252   0.527   2.014 -0.0968 -0.3883  0.0153
  748MPD2    H711063   0.176   0.481   2.064  0.3297 -0.6573  0.4170
  749TMC3    C111064   0.503   1.075   1.637  0.6952  0.0047  0.2017
  749TMC3    C211065   0.592   1.082   1.746 -0.2110 -0.0459  0.1738
  749TMC3    C311066   0.705   1.150   1.726 -0.2300 -0.0759  0.1554
  749TMC3    C411067   0.515   1.143   1.522 -0.4398 -0.4854  0.3232
  749TMC3    C511068   0.629   1.215   1.511  0.2499  0.0249 -0.3017
  749TMC3    C611069   0.731   1.212   1.607  0.1879 -0.7443  0.2607
  749TMC3     C11070   0.381   0.996   1.652 -0.2157  0.2556 -0.3606
  749TMC3     O11071   0.280   1.023   1.582 -0.1815 -0.0412 -0.4002
  749TMC3     H11072   0.566   1.041   1.843  0.7644  1.7009  1.1708
  749TMC3    H111073   0.440   1.126   1.446 -2.0316  0.8319  1.5905
  749TMC3    H211074   0.827   1.262   1.599  0.4883 -1.2414  0.8108
  749TMC3    C711075   0.644   1.311   1.398 -0.6921 -0.3549  0.0553
  749TMC3    C811076   0.806   1.138   1.829  0.0057 -0.7607 -0.0654
  749TMC3    O111077   0.737   1.393   1.408 -0.6628  0.0930  0.4237
  749TMC3    O211078   0.774   1.128   1.945  0.1814  0.2239 -0.3720
  750MPD2     C11079   1.768   1.627  10.921 -0.1170 -0.5549  0.2960
  750MPD2    C111080   1.637   1.599  10.893  0.4371 -0.3231 -0.1065
  750MPD2    C211081   1.599   1.473  10.859 -0.4885 -0.0047  0.6568
  750MPD2    C311082   1.688   1.363  10.853  0.2811  0.7235 -0.9765
  750MPD2    C411083   1.820   1.393  10.885 -0.0070  0.2976 -0.5800
  750MPD2    C511084   1.859   1.522  10.921 -0.4347 -0.0442 -0.2630
  750MPD2     H11085   1.493   1.450  10.857 -0.1826 -1.2328 -1.7156
  750MPD2    H111086   1.898   1.318  10.891 -0.7447 -0.5354 -1.3910
  750MPD2    H211087   1.801   1.725  10.953  0.9952 -0.8339  0.0163
  750MPD2    H311088   1.960   1.546  10.951  0.0567 -0.7615 -1.3333
  750MPD2     N11089   1.653   1.227  10.838 -0.2248  0.1430 -0.2980
  750MPD2    H511090   1.726   1.159  10.858 -0.2042  0.3352  0.3033
  750MPD2    N111091   1.547   1.710  10.891  0.3523  0.1783  0.1590
  750MPD2    H711092   1.581   1.796  10.933  0.5238  0.4377 -0.5139
  751TMC3    C111093   1.540   1.034  10.764 -0.5116  0.3831  0.0203
  751TMC3    C211094   1.429   0.955  10.777 -0.0364  0.2471 -0.3673
  751TMC3    C311095   1.448   0.822  10.754  0.0757 -0.2791  0.2950
  751TMC3    C411096   1.668   0.988  10.741  0.0353  0.6765  0.0816
  751TMC3    C511097   1.680   0.850  10.726  0.0525  0.1792 -0.2744
  751TMC3    C611098   1.571   0.769  10.730 -1.1588 -0.0657  0.2622
  751TMC3     C11099   1.534   1.182  10.789  0.0987 -0.1975 -0.3200
  751TMC3     O11100   1.442   1.249  10.743  0.1422 -0.3756  0.8126
  751TMC3     H11101   1.336   1.006  10.797 -1.3141 -1.4822 -1.8743
  751TMC3    H111102   1.756   1.051  10.733  0.6153  0.0141  1.1873
  751TMC3    H211103   1.581   0.661  10.726  0.6982  0.0537  2.1311
  751TMC3    C711104   1.815   0.797  10.721 -0.5216 -0.3109 -1.0536
  751TMC3    C811105   1.330   0.738  10.725  0.6519 -0.3094 -0.5226
  751TMC3    O111106   1.915   0.867  10.712 -0.1322  0.0556  0.6101
  751TMC3    O211107   1.360   0.635  10.663  0.4152  0.5323  0.5308
  752TMC3    C111108   0.007   1.942  16.417 -0.1387 -0.3227  0.2722
  752TMC3    C211109   4.654   1.995  16.519  0.3471 -0.3116 -0.0449
  752TMC3    C311110   4.719   1.993  16.639 -0.7684 -0.2014 -0.0184
  752TMC3    C411111   0.141   1.905  16.430  0.0559 -0.1854  0.3311
  752TMC3    C511112   0.196   1.911  16.547 -0.4834  0.3158  0.2962
  752TMC3    C611113   0.125   1.938  16.659  0.8133 -0.8637 -0.9276
  752TMC3     C11114   4.662   1.892  16.295 -0.0348 -0.1830  0.3580
  752TMC3     O11115   4.718   1.810  16.228  0.3107  0.3240 -0.0292
  752TMC3     H11116   4.549   2.021  16.522  0.4683  0.3415 -1.5508
  752TMC3    H111117   0.203   1.870  16.349 -1.0454 -0.4812 -0.3912
  752TMC3    H211118   0.176   1.933  16.755 -0.0946 -1.9778 -0.5032
  752TMC3    C711119   0.339   1.871  16.567  0.1242  0.4344  0.5909
  752TMC3    C811120   4.649   1.998  16.761  0.1361  0.1281  1.0683
  752TMC3    O111121   0.387   1.797  16.481  0.2233  0.3941  0.3807
  752TMC3    O211122   4.557   1.923  16.764  0.5010 -0.2514 -0.2628
  753TMC3    C111123   1.975   2.600  13.481 -0.0290  0.0638 -0.3687
  753TMC3    C211124   1.895   2.627  13.586 -0.6129  0.2983 -0.0987
  753TMC3    C311125   1.757   2.608  13.565 -0.0133  0.6132 -0.4070
  753TMC3    C411126   1.939   2.524  13.379  0.0401 -0.7025 -0.0113
  753TMC3    C511127   1.808   2.489  13.369 -0.1107  0.2327 -0.6743
  753TMC3    C611128   1.712   2.545  13.458  0.1799 -0.1545 -0.1800
  753TMC3     C11129   2.103   2.660  13.493  0.4986 -0.2438 -0.2618
  753TMC3     O11130   2.151   2.688  13.605 -0.2669  0.2717 -0.5070
  753TMC3     H11131   1.933   2.670  13.678 -0.2373  0.0177 -0.1186
  753TMC3    H111132   2.007   2.488  13.303  1.1228 -1.2442  1.2101
  753TMC3    H211133   1.604   2.543  13.446  0.2681  2.2114 -1.2890
  753TMC3    C711134   1.773   2.375  13.287  0.0291 -0.4242  0.3609
  753TMC3    C811135   1.654   2.690  13.646 -0.2174  0.3497  0.1924
  753TMC3    O111136   1.847   2.335  13.200 -0.0122  0.5095  0.1167
  753TMC3    O211137   1.540   2.698  13.598  0.8022  0.4185 -0.7187
  754MPD2     C11138   0.981   1.838  12.833  0.1602 -0.1892  0.0972
  754MPD2    C111139   0.983   1.702  12.830 -0.0771  0.9507 -0.2502
  754MPD2    C211140   0.859   1.646  12.852  0.1392  0.2089  0.3595
  754MPD2    C311141   0.747   1.719  12.901 -0.1608  0.3968 -0.1987
  754MPD2    C411142   0.759   1.856  12.896 -0.1065  0.2691  0.6118
  754MPD2    C511143   0.877   1.912  12.864 -0.2020  0.6806  0.1395
  754MPD2     H11144   0.844   1.543  12.821 -1.5218  0.7366 -0.5931
  754MPD2    H111145   0.679   1.922  12.927 -0.8487 -0.0696 -0.5570
  754MPD2    H211146   1.061   1.895  12.787  0.0499  1.5160  2.0349
  754MPD2    H311147   0.887   2.019  12.884  0.4946  0.1288  2.7424
  754MPD2     N11148   0.623   1.665  12.938 -0.2184 -0.3535 -0.1437
  754MPD2    H511149   0.557   1.729  12.983  0.6741  0.0817  0.5670
  754MPD2    N111150   1.098   1.632  12.794 -0.4220 -0.0908  0.3259
  754MPD2    H711151   1.172   1.687  12.753 -0.7004  0.3071  0.3610
  755MPD2     C11152   4.634   2.017  13.193 -0.0398 -0.1878  0.3025
  755MPD2    C111153   4.691   1.951  13.303  0.2929 -0.8404 -0.2152
  755MPD2    C211154   0.045   1.838  13.286 -0.4505 -0.3186 -0.3078
  755MPD2    C311155   0.078   1.794  13.163  0.2881  0.2109  0.4561
  755MPD2    C411156   0.030   1.853  13.045 -0.0806 -0.3310  1.0815
  755MPD2    C511157   4.667   1.964  13.065 -0.0958  0.9194  0.1440
  755MPD2     H11158   0.088   1.789  13.372  0.7302  0.3717 -0.5098
  755MPD2    H111159   0.039   1.814  12.944 -0.2941  1.3966  0.4003
  755MPD2    H211160   4.575   2.106  13.210 -1.7313 -1.7230  2.3346
  755MPD2    H311161   4.617   2.018  12.985  0.9811 -1.6220 -2.2540
  755MPD2     N11162   0.158   1.683  13.136 -0.0953  0.4406  0.4051
  755MPD2    H511163   0.174   1.684  13.036  0.3262  1.8154  0.4748
  755MPD2    N111164   4.695   2.003  13.436 -0.1317 -0.1599  0.0569
  755MPD2    H711165   0.025   1.950  13.506  0.1101 -0.5283 -0.3945
  756MPD2     C11166   1.199   2.151   9.067  0.4686  0.0446  0.1421
  756MPD2    C111167   1.201   2.039   9.146  0.5118  0.0208  0.1707
  756MPD2    C211168   1.100   1.942   9.131 -0.1308  0.2304 -0.0738
  756MPD2    C311169   0.992   1.961   9.038 -1.1807 -0.4897 -1.1288
  756MPD2    C411170   0.990   2.079   8.968 -0.0287  0.1488  0.2057
  756MPD2    C511171   1.096   2.172   8.978 -0.2500  0.3195  0.1207
  756MPD2     H11172   1.108   1.858   9.199  1.0208 -2.6203 -3.7142
  756MPD2    H111173   0.906   2.099   8.902 -0.6321 -1.8979  0.3627
  756MPD2    H211174   1.278   2.226   9.072 -0.5828  1.3551 -2.8513
  756MPD2    H311175   1.084   2.257   8.913 -1.2927  0.5562  0.6228
  756MPD2     N11176   0.898   1.865   9.038 -0.5667  0.2465  1.2149
  756MPD2    H511177   0.925   1.777   9.080 -0.9452 -0.0290  0.8862
  756MPD2    N111178   1.293   2.021   9.255 -0.7135  0.3581 -0.0388
  756MPD2    H711179   1.276   1.941   9.315  1.4649 -0.8924 -1.0878
  757MPD2     C11180   4.639   1.427   9.090 -0.0104  0.1228 -0.4389
  757MPD2    C111181   0.021   1.347   9.132  0.4016  1.3591 -0.2732
  757MPD2    C211182   0.153   1.368   9.081  0.5803  0.3774  1.1768
  757MPD2    C311183   0.177   1.484   9.005 -0.3658 -0.7142 -0.1447
  757MPD2    C411184   0.067   1.569   8.965  0.5169  0.6085  0.5706
  757MPD2    C511185   4.665   1.536   9.013 -0.5350  0.7951 -0.2300
  757MPD2     H11186   0.238   1.306   9.108  1.1027  0.6825  0.2301
  757MPD2    H111187   0.074   1.655   8.900  0.3883  0.8220  0.8419
  757MPD2    H211188   4.538   1.414   9.127  0.2123  0.9086  0.4688
  757MPD2    H311189   4.576   1.592   8.985 -0.7009 -0.5392 -2.4270
  757MPD2     N11190   0.308   1.514   8.977  0.3421 -0.0560 -0.5846
  757MPD2    H511191   0.378   1.441   8.987 -0.6134 -0.9456 -0.3595
  757MPD2    N111192   4.713   1.243   9.220 -0.7137 -0.3626  0.1259
  757MPD2    H711193   4.615   1.234   9.244 -0.7255  0.6997  0.4552
  758MPD2     C11194   0.995   1.119  16.130 -0.2037  0.7617  0.2501
  758MPD2    C111195   1.039   1.035  16.232  0.7936  0.3143  0.1223
  758MPD2    C211196   0.952   1.011  16.335 -0.4834  0.0822 -0.6199
  758MPD2    C311197   0.825   1.075  16.349  0.7233  0.2801 -0.3509
  758MPD2    C411198   0.788   1.156  16.247 -0.9870 -0.3533 -0.6191
  758MPD2    C511199   0.873   1.181  16.146 -0.2451 -0.2419  0.0238
  758MPD2     H11200   0.991   0.952  16.417 -0.7127 -1.8979 -1.9413
  758MPD2    H111201   0.689   1.200  16.251 -1.0392 -0.6196  1.3080
  758MPD2    H211202   1.051   1.143  16.040 -1.5095  1.0874 -0.4677
  758MPD2    H311203   0.843   1.256  16.073 -0.7226  0.7360  1.2247
  758MPD2     N11204   0.745   1.056  16.463 -0.4452  0.4009 -0.0778
  758MPD2    H511205   0.655   1.101  16.472 -0.8335 -0.3098 -0.3649
  758MPD2    N111206   1.169   0.982  16.217  0.0255 -0.5619  0.5279
  758MPD2    H711207   1.222   1.007  16.134 -1.1083  0.1557  0.0201
  759MPD2     C11208   0.243   4.082   9.625 -0.3495 -0.9760  1.1202
  759MPD2    C111209   0.252   3.972   9.543 -0.0463 -0.2428  0.0922
  759MPD2    C211210   0.330   3.976   9.425 -0.0815  0.4988  0.3931
  759MPD2    C311211   0.399   4.095   9.407  0.8614 -0.2150  0.2455
  759MPD2    C411212   0.397   4.203   9.493 -0.3292 -0.7202 -0.2418
  759MPD2    C511213   0.319   4.194   9.608 -0.0549 -0.4300 -0.2168
  759MPD2     H11214   0.325   3.899   9.349 -2.4359  0.5334  0.4885
  759MPD2    H111215   0.451   4.296   9.484  0.5404 -1.4718 -2.6628
  759MPD2    H211216   0.169   4.088   9.704  0.0586 -0.7213  1.4782
  759MPD2    H311217   0.294   4.285   9.662 -0.3429  0.0397 -1.1515
  759MPD2     N11218   0.475   4.095   9.289 -0.0809 -0.3240 -0.3715
  759MPD2    H511219   0.475   4.005   9.242  0.6880  0.3308 -1.6355
  759MPD2    N111220   0.167   3.852   9.562  0.4680 -0.2819  0.2627
  759MPD2    H711221   0.163   3.789   9.483 -1.3115  0.3699 -0.1566
  760MPD2     C11222   4.436   1.548  11.217  0.5468  0.6375  0.0101
  760MPD2    C111223   4.440   1.660  11.300 -0.5123 -0.3177 -0.2497
  760MPD2    C211224   4.371   1.658  11.420  0.4976 -0.4484  0.0610
  760MPD2    C311225   4.324   1.542  11.469 -0.6508  0.3762  0.2770
  760MPD2    C411226   4.321   1.430  11.389  0.2507  0.2540  0.2519
  760MPD2    C511227   4.371   1.436  11.262  0.8361 -0.3452  0.0815
  760MPD2     H11228   4.361   1.754  11.471 -1.4665 -1.5197  1.6932
  760MPD2    H111229   4.276   1.333  11.411  0.3925  0.1921  0.2683
  760MPD2    H211230   4.475   1.538  11.117  0.3665 -1.5232  0.1526
  760MPD2    H311231   4.367   1.344  11.205 -0.9602 -0.2750  0.0667
  760MPD2     N11232   4.271   1.530  11.601 -0.2524 -0.3286 -0.6328
  760MPD2    H511233   4.253   1.433  11.626  1.3709  0.2246  2.7171
  760MPD2    N111234   4.497   1.780  11.258  0.1948  0.3303 -0.3457
  760MPD2    H711235   4.483   1.861  11.316  1.3046  0.5897 -0.4392
  761MPD2     C11236   0.894   0.506  10.773  0.1198 -0.3088  0.3025
  761MPD2    C111237   0.985   0.494  10.672 -0.0273  0.5799 -0.3095
  761MPD2    C211238   1.086   0.591  10.674  0.4894  0.0926 -0.2766
  761MPD2    C311239   1.101   0.690  10.778  0.7402 -0.0287  0.1897
  761MPD2    C411240   1.008   0.699  10.875 -0.2903 -0.0863  0.1293
  761MPD2    C511241   0.909   0.602  10.873  0.2794  0.3787  0.7967
  761MPD2     H11242   1.160   0.581  10.595  0.9444 -1.0058  0.2810
  761MPD2    H111243   0.997   0.773  10.953 -0.2049  1.1383 -1.0141
  761MPD2    H211244   0.808   0.441  10.784 -0.0353 -0.2947 -0.9138
  761MPD2    H311245   0.844   0.611  10.960 -0.7128  2.5408 -0.1629
  761MPD2     N11246   1.213   0.777  10.784  0.2118  0.0613  0.6399
  761MPD2    H511247   1.206   0.859  10.844 -0.4993 -0.1756  0.8856
  761MPD2    N111248   0.969   0.404  10.562 -0.6536 -0.1898 -0.9604
  761MPD2    H711249   0.932   0.316  10.597 -2.4764  0.9176 -0.1051
  762MPD2     C11250   1.585   0.487  10.396 -0.0124  0.0229  0.5670
  762MPD2    C111251   1.564   0.363  10.333 -0.3248  0.1184  0.5157
  762MPD2    C211252   1.669   0.288  10.276  0.1467  0.4277  0.0466
  762MPD2    C311253   1.796   0.344  10.283  0.8526  0.8347  0.4194
  762MPD2    C411254   1.820   0.465  10.344  0.7531 -0.5375  0.1318
  762MPD2    C511255   1.716   0.539  10.391 -0.1629 -0.3194 -0.4602
  762MPD2     H11256   1.660   0.190  10.230 -0.0008  0.5767 -0.2461
  762MPD2    H111257   1.917   0.513  10.356  0.2688  0.3883  0.3964
  762MPD2    H211258   1.511   0.547  10.447 -0.8441 -0.5825  0.0663
  762MPD2    H311259   1.734   0.633  10.442  1.4956  1.0695 -3.6109
  762MPD2     N11260   1.893   0.262  10.222 -0.3107 -0.3356 -0.3630
  762MPD2    H511261   1.854   0.183  10.172 -1.7330  1.1920 -1.6188
  762MPD2    N111262   1.434   0.315  10.334  0.4438 -0.0911 -0.1164
  762MPD2    H711263   1.365   0.358  10.395  0.2307 -0.0337 -0.4017
  763MPD2     C11264   2.365   1.691  16.170  0.5854 -0.2340 -0.4449
  763MPD2    C111265   2.433   1.779  16.082 -0.4131  0.4002 -0.7922
  763MPD2    C211266   2.444   1.910  16.118  0.0808 -0.3804  0.3619
  763MPD2    C311267   2.396   1.951  16.240  0.5143 -0.1207  0.3779
  763MPD2    C411268   2.352   1.861  16.330  0.0706  0.0178  0.0295
  763MPD2    C511269   2.329   1.732  16.295 -0.3672  0.0822 -0.1854
  763MPD2     H11270   2.499   1.974  16.051 -2.0256 -0.9801 -1.9538
  763MPD2    H111271   2.323   1.897  16.428 -1.2194  1.2009 -0.7870
  763MPD2    H211272   2.335   1.595  16.130  2.2851 -2.2358  3.0712
  763MPD2    H311273   2.270   1.660  16.350 -0.6104 -0.7935 -1.5887
  763MPD2     N11274   2.408   2.087  16.278 -0.3490  0.1120 -0.1448
  763MPD2    H511275   2.399   2.097  16.378 -0.7198  1.4533 -0.3119
  763MPD2    N111276   2.478   1.739  15.954 -0.2923  0.6865  0.0560
  763MPD2    H711277   2.544   1.799  15.905  2.0618 -2.3202 -0.4212
  764MPD2     C11278   0.925   2.839   0.177  0.6407  0.3834  0.5791
  764MPD2    C111279   0.880   2.749   0.082 -0.1176  0.3312 -0.6530
  764MPD2    C211280   0.784   2.653   0.122 -0.3562  0.0465  0.4141
  764MPD2    C311281   0.723   2.655   0.245 -0.7878 -0.5496  0.5633
  764MPD2    C411282   0.769   2.751   0.335 -0.4835 -0.8774 -0.9820
  764MPD2    C511283   0.862   2.845   0.303 -0.3018 -1.2786 -0.0284
  764MPD2     H11284   0.754   2.585   0.043  2.6909 -1.1474  0.2791
  764MPD2    H111285   0.728   2.762   0.435  1.2820 -1.2094 -0.2259
  764MPD2    H211286   1.000   2.917   0.163  0.8506 -0.4024 -2.6228
  764MPD2    H311287   0.895   2.918   0.375 -0.2445 -1.2916 -0.0416
  764MPD2     N11288   0.609   2.573   0.279  0.1047  0.5726  0.1101
  764MPD2    H511289   0.558   2.597   0.364  1.1008 -2.4924  1.5502
  764MPD2    N111290   0.927   2.737  17.636 -0.0287 -0.8398  0.3588
  764MPD2    H711291   0.876   2.665  17.585 -2.2619 -0.0580  1.4945
  765MPD2     C11292   4.646   0.479  16.014  0.5055 -0.3585  0.8007
  765MPD2    C111293   0.023   0.577  16.045 -1.7152 -0.2351  0.3734
  765MPD2    C211294   0.157   0.543  16.036 -0.7492  0.3249  0.8986
  765MPD2    C311295   0.198   0.422  15.992  0.3553  0.5015 -0.5365
  765MPD2    C411296   0.098   0.320  15.979  0.0465 -0.3592  1.0739
  765MPD2    C511297   4.687   0.351  15.982  0.2098 -0.6582  0.1173
  765MPD2     H11298   0.234   0.618  16.055 -0.0868  0.0351 -0.6125
  765MPD2    H111299   0.123   0.219  15.947 -2.0065 -0.0368 -1.5796
  765MPD2    H211300   4.539   0.493  16.011  0.5172 -0.4617 -0.1121
  765MPD2    H311301   4.614   0.276  15.955 -1.7874  1.2062  0.3446
  765MPD2     N11302   0.337   0.405  15.962 -0.1721 -0.2539 -0.0866
  765MPD2    H511303   0.405   0.465  16.009  0.4810  0.5172 -1.9883
  765MPD2    N111304   4.700   0.707  16.067 -0.9741 -0.6097  0.7630
  765MPD2    H711305   4.601   0.728  16.066 -0.7029  0.6010 -0.1946
  766MPD2     C11306   4.378   1.000  15.551 -0.7612  0.0825 -0.3160
  766MPD2    C111307   4.509   0.977  15.591 -0.1329  0.3956  0.1965
  766MPD2    C211308   4.591   0.918  15.496 -0.2688  0.1059  0.3281
  766MPD2    C311309   4.551   0.886  15.365  0.0118 -0.4136  0.3399
  766MPD2    C411310   4.418   0.912  15.330  0.6160 -0.3084 -0.0232
  766MPD2    C511311   4.340   0.968  15.423 -0.6787 -0.2020 -0.4462
  766MPD2     H11312   4.692   0.897  15.528 -0.3865  0.7571  1.1131
  766MPD2    H111313   4.374   0.898  15.231  1.7400  0.5295 -0.6377
  766MPD2    H211314   4.310   1.052  15.618 -0.7314  0.8812 -0.9034
  766MPD2    H311315   4.239   0.990  15.391 -0.6123 -0.4663 -0.8427
  766MPD2     N11316   4.633   0.827  15.260 -0.2092  0.2228  0.0435
  766MPD2    H511317   4.600   0.829  15.164 -0.3467 -0.9431  0.0678
  766MPD2    N111318   4.566   1.003  15.720 -0.4338  0.4843  0.2308
  766MPD2    H711319   4.656   0.960  15.736 -1.1375 -1.5974 -1.3537
  767MPD2     C11320   4.355   1.239  15.190 -0.3424  0.2018  0.7887
  767MPD2    C111321   4.477   1.195  15.162  0.4789 -0.9350 -0.5600
  767MPD2    C211322   4.500   1.109  15.052  0.4207  0.8224 -0.4451
  767MPD2    C311323   4.399   1.083  14.964  0.3654 -0.2576  0.3918
  767MPD2    C411324   4.272   1.111  15.000 -0.5125  0.1861  1.1821
  767MPD2    C511325   4.255   1.195  15.105  0.9992 -0.1738 -0.3997
  767MPD2     H11326   4.604   1.080  15.040  0.1322  0.2293 -1.4454
  767MPD2    H111327   4.181   1.090  14.944  0.1914 -1.1053  0.5174
  767MPD2    H211328   4.332   1.287  15.284  1.1404  1.3419  0.5707
  767MPD2    H311329   4.151   1.223  15.118  1.0030 -1.0935  1.6723
  767MPD2     N11330   4.426   1.010  14.842 -0.1025 -0.3761  0.2015
  767MPD2    H511331   4.517   0.966  14.833 -1.0688 -2.0970 -1.0735
  767MPD2    N111332   4.570   1.230  15.260  0.3451 -0.3612 -0.2642
  767MPD2    H711333   4.533   1.271  15.345  0.5331 -0.4683 -0.1313
  768MPD2     C11334   1.189   4.017  10.329  0.3180  0.6782 -0.3849
  768MPD2    C111335   1.113   3.911  10.370  0.4191 -0.2666  0.1052
  768MPD2    C211336   1.165   3.823  10.460 -0.4982 -0.8799 -0.8053
  768MPD2    C311337   1.295   3.842  10.507  0.0570  0.3864  0.2322
  768MPD2    C411338   1.382   3.928  10.445 -0.5762 -0.4584  0.5725
  768MPD2    C511339   1.324   4.017  10.363  0.1790 -0.0013 -0.2867
  768MPD2     H11340   1.110   3.732  10.485 -1.8817  0.8024  2.3002
  768MPD2    H111341   1.487   3.935  10.471 -1.1384  1.8682  2.3418
  768MPD2    H211342   1.142   4.080  10.255 -0.0932  1.7302  0.7733
  768MPD2    H311343   1.389   4.083  10.307  2.6104 -1.1087  1.2251
  768MPD2     N11344   1.356   3.768  10.607 -0.5827 -0.2505 -0.1175
  768MPD2    H511345   1.454   3.785  10.623 -0.1123 -1.4248 -1.7652
  768MPD2    N111346   0.981   3.883  10.327 -0.6945 -0.0452  0.5113
  768MPD2    H711347   0.935   3.797  10.356 -1.2888  0.0941  0.0105
  769MPD2     C11348   1.858   2.403  14.814  0.5614 -0.3709 -0.1237
  769MPD2    C111349   1.768   2.380  14.921  0.8566 -0.5117 -0.2414
  769MPD2    C211350   1.811   2.414  15.048 -0.2227 -1.0431 -0.6166
  769MPD2    C311351   1.915   2.495  15.077 -0.5701 -0.1515  0.2266
  769MPD2    C411352   1.994   2.535  14.968  0.0416  0.1374  0.2598
  769MPD2    C511353   1.964   2.484  14.843  0.1793 -0.4896 -0.8484
  769MPD2     H11354   1.752   2.378  15.132 -2.1125 -0.8937 -1.9016
  769MPD2    H111355   2.081   2.598  14.984  0.7145 -1.3756  2.5603
  769MPD2    H211356   1.847   2.368  14.712  0.2650  2.0020 -0.8893
  769MPD2    H311357   2.026   2.514  14.759  1.4139  0.4468  0.4076
  769MPD2     N11358   1.924   2.535  15.212  0.3608  0.4078 -0.2458
  769MPD2    H511359   1.859   2.502  15.284  0.0700 -0.0406 -0.7094
  769MPD2    N111360   1.650   2.304  14.889  0.6254  0.0561 -0.5643
  769MPD2    H711361   1.627   2.301  14.790 -0.4712  0.3039 -0.3102
  770MPD2     C11362   0.909   1.753  15.256 -0.0282  0.2698 -0.2650
  770MPD2    C111363   1.005   1.819  15.331 -0.7757  0.0955  0.5292
  770MPD2    C211364   1.073   1.931  15.280  0.4934 -0.5403 -0.3270
  770MPD2    C311365   1.039   1.988  15.156  0.2292 -0.6255  0.3269
  770MPD2    C411366   0.932   1.928  15.088  0.1670 -0.1733  0.3394
  770MPD2    C511367   0.868   1.812  15.139 -0.1961  0.5584 -0.3480
  770MPD2     H11368   1.160   1.970  15.331  0.2175 -1.0588  0.5398
  770MPD2    H111369   0.892   1.961  14.993 -1.9318 -2.4063  0.4428
  770MPD2    H211370   0.857   1.665  15.292  1.7675  0.0831  1.8965
  770MPD2    H311371   0.781   1.777  15.084 -0.3015 -0.1599  0.2670
  770MPD2     N11372   1.112   2.094  15.097  0.0576 -0.1283 -0.1110
  770MPD2    H511373   1.203   2.116  15.136 -1.2224  2.6933  1.2627
  770MPD2    N111374   1.029   1.759  15.454  0.1294 -0.8872 -0.1146
  770MPD2    H711375   0.966   1.682  15.474  1.1341 -1.2226  1.7764
  771MPD2     C11376   2.685   0.437  14.305 -0.4864 -0.0671 -0.4607
  771MPD2    C111377   2.624   0.427  14.174  0.2195  0.2168 -0.0639
  771MPD2    C211378   2.614   0.301  14.112  0.0177 -0.5929 -0.0482
  771MPD2    C311379   2.672   0.195  14.172 -0.2028 -0.3813 -1.2267
  771MPD2    C411380   2.747   0.207  14.287  0.8513  0.9567 -0.2205
  771MPD2    C511381   2.752   0.327  14.347  0.5732 -0.7752 -0.2358
  771MPD2     H11382   2.555   0.290  14.022 -0.7078 -1.6616  0.5444
  771MPD2    H111383   2.794   0.125  14.341 -0.2897  1.1498  1.0884
  771MPD2    H211384   2.692   0.528  14.363  0.9373 -0.5097  0.0614
  771MPD2    H311385   2.804   0.338  14.441  0.7994  0.8089 -0.5420
  771MPD2     N11386   2.675   0.075  14.091  0.0120  0.0222  0.2238
  771MPD2    H511387   2.618   0.092  14.009 -1.8919 -0.9142  1.3521
  771MPD2    N111388   2.550   0.532  14.110 -0.5184 -0.2032 -0.0899
  771MPD2    H711389   2.512   0.504  14.021  1.3974  0.1609 -1.0289
  772MPD2     C11390   2.109   1.277  13.993 -0.0793  0.3350 -0.0454
  772MPD2    C111391   2.063   1.141  14.014 -0.5600 -0.6531 -0.3668
  772MPD2    C211392   1.930   1.111  14.013 -0.6017  0.1602  0.5508
  772MPD2    C311393   1.840   1.210  13.980  0.0128 -1.0560  0.9821
  772MPD2    C411394   1.883   1.337  13.954  0.2100  0.6561  0.3284
  772MPD2    C511395   2.015   1.366  13.959 -0.7488 -0.4259 -0.5104
  772MPD2     H11396   1.893   1.016  14.050 -0.2310  0.1898  1.0019
  772MPD2    H111397   1.813   1.414  13.924  0.8341  0.5342 -1.4734
  772MPD2    H211398   2.212   1.311  13.988  0.0332 -0.3146 -2.4762
  772MPD2    H311399   2.046   1.467  13.932 -0.9975 -0.7261 -1.9221
  772MPD2     N11400   1.702   1.191  13.965 -0.0277 -0.0730 -0.2452
  772MPD2    H511401   1.648   1.271  13.935 -0.4281 -0.3342 -0.2342
  772MPD2    N111402   2.157   1.040  14.049  0.1947  0.2060  0.3321
  772MPD2    H711403   2.116   0.947  14.047 -2.3073  1.3185 -0.3482
  773MPD2     C11404   1.396   1.626   0.897  0.1329  0.3102 -0.3798
  773MPD2    C111405   1.347   1.523   0.815 -0.2109 -0.0946 -0.3689
  773MPD2    C211406   1.433   1.426   0.760 -0.2013  0.0259 -0.2881
  773MPD2    C311407   1.568   1.445   0.784 -0.1047 -0.1622  0.7789
  773MPD2    C411408   1.612   1.536   0.871  0.2254 -0.5169  0.7828
  773MPD2    C511409   1.528   1.626   0.921  0.1886 -0.1749  0.4571
  773MPD2     H11410   1.401   1.353   0.687  2.3521 -0.1656 -1.2070
  773MPD2    H111411   1.715   1.547   0.903 -0.5047  0.9128  2.6585
  773MPD2    H211412   1.329   1.694   0.949  0.4001  0.8615 -0.7541
  773MPD2    H311413   1.567   1.700   0.990 -0.2775 -1.0735  1.6969
  773MPD2     N11414   1.656   1.357   0.716  0.3909 -0.4371  0.5573
  773MPD2    H511415   1.618   1.275   0.671 -0.8412 -0.2121  1.1864
  773MPD2    N111416   1.204   1.524   0.775  0.1313  0.2422  0.6903
  773MPD2    H711417   1.181   1.451   0.708 -2.0164  0.2659  1.3935
  774MPD2     C11418   0.447   0.813  13.121 -0.3093 -0.4044  0.4582
  774MPD2    C111419   0.509   0.857  13.239 -0.3350 -0.0560 -0.2368
  774MPD2    C211420   0.609   0.957  13.225  0.1878  0.3695  0.3309
  774MPD2    C311421   0.641   1.006  13.097 -0.2626  0.1509 -0.7841
  774MPD2    C411422   0.573   0.968  12.984 -0.7066  0.6940  0.3918
  774MPD2    C511423   0.481   0.865  12.998 -0.0191 -0.0892  0.4377
  774MPD2     H11424   0.663   1.002  13.307 -0.7064 -0.5383  1.4273
  774MPD2    H111425   0.594   1.010  12.886 -1.2363 -2.2908 -0.9965
  774MPD2    H211426   0.373   0.734  13.120  0.9244 -1.5557 -2.1823
  774MPD2    H311427   0.428   0.830  12.910 -0.1177  0.8216  0.1274
  774MPD2     N11428   0.752   1.092  13.087  0.5502  0.3032 -0.3140
  774MPD2    H511429   0.797   1.104  13.177 -0.8425  0.3522  0.3862
  774MPD2    N111430   0.461   0.809  13.363 -0.4036  0.2427 -0.1375
  774MPD2    H711431   0.385   0.743  13.351 -1.2900  1.2912 -0.3104
  775MPD2     C11432   2.005   2.298  15.564 -0.5701 -0.9495 -0.2293
  775MPD2    C111433   2.047   2.400  15.642  0.8389 -0.0327  0.2824
  775MPD2    C211434   2.154   2.482  15.599 -0.7286  0.3957 -0.4192
  775MPD2    C311435   2.211   2.453  15.475  0.0970  0.4580 -0.1849
  775MPD2    C411436   2.161   2.355  15.396 -0.3356  1.1153 -0.1046
  775MPD2    C511437   2.069   2.270  15.445 -0.2932  0.0014  0.6353
  775MPD2     H11438   2.184   2.565  15.662 -1.8601  1.1350 -0.8369
  775MPD2    H111439   2.217   2.329  15.308  1.2384  2.3811  0.5270
  775MPD2    H211440   1.919   2.238  15.589  0.2095 -2.6823 -1.6666
  775MPD2    H311441   2.043   2.180  15.391 -1.6711  2.0008 -2.0479
  775MPD2     N11442   2.314   2.526  15.416  0.1686 -0.4309 -0.1287
  775MPD2    H511443   2.349   2.490  15.328  0.1616 -1.8240  0.4382
  775MPD2    N111444   1.971   2.419  15.755  0.0027  0.1573  0.6436
  775MPD2    H711445   1.909   2.341  15.776 -0.9769  0.4633 -1.1036
  776MPD2     C11446   1.434   2.360  10.635  0.0894 -0.0785 -0.1395
  776MPD2    C111447   1.482   2.337  10.763 -0.2431 -0.3995 -1.0553
  776MPD2    C211448   1.571   2.431  10.819 -0.2354  0.7081 -0.1103
  776MPD2    C311449   1.592   2.553  10.755  0.0207  0.1595  0.1941
  776MPD2    C411450   1.530   2.581  10.634 -0.1299  0.1421  0.9185
  776MPD2    C511451   1.452   2.485  10.574 -0.0300 -0.0792 -0.1511
  776MPD2     H11452   1.623   2.416  10.913 -0.3981  2.2622  0.2256
  776MPD2    H111453   1.553   2.674  10.582  0.8166  0.0917  1.2394
  776MPD2    H211454   1.367   2.294  10.581 -0.7991  0.7532 -0.0628
  776MPD2    H311455   1.418   2.501  10.472  0.3121  1.1958 -0.0610
  776MPD2     N11456   1.674   2.653  10.812 -0.2512 -0.2686 -0.1025
  776MPD2    H511457   1.700   2.735  10.759 -0.6952 -0.3544 -0.4548
  776MPD2    N111458   1.450   2.218  10.824 -0.4066  0.2035 -0.3717
  776MPD2    H711459   1.406   2.148  10.766 -2.2033 -0.4579  1.8043
  777MPD2     C11460   1.573   0.636   0.970 -0.0977 -1.0133 -0.0259
  777MPD2    C111461   1.558   0.559   1.074  0.1430 -0.6179 -0.2091
  777MPD2    C211462   1.549   0.422   1.062  0.1425 -0.0623 -0.5637
  777MPD2    C311463   1.588   0.364   0.946 -0.3132  0.8364  0.3268
  777MPD2    C411464   1.627   0.443   0.838 -0.0860  0.8364 -0.8042
  777MPD2    C511465   1.601   0.579   0.850  0.4865  1.2620  0.5652
  777MPD2     H11466   1.513   0.359   1.143 -2.1474  1.8800 -0.0734
  777MPD2    H111467   1.646   0.400   0.740  0.0954  0.5325 -0.6378
  777MPD2    H211468   1.568   0.744   0.966  0.8376 -1.0141 -1.0981
  777MPD2    H311469   1.610   0.632   0.756  0.8401 -1.9844 -1.2569
  777MPD2     N11470   1.566   0.223   0.938 -0.2123  0.1015 -0.3704
  777MPD2    H511471   1.520   0.190   1.022 -0.4308  0.2695 -0.4236
  777MPD2    N111472   1.550   0.619   1.206 -0.4879 -0.7598  0.4760
  777MPD2    H711473   1.521   0.717   1.211  0.9922 -0.2514 -0.8318
  778MPD2     C11474   2.316   0.129  15.339  0.7799  0.3010  0.3593
  778MPD2    C111475   2.265   0.078  15.220 -0.1950 -0.2572 -0.1921
  778MPD2    C211476   2.299   0.140  15.104 -0.1567 -0.3226  0.0792
  778MPD2    C311477   2.363   0.261  15.100 -0.8534  0.9046 -0.3204
  778MPD2    C411478   2.402   0.319  15.222  0.1891  0.7788 -0.4588
  778MPD2    C511479   2.377   0.255  15.342  0.4174 -0.6742 -0.4309
  778MPD2     H11480   2.262   0.097  15.012 -1.1708  0.7465 -0.0219
  778MPD2    H111481   2.438   0.421  15.223  1.4569  0.3451 -1.5199
  778MPD2    H211482   2.309   0.086  15.438  1.4870 -0.6464 -0.0079
  778MPD2    H311483   2.416   0.306  15.429 -1.3245 -0.7504  0.3851
  778MPD2     N11484   2.389   0.320  14.978 -0.2266  0.2560  0.5842
  778MPD2    H511485   2.370   0.270  14.892 -0.6757  0.5898  0.4858
  778MPD2    N111486   2.195   4.676  15.208 -0.1696 -0.4467 -0.3299
  778MPD2    H711487   2.166   4.649  15.115 -1.7349  1.4089 -0.3968
  779MPD2     C11488   1.662   3.740  14.398  0.2373 -0.2654  0.3357
  779MPD2    C111489   1.800   3.743  14.370  0.3167  0.0400 -0.0899
  779MPD2    C211490   1.866   3.865  14.373  0.6022  0.0994  0.2812
  779MPD2    C311491   1.793   3.982  14.366  1.1070  0.3216 -0.3553
  779MPD2    C411492   1.656   3.981  14.375  0.5678  0.1952  0.0295
  779MPD2    C511493   1.599   3.861  14.393 -0.0396 -0.1045 -0.4397
  779MPD2     H11494   1.974   3.871  14.375  0.5602  0.7696  0.5375
  779MPD2    H111495   1.602   4.075  14.379 -2.0143 -1.2702 -0.5017
  779MPD2    H211496   1.601   3.655  14.426 -0.2315  0.1867  0.6884
  779MPD2    H311497   1.492   3.849  14.404 -0.0242 -0.3354 -0.5542
  779MPD2     N11498   1.866   4.106  14.366 -0.5681  0.2858 -0.0450
  779MPD2    H511499   1.965   4.107  14.390 -0.3075  0.6454 -1.1359
  779MPD2    N111500   1.884   3.629  14.359  0.0088 -0.6456 -0.2569
  779MPD2    H711501   1.983   3.643  14.346 -0.3595  2.4029  0.0395
  780MPD2     C11502   1.989   4.007   1.266  0.1319 -0.1098 -0.4212
  780MPD2    C111503   1.903   3.957   1.170 -0.1426  0.1387 -0.1154
  780MPD2    C211504   1.930   3.997   1.034 -0.3252  0.2137  0.5899
  780MPD2    C311505   2.032   4.083   1.010 -0.5765  0.0277 -0.6469
  780MPD2    C411506   2.107   4.137   1.110 -0.7897  0.7432 -0.1183
  780MPD2    C511507   2.085   4.098   1.239  0.7143  0.6345 -0.4259
  780MPD2     H11508   1.877   3.953   0.951  1.6601 -0.2947 -0.4172
  780MPD2    H111509   2.166   4.227   1.106 -1.2646  1.1641  2.4236
  780MPD2    H211510   1.984   3.982   1.371 -2.0347 -0.7768 -0.6731
  780MPD2    H311511   2.148   4.149   1.311 -0.0538 -0.1722  0.8416
  780MPD2     N11512   2.048   4.116   0.876 -0.3163  0.5869  0.3678
  780MPD2    H511513   1.976   4.073   0.819  0.0608  0.3162  0.0993
  780MPD2    N111514   1.799   3.871   1.204  0.5340  0.1468 -0.4492
  780MPD2    H711515   1.802   3.838   1.300  1.0774  0.4648 -0.3561
  781MPD2     C11516   3.708   0.613  11.887  0.0775  0.0031  0.4483
  781MPD2    C111517   3.804   0.569  11.977 -0.2815 -0.4542 -0.5828
  781MPD2    C211518   3.932   0.532  11.932 -1.0386 -0.5436  0.2268
  781MPD2    C311519   3.965   0.553  11.803  0.8715  0.7072  0.3188
  781MPD2    C411520   3.874   0.615  11.722 -0.0691  0.6556 -0.1225
  781MPD2    C511521   3.744   0.624  11.756 -0.1424 -0.8251  0.3491
  781MPD2     H11522   3.992   0.481  12.006  1.7608  1.2846 -0.7833
  781MPD2    H111523   3.893   0.641  11.619 -1.6900  0.0395 -0.5849
  781MPD2    H211524   3.609   0.639  11.920  0.0517  0.5246 -0.0503
  781MPD2    H311525   3.666   0.649  11.685 -0.1590 -1.1517  0.2516
  781MPD2     N11526   4.097   0.543  11.755  1.1829  0.1592 -0.6625
  781MPD2    H511527   4.111   0.583  11.663 -0.1156 -0.1350 -0.9885
  781MPD2    N111528   3.765   0.531  12.110 -0.0029 -0.2926  0.2962
  781MPD2    H711529   3.841   0.521  12.176 -0.6377  1.2694  1.2649
  782MPD2     C11530   2.131   0.868   9.954  0.1699  0.5149 -0.3249
  782MPD2    C111531   2.212   0.872  10.070 -0.0800 -0.0324  0.1285
  782MPD2    C211532   2.217   0.985  10.148  0.2054  0.4505 -0.4604
  782MPD2    C311533   2.144   1.100  10.110 -0.2619  0.1431  0.0659
  782MPD2    C411534   2.064   1.089   9.993  0.5774  0.0828  0.4909
  782MPD2    C511535   2.062   0.978   9.912 -0.7283  0.7691 -0.1161
  782MPD2     H11536   2.280   0.996  10.235  0.1643 -0.9730 -0.2599
  782MPD2    H111537   1.994   1.167   9.967  0.3742  0.5666  2.4658
  782MPD2    H211538   2.128   0.784   9.886 -2.6222 -0.1000  0.5639
  782MPD2    H311539   1.997   0.979   9.825 -0.9415 -1.5831  0.0130
  782MPD2     N11540   2.143   1.211  10.198 -0.3069  0.1406 -0.3498
  782MPD2    H511541   2.200   1.211  10.282 -1.2900  0.1081  0.3114
  782MPD2    N111542   2.286   0.751  10.106  0.4743  0.2410  0.2616
  782MPD2    H711543   2.253   0.664  10.065  0.8363  0.0759  0.3246
  783MPD2     C11544   1.884   0.453  10.791  0.0798  0.0567  0.1385
  783MPD2    C111545   1.909   0.571  10.734  0.4278  0.3215  0.4047
  783MPD2    C211546   2.019   0.591  10.658  0.2616 -0.1987  0.5391
  783MPD2    C311547   2.096   0.486  10.613 -0.1786 -0.0436  0.0927
  783MPD2    C411548   2.068   0.358  10.669  0.3522  0.6566  0.1997
  783MPD2    C511549   1.968   0.348  10.763 -0.3691  0.2217  0.3146
  783MPD2     H11550   2.032   0.690  10.616  0.8422 -0.6285 -0.2796
  783MPD2    H111551   2.127   0.268  10.655  2.2851  2.2254 -1.6484
  783MPD2    H211552   1.797   0.433  10.852  0.1264 -1.9780 -0.4502
  783MPD2    H311553   1.956   0.256  10.819  0.3542  0.4127  0.7804
  783MPD2     N11554   2.211   0.507  10.534 -0.7505 -0.6619  0.2396
  783MPD2    H511555   2.223   0.600  10.496 -0.2801 -0.7947  0.0621
  783MPD2    N111556   1.807   0.664  10.752 -0.1129 -0.0280 -0.1323
  783MPD2    H711557   1.724   0.642  10.805 -0.0264 -1.0217 -0.4242
  784MPD2     C11558   4.428   1.872   1.221 -1.0765  0.1129  0.2300
  784MPD2    C111559   4.452   2.004   1.234 -0.5975  0.1041 -0.2628
  784MPD2    C211560   4.413   2.089   1.135  0.3881 -0.0173 -0.4495
  784MPD2    C311561   4.370   2.050   1.012  0.3102  0.7665 -0.2720
  784MPD2    C411562   4.339   1.914   0.999 -0.1018  0.0013 -0.5602
  784MPD2    C511563   4.363   1.828   1.105  0.6668  0.5770 -0.2761
  784MPD2     H11564   4.430   2.194   1.151  0.5754  0.2642 -2.5307
  784MPD2    H111565   4.288   1.867   0.916 -2.3426  0.7136  0.3883
  784MPD2    H211566   4.461   1.802   1.296  1.6471 -0.3947 -1.4694
  784MPD2    H311567   4.349   1.722   1.090 -1.5315  1.1390 -2.1897
  784MPD2     N11568   4.356   2.148   0.913  0.5796 -0.0661 -0.2971
  784MPD2    H511569   4.372   2.246   0.935  2.1763 -0.6797  1.2620
  784MPD2    N111570   4.506   2.054   1.354  1.2255  0.1990  0.6912
  784MPD2    H711571   4.521   2.154   1.356 -1.6823  0.7175 -2.5185
  785MPD2     C11572   4.143   4.094  10.448  0.0734 -0.7363 -0.6696
  785MPD2    C111573   4.062   4.208  10.463 -0.1233 -0.0140 -0.0127
  785MPD2    C211574   3.952   4.212  10.382  0.2912  0.2117 -0.3835
  785MPD2    C311575   3.934   4.111  10.289 -0.7918 -0.1611 -0.2358
  785MPD2    C411576   4.000   3.990  10.288  0.1054 -0.5497 -1.3362
  785MPD2    C511577   4.119   3.986  10.361  0.8677 -0.3881  0.4680
  785MPD2     H11578   3.906   4.310  10.374  1.1080  0.8115  2.2328
  785MPD2    H111579   3.990   3.905  10.221 -1.3938 -2.2744  1.0587
  785MPD2    H211580   4.226   4.080  10.516  1.4857 -1.4821 -2.5618
  785MPD2    H311581   4.175   3.894  10.354  1.7503  0.0093  2.0923
  785MPD2     N11582   3.847   4.134  10.184 -0.4445 -0.4206 -0.9334
  785MPD2    H511583   3.810   4.229  10.187  0.2845 -0.1430 -0.6852
  785MPD2    N111584   4.105   4.311  10.556 -0.5457 -0.2048  0.4691
  785MPD2    H711585   4.178   4.289  10.624 -1.2953  1.1213  1.6875
  786MPD2     C11586   2.664   3.643  14.610  0.4921 -0.3378 -0.2590
  786MPD2    C111587   2.700   3.522  14.664  0.6472 -0.1178  0.6932
  786MPD2    C211588   2.783   3.521  14.772  0.0772 -0.0687 -0.4465
  786MPD2    C311589   2.834   3.639  14.827 -0.2468 -0.0131  0.1761
  786MPD2    C411590   2.789   3.759  14.781 -0.0625 -0.3343  0.3116
  786MPD2    C511591   2.710   3.757  14.676 -0.0556  0.2095 -0.1750
  786MPD2     H11592   2.828   3.426  14.799  0.5092 -0.3926 -2.2918
  786MPD2    H111593   2.820   3.854  14.823 -1.9385 -0.5008  2.1003
  786MPD2    H211594   2.609   3.651  14.517 -0.7460  0.3828  0.5291
  786MPD2    H311595   2.690   3.855  14.634 -0.1767  0.2957  0.0799
  786MPD2     N11596   2.932   3.646  14.930  0.0311  0.2643  0.0674
  786MPD2    H511597   2.958   3.740  14.959 -2.8217 -0.3035  4.5700
  786MPD2    N111598   2.677   3.402  14.598  0.4355 -0.2025 -0.8898
  786MPD2    H711599   2.710   3.316  14.640  1.6268  0.5154 -0.3701
  787MPD2     C11600   3.190   3.247  14.695  0.2262  0.7396  0.2247
  787MPD2    C111601   3.132   3.138  14.636 -0.3201  0.2154  0.4557
  787MPD2    C211602   3.155   3.014  14.697  0.6479 -0.3726 -0.2053
  787MPD2    C311603   3.231   3.003  14.811  0.3109  0.1561 -0.4319
  787MPD2    C411604   3.283   3.119  14.871  0.2327 -0.3261 -0.1342
  787MPD2    C511605   3.265   3.238  14.804 -0.2487  0.2539 -0.5786
  787MPD2     H11606   3.117   2.923  14.653  1.5790 -0.8510 -0.0329
  787MPD2    H111607   3.322   3.115  14.972 -0.6673 -0.8371  0.1948
  787MPD2    H211608   3.173   3.348  14.659 -1.1290 -0.0134 -1.2146
  787MPD2    H311609   3.295   3.331  14.850  1.1426  1.0906 -3.1630
  787MPD2     N11610   3.251   2.874  14.870  0.8662  0.1774  0.1117
  787MPD2    H511611   3.206   2.803  14.814  0.1320  0.8612 -0.1563
  787MPD2    N111612   3.049   3.153  14.524  0.6575  0.2738 -0.0347
  787MPD2    H711613   3.051   3.249  14.490 -1.1935  0.0626 -0.7368
  788MPD2     C11614   0.120   1.117   0.999 -0.2331 -0.3874  0.3549
  788MPD2    C111615   0.041   1.030   0.927 -0.8035 -0.2296  0.3494
  788MPD2    C211616   4.681   1.088   0.828  0.0163 -0.5759  0.1033
  788MPD2    C311617   4.655   1.227   0.821  0.1365 -0.2079  0.2316
  788MPD2    C411618   0.005   1.310   0.906  0.4105  0.5861  0.0596
  788MPD2    C511619   0.103   1.255   0.984 -0.1979  0.0934 -0.5784
  788MPD2     H11620   4.614   1.019   0.777 -1.6527  0.6353  0.6416
  788MPD2    H111621   4.711   1.417   0.902  1.7795  0.7367 -1.2771
  788MPD2    H211622   0.197   1.084   1.067  0.3829  1.8579  0.7555
  788MPD2    H311623   0.171   1.323   1.034 -0.9870 -1.6708  2.8469
  788MPD2     N11624   4.567   1.291   0.729 -0.4543  0.4528  0.3409
  788MPD2    H511625   4.579   1.388   0.703 -0.3174  1.3537  3.6768
  788MPD2    N111626   0.052   0.888   0.928  0.2527 -0.1172  0.1001
  788MPD2    H711627   4.704   0.842   0.870 -0.4245  2.1961 -0.9310
  789MPD2     C11628   0.319   1.259  16.313  0.4504 -0.1571 -0.3328
  789MPD2    C111629   0.235   1.210  16.407  0.0683 -0.2182  0.2150
  789MPD2    C211630   0.153   1.299  16.480 -0.0347 -0.6539 -0.6149
  789MPD2    C311631   0.150   1.431  16.444 -0.0438 -0.6073  0.1781
  789MPD2    C411632   0.232   1.482  16.350  0.5622 -0.3585  0.4114
  789MPD2    C511633   0.314   1.393  16.282 -0.6092  0.4717 -0.5642
  789MPD2     H11634   0.099   1.256  16.564  1.8634 -0.3725  0.7659
  789MPD2    H111635   0.241   1.587  16.325  3.3120 -0.6903  0.0244
  789MPD2    H211636   0.374   1.187  16.253  1.5249 -0.9203  1.5624
  789MPD2    H311637   0.373   1.430  16.199 -0.6005  3.5999  0.8488
  789MPD2     N11638   0.061   1.520  16.515 -0.1388 -0.1087  0.1836
  789MPD2    H511639   0.044   1.612  16.476  0.4693 -0.1701 -0.2245
  789MPD2    N111640   0.215   1.074  16.435  0.2903  0.1774  0.0454
  789MPD2    H711641   0.137   1.045  16.492 -0.4358 -1.1396 -1.6359
  790MPD2     C11642   0.592   2.922  13.422  0.1691 -0.1274 -0.0165
  790MPD2    C111643   0.720   2.867  13.450 -0.2102 -0.4935 -0.9612
  790MPD2    C211644   0.792   2.816  13.339  0.5098 -0.2918 -0.2289
  790MPD2    C311645   0.744   2.817  13.209  0.1614  0.5984 -0.3334
  790MPD2    C411646   0.621   2.873  13.190 -0.5591 -0.2577  0.3530
  790MPD2    C511647   0.541   2.909  13.296 -0.0294  0.4261 -0.1814
  790MPD2     H11648   0.890   2.775  13.360  1.3354  0.9143 -1.7532
  790MPD2    H111649   0.577   2.859  13.092 -3.4383 -1.4672  1.8428
  790MPD2    H211650   0.539   2.966  13.506 -3.5342 -1.5727 -1.6117
  790MPD2    H311651   0.442   2.947  13.272 -0.3577  0.9438  2.0258
  790MPD2     N11652   0.814   2.759  13.104 -0.4284  0.4274  0.2434
  790MPD2    H511653   0.884   2.689  13.126 -0.3842 -0.5329 -3.0296
  790MPD2    N111654   0.764   2.873  13.586 -0.5011  0.4279  0.0022
  790MPD2    H711655   0.711   2.903  13.667 -1.0942  1.3066 -0.7077
  791MPD2     C11656   0.504   2.643  12.414 -0.0042  0.2674 -0.0188
  791MPD2    C111657   0.525   2.566  12.529  0.1620 -0.3021 -0.3582
  791MPD2    C211658   0.435   2.473  12.556  0.2502 -0.4279  0.2367
  791MPD2    C311659   0.318   2.447  12.480  0.6282  0.0298  0.4853
  791MPD2    C411660   0.296   2.539  12.370 -0.4504 -0.7696  0.1367
  791MPD2    C511661   0.399   2.624  12.339 -0.0509  0.7897 -0.3313
  791MPD2     H11662   0.459   2.409  12.640 -1.7085  0.7339  1.6814
  791MPD2    H111663   0.209   2.545  12.306  0.0528 -1.8494 -0.6560
  791MPD2    H211664   0.576   2.716  12.378 -0.6745  1.0639  0.2658
  791MPD2    H311665   0.395   2.686  12.250  1.6122  0.5828 -0.5568
  791MPD2     N11666   0.226   2.345  12.518 -0.2573 -0.0088 -0.2369
  791MPD2    H511667   0.257   2.278  12.588  0.9995 -0.1659 -0.9512
  791MPD2    N111668   0.639   2.579  12.604  0.6322  0.6183  0.5390
  791MPD2    H711669   0.699   2.657  12.580  0.9197 -0.1171 -1.1313
  792MPD2     C11670   2.159   1.963  10.737  0.2038  0.7916  0.2462
  792MPD2    C111671   2.057   2.014  10.659  0.0099  0.2496 -0.0782
  792MPD2    C211672   1.965   1.922  10.613  0.2486 -0.7102  0.2377
  792MPD2    C311673   1.976   1.787  10.642 -0.0333 -0.3730  1.0575
  792MPD2    C411674   2.080   1.741  10.720  0.2253 -0.5488  0.2919
  792MPD2    C511675   2.170   1.828  10.774 -0.0513 -0.2044 -0.0406
  792MPD2     H11676   1.882   1.963  10.556  0.4776 -2.4600 -1.3556
  792MPD2    H111677   2.097   1.636  10.744  1.0718 -0.9233 -1.9830
  792MPD2    H211678   2.237   2.030  10.771 -0.1264  1.0025  0.5820
  792MPD2    H311679   2.256   1.795  10.831  0.6637  0.3481 -0.7865
  792MPD2     N11680   1.882   1.687  10.598  0.0540 -0.0723 -0.5650
  792MPD2    H511681   1.895   1.588  10.613 -0.9436 -0.4086 -1.9674
  792MPD2    N111682   2.058   2.153  10.629  0.0347 -0.4249 -0.3147
  792MPD2    H711683   2.134   2.203  10.675  0.4720 -0.0917 -1.3827
  793MPD2     C11684   1.183   1.714   9.915  0.2248  0.1367 -0.7785
  793MPD2    C111685   1.319   1.745   9.912  0.6248  0.0563 -0.2363
  793MPD2    C211686   1.405   1.701  10.018 -0.3518 -0.2428 -0.0586
  793MPD2    C311687   1.344   1.623  10.119  0.5077 -0.3666 -0.2420
  793MPD2    C411688   1.210   1.599  10.122 -0.4989  0.0694 -0.3252
  793MPD2    C511689   1.128   1.649  10.019 -0.4613 -0.0876 -0.0803
  793MPD2     H11690   1.511   1.722  10.025 -0.1266 -1.0225 -1.0769
  793MPD2    H111691   1.171   1.528  10.194  0.3846 -2.3901 -2.2885
  793MPD2    H211692   1.118   1.732   9.830 -0.9188  0.7945  0.2282
  793MPD2    H311693   1.022   1.628  10.023 -0.2617 -1.6513 -2.9303
  793MPD2     N11694   1.426   1.592  10.229 -0.2309  0.8137 -0.3035
  793MPD2    H511695   1.521   1.628  10.220  0.4622 -1.4481 -2.0234
  793MPD2    N111696   1.368   1.846   9.814  0.4628  0.0363 -0.5865
  793MPD2    H711697   1.467   1.864   9.828 -0.0644  2.1380  0.3898
  794MPD2     C11698   0.674   1.962   0.285  0.7118 -0.5141  0.4443
  794MPD2    C111699   0.744   1.837   0.278 -0.3705  0.6163 -0.3146
  794MPD2    C211700   0.786   1.787   0.154  0.3676 -0.3029 -0.6549
  794MPD2    C311701   0.760   1.856   0.036 -0.1853 -0.1034  0.2298
  794MPD2    C411702   0.705   1.978   0.038 -0.4509 -0.7664 -0.1233
  794MPD2    C511703   0.659   2.031   0.160 -0.1044 -0.5082 -0.3572
  794MPD2     H11704   0.838   1.692   0.153  0.9246  0.0080 -1.4672
  794MPD2    H111705   0.685   2.038  17.638  1.1386 -1.7803 -1.1698
  794MPD2    H211706   0.639   2.001   0.379  0.3843 -2.6372  1.2085
  794MPD2    H311707   0.612   2.129   0.166  0.3878 -0.1791 -1.9010
  794MPD2     N11708   0.820   1.814  17.594 -0.3158  0.5459 -0.3380
  794MPD2    H511709   0.805   1.872  17.512  1.5222 -0.1126 -1.1445
  794MPD2    N111710   0.771   1.761   0.392  0.5360 -0.5101  0.0224
  794MPD2    H711711   0.793   1.662   0.381  1.1296 -0.0795 -2.6846
  795MPD2     C11712   3.534   4.373  13.460  0.1775  0.4034  0.1526
  795MPD2    C111713   3.542   4.243  13.421 -0.2062  0.0487 -0.5068
  795MPD2    C211714   3.659   4.178  13.436  0.0907 -0.3377 -0.2194
  795MPD2    C311715   3.768   4.240  13.483  0.1261 -0.2042  0.2105
  795MPD2    C411716   3.768   4.379  13.510 -0.8928  0.5994 -0.8219
  795MPD2    C511717   3.646   4.439  13.497 -0.8580 -0.4376 -0.2168
  795MPD2     H11718   3.652   4.078  13.394  0.5754  0.5452 -2.3960
  795MPD2    H111719   3.848   4.446  13.539 -1.3109  1.0002 -0.5892
  795MPD2    H211720   3.444   4.432  13.456 -1.7106 -2.6603 -2.0194
  795MPD2    H311721   3.645   4.547  13.511  0.0674 -0.5605  0.7914
  795MPD2     N11722   3.888   4.160  13.497  0.1299  0.2294  0.5397
  795MPD2    H511723   3.883   4.059  13.491  2.4601  0.1219  0.6224
  795MPD2    N111724   3.430   4.176  13.358 -0.5943  0.1543 -0.3046
  795MPD2    H711725   3.445   4.084  13.318  0.0788 -0.5153  1.5001
  796MPD2     C11726   3.386   1.286  15.850 -0.2580 -0.8148  0.3502
  796MPD2    C111727   3.336   1.349  15.962 -0.0389 -0.3920  0.4014
  796MPD2    C211728   3.278   1.474  15.952  0.0817  0.5526  0.8885
  796MPD2    C311729   3.276   1.543  15.839 -0.5667  0.1418  0.3124
  796MPD2    C411730   3.338   1.483  15.734 -0.2870 -1.2610 -0.0822
  796MPD2    C511731   3.392   1.362  15.734 -0.2160 -0.4492 -0.3191
  796MPD2     H11732   3.232   1.513  16.042  0.6422  0.7456  1.0900
  796MPD2    H111733   3.332   1.525  15.635 -0.6723  0.4871  0.6864
  796MPD2    H211734   3.437   1.191  15.859 -2.3081 -1.9824 -0.3474
  796MPD2    H311735   3.427   1.325  15.638  0.8465  1.5185 -0.6983
  796MPD2     N11736   3.231   1.677  15.823 -0.2186 -0.2817  0.2796
  796MPD2    H511737   3.230   1.717  15.730  2.7144 -2.4092 -0.6829
  796MPD2    N111738   3.340   1.281  16.084  0.1402  0.1404 -0.4584
  796MPD2    H711739   3.404   1.202  16.090 -1.5338 -1.1934 -0.2838
  797MPD2     C11740   4.273   0.606  17.351 -0.2305  0.1458  0.7185
  797MPD2    C111741   4.361   0.702  17.299 -0.6314 -0.1078  0.4220
  797MPD2    C211742   4.318   0.831  17.285  0.1084 -0.4702  0.3481
  797MPD2    C311743   4.188   0.862  17.311 -0.6626 -0.2540 -0.0266
  797MPD2    C411744   4.095   0.769  17.352  0.4051 -0.3429 -0.7503
  797MPD2    C511745   4.146   0.639  17.374  0.2979  0.2956  0.2925
  797MPD2     H11746   4.390   0.905  17.254 -0.2731 -0.1066  0.3290
  797MPD2    H111747   3.994   0.799  17.377 -0.4697 -1.0439 -3.3740
  797MPD2    H211748   4.308   0.506  17.376  1.8631  0.6416 -0.1843
  797MPD2    H311749   4.078   0.561  17.404 -0.9001  0.0934 -2.8893
  797MPD2     N11750   4.145   0.996  17.294  0.0884  0.2567 -0.2916
  797MPD2    H511751   4.216   1.068  17.284 -0.0246  0.4997  0.6081
  797MPD2    N111752   4.498   0.677  17.259 -0.9528  0.0057  0.3219
  797MPD2    H711753   4.559   0.753  17.232 -0.6501 -0.3270  0.0704
  798MPD2     C11754   4.701   1.312  17.054  0.3088  0.3413  1.2129
  798MPD2    C111755   4.618   1.248  17.146  0.1418  0.2323  0.5473
  798MPD2    C211756   4.654   1.125  17.199  0.4584 -0.1694  0.1067
  798MPD2    C311757   0.054   1.073  17.169  0.0768  0.4087  0.2822
  798MPD2    C411758   0.144   1.140  17.095 -0.7650 -0.3919  0.2696
  798MPD2    C511759   0.105   1.259  17.038 -0.1699 -0.2188  0.1532
  798MPD2     H11760   4.588   1.064  17.260 -1.4878  1.3753 -0.4778
  798MPD2    H111761   0.240   1.101  17.063 -0.2328  0.5162  0.7606
  798MPD2    H211762   4.676   1.398  16.994  2.0102 -0.0469 -0.0522
  798MPD2    H311763   0.160   1.314  16.962 -0.1423 -1.5312 -0.7650
  798MPD2     N11764   0.082   0.943  17.212 -0.3475  0.2046  0.1340
  798MPD2    H511765   0.012   0.899  17.270  2.4206 -3.1982  0.8802
  798MPD2    N111766   4.490   1.306  17.163 -0.3663 -0.5987 -0.1725
  798MPD2    H711767   4.466   1.389  17.109 -0.1010 -0.7540 -0.5277
  799MPD2     C11768   2.998   2.206  14.711 -0.2554 -0.0749 -0.0455
  799MPD2    C111769   2.917   2.132  14.630  0.1288  0.7885 -0.2305
  799MPD2    C211770   2.835   2.203  14.542 -0.4371 -0.5477 -0.7196
  799MPD2    C311771   2.834   2.341  14.528 -0.4468  0.0820 -0.0716
  799MPD2    C411772   2.912   2.413  14.615  0.3287  0.5106  0.3687
  799MPD2    C511773   2.994   2.348  14.707  0.4193  0.0801 -0.3551
  799MPD2     H11774   2.775   2.142  14.476 -2.9094 -0.7218  1.7015
  799MPD2    H111775   2.912   2.522  14.607 -0.5450  0.3474 -1.7185
  799MPD2    H211776   3.056   2.168  14.795 -1.0284 -1.6067 -0.2053
  799MPD2    H311777   3.049   2.412  14.775 -0.8793  1.2507 -0.4209
  799MPD2     N11778   2.768   2.419  14.427  0.3872 -0.7820 -0.4477
  799MPD2    H511779   2.808   2.511  14.411 -1.9253  0.1506 -0.9701
  799MPD2    N111780   2.908   1.988  14.632  0.5890  0.2732  0.0093
  799MPD2    H711781   2.827   1.939  14.597 -0.1550  1.6410 -0.1756
  800MPD2     C11782   3.688   3.614  14.200  0.3344 -0.3426  0.4554
  800MPD2    C111783   3.753   3.612  14.072 -0.3325 -0.8276 -0.1112
  800MPD2    C211784   3.735   3.505  13.991 -0.1640  0.2446  0.3750
  800MPD2    C311785   3.671   3.385  14.028 -0.0378  1.1078  0.3146
  800MPD2    C411786   3.607   3.383  14.151 -0.0647 -0.3134  0.6504
  800MPD2    C511787   3.617   3.501  14.230  0.0764 -0.1371 -0.1654
  800MPD2     H11788   3.793   3.496  13.900  0.7745 -0.8974  1.0905
  800MPD2    H111789   3.545   3.302  14.188  0.8953 -1.4869 -0.3107
  800MPD2    H211790   3.688   3.695  14.272  0.3875  0.4363 -0.4185
  800MPD2    H311791   3.554   3.502  14.318  1.7816 -1.9941  1.1043
  800MPD2     N11792   3.673   3.273  13.944 -0.0046 -0.1369  0.6631
  800MPD2    H511793   3.721   3.293  13.857 -0.1659 -0.1096  0.5801
  800MPD2    N111794   3.820   3.738  14.036  0.1562  0.7673  0.1508
  800MPD2    H711795   3.825   3.817  14.099 -1.2680  1.2468 -0.3382
  801MPD2     C11796   3.869   4.458  14.145  0.1909 -0.2473 -0.0783
  801MPD2    C111797   3.843   4.327  14.186 -0.3321  0.3333 -0.1146
  801MPD2    C211798   3.768   4.306  14.303 -0.1670 -0.5779 -0.2913
  801MPD2    C311799   3.742   4.410  14.392 -1.2318 -0.7649 -0.7995
  801MPD2    C411800   3.769   4.537  14.353  0.2476 -0.6761  0.3867
  801MPD2    C511801   3.824   4.556  14.230  0.0434  0.1981  0.1976
  801MPD2     H11802   3.732   4.209  14.336 -0.1207 -0.3510  0.4138
  801MPD2    H111803   3.740   4.618  14.419  2.7997  1.4189 -1.0063
  801MPD2    H211804   3.915   4.475  14.049  1.0622  0.6465  0.5002
  801MPD2    H311805   3.855   4.657  14.206 -1.0493  0.5229  0.1434
  801MPD2     N11806   3.680   4.380  14.520  0.1887  0.5141 -0.0773
  801MPD2    H511807   3.655   4.282  14.531  2.5613 -0.1745 -0.7403
  801MPD2    N111808   3.876   4.217  14.105 -0.6060 -0.1230 -0.2681
  801MPD2    H711809   3.852   4.129  14.148 -0.4389  0.5497  1.2046
  802MPD2     C11810   3.269   4.034   0.061 -0.0227 -0.1686  0.2152
  802MPD2    C111811   3.137   4.070   0.023 -0.0749  0.4866 -0.3983
  802MPD2    C211812   3.058   3.979  17.643 -0.0008 -0.6777  0.4321
  802MPD2    C311813   3.110   3.856  17.618  0.0906  0.4406  0.6944
  802MPD2    C411814   3.229   3.820  17.659 -0.3709  0.5451  0.6238
  802MPD2    C511815   3.315   3.907   0.039  0.0251  0.2311  0.4089
  802MPD2     H11816   2.961   4.017  17.613  1.5175  1.5117 -1.7072
  802MPD2    H111817   3.268   3.720  17.643 -3.4526 -0.7477  1.2637
  802MPD2    H211818   3.313   4.112   0.122  1.8056  0.6238 -2.1211
  802MPD2    H311819   3.418   3.880   0.058 -0.9295 -2.6225  1.5119
  802MPD2     N11820   3.028   3.781  17.540  0.1350 -0.2033  0.2960
  802MPD2    H511821   2.941   3.824  17.511  1.0373  0.4068 -1.5177
  802MPD2    N111822   3.082   4.201   0.042 -0.7504 -0.7444 -0.2451
  802MPD2    H711823   2.994   4.213  17.682 -0.1786 -1.3665 -1.4322
  803MPD2     C11824   4.073   2.501  11.728 -0.1539  0.1055  0.3963
  803MPD2    C111825   4.151   2.535  11.838 -0.0145  1.1819  0.1449
  803MPD2    C211826   4.086   2.554  11.960 -0.0582  0.0634  0.5134
  803MPD2    C311827   3.946   2.518  11.974  0.4544 -0.0652 -0.5926
  803MPD2    C411828   3.879   2.491  11.865  0.3123 -0.0069 -0.1364
  803MPD2    C511829   3.937   2.494  11.740 -0.2718  0.8011 -1.1538
  803MPD2     H11830   4.145   2.593  12.043 -0.0336 -0.8135  0.9147
  803MPD2    H111831   3.771   2.478  11.863  0.3081 -0.1140  0.6050
  803MPD2    H211832   4.104   2.487  11.625  1.0506 -0.4660  0.8361
  803MPD2    H311833   3.875   2.468  11.654  0.1655 -0.4664 -1.0822
  803MPD2     N11834   3.871   2.520  12.096  0.1864  0.2108  0.3204
  803MPD2    H511835   3.776   2.484  12.093  0.2624 -0.0025  0.4829
  803MPD2    N111836   4.290   2.565  11.820 -0.0393  0.0724  0.2219
  803MPD2    H711837   4.342   2.601  11.900  4.6016  0.1222 -2.8078
  804MPD2     C11838   3.360   3.750  17.261  0.1669 -0.6145 -0.2318
  804MPD2    C111839   3.432   3.685  17.364  0.7234 -0.3306 -0.1337
  804MPD2    C211840   3.518   3.757  17.444 -0.0066 -0.0536  0.2097
  804MPD2    C311841   3.559   3.887  17.408 -0.1173  0.4139 -0.3591
  804MPD2    C411842   3.496   3.947  17.295  0.4082 -0.7154 -0.4298
  804MPD2    C511843   3.394   3.885  17.228  0.2254  0.7949  0.1022
  804MPD2     H11844   3.557   3.715  17.536 -2.1014 -0.7454  0.7624
  804MPD2    H111845   3.509   4.049  17.261  0.3804 -0.3002  0.8263
  804MPD2    H211846   3.283   3.702  17.201  0.8618  0.3141 -1.8573
  804MPD2    H311847   3.337   3.933  17.150 -1.9008 -0.2134  1.0263
  804MPD2     N11848   3.644   3.952  17.497  0.0516  0.1562  0.1452
  804MPD2    H511849   3.683   3.889  17.567 -1.6368  0.4409  1.3419
  804MPD2    N111850   3.417   3.546  17.388  0.1180  0.0147  0.2884
  804MPD2    H711851   3.463   3.501  17.467 -0.0463  0.3513  0.5754
  805MPD2     C11852   2.588   2.370  15.383  0.9208  0.2278 -0.8199
  805MPD2    C111853   2.675   2.426  15.291  0.3314  0.2175 -0.0185
  805MPD2    C211854   2.804   2.460  15.329 -0.2697 -0.7625 -0.3017
  805MPD2    C311855   2.841   2.459  15.466 -0.2275 -0.1723 -0.1293
  805MPD2    C411856   2.746   2.413  15.555  0.2854 -0.2878  0.3765
  805MPD2    C511857   2.622   2.364  15.516  0.0580 -1.2280 -0.4363
  805MPD2     H11858   2.875   2.495  15.255 -0.2587  1.3419  0.7044
  805MPD2    H111859   2.770   2.404  15.660 -0.2495 -2.1923  0.3230
  805MPD2    H211860   2.487   2.339  15.359  0.5050  0.8113  0.2040
  805MPD2    H311861   2.546   2.328  15.584  0.8054 -0.9739  0.5279
  805MPD2     N11862   2.967   2.503  15.519 -0.1818  0.2302 -0.5192
  805MPD2    H511863   3.044   2.504  15.453  0.8194  0.1262  0.6522
  805MPD2    N111864   2.641   2.428  15.147  0.0058 -0.2770 -0.1727
  805MPD2    H711865   2.713   2.449  15.080 -0.1881 -0.3097 -0.3924
  806MPD2     C11866   3.617   1.541   0.399 -0.0156 -0.3416  0.5303
  806MPD2    C111867   3.629   1.668   0.454 -0.9654 -0.4847  0.1333
  806MPD2    C211868   3.757   1.724   0.480  0.3409 -1.2296 -0.2698
  806MPD2    C311869   3.872   1.655   0.453 -1.2335 -0.0662 -0.2426
  806MPD2    C411870   3.860   1.529   0.405 -0.2168  0.4062  0.0200
  806MPD2    C511871   3.736   1.468   0.378  0.0497  0.1809 -0.0028
  806MPD2     H11872   3.764   1.818   0.534 -0.2127 -0.2976 -1.8081
  806MPD2    H111873   3.943   1.473   0.365 -0.2258  1.0447 -0.8923
  806MPD2    H211874   3.524   1.491   0.375 -0.6276  1.5228 -0.8958
  806MPD2    H311875   3.744   1.373   0.327 -0.6178  1.2428 -2.0799
  806MPD2     N11876   3.998   1.719   0.460  0.3365  0.3766 -0.4127
  806MPD2    H511877   4.004   1.816   0.491  1.0534 -0.1923  1.2397
  806MPD2    N111878   3.517   1.738   0.502 -0.1357 -0.1877  0.1747
  806MPD2    H711879   3.437   1.676   0.511 -0.7781  0.7076  0.4916
  807MPD2     C11880   3.349   1.306   0.940 -0.8906  0.8066 -0.0445
  807MPD2    C111881   3.275   1.410   1.006 -0.2903  0.6899 -0.0751
  807MPD2    C211882   3.221   1.382   1.131 -0.5222 -0.3748 -0.4468
  807MPD2    C311883   3.249   1.266   1.198  0.3346 -0.5427 -0.2614
  807MPD2    C411884   3.323   1.164   1.135  0.5995  0.3479  0.1046
  807MPD2    C511885   3.370   1.187   1.010  0.4949  0.3499 -0.1944
  807MPD2     H11886   3.167   1.460   1.184  0.3391  0.0237 -0.1511
  807MPD2    H111887   3.346   1.067   1.176 -0.1874  0.1411  0.0474
  807MPD2    H211888   3.403   1.326   0.848 -0.0574  1.5323  0.5930
  807MPD2    H311889   3.420   1.107   0.955  0.5146 -0.1501  0.5475
  807MPD2     N11890   3.178   1.246   1.323 -0.0094 -0.3804 -0.1366
  807MPD2    H511891   3.117   1.321   1.353  2.6316  2.2441 -1.2819
  807MPD2    N111892   3.272   1.537   0.961  0.2324  0.2415  0.3123
  807MPD2    H711893   3.248   1.605   1.033 -0.7640 -0.4979  0.6855
  808MPD2     C11894   3.837   2.907   8.937  0.4312  0.1966  0.8612
  808MPD2    C111895   3.941   2.840   8.992 -0.5233 -0.4139 -0.2202
  808MPD2    C211896   4.070   2.852   8.946 -0.2089  0.7962 -0.0389
  808MPD2    C311897   4.096   2.932   8.841  0.0081 -0.2346  0.0470
  808MPD2    C411898   3.987   3.000   8.781  0.0066 -0.5512  0.2521
  808MPD2    C511899   3.863   2.986   8.828  0.1785 -0.8701 -0.4422
  808MPD2     H11900   4.155   2.804   8.994  0.4655  3.5917  1.5699
  808MPD2    H111901   3.999   3.070   8.699 -1.1830  0.6969  1.1492
  808MPD2    H211902   3.737   2.909   8.978  0.4281 -0.1813  0.8690
  808MPD2    H311903   3.777   3.038   8.787 -0.7887 -0.6224  1.9318
  808MPD2     N11904   4.227   2.966   8.799 -0.0980  0.0353 -0.3366
  808MPD2    H511905   4.235   3.051   8.743  2.6938 -0.4032 -0.6144
  808MPD2    N111906   3.939   2.773   9.119 -0.1732 -0.5045  0.4656
  808MPD2    H711907   4.014   2.715   9.154  0.9407  0.6366 -0.0261
  809MPD2     C11908   0.574   2.893   9.018  0.6452  0.4364  0.1355
  809MPD2    C111909   0.481   2.791   9.049 -0.4434 -0.3599  0.6230
  809MPD2    C211910   0.356   2.794   8.994 -0.3050  0.1000 -0.2468
  809MPD2    C311911   0.330   2.904   8.907 -0.8746  0.1562  0.7878
  809MPD2    C411912   0.422   3.004   8.877  0.2902 -0.4647 -0.8555
  809MPD2    C511913   0.543   3.001   8.940  0.3221  0.2166 -0.4255
  809MPD2     H11914   0.283   2.715   9.006  1.3636 -1.4875 -0.4589
  809MPD2    H111915   0.397   3.086   8.811  2.1364  0.4851 -0.3652
  809MPD2    H211916   0.677   2.881   9.051  0.2697 -1.6100  0.6020
  809MPD2    H311917   0.621   3.076   8.926  1.3690 -0.6661  0.6640
  809MPD2     N11918   0.206   2.928   8.846  0.0072  0.7223  0.4552
  809MPD2    H511919   0.186   3.011   8.791 -2.6586 -0.6209 -0.6400
  809MPD2    N111920   0.519   2.676   9.129  0.3121 -0.3006 -0.7849
  809MPD2    H711921   0.448   2.604   9.141 -0.1174  0.4425  1.1925
  810MPD2     C11922   4.008   1.850   9.945  0.7526  0.2567  1.0236
  810MPD2    C111923   3.922   1.832  10.057  0.4405  0.3685  0.2030
  810MPD2    C211924   3.918   1.926  10.163  0.5268 -0.0636 -1.2796
  810MPD2    C311925   4.002   2.036  10.157  0.2159  0.0381 -0.8841
  810MPD2    C411926   4.080   2.044  10.042  0.7071  0.0258  0.0692
  810MPD2    C511927   4.082   1.960   9.932 -0.1392 -0.4781  0.6962
  810MPD2     H11928   3.844   1.916  10.242  0.0448  1.3808 -1.5419
  810MPD2    H111929   4.138   2.135  10.037  1.6838 -0.5643  0.8119
  810MPD2    H211930   4.010   1.778   9.864  0.4602  2.7940 -1.2542
  810MPD2    H311931   4.137   1.990   9.844 -3.7598  0.0212 -1.4217
  810MPD2     N11932   4.006   2.142  10.252  0.4750  0.4368  0.3473
  810MPD2    H511933   4.055   2.225  10.219  0.5926 -0.0548 -0.7243
  810MPD2    N111934   3.840   1.720  10.046 -0.0007  0.6613 -0.4995
  810MPD2    H711935   3.842   1.672   9.957  2.1223  0.7946 -0.5194
  811MPD2     C11936   3.097   1.659   9.723 -0.8263 -0.1083  0.1082
  811MPD2    C111937   3.187   1.723   9.803  0.6966  0.3693  0.3213
  811MPD2    C211938   3.186   1.859   9.812 -0.1471 -0.5301 -0.8950
  811MPD2    C311939   3.094   1.931   9.742 -0.1649  0.1848  0.5601
  811MPD2    C411940   3.002   1.866   9.667 -0.2464 -0.3059 -0.1381
  811MPD2    C511941   2.999   1.734   9.660 -0.1506  1.1784  0.6599
  811MPD2     H11942   3.246   1.914   9.884  0.0963  0.9979 -2.2631
  811MPD2    H111943   2.930   1.934   9.622 -0.9558 -0.9613  0.0157
  811MPD2    H211944   3.075   1.553   9.718 -1.0028 -0.1768  2.0946
  811MPD2    H311945   2.914   1.686   9.612  1.7594  0.8582 -2.4204
  811MPD2     N11946   3.077   2.063   9.777  0.2756  0.3049 -0.7755
  811MPD2    H511947   3.149   2.108   9.833  0.0465 -1.8297  1.2606
  811MPD2    N111948   3.275   1.637   9.872  0.5011 -0.1901 -0.1270
  811MPD2    H711949   3.271   1.537   9.860 -0.1427 -0.2607  0.6732
  812MPD2     C11950   2.064   2.034  12.183  0.0510 -0.2431  0.8081
  812MPD2    C111951   1.941   2.084  12.218 -0.3294  0.0715  0.3923
  812MPD2    C211952   1.896   2.077  12.348  0.1727  0.4551 -0.8968
  812MPD2    C311953   1.977   2.023  12.443  0.2743  0.3109  0.2610
  812MPD2    C411954   2.105   1.982  12.417  0.2912 -0.2358 -0.6250
  812MPD2    C511955   2.147   1.994  12.290  0.0616  0.2603  0.4089
  812MPD2     H11956   1.793   2.102  12.372  0.3902  1.1498 -0.6890
  812MPD2    H111957   2.167   1.941  12.495  0.6400  0.7936 -0.3648
  812MPD2    H211958   2.110   2.027  12.085 -1.3894 -0.0266  0.1205
  812MPD2    H311959   2.248   1.965  12.263  0.0362  0.1017  0.4847
  812MPD2     N11960   1.925   2.014  12.571  0.5197 -0.0226 -0.0862
  812MPD2    H511961   1.824   2.021  12.581  0.3934  0.5839 -1.7462
  812MPD2    N111962   1.874   2.150  12.109 -0.0564 -0.0968  0.6892
  812MPD2    H711963   1.922   2.135  12.021 -0.4132 -0.7120  0.6008
  813MPD2     C11964   1.417   4.114  12.528 -0.1106  0.0165  0.5342
  813MPD2    C111965   1.463   4.246  12.511 -0.1673 -0.1293  0.4047
  813MPD2    C211966   1.384   4.346  12.561 -0.4176 -0.1556  0.0449
  813MPD2    C311967   1.281   4.324  12.652  0.5332 -0.6813  0.0345
  813MPD2    C411968   1.249   4.193  12.676 -0.2943 -0.7187  0.4569
  813MPD2    C511969   1.302   4.093  12.598  0.3528  0.4746  0.1032
  813MPD2     H11970   1.395   4.451  12.538  0.1363 -0.3246 -0.4619
  813MPD2    H111971   1.170   4.173  12.748 -0.8097 -0.2046  0.0417
  813MPD2    H211972   1.463   4.030  12.477  0.1797  0.1429  0.5904
  813MPD2    H311973   1.254   3.996  12.605 -1.2405  1.1247 -1.7340
  813MPD2     N11974   1.234   4.441  12.719  0.3967  0.0772  0.2398
  813MPD2    H511975   1.266   4.532  12.688 -2.3617  0.8650 -0.2902
  813MPD2    N111976   1.576   4.271  12.438 -0.4788  0.4992  0.0722
  813MPD2    H711977   1.601   4.200  12.370 -0.8535  0.2112  0.2344
  814MPD2     C11978   1.814   0.754  11.998 -0.6081 -0.0421 -0.2639
  814MPD2    C111979   1.812   0.809  11.865 -0.5127  0.0469 -0.3379
  814MPD2    C211980   1.841   0.944  11.858  0.1992 -0.0664  0.2338
  814MPD2    C311981   1.870   1.020  11.973 -0.3261  0.4550 -1.0376
  814MPD2    C411982   1.874   0.959  12.100 -1.0149 -0.2087 -0.0815
  814MPD2    C511983   1.831   0.830  12.113  0.1922  0.2503  0.2952
  814MPD2     H11984   1.833   0.991  11.761  1.0564  2.1440  1.2310
  814MPD2    H111985   1.892   1.021  12.187  0.3705  0.1371 -0.6244
  814MPD2    H211986   1.786   0.650  12.011  1.8461 -0.5491  0.8609
  814MPD2    H311987   1.839   0.773  12.205  0.6547 -0.1025  0.0356
  814MPD2     N11988   1.905   1.160  11.968 -0.1107  0.2627  0.5973
  814MPD2    H511989   1.933   1.204  12.055  1.1885 -2.3023  1.4765
  814MPD2    N111990   1.776   0.737  11.749 -0.5017 -0.1642 -0.0501
  814MPD2    H711991   1.788   0.786  11.661  0.1270 -1.4331 -0.6643
  815MPD2     C11992   1.846   3.205  11.917 -0.0946  0.8322  0.2776
  815MPD2    C111993   1.796   3.257  11.801  0.0120  0.4269 -0.1709
  815MPD2    C211994   1.660   3.278  11.788  0.0983  0.1457 -0.0708
  815MPD2    C311995   1.567   3.248  11.887  0.3143 -0.2017 -0.8642
  815MPD2    C411996   1.614   3.189  12.000 -0.1913 -0.0592  0.5301
  815MPD2    C511997   1.752   3.168  12.013  0.5369  0.6182 -0.0607
  815MPD2     H11998   1.616   3.305  11.692  0.8690 -1.7237 -0.9695
  815MPD2    H111999   1.549   3.135  12.068  0.5612  0.1999  1.4552
  815MPD2    H212000   1.948   3.168  11.922 -0.4144 -0.1047 -0.3029
  815MPD2    H312001   1.786   3.114  12.101  1.4844  1.4662  0.1000
  815MPD2     N12002   1.429   3.262  11.854 -0.5659  0.3037  1.5763
  815MPD2    H512003   1.408   3.277  11.756  2.3504 -1.5215  0.6378
  815MPD2    N112004   1.888   3.285  11.699  0.3199 -0.4183 -0.2872
  815MPD2    H712005   1.982   3.255  11.720 -0.0794  0.6925  3.0989
  816MPD2     C12006   1.638   3.267  17.379  0.2518 -0.2204  0.1433
  816MPD2    C112007   1.754   3.340  17.391 -0.5264 -0.1905  0.4412
  816MPD2    C212008   1.875   3.285  17.357  0.4185  0.1079 -0.0263
  816MPD2    C312009   1.878   3.158  17.305 -0.6771  0.2100  0.6284
  816MPD2    C412010   1.760   3.089  17.290 -0.3094  0.1344 -0.1078
  816MPD2    C512011   1.637   3.142  17.329 -0.9060 -0.4681 -0.4458
  816MPD2     H12012   1.967   3.342  17.363 -0.6809  1.7944  0.9253
  816MPD2    H112013   1.761   2.988  17.249  0.1212  0.1859 -0.2307
  816MPD2    H212014   1.538   3.304  17.398 -0.1836  0.0252 -2.6011
  816MPD2    H312015   1.555   3.072  17.341 -0.4737 -1.1877 -1.7043
  816MPD2     N12016   1.998   3.111  17.247  0.2289  0.2545  0.0200
  816MPD2    H512017   2.089   3.150  17.269  0.2836  1.0759 -1.6666
  816MPD2    N112018   1.744   3.478  17.417  0.3457 -0.3442  0.2766
  816MPD2    H712019   1.647   3.507  17.401  0.7408  2.1616  2.5071
  817MPD2     C12020   2.329   4.689   9.515  0.1165  1.6311 -0.3808
  817MPD2    C112021   2.235   4.604   9.480 -0.2458  0.3277  0.6914
  817MPD2    C212022   2.106   4.649   9.459 -0.0188 -0.2465 -0.2572
  817MPD2    C312023   2.071   0.065   9.452  0.3218  0.4553 -0.1404
  817MPD2    C412024   2.173   0.149   9.485  0.9850  0.4775 -0.2972
  817MPD2    C512025   2.298   0.103   9.518  0.0393 -0.9166  0.0544
  817MPD2     H12026   2.034   4.576   9.425 -0.7961  0.7070 -0.6528
  817MPD2    H112027   2.147   0.254   9.499  1.1077  0.6219 -1.1299
  817MPD2    H212028   2.424   4.666   9.560 -0.3786 -1.7715 -1.1163
  817MPD2    H312029   2.372   0.176   9.550 -0.2101 -0.6102 -0.0677
  817MPD2     N12030   1.938   0.100   9.431  0.0241  0.0819  0.0198
  817MPD2    H512031   1.874   0.023   9.417  0.3957 -0.1529 -0.4035
  817MPD2    N112032   2.254   4.463   9.481  0.3939 -0.2861  0.0540
  817MPD2    H712033   2.171   4.415   9.446 -0.3701  1.3915 -0.4554
  818MPD2     C12034   1.183   0.059   9.958  0.1162 -0.6357  0.6532
  818MPD2    C112035   1.056   0.009   9.940 -0.2501 -0.1616 -0.2634
  818MPD2    C212036   1.046   4.594   9.906 -0.0562  0.2465  0.0712
  818MPD2    C312037   1.166   4.516   9.906  0.1228 -0.6373  0.6096
  818MPD2    C412038   1.289   4.576   9.926  0.3698 -0.1962 -0.2744
  818MPD2    C512039   1.292   4.711   9.956 -0.3254  0.0429  0.3227
  818MPD2     H12040   0.948   4.554   9.886 -0.7869  1.8415  0.4071
  818MPD2    H112041   1.387   4.529   9.924  0.8530  0.7404  1.1362
  818MPD2    H212042   1.178   0.165   9.980  0.3041 -0.1989 -1.4076
  818MPD2    H312043   1.385   0.043   9.973  0.9053 -1.1277 -2.5911
  818MPD2     N12044   1.163   4.374   9.881  0.0128  0.3188  0.1999
  818MPD2    H512045   1.256   4.335   9.875  0.1461  0.7233 -0.3723
  818MPD2    N112046   0.941   0.078   9.963 -0.1705  0.7184 -0.5912
  818MPD2    H712047   0.857   0.022   9.950 -0.1182  1.0346 -2.3941
  819MPD2     C12048   3.518   2.124  15.322  1.0700  0.4322 -0.0932
  819MPD2    C112049   3.493   1.997  15.361 -0.9940  0.4763  0.2812
  819MPD2    C212050   3.596   1.927  15.423  0.3773  0.3949  0.2325
  819MPD2    C312051   3.721   1.989  15.439 -0.5295 -0.0462 -0.5738
  819MPD2    C412052   3.745   2.119  15.395  0.0760 -0.1415  0.6837
  819MPD2    C512053   3.637   2.188  15.349 -0.2349  0.0684 -0.1402
  819MPD2     H12054   3.585   1.824  15.454  1.1103  0.0520 -0.6285
  819MPD2    H112055   3.840   2.169  15.404  0.7571 -0.9883 -2.0065
  819MPD2    H212056   3.449   2.185  15.265 -0.3613 -1.2287 -0.1182
  819MPD2    H312057   3.643   2.295  15.334 -2.5338  0.4619  1.6978
  819MPD2     N12058   3.829   1.920  15.497  0.2701 -0.0925 -0.0057
  819MPD2    H512059   3.907   1.979  15.521  1.1001 -0.6072 -1.4469
  819MPD2    N112060   3.361   1.943  15.337  0.3716  0.0834  0.7152
  819MPD2    H712061   3.299   1.993  15.275 -0.2215  0.0369  1.2694
  820MPD2     C12062   2.569   1.771  14.753 -0.0725 -0.5700  0.1957
  820MPD2    C112063   2.640   1.877  14.805 -0.6274 -0.1780  0.1435
  820MPD2    C212064   2.738   1.850  14.896 -0.1774 -0.1831 -0.3998
  820MPD2    C312065   2.762   1.720  14.943  0.1740 -0.3611  0.1154
  820MPD2    C412066   2.695   1.617  14.887 -0.3990 -0.0162 -0.0437
  820MPD2    C512067   2.603   1.640  14.789  0.1815 -0.5843  0.3521
  820MPD2     H12068   2.796   1.931  14.937  0.0689 -1.5873  2.0595
  820MPD2    H112069   2.717   1.517  14.921  1.5561  0.8899  1.3599
  820MPD2    H212070   2.503   1.781  14.667  1.4561 -0.2718 -0.9381
  820MPD2    H312071   2.562   1.561  14.728  1.3767  0.2354 -1.5429
  820MPD2     N12072   2.857   1.696  15.044  0.5601  0.0258 -0.0936
  820MPD2    H512073   2.857   1.603  15.085  0.4940  0.2679  0.4565
  820MPD2    N112074   2.614   2.014  14.763 -0.0553 -0.0155  0.3233
  820MPD2    H712075   2.538   2.024  14.697  0.2528 -0.3598 -0.0834
  821MPD2     C12076   3.746   3.081  13.232  0.4563  0.6103 -0.2963
  821MPD2    C112077   3.851   3.104  13.321 -0.4207 -0.0610  0.0631
  821MPD2    C212078   3.972   3.160  13.270 -0.1103  0.0506 -0.1663
  821MPD2    C312079   3.976   3.214  13.143 -0.2072 -0.5639 -0.1378
  821MPD2    C412080   3.863   3.214  13.067 -0.5085  0.4840  0.0900
  821MPD2    C512081   3.753   3.139  13.105 -0.2551  0.0763 -0.2840
  821MPD2     H12082   4.063   3.147  13.326 -0.8409 -0.3903  0.9258
  821MPD2    H112083   3.859   3.256  12.967 -1.9750 -0.3678 -0.2169
  821MPD2    H212084   3.657   3.028  13.264  0.9573 -0.3874 -0.5493
  821MPD2    H312085   3.672   3.135  13.033  0.8343  0.9127 -1.5659
  821MPD2     N12086   4.092   3.271  13.079 -0.0392  0.6604  0.2532
  821MPD2    H512087   4.075   3.325  12.994  4.2838  1.7513  0.0975
  821MPD2    N112088   3.861   3.069  13.456 -0.1802 -0.1419 -0.4374
  821MPD2    H712089   3.957   3.069  13.490  0.3096 -0.3956 -1.8007
  822MPD2     C12090   4.156   3.375  15.778  0.0096 -0.5297  0.0901
  822MPD2    C112091   4.169   3.329  15.906  0.6615  0.4503  0.1185
  822MPD2    C212092   4.111   3.394  16.012  0.0209 -0.5180  0.1225
  822MPD2    C312093   4.043   3.516  15.990 -0.5706  0.1720 -0.0727
  822MPD2    C412094   4.045   3.563  15.857 -0.0381  0.5692  0.2194
  822MPD2    C512095   4.097   3.490  15.754 -0.3510  0.0430 -0.0191
  822MPD2     H12096   4.112   3.355  16.114 -0.8463 -0.8349  0.0088
  822MPD2    H112097   3.994   3.656  15.835  2.5211  2.4114  2.1357
  822MPD2    H212098   4.203   3.330  15.691  0.2484  0.6060 -0.3647
  822MPD2    H312099   4.082   3.529  15.654  0.5541 -2.2360 -1.0453
  822MPD2     N12100   3.987   3.586  16.106  0.8706  0.0548  0.4562
  822MPD2    H512101   3.960   3.527  16.184 -0.7184  3.0893  2.2081
  822MPD2    N112102   4.236   3.204  15.936 -0.0456  0.7488 -0.6416
  822MPD2    H712103   4.239   3.170  16.032 -1.1031 -0.6631 -1.0982
  823MPD2     C12104   3.609   3.686  16.869 -0.2856 -0.3073  0.2202
  823MPD2    C112105   3.654   3.619  16.761 -0.1469  0.1047  0.0361
  823MPD2    C212106   3.716   3.496  16.788 -0.5026  0.6075 -0.6391
  823MPD2    C312107   3.721   3.438  16.911  0.4447  0.0944  0.0391
  823MPD2    C412108   3.659   3.508  17.014  0.2598 -0.3791  0.3047
  823MPD2    C512109   3.599   3.626  16.990  0.1549  0.2775  0.3957
  823MPD2     H12110   3.776   3.454  16.708 -0.4034 -0.2961 -0.0882
  823MPD2    H112111   3.652   3.461  17.111 -1.3441 -1.9125 -0.5552
  823MPD2    H212112   3.568   3.785  16.855  0.9897  0.3790  1.3985
  823MPD2    H312113   3.561   3.680  17.076  0.6004  2.6497 -0.8903
  823MPD2     N12114   3.786   3.318  16.933 -0.5048 -0.1399 -0.2337
  823MPD2    H512115   3.798   3.292  17.031 -2.2276  1.5418  0.4370
  823MPD2    N112116   3.663   3.693  16.635  0.3742 -0.3826 -0.4071
  823MPD2    H712117   3.652   3.793  16.649 -0.7725 -0.7042  1.0480
  824MPD2     C12118   4.411   2.368  15.730  0.0515 -0.6132 -0.6205
  824MPD2    C112119   4.516   2.427  15.802 -0.8140  0.5389 -0.4406
  824MPD2    C212120   4.631   2.359  15.821 -0.6909 -0.7203  0.2745
  824MPD2    C312121   4.653   2.235  15.759 -0.1943  0.0669  0.5533
  824MPD2    C412122   4.551   2.181  15.687 -0.1371  0.0010  0.9119
  824MPD2    C512123   4.427   2.241  15.678  0.3273 -0.1983  0.0874
  824MPD2     H12124   4.717   2.397  15.875  1.3308 -1.2552 -2.5720
  824MPD2    H112125   4.555   2.081  15.646 -0.9926 -0.6017  2.3308
  824MPD2    H212126   4.309   2.402  15.739  0.0588 -1.1115  1.3722
  824MPD2    H312127   4.342   2.192  15.631 -0.9844  0.9703  1.2180
  824MPD2     N12128   0.058   2.174  15.763  0.2842  0.0637  0.0718
  824MPD2    H512129   0.131   2.233  15.802  0.1781  0.6473 -0.6088
  824MPD2    N112130   4.493   2.556  15.861  0.0859 -0.1303  0.1937
  824MPD2    H712131   4.559   2.595  15.927  2.8797  0.1238 -2.7496
  825MPD2     C12132   0.818   2.235  15.362 -0.2009  0.0734 -0.1795
  825MPD2    C112133   0.702   2.284  15.423  0.8125 -0.0486 -0.6178
  825MPD2    C212134   0.677   2.422  15.411 -0.0700  0.1891 -0.0075
  825MPD2    C312135   0.753   2.506  15.331  0.0308  0.8597 -0.3169
  825MPD2    C412136   0.863   2.444  15.264 -0.0081 -0.0071 -0.6333
  825MPD2    C512137   0.896   2.315  15.282 -0.7365  0.1843  0.4944
  825MPD2     H12138   0.587   2.453  15.462 -0.9877 -0.9091 -0.9474
  825MPD2    H112139   0.917   2.493  15.184 -0.1018 -0.9137 -1.2553
  825MPD2    H212140   0.857   2.135  15.379 -2.3155 -0.9344 -1.2204
  825MPD2    H312141   0.983   2.267  15.237 -0.5953 -1.2489  2.2548
  825MPD2     N12142   0.723   2.646  15.310 -0.0884 -0.1920  0.0407
  825MPD2    H512143   0.772   2.696  15.237 -3.4716 -1.1487 -2.8636
  825MPD2    N112144   0.629   2.185  15.500  0.5558 -0.2224  0.2178
  825MPD2    H712145   0.657   2.088  15.499 -2.0931 -1.0018  0.0020
  826MPD2     C12146   0.286   2.330  13.671 -0.8945 -0.2765  0.3948
  826MPD2    C112147   0.205   2.351  13.562 -0.0724 -0.3470 -0.9828
  826MPD2    C212148   0.087   2.437  13.581 -0.2272  0.0999  0.5139
  826MPD2    C312149   0.061   2.499  13.705  0.6667 -0.2098  0.3738
  826MPD2    C412150   0.141   2.463  13.814  0.1805  0.1333 -0.0684
  826MPD2    C512151   0.254   2.384  13.790 -1.2060  0.7336  0.1628
  826MPD2     H12152   0.030   2.452  13.490  1.6813 -0.2125 -0.7394
  826MPD2    H112153   0.125   2.501  13.914 -0.4093 -1.4984  0.4462
  826MPD2    H212154   0.372   2.265  13.661 -0.7496  0.2849 -2.0466
  826MPD2    H312155   0.331   2.381  13.867  0.6323 -1.4575 -1.7447
  826MPD2     N12156   4.668   2.585  13.727 -0.1139 -0.1623 -0.2065
  826MPD2    H512157   4.652   2.599  13.826 -1.5946 -1.4160 -0.2694
  826MPD2    N112158   0.236   2.272  13.446  0.6877  0.0426  0.3325
  826MPD2    H712159   0.331   2.236  13.442  0.8179  0.6957 -2.7886
  827MPD2     C12160   1.118   3.025   9.750  0.0872  0.5282  0.0246
  827MPD2    C112161   1.252   3.003   9.773 -0.1467  0.1489 -0.1239
  827MPD2    C212162   1.331   2.940   9.682 -0.3897 -0.7608  0.3095
  827MPD2    C312163   1.275   2.868   9.578 -0.1126 -0.0041 -0.0947
  827MPD2    C412164   1.140   2.882   9.549 -0.4510  0.2891  0.8565
  827MPD2    C512165   1.062   2.966   9.633 -0.0739 -0.7598 -0.2276
  827MPD2     H12166   1.439   2.937   9.692 -0.4665  2.1998  2.1169
  827MPD2    H112167   1.089   2.840   9.464  2.1414 -1.5084  0.1861
  827MPD2    H212168   1.065   3.077   9.829  0.9681  1.7041 -0.1713
  827MPD2    H312169   0.959   2.976   9.602 -0.2524 -0.9918  0.2918
  827MPD2     N12170   1.364   2.781   9.503  0.6145 -0.3705 -0.0861
  827MPD2    H512171   1.459   2.765   9.535 -0.7580 -4.1779  2.0941
  827MPD2    N112172   1.311   3.064   9.888  0.1647  0.1064  0.9288
  827MPD2    H712173   1.256   3.117   9.955  0.4227  0.9950  0.4410
  828MPD2     C12174   4.375   3.349  12.546  0.1965 -0.7379  0.0917
  828MPD2    C112175   4.336   3.351  12.415  0.4495  0.3184  0.3342
  828MPD2    C212176   4.425   3.313  12.320 -0.4495 -0.9486  1.0231
  828MPD2    C312177   4.549   3.266  12.352 -0.4700  0.3111 -0.4167
  828MPD2    C412178   4.589   3.276  12.481 -0.2843  0.4403  0.2975
  828MPD2    C512179   4.502   3.318  12.578 -0.7684  0.2517  0.1108
  828MPD2     H12180   4.391   3.311  12.217 -1.6120 -0.4247  1.4037
  828MPD2    H112181   4.690   3.255  12.517 -0.9260 -2.0520  0.5929
  828MPD2    H212182   4.308   3.367  12.630 -0.3344  0.8865 -0.6761
  828MPD2    H312183   4.527   3.317  12.683 -0.6112  0.6258  0.0804
  828MPD2     N12184   4.645   3.223  12.258 -0.3955 -0.1776 -0.2262
  828MPD2    H512185   0.018   3.213  12.293 -0.1338  0.8421 -0.6573
  828MPD2    N112186   4.204   3.365  12.364 -0.2696 -0.4414  0.1943
  828MPD2    H712187   4.198   3.326  12.271 -0.9007 -0.8861  0.4211
  829MPD2     C12188   3.699   3.187  11.542  0.0487  0.0130  0.8370
  829MPD2    C112189   3.588   3.207  11.620  0.1654 -0.0255 -0.6105
  829MPD2    C212190   3.613   3.238  11.750 -0.3701  0.2688  0.2038
  829MPD2    C312191   3.742   3.254  11.804  0.2152  0.4989  0.0657
  829MPD2    C412192   3.845   3.227  11.715 -0.1042 -0.4039 -0.1961
  829MPD2    C512193   3.829   3.192  11.584 -0.1170  0.6498 -0.1953
  829MPD2     H12194   3.526   3.248  11.814 -0.7259 -1.9173  0.0799
  829MPD2    H112195   3.948   3.230  11.748 -0.7852  1.5881  1.8047
  829MPD2    H212196   3.701   3.156  11.438 -1.7299 -0.3449  0.9097
  829MPD2    H312197   3.914   3.172  11.519  1.2925 -0.0028  1.8494
  829MPD2     N12198   3.756   3.281  11.939  0.8616  0.2902  0.6208
  829MPD2    H512199   3.673   3.306  11.991  0.5338 -0.5704  0.5107
  829MPD2    N112200   3.452   3.208  11.570 -0.1987  0.0176 -0.1297
  829MPD2    H712201   3.448   3.213  11.469 -1.4993 -0.0977 -0.0853
  830MPD2     C12202   4.504   1.529  15.837  0.3545 -0.1343 -0.1248
  830MPD2    C112203   4.410   1.527  15.735 -0.5073  0.1877 -0.9280
  830MPD2    C212204   4.445   1.582  15.613  0.0631  0.2158  0.1866
  830MPD2    C312205   4.561   1.664  15.616  0.2105 -0.6167 -0.3906
  830MPD2    C412206   4.648   1.663  15.720  0.3785 -0.2718  0.0066
  830MPD2    C512207   4.626   1.591  15.828  0.3001  0.0682  0.0717
  830MPD2     H12208   4.381   1.588  15.526  2.2126  1.1632 -1.3357
  830MPD2    H112209   0.012   1.729  15.724  1.8931 -2.2095 -0.3728
  830MPD2    H212210   4.489   1.480  15.933  0.6511 -2.9156 -1.5203
  830MPD2    H312211   4.696   1.579  15.909  0.2767 -1.1172 -0.0865
  830MPD2     N12212   4.596   1.751  15.509 -0.1744 -0.2506  0.2842
  830MPD2    H512213   4.648   1.833  15.539  1.9282 -1.4752  0.0112
  830MPD2    N112214   4.275   1.480  15.761  0.1401  0.7465  0.0542
  830MPD2    H712215   4.249   1.457  15.856 -0.1030 -0.2671 -0.2635
  831MPD2     C12216   4.230   3.629  16.458 -0.3074  0.3320 -0.0179
  831MPD2    C112217   4.253   3.516  16.374 -0.0929 -0.1404  0.3100
  831MPD2    C212218   4.157   3.417  16.372  0.1934  0.6511 -0.0901
  831MPD2    C312219   4.050   3.422  16.461  0.5067  0.1223 -0.3225
  831MPD2    C412220   4.048   3.523  16.553  0.1982 -0.6939  0.4248
  831MPD2    C512221   4.130   3.635  16.551  0.3432  0.2863 -0.3888
  831MPD2     H12222   4.174   3.323  16.321 -2.9304  1.0039 -1.7461
  831MPD2    H112223   3.971   3.521  16.629 -1.5530 -0.3542 -1.3292
  831MPD2    H212224   4.312   3.700  16.465 -0.7996  0.8273  0.6994
  831MPD2    H312225   4.118   3.705  16.632  0.2408  0.7524 -0.8063
  831MPD2     N12226   3.948   3.330  16.458  0.5521 -0.3074  0.2997
  831MPD2    H512227   3.882   3.333  16.536 -0.6260  1.0914 -0.7450
  831MPD2    N112228   4.372   3.507  16.292  0.0480  0.2641 -0.0563
  831MPD2    H712229   4.424   3.595  16.290  2.1054 -0.9105  2.5644
  832MPD2     C12230   2.620   4.399  17.134  1.1398  0.1399 -0.7447
  832MPD2    C112231   2.604   4.532  17.119  0.1719  0.9942 -0.0443
  832MPD2    C212232   2.502   4.579  17.036  0.4036 -0.5402  0.9049
  832MPD2    C312233   2.404   4.490  16.987 -0.7628 -0.6133 -0.0798
  832MPD2    C412234   2.421   4.352  17.015 -0.2017 -0.6103 -0.0512
  832MPD2    C512235   2.531   4.309  17.082  0.2999  0.7180 -0.2711
  832MPD2     H12236   2.486   4.686  17.030 -2.2512 -0.8399  2.8585
  832MPD2    H112237   2.359   4.271  16.979 -0.1859 -0.5009 -0.3290
  832MPD2    H212238   2.702   4.363  17.195 -0.2258 -1.2459  0.2885
  832MPD2    H312239   2.554   4.204  17.092 -1.4771  0.2009 -1.5009
  832MPD2     N12240   2.289   4.527  16.907  0.5838 -0.3594  0.1716
  832MPD2    H512241   2.231   4.453  16.868 -0.4040 -1.0694  2.9306
  832MPD2    N112242   2.699   4.615  17.180 -0.0281 -0.3694 -0.4525
  832MPD2    H712243   2.780   4.576  17.227 -0.9389 -1.2976  0.3276
  833MPD2     C12244   0.221   1.453  12.286 -1.4844  0.5424 -0.2389
  833MPD2    C112245   0.230   1.581  12.238  0.2448  0.0866  0.5684
  833MPD2    C212246   0.330   1.614  12.159 -0.3447  0.4389 -0.4607
  833MPD2    C312247   0.422   1.525  12.108 -0.4728 -0.8588  0.3120
  833MPD2    C412248   0.411   1.398  12.154 -0.5256 -0.7363  0.1341
  833MPD2    C512249   0.316   1.368  12.240  0.4291  0.3768  0.2871
  833MPD2     H12250   0.332   1.717  12.125 -3.1744  0.3263 -1.0171
  833MPD2    H112251   0.473   1.316  12.120  0.1759 -1.0343  2.1543
  833MPD2    H212252   0.141   1.417  12.349 -0.5271  2.4892  2.1237
  833MPD2    H312253   0.318   1.263  12.264  1.5304  0.4592  0.5523
  833MPD2     N12254   0.520   1.555  12.010  0.3979 -0.3520 -0.0809
  833MPD2    H512255   0.560   1.471  11.968  1.1675 -0.2655  0.4646
  833MPD2    N112256   0.119   1.658  12.280  0.2382 -0.0611 -0.1958
  833MPD2    H712257   0.053   1.621  12.347  0.9727 -1.1384 -0.0722
  834MPD2     C12258   0.622   0.831  11.668  0.2767  0.0431  0.2131
  834MPD2    C112259   0.598   0.898  11.548 -0.0818 -0.1523 -0.3441
  834MPD2    C212260   0.614   1.031  11.535 -0.1995 -0.5886 -0.2029
  834MPD2    C312261   0.632   1.107  11.648 -0.3695 -0.5732 -0.3015
  834MPD2    C412262   0.651   1.042  11.767 -0.0674 -0.0809 -0.3353
  834MPD2    C512263   0.652   0.904  11.785 -0.0105 -0.2181  0.0631
  834MPD2     H12264   0.604   1.088  11.444  1.6716 -0.6684 -0.4649
  834MPD2    H112265   0.668   1.107  11.852  2.0420 -1.6663  0.4497
  834MPD2    H212266   0.610   0.724  11.676  1.2507 -0.0985 -0.2025
  834MPD2    H312267   0.669   0.861  11.883 -1.8023 -0.5770  0.2263
  834MPD2     N12268   0.620   1.255  11.637  0.5080 -0.0885 -0.5876
  834MPD2    H512269   0.618   1.294  11.543 -0.9992 -1.2551 -1.0472
  834MPD2    N112270   0.569   0.820  11.436 -0.1681  0.3816  0.1922
  834MPD2    H712271   0.560   0.722  11.459  0.4648 -0.0285 -1.2831
  835MPD2     C12272   0.695   3.230  10.902 -0.6518  0.4476 -0.9606
  835MPD2    C112273   0.568   3.221  10.950  0.4109 -0.5132 -0.0150
  835MPD2    C212274   0.546   3.202  11.084 -0.5050  0.0844  0.1723
  835MPD2    C312275   0.652   3.196  11.174  0.3997  0.2146 -0.1701
  835MPD2    C412276   0.778   3.218  11.127  0.1346  0.4390 -0.1630
  835MPD2    C512277   0.801   3.239  10.993  0.1896  0.1470  0.0722
  835MPD2     H12278   0.444   3.183  11.118 -0.5256 -0.9656 -0.5076
  835MPD2    H112279   0.853   3.200  11.203 -0.8053 -1.6367  0.2787
  835MPD2    H212280   0.722   3.251  10.799 -0.2326 -0.4121 -1.0309
  835MPD2    H312281   0.905   3.252  10.964  0.1050 -2.0609 -1.2712
  835MPD2     N12282   0.646   3.171  11.315 -0.5760  0.2474 -0.5841
  835MPD2    H512283   0.721   3.196  11.378 -0.8946  3.4462 -1.4565
  835MPD2    N112284   0.456   3.237  10.867  0.3575  0.5588 -0.7821
  835MPD2    H712285   0.365   3.238  10.913  0.3875  2.9835 -0.7487
  836MPD2     C12286   4.655   3.301  11.443  0.5644  0.7903  0.0748
  836MPD2    C112287   0.004   3.334  11.557  0.2046  0.3755  0.0352
  836MPD2    C212288   4.659   3.391  11.666  0.1145 -0.0363 -0.4657
  836MPD2    C312289   4.521   3.419  11.643 -0.4972  0.4728 -0.1611
  836MPD2    C412290   4.452   3.382  11.525  0.1419 -0.6842 -1.0501
  836MPD2    C512291   4.524   3.339  11.423 -0.4285 -0.0163  0.0836
  836MPD2     H12292   4.700   3.404  11.765 -1.6627  0.0818  0.2544
  836MPD2    H112293   4.346   3.396  11.510  0.1112  2.1033  1.8823
  836MPD2    H212294   4.698   3.283  11.345 -0.8286  0.5226 -0.5012
  836MPD2    H312295   4.478   3.326  11.326  0.2249 -0.5995 -0.1485
  836MPD2     N12296   4.440   3.478  11.745  0.0355 -1.3479 -0.2976
  836MPD2    H512297   4.344   3.494  11.718  0.1043 -1.5819 -0.6760
  836MPD2    N112298   0.139   3.299  11.561  0.4521  0.3178 -0.5581
  836MPD2    H712299   0.169   3.230  11.493 -0.9711 -0.1003 -0.7828
  837MPD2     C12300   3.415   2.632  10.177  0.5395  0.1889  0.3563
  837MPD2    C112301   3.358   2.669  10.057 -0.2026  0.1846  0.9459
  837MPD2    C212302   3.384   2.787  10.001 -0.5127  0.3343  0.2967
  837MPD2    C312303   3.455   2.882  10.069  0.1087  0.1147 -0.2758
  837MPD2    C412304   3.505   2.856  10.196 -0.3079 -0.3904 -0.4520
  837MPD2    C512305   3.495   2.729  10.243  0.4588  0.0175  0.0330
  837MPD2     H12306   3.349   2.814   9.902  0.7102 -1.9256 -0.7505
  837MPD2    H112307   3.580   2.917  10.245 -0.0253  0.0405 -1.4335
  837MPD2    H212308   3.415   2.534  10.225  0.0403 -1.0403 -2.1349
  837MPD2    H312309   3.551   2.700  10.332 -3.9120 -1.1678  2.3784
  837MPD2     N12310   3.468   3.012  10.011  0.1891  0.5462 -0.8661
  837MPD2    H512311   3.431   3.014   9.916 -0.1509  3.2883 -0.6960
  837MPD2    N112312   3.265   2.585   9.985  0.5184  0.3872 -0.0875
  837MPD2    H712313   3.221   2.626   9.903 -2.1667  0.3124  1.3263
  838MPD2     C12314   1.475   1.428  11.160 -0.0996 -0.1725 -0.1482
  838MPD2    C112315   1.492   1.395  11.292 -0.2530 -0.6022 -0.4313
  838MPD2    C212316   1.399   1.304  11.346 -0.8854 -0.3288 -0.2698
  838MPD2    C312317   1.284   1.265  11.287 -0.3341 -0.0258  0.2430
  838MPD2    C412318   1.275   1.301  11.154  0.6879 -0.3992 -0.1776
  838MPD2    C512319   1.366   1.383  11.094  0.0638 -0.6423  0.1330
  838MPD2     H12320   1.400   1.276  11.451 -0.6985 -2.9655 -0.9714
  838MPD2    H112321   1.188   1.273  11.096  0.1676  1.8631 -0.4784
  838MPD2    H212322   1.534   1.498  11.103 -0.5736  0.6942  0.4212
  838MPD2    H312323   1.347   1.416  10.992 -0.8454  0.3360  0.6283
  838MPD2     N12324   1.201   1.182  11.360 -0.0985 -0.0352  0.0963
  838MPD2    H512325   1.217   1.172  11.460 -0.5029 -2.4208 -0.0635
  838MPD2    N112326   1.596   1.437  11.374 -0.0465  0.1792 -0.2008
  838MPD2    H712327   1.603   1.406  11.471 -0.0651 -0.6572 -0.4649
  839MPD2     C12328   1.375   0.886  11.636  0.2238 -0.1295 -0.0220
  839MPD2    C112329   1.416   0.882  11.503  0.3429  0.1783  0.4792
  839MPD2    C212330   1.521   0.963  11.463 -0.0100  0.0030  0.0723
  839MPD2    C312331   1.595   1.035  11.551 -0.1260 -0.0577  0.3257
  839MPD2    C412332   1.560   1.027  11.682 -0.0616 -0.2472  0.0352
  839MPD2    C512333   1.450   0.954  11.723 -0.5181  0.5793 -0.4094
  839MPD2     H12334   1.540   0.971  11.357 -0.9447 -2.3116 -0.2544
  839MPD2    H112335   1.603   1.087  11.761  1.9982 -0.9024 -0.5983
  839MPD2    H212336   1.297   0.825  11.680  0.0538  1.3184  1.7242
  839MPD2    H312337   1.429   0.958  11.829  0.6391  0.2841 -0.1716
  839MPD2     N12338   1.702   1.122  11.527 -0.1968  0.0168  0.2536
  839MPD2    H512339   1.733   1.182  11.602 -1.5402 -0.1883  0.9634
  839MPD2    N112340   1.338   0.809  11.402  0.2806 -0.4183 -0.1518
  839MPD2    H712341   1.364   0.816  11.304  1.4217 -0.2750  0.1532
  840MPD2     C12342   1.997   3.453  10.050 -0.2629  0.8291 -0.4781
  840MPD2    C112343   1.918   3.422  10.157 -0.1438  1.0378  0.1467
  840MPD2    C212344   1.928   3.498  10.271  0.4214  0.1758 -0.2882
  840MPD2    C312345   2.030   3.593  10.287 -0.1391 -0.8564  0.9386
  840MPD2    C412346   2.122   3.602  10.181  0.3151 -0.1714 -1.1862
  840MPD2    C512347   2.106   3.536  10.067 -0.6544  0.0092 -0.7519
  840MPD2     H12348   1.853   3.483  10.348 -0.0094 -0.2533 -0.7944
  840MPD2    H112349   2.206   3.671  10.189  0.1544 -0.1870  0.6972
  840MPD2    H212350   1.985   3.384   9.966 -0.5711 -0.4844  0.6413
  840MPD2    H312351   2.172   3.563   9.985  1.0567  0.9375  0.9174
  840MPD2     N12352   2.061   3.677  10.396 -0.2054 -0.0328  0.4186
  840MPD2    H512353   2.151   3.723  10.394 -1.2132  1.8337 -1.6164
  840MPD2    N112354   1.818   3.321  10.133  0.2149  0.3919 -0.0156
  840MPD2    H712355   1.807   3.286  10.038  2.6417  0.3054 -0.2577
  841MPD2     C12356   0.937   3.655  14.522  0.1696 -0.2821 -0.0902
  841MPD2    C112357   0.974   3.531  14.564  0.8289 -0.2186 -0.1825
  841MPD2    C212358   1.056   3.525  14.676 -0.3406 -0.8574  0.3460
  841MPD2    C312359   1.098   3.640  14.735  0.1852 -0.2337 -0.2591
  841MPD2    C412360   1.054   3.761  14.691 -0.0543 -0.1561 -0.6515
  841MPD2    C512361   0.960   3.770  14.593  0.2759  0.3626 -0.1236
  841MPD2     H12362   1.094   3.430  14.711  0.3664 -0.5601  0.3819
  841MPD2    H112363   1.075   3.856  14.739 -1.4090 -0.7944  1.2075
  841MPD2    H212364   0.880   3.678  14.433  1.5119  2.3667 -0.2396
  841MPD2    H312365   0.919   3.866  14.564  0.3040  1.4159  3.3382
  841MPD2     N12366   1.192   3.631  14.835 -0.0213 -0.2672  0.3312
  841MPD2    H512367   1.200   3.539  14.878  1.4876  0.0057  0.6391
  841MPD2    N112368   0.944   3.412  14.503  0.3598 -0.0860  0.6579
  841MPD2    H712369   0.984   3.324  14.532 -0.1715 -0.6752 -0.3651
  842MPD2     C12370   1.741   0.313  16.828 -0.1591  0.0351 -0.7517
  842MPD2    C112371   1.628   0.236  16.829  0.0808 -0.3461  0.7428
  842MPD2    C212372   1.608   0.143  16.926  0.5544 -0.0362  0.5827
  842MPD2    C312373   1.711   0.119  17.021  0.5584 -0.1653 -0.4576
  842MPD2    C412374   1.827   0.181  17.007  0.0032  0.0985 -0.1477
  842MPD2    C512375   1.842   0.289  16.917 -0.0312  0.5029  0.7860
  842MPD2     H12376   1.531   0.067  16.918  0.3259  0.4905 -2.2351
  842MPD2    H112377   1.900   0.165  17.085  1.1817 -0.7084 -1.4003
  842MPD2    H212378   1.747   0.402  16.766  1.5625  0.6544  0.2936
  842MPD2    H312379   1.929   0.353  16.929 -0.6082  1.2594  0.9922
  842MPD2     N12380   1.713   0.019  17.126  0.1009 -0.1834 -0.3251
  842MPD2    H512381   1.790   0.024  17.192 -0.6179  0.3744  0.4727
  842MPD2    N112382   1.535   0.267  16.732 -0.2488 -0.5188 -0.5537
  842MPD2    H712383   1.554   0.347  16.673  0.4721 -0.4664 -0.2512
  843MPD2     C12384   3.651   4.544   0.183  0.9485  0.0657  0.8911
  843MPD2    C112385   3.715   4.562   0.305  0.1232  0.1030  0.6089
  843MPD2    C212386   3.828   4.643   0.313 -0.3198 -0.3473 -0.0375
  843MPD2    C312387   3.877   4.702   0.190 -0.2173  0.2428  0.0582
  843MPD2    C412388   3.811   4.678   0.071  0.2802  0.6076  0.0936
  843MPD2    C512389   3.698   4.604   0.072 -0.6038  0.0669  0.1290
  843MPD2     H12390   3.875   4.675   0.405 -2.0281 -0.0559  0.7242
  843MPD2    H112391   3.836   0.000  17.664  0.4855 -0.0449 -0.1482
  843MPD2    H212392   3.561   4.484   0.173  1.8578 -1.2422  0.5332
  843MPD2    H312393   3.633   4.592  17.675  2.4113 -2.7776 -1.7435
  843MPD2     N12394   3.968   0.091   0.187  0.2589  0.1498 -0.0317
  843MPD2    H512395   3.984   0.132   0.096 -1.9071  2.9984  0.8531
  843MPD2    N112396   3.657   4.498   0.419  0.5597 -0.1801  0.6598
  843MPD2    H712397   3.571   4.447   0.401 -0.3044  1.9435 -1.2138
  844MPD2     C12398   1.996   3.752  16.387  0.3365  0.7765 -0.7051
  844MPD2    C112399   2.125   3.748  16.343 -0.6944 -0.4104 -0.4634
  844MPD2    C212400   2.206   3.854  16.381 -0.1270 -0.4974  0.8410
  844MPD2    C312401   2.160   3.968  16.446 -0.3648  0.1248 -0.5697
  844MPD2    C412402   2.033   3.966  16.495 -0.0382  0.3248  0.6678
  844MPD2    C512403   1.957   3.865  16.459  0.4370 -0.5987 -0.3247
  844MPD2     H12404   2.313   3.856  16.360 -0.4026 -1.5473 -0.6905
  844MPD2    H112405   1.983   4.039  16.557 -1.4226 -0.3307  0.3032
  844MPD2    H212406   1.931   3.669  16.360 -0.1205  0.4153  1.5510
  844MPD2    H312407   1.855   3.866  16.495  0.0782  1.4416 -1.3796
  844MPD2     N12408   2.257   4.062  16.482 -0.0543  0.8318  0.5570
  844MPD2    H512409   2.354   4.034  16.477 -0.8661 -1.5879 -1.8478
  844MPD2    N112410   2.181   3.651  16.257  0.8618 -0.3607  1.0257
  844MPD2    H712411   2.270   3.676  16.216 -1.2358  3.9101 -0.8975
  845MPD2     C12412   2.391   0.358  16.411 -0.5894  0.7462  0.4007
  845MPD2    C112413   2.416   0.315  16.535  0.2581  0.0884 -0.6114
  845MPD2    C212414   2.428   0.179  16.570 -0.0881  0.1537 -0.2889
  845MPD2    C312415   2.414   0.081  16.472  0.2386  0.1547  0.5393
  845MPD2    C412416   2.386   0.124  16.347 -0.4784 -0.3067  0.0538
  845MPD2    C512417   2.384   0.259  16.316 -0.0846 -0.4463 -0.2580
  845MPD2     H12418   2.436   0.158  16.677  3.2073  1.8954 -0.1852
  845MPD2    H112419   2.376   0.049  16.270 -0.5308  0.4258 -0.6511
  845MPD2    H212420   2.372   0.462  16.386 -2.0901  0.5725  0.8318
  845MPD2    H312421   2.348   0.294  16.219 -2.0507 -1.2538  0.1803
  845MPD2     N12422   2.419   4.660  16.490 -1.1618 -0.1883  0.2443
  845MPD2    H512423   2.399   4.604  16.409 -0.7387 -0.7543  0.5360
  845MPD2    N112424   2.431   0.427  16.629 -0.1044  0.4077  0.3538
  845MPD2    H712425   2.424   0.521  16.590  0.0735  0.0080 -0.6525
  846MPD2     C12426   3.981   0.695  13.526  0.2171 -0.2845 -0.3463
  846MPD2    C112427   3.973   0.828  13.549 -0.1685 -0.2342 -0.2740
  846MPD2    C212428   3.959   0.870  13.681  0.1551 -0.3105  0.2582
  846MPD2    C312429   3.984   0.780  13.782  1.0660  0.6651  0.3453
  846MPD2    C412430   3.985   0.643  13.754  0.4719 -0.0334  0.6321
  846MPD2    C512431   3.980   0.603  13.623  0.1113  0.1110 -0.2697
  846MPD2     H12432   3.975   0.973  13.712 -1.6270  0.0807 -0.1079
  846MPD2    H112433   3.998   0.571  13.834 -0.4847  0.1407  0.9475
  846MPD2    H212434   3.994   0.658  13.425 -1.7967  0.6491 -0.9566
  846MPD2    H312435   3.977   0.499  13.593 -1.5222 -0.2080  1.0134
  846MPD2     N12436   4.010   0.828  13.917 -0.9265 -0.4403  0.3632
  846MPD2    H512437   4.000   0.928  13.929 -2.3845 -0.6048  0.5484
  846MPD2    N112438   3.991   0.927  13.444 -0.5757  0.5806  0.3981
  846MPD2    H712439   4.009   1.023  13.473  1.5567  0.7092 -1.4197
  847MPD2     C12440   4.136   1.590  13.985 -0.0586  0.0048  0.9001
  847MPD2    C112441   4.175   1.673  14.088  0.3727 -0.4197  0.0917
  847MPD2    C212442   4.287   1.646  14.163 -0.0970 -0.0268  0.3149
  847MPD2    C312443   4.342   1.523  14.156 -0.7825 -0.0081  0.2099
  847MPD2    C412444   4.300   1.441  14.051 -0.5732 -0.3086  0.2762
  847MPD2    C512445   4.214   1.481  13.958 -0.0016  0.1642  0.2602
  847MPD2     H12446   4.323   1.716  14.238 -0.6424  0.4915  0.0817
  847MPD2    H112447   4.342   1.342  14.043 -0.9795  0.0231 -5.5803
  847MPD2    H212448   4.057   1.611  13.914 -0.8921 -0.5668  1.6602
  847MPD2    H312449   4.191   1.417  13.874 -0.0981  0.0178  0.3989
  847MPD2     N12450   4.445   1.490  14.245  0.0845  0.1222 -0.5814
  847MPD2    H512451   4.491   1.565  14.295  1.0593  0.5001 -2.0259
  847MPD2    N112452   4.114   1.796  14.120  0.9054  1.0189 -0.0651
  847MPD2    H712453   4.162   1.850  14.192  0.5877 -0.2740  1.1011
  848MPD2     C12454   2.040   4.627  16.180  0.0445  0.0990 -0.3986
  848MPD2    C112455   2.048   0.009  16.276  0.2865 -0.2778 -0.3263
  848MPD2    C212456   2.048   0.140  16.225  0.1639  0.2208 -0.3537
  848MPD2    C312457   2.060   0.171  16.087 -0.7213  0.6773  0.2829
  848MPD2    C412458   2.055   0.067  16.001 -0.0945 -0.2141 -0.6183
  848MPD2    C512459   2.047   4.659  16.048 -0.8873  0.0938 -0.5791
  848MPD2     H12460   2.024   0.222  16.292  0.4464  1.7594 -2.1289
  848MPD2    H112461   2.076   0.072  15.895  1.1771 -0.7863 -0.3854
  848MPD2    H212462   2.049   4.524  16.210  0.9612 -0.0411 -1.1663
  848MPD2    H312463   2.051   4.581  15.974  0.3698 -0.2994 -0.0948
  848MPD2     N12464   2.072   0.298  16.030  0.4314  0.3409  0.1997
  848MPD2    H512465   2.068   0.306  15.929 -4.4340 -0.6169  0.2897
  848MPD2    N112466   2.032   4.718  16.414  0.2453 -0.3644  0.0576
  848MPD2    H712467   2.050   0.077  16.474  1.8177 -1.8258  1.5406
  849MPD2     C12468   0.802   4.090  13.680 -0.3397 -0.2195  0.5286
  849MPD2    C112469   0.909   4.161  13.744 -0.3813  0.3715 -0.2232
  849MPD2    C212470   0.902   4.191  13.879  0.3836 -0.4054  0.2405
  849MPD2    C312471   0.800   4.145  13.956 -0.0754 -0.7335 -0.5652
  849MPD2    C412472   0.700   4.076  13.895 -0.6029  0.5434  0.4168
  849MPD2    C512473   0.699   4.054  13.758 -0.3401  0.4310  0.2020
  849MPD2     H12474   0.982   4.244  13.930  1.1104 -0.3712 -0.9497
  849MPD2    H112475   0.609   4.048  13.947 -0.5869 -2.1835 -1.0357
  849MPD2    H212476   0.796   4.083  13.572 -0.1132 -0.6498  0.5441
  849MPD2    H312477   0.616   4.011  13.703  1.9542 -3.4967 -0.1542
  849MPD2     N12478   0.812   4.136  14.095  0.3190  0.0978 -0.0862
  849MPD2    H512479   0.756   4.067  14.143  2.6414 -1.3097  0.6015
  849MPD2    N112480   1.015   4.189  13.667  0.1608 -0.7258  0.3029
  849MPD2    H712481   1.013   4.159  13.570  1.7287  0.6597 -0.1711
  850MPD2     C12482   4.135   2.596  14.575 -0.5975 -0.1672 -0.0883
  850MPD2    C112483   4.118   2.695  14.672  1.0752 -1.2084  0.2607
  850MPD2    C212484   4.230   2.734  14.751 -0.4716 -0.2364 -0.1753
  850MPD2    C312485   4.352   2.677  14.727  0.5065  0.9373 -0.4694
  850MPD2    C412486   4.369   2.584  14.627 -0.5064 -0.2173  0.4411
  850MPD2    C512487   4.259   2.546  14.555 -0.2658 -0.2964  0.2357
  850MPD2     H12488   4.220   2.816  14.820  0.5312  0.0234 -0.3443
  850MPD2    H112489   4.462   2.530  14.613 -0.4785 -0.1062  0.2163
  850MPD2    H212490   4.059   2.547  14.515  0.5461 -0.2433 -1.4594
  850MPD2    H312491   4.271   2.466  14.484  1.1390 -0.2442  0.4116
  850MPD2     N12492   4.459   2.684  14.815 -0.8329 -0.1024  0.6338
  850MPD2    H512493   4.544   2.640  14.783 -0.4124 -0.2291  1.9499
  850MPD2    N112494   3.985   2.740  14.692 -0.2848  0.2065 -0.3560
  850MPD2    H712495   3.926   2.715  14.614 -2.9870 -0.8147  1.9997
  851MPD2     C12496   4.440   2.646  15.414 -0.8652  0.2646 -0.7597
  851MPD2    C112497   4.363   2.577  15.326 -0.3587  0.1911 -0.6179
  851MPD2    C212498   4.399   2.449  15.298 -0.3713 -0.1405  0.2802
  851MPD2    C312499   4.524   2.406  15.342  0.0414  0.2835 -0.2260
  851MPD2    C412500   4.610   2.483  15.422 -0.2231  0.0070 -0.4142
  851MPD2    C512501   4.558   2.602  15.464 -0.6468 -0.1271  0.1483
  851MPD2     H12502   4.333   2.388  15.236 -1.5456 -1.4144  2.7886
  851MPD2    H112503   4.709   2.450  15.449 -0.2194  2.3213  2.2511
  851MPD2    H212504   4.414   2.746  15.446 -0.2340  0.5015 -0.9804
  851MPD2    H312505   4.608   2.668  15.534 -0.8330  1.8608 -1.5821
  851MPD2     N12506   4.556   2.272  15.297  0.0166  0.1553 -0.3083
  851MPD2    H512507   4.476   2.232  15.250  1.8551 -2.1493 -1.5504
  851MPD2    N112508   4.243   2.634  15.285 -0.1252  0.4072  0.3175
  851MPD2    H712509   4.203   2.706  15.344 -0.4033  1.2350 -0.8755
  852MPD2     C12510   4.218   4.371   9.536  0.0249 -0.2144 -0.0208
  852MPD2    C112511   4.211   4.407   9.668  0.4491  0.3516  0.1116
  852MPD2    C212512   4.315   4.479   9.717 -0.7618  0.4649 -0.7298
  852MPD2    C312513   4.435   4.494   9.645  0.4261 -0.2504  0.3566
  852MPD2    C412514   4.451   4.452   9.517 -0.2236 -0.0111  0.2820
  852MPD2    C512515   4.332   4.399   9.459 -0.3505  0.4414 -0.1581
  852MPD2     H12516   4.296   4.524   9.814  2.8454 -3.1353  1.7024
  852MPD2    H112517   4.541   4.461   9.458  0.4549 -2.8013  0.8918
  852MPD2    H212518   4.129   4.333   9.486 -0.5689  0.0964  0.8153
  852MPD2    H312519   4.327   4.379   9.352 -1.4661 -0.9579  0.1549
  852MPD2     N12520   4.544   4.546   9.726  0.2243  0.0629 -0.2674
  852MPD2    H512521   4.521   4.560   9.823 -1.0125 -1.0062 -0.4107
  852MPD2    N112522   4.098   4.384   9.748  0.9306  0.5593  0.1185
  852MPD2    H712523   4.102   4.415   9.845 -1.0636  1.4775 -0.0897
  853MPD2     C12524   0.932   4.545  11.967 -0.2766 -0.4974 -0.2812
  853MPD2    C112525   0.899   4.647  11.886  0.0656 -0.0667 -0.0940
  853MPD2    C212526   0.899   4.621  11.749 -0.1688  0.6343  0.5565
  853MPD2    C312527   0.926   4.491  11.698 -0.2059  0.3376  0.2436
  853MPD2    C412528   0.941   4.389  11.787  0.2672 -0.4119 -0.2605
  853MPD2    C512529   0.954   4.416  11.920  0.2352  0.1221 -0.1096
  853MPD2     H12530   0.865   4.700  11.682  2.9752  0.6159 -1.0309
  853MPD2    H112531   0.950   4.286  11.753  1.4247 -0.3681 -0.0988
  853MPD2    H212532   0.936   4.564  12.074  2.4595 -0.2318 -0.4283
  853MPD2    H312533   0.981   4.333  11.984  1.5770 -0.9450 -2.0568
  853MPD2     N12534   0.931   4.474  11.556 -0.1102 -0.4443 -0.0934
  853MPD2    H512535   0.954   4.380  11.524 -1.5457 -0.5094 -0.9712
  853MPD2    N112536   0.851   0.039  11.960 -0.1817 -0.4131  0.3196
  853MPD2    H712537   0.867   0.037  12.060  0.0801 -1.4694  0.2596
  854MPD2     C12538   2.631   0.274  12.881 -0.0394 -0.1876  0.5957
  854MPD2    C112539   2.678   0.368  12.967 -0.7273  0.1510  0.4367
  854MPD2    C212540   2.788   0.340  13.046 -0.2398  0.1563  0.3700
  854MPD2    C312541   2.838   0.216  13.049  0.1966 -0.8002  0.6175
  854MPD2    C412542   2.794   0.122  12.966  0.8183  0.3195 -0.2315
  854MPD2    C512543   2.694   0.154  12.875  0.2510  0.0588  0.3066
  854MPD2     H12544   2.835   0.417  13.106 -2.5589  2.6278 -0.9943
  854MPD2    H112545   2.829   0.020  12.975 -0.0020 -0.0312 -0.9394
  854MPD2    H212546   2.547   0.297  12.816  0.5713  0.0938 -0.0940
  854MPD2    H312547   2.656   0.085  12.801  4.2910  0.7814 -2.4124
  854MPD2     N12548   2.936   0.175  13.145 -0.0596 -0.0962  0.0339
  854MPD2    H512549   2.971   0.081  13.129  0.3009  0.3199 -1.6133
  854MPD2    N112550   2.610   0.495  12.969 -0.2168 -0.6869 -0.0162
  854MPD2    H712551   2.541   0.513  12.896 -0.5777 -3.4806 -0.3697
  855MPD2     C12552   3.356   0.507  14.031  0.0209 -0.3185 -0.0251
  855MPD2    C112553   3.394   0.383  13.996 -0.1749 -0.5499  0.0467
  855MPD2    C212554   3.383   0.343  13.863 -0.3075  0.4200 -0.1969
  855MPD2    C312555   3.326   0.417  13.765  0.5511  0.0463 -0.4749
  855MPD2    C412556   3.283   0.539  13.796  0.7064  0.5221 -0.0202
  855MPD2    C512557   3.303   0.584  13.928  0.4512  0.6010  0.2566
  855MPD2     H12558   3.429   0.245  13.860 -2.6441 -0.5887 -2.6745
  855MPD2    H112559   3.247   0.609  13.721  1.2468  1.8778  0.9820
  855MPD2    H212560   3.363   0.543  14.133  1.7879  0.4025 -0.4052
  855MPD2    H312561   3.280   0.687  13.952 -2.9477  0.1657 -1.2150
  855MPD2     N12562   3.300   0.371  13.634 -0.0348  0.6614 -0.0473
  855MPD2    H512563   3.269   0.449  13.577  0.3529  0.0548 -1.0707
  855MPD2    N112564   3.435   0.285  14.089  0.6441  0.2645  0.4521
  855MPD2    H712565   3.474   0.203  14.044 -0.9335 -0.9073  1.2135
  856MPD2     C12566   0.079   1.062  14.024 -0.1313  0.5399 -0.1186
  856MPD2    C112567   0.141   1.166  14.093  0.4767  0.6899  0.4007
  856MPD2    C212568   0.101   1.295  14.073 -0.6533 -0.0777  1.0612
  856MPD2    C312569   4.712   1.319  13.985 -0.6817  0.3128 -0.0183
  856MPD2    C412570   4.649   1.217  13.916  0.4128  0.0306  0.3249
  856MPD2    C512571   4.698   1.091  13.940  1.3124  0.3856 -0.5989
  856MPD2     H12572   0.155   1.378  14.117  2.9883 -1.4976 -0.7075
  856MPD2    H112573   4.569   1.225  13.843 -0.9905 -2.2161  1.5947
  856MPD2    H212574   0.112   0.959  14.030 -1.6521  0.0342 -0.6955
  856MPD2    H312575   4.643   1.008  13.900  3.6033 -0.0363 -2.8946
  856MPD2     N12576   4.666   1.451  13.960 -0.1232 -0.7586  0.5933
  856MPD2    H512577   4.602   1.467  13.882 -0.2884 -2.0967  0.4658
  856MPD2    N112578   0.237   1.125  14.180  0.9064  0.3622 -0.9087
  856MPD2    H712579   0.234   1.027  14.205 -2.6944  0.4096 -1.2549
  857MPD2     C12580   1.838   2.891  13.334  0.1467 -0.8465  0.6798
  857MPD2    C112581   1.927   2.923  13.233  0.2958 -0.0059  0.6715
  857MPD2    C212582   2.033   3.011  13.261  0.2143 -0.3123  1.0150
  857MPD2    C312583   2.031   3.076  13.385 -0.3826  0.1199 -0.2588
  857MPD2    C412584   1.942   3.033  13.483 -0.5535 -0.7723  0.3749
  857MPD2    C512585   1.844   2.947  13.452  0.1533 -0.1338  0.1791
  857MPD2     H12586   2.099   3.034  13.179 -0.0429 -0.6687  0.7099
  857MPD2    H112587   1.944   3.081  13.581 -1.8859  2.9200 -1.3896
  857MPD2    H212588   1.757   2.823  13.309  0.9555 -1.4296 -0.3632
  857MPD2    H312589   1.774   2.930  13.534 -0.0404  2.3535  0.5316
  857MPD2     N12590   2.132   3.175  13.404 -0.0514  0.1750 -0.1171
  857MPD2    H512591   2.182   3.216  13.325 -2.2113 -0.1007 -1.6374
  857MPD2    N112592   1.912   2.862  13.106 -0.5777 -0.3201 -0.5294
  857MPD2    H712593   1.825   2.809  13.103  0.1057 -1.6879  2.9279
  858MPD2     C12594   2.154   2.533  16.749 -0.5263 -0.5804  0.5408
  858MPD2    C112595   2.287   2.538  16.744 -0.6695  0.9996 -0.5264
  858MPD2    C212596   2.366   2.572  16.854  0.9192 -0.2008  0.1666
  858MPD2    C312597   2.308   2.580  16.983  0.6186 -0.7791 -0.3464
  858MPD2    C412598   2.174   2.575  16.990 -0.5362  0.1570  0.4763
  858MPD2    C512599   2.101   2.546  16.874 -0.0519  0.1757  0.7220
  858MPD2     H12600   2.473   2.571  16.844  1.0824 -2.5291  2.1579
  858MPD2    H112601   2.123   2.586  17.085  0.4962 -2.5441  1.3520
  858MPD2    H212602   2.093   2.500  16.666 -0.8543  0.9756  0.1698
  858MPD2    H312603   1.993   2.539  16.883 -0.0441 -0.0049  0.6640
  858MPD2     N12604   2.385   2.586  17.101 -0.2200  0.1291 -0.6728
  858MPD2    H512605   2.330   2.599  17.185 -0.5885 -0.4890 -0.8171
  858MPD2    N112606   2.346   2.492  16.620 -0.0905  0.3714 -0.1280
  858MPD2    H712607   2.281   2.455  16.551  0.8437 -1.6601  0.0815
  859MPD2     C12608   0.853   4.514  15.888 -0.6782 -0.6938 -0.2092
  859MPD2    C112609   0.981   4.486  15.836 -0.2953 -0.3384 -0.1589
  859MPD2    C212610   1.032   4.354  15.841 -0.1957 -0.4585  0.3647
  859MPD2    C312611   0.961   4.256  15.906 -0.1106  0.0311  0.5100
  859MPD2    C412612   0.833   4.287  15.954 -0.0783 -0.4275  0.0065
  859MPD2    C512613   0.777   4.416  15.943 -0.0072 -0.2946  0.2862
  859MPD2     H12614   1.124   4.334  15.787 -1.6600 -1.3468 -1.8275
  859MPD2    H112615   0.769   4.222  16.012  1.0253 -1.6579 -0.1779
  859MPD2    H212616   0.806   4.611  15.900  0.6671  0.0381 -0.8539
  859MPD2    H312617   0.675   4.434  15.974 -0.2380  0.5098 -0.9255
  859MPD2     N12618   1.014   4.132  15.937 -0.1811  0.0371 -0.0325
  859MPD2    H512619   0.959   4.079  16.004 -1.1415 -0.4658 -1.2356
  859MPD2    N112620   1.045   4.594  15.767  0.0208  0.3881 -0.1065
  859MPD2    H712621   0.992   4.673  15.730  0.0927  0.3262 -0.3410
  860MPD2     C12622   3.607   4.368  11.816  0.1924  0.4299  0.3055
  860MPD2    C112623   3.592   4.483  11.892  0.1844 -0.3065 -0.0357
  860MPD2    C212624   3.509   4.476  12.005 -0.9122  0.3915 -0.7847
  860MPD2    C312625   3.442   4.354  12.037  0.3280 -0.3771  0.2319
  860MPD2    C412626   3.468   4.235  11.970 -0.1255  0.4147  0.4276
  860MPD2    C512627   3.547   4.252  11.859 -0.1571 -0.4168  0.3192
  860MPD2     H12628   3.486   4.560  12.069 -0.2443 -1.4486  1.8800
  860MPD2    H112629   3.421   4.141  11.995  1.2707 -0.0022  1.4949
  860MPD2    H212630   3.641   4.370  11.714 -1.5973  1.8835 -0.2636
  860MPD2    H312631   3.547   4.165  11.794 -0.0380  0.9757 -1.5361
  860MPD2     N12632   3.369   4.364  12.154 -0.0829 -0.3039  0.0309
  860MPD2    H512633   3.372   4.445  12.215 -2.4627 -0.9113  0.9565
  860MPD2    N112634   3.649   4.610  11.855 -0.3965 -0.1788 -1.0316
  860MPD2    H712635   3.623   4.683  11.921 -0.0070 -1.2642  0.3349
  861MPD2     C12636   2.984   2.787  10.707 -0.2139  0.4711  0.5070
  861MPD2    C112637   2.869   2.793  10.782  0.8350 -0.3317 -0.3204
  861MPD2    C212638   2.761   2.855  10.717  0.6173  0.3491 -0.5747
  861MPD2    C312639   2.771   2.906  10.588 -0.5171 -0.9340  0.2391
  861MPD2    C412640   2.886   2.886  10.513 -0.5174  0.5644 -0.5455
  861MPD2    C512641   2.992   2.839  10.581  0.4170 -0.2962  0.2516
  861MPD2     H12642   2.668   2.852  10.772  0.0726 -1.9488 -1.6191
  861MPD2    H112643   2.910   2.932  10.417 -1.2329 -0.3672 -1.1685
  861MPD2    H212644   3.078   2.750  10.746  0.2948  0.2434 -0.9195
  861MPD2    H312645   3.083   2.821  10.525  2.3252  1.1062  2.9408
  861MPD2     N12646   2.674   2.988  10.531 -0.6656  0.0834 -0.3056
  861MPD2    H512647   2.686   3.002  10.431  0.8025  4.1003  0.4421
  861MPD2    N112648   2.851   2.733  10.908 -0.1801 -0.0171  0.0568
  861MPD2    H712649   2.758   2.731  10.948 -0.2708 -0.4236 -0.1719
  862MPD2     C12650   2.114   2.970  10.070  0.7532  0.1118 -0.7210
  862MPD2    C112651   2.199   2.928  10.176  0.0713  0.0601 -0.0762
  862MPD2    C212652   2.208   2.793  10.206 -0.0337  0.8951  0.0826
  862MPD2    C312653   2.138   2.695  10.154  0.2891  0.2752 -0.0212
  862MPD2    C412654   2.053   2.728  10.051 -0.0281  0.5927 -0.0061
  862MPD2    C512655   2.052   2.865  10.011  0.1365 -0.3662 -0.5078
  862MPD2     H12656   2.274   2.768  10.288 -1.8319 -1.9832  0.6407
  862MPD2    H112657   2.001   2.651   9.995  0.2248 -0.6644  1.4583
  862MPD2    H212658   2.103   3.072  10.037  1.2182  0.2737 -0.3662
  862MPD2    H312659   1.988   2.880   9.925 -1.5724  0.2198  0.8596
  862MPD2     N12660   2.152   2.559  10.172  0.1644  0.3413  0.0701
  862MPD2    H512661   2.094   2.490  10.125 -2.2107  0.5601  2.6514
  862MPD2    N112662   2.283   3.019  10.236 -0.7911 -0.2194 -0.2207
  862MPD2    H712663   2.352   2.981  10.301 -1.4016 -1.9921 -0.5973
  863MPD2     C12664   1.175   0.975  16.788  0.0726  0.1942 -0.0983
  863MPD2    C112665   1.098   1.015  16.895 -0.0398  0.3246  0.4183
  863MPD2    C212666   1.154   1.053  17.015 -0.4607 -0.3304 -0.2390
  863MPD2    C312667   1.292   1.075  17.021  0.3831  0.3463 -0.2110
  863MPD2    C412668   1.366   1.043  16.906 -0.0398  0.0826  0.2546
  863MPD2    C512669   1.310   0.988  16.793 -0.2828 -0.8866 -0.3107
  863MPD2     H12670   1.096   1.074  17.104  1.0559 -2.4466  1.2501
  863MPD2    H112671   1.471   1.069  16.914 -0.3964  1.6479 -0.1983
  863MPD2    H212672   1.130   0.933  16.699  1.1295 -2.2517  0.5259
  863MPD2    H312673   1.375   0.967  16.708 -0.2301 -0.7035 -0.3166
  863MPD2     N12674   1.348   1.134  17.136  0.5042 -0.2352  0.5500
  863MPD2    H512675   1.282   1.127  17.213 -1.4304  1.7274 -0.9225
  863MPD2    N112676   0.960   1.013  16.865 -0.4221  0.7099 -0.3542
  863MPD2    H712677   0.941   0.975  16.772  0.6330 -0.9160  0.0845
  864MPD2     C12678   1.349   2.722  17.219  0.5825 -0.1462  1.3324
  864MPD2    C112679   1.413   2.634  17.136  0.1950 -0.5122 -0.3256
  864MPD2    C212680   1.504   2.686  17.038  0.6119  0.0960  0.7218
  864MPD2    C312681   1.515   2.827  17.015  0.1772 -0.0639  0.1891
  864MPD2    C412682   1.444   2.907  17.105  0.3656  0.3071 -0.0116
  864MPD2    C512683   1.356   2.857  17.201 -0.0391 -0.2205 -0.3496
  864MPD2     H12684   1.555   2.622  16.967 -1.3884 -1.2952  0.5462
  864MPD2    H112685   1.446   3.014  17.088 -0.3017  0.3624  0.2520
  864MPD2    H212686   1.290   2.686  17.303 -0.8971  1.0181  0.8037
  864MPD2    H312687   1.306   2.930  17.265 -0.7569  1.9483 -3.3865
  864MPD2     N12688   1.579   2.881  16.904  0.1344 -0.1156  0.3320
  864MPD2    H512689   1.567   2.979  16.881  0.5435  0.0111  0.6679
  864MPD2    N112690   1.379   2.500  17.143 -0.4083 -0.0552  0.2697
  864MPD2    H712691   1.335   2.454  17.222  1.0251  1.8887  2.2000
  865MPD2     C12692   1.646   3.045  16.007  0.5296 -0.1925  0.5752
  865MPD2    C112693   1.660   2.967  16.119  0.3310  0.1056  0.1592
  865MPD2    C212694   1.635   3.016  16.243  0.6608 -0.4247  0.4776
  865MPD2    C312695   1.597   3.152  16.256  0.7497  0.0964 -1.0168
  865MPD2    C412696   1.570   3.226  16.138 -0.1004  0.2207 -0.3433
  865MPD2    C512697   1.601   3.171  16.020  0.6556  0.1281 -0.1034
  865MPD2     H12698   1.655   2.953  16.329 -1.7743 -1.3099  0.4019
  865MPD2    H112699   1.550   3.333  16.142 -0.5168  0.1708 -1.1206
  865MPD2    H212700   1.660   3.006  15.907 -2.1012 -1.3492  0.6427
  865MPD2    H312701   1.583   3.228  15.929  0.8307  1.5316  0.7400
  865MPD2     N12702   1.583   3.217  16.380 -0.0858  0.1813 -0.5784
  865MPD2    H512703   1.541   3.309  16.382  2.2592  1.1779  2.0216
  865MPD2    N112704   1.707   2.836  16.097  0.4136  0.5780 -0.2890
  865MPD2    H712705   1.721   2.808  16.000 -2.0057 -0.2029 -0.4090
  866MPD2     C12706   3.477   2.719  11.224  1.1761 -0.7620  0.1932
  866MPD2    C112707   3.487   2.795  11.111  0.0911  0.0723 -0.0005
  866MPD2    C212708   3.380   2.872  11.071 -1.2761  0.2270  0.0776
  866MPD2    C312709   3.261   2.867  11.148  0.0458 -0.1372  0.7431
  866MPD2    C412710   3.252   2.796  11.263 -0.1629  0.7761 -0.0747
  866MPD2    C512711   3.363   2.724  11.304  0.5322  0.2646  0.0951
  866MPD2     H12712   3.391   2.930  10.980 -2.5153 -0.2201 -0.3597
  866MPD2    H112713   3.162   2.795  11.324  0.6533  1.8033  1.1570
  866MPD2    H212714   3.566   2.671  11.264  0.3571 -2.8438 -0.4798
  866MPD2    H312715   3.376   2.662  11.392  1.9272  2.0399  1.1505
  866MPD2     N12716   3.147   2.946  11.131  0.0427 -0.1900 -0.2009
  866MPD2    H512717   3.076   2.942  11.204  0.6757  0.5821  0.4579
  866MPD2    N112718   3.613   2.796  11.045  0.3201 -0.3531 -0.3198
  866MPD2    H712719   3.688   2.748  11.094  0.3152 -0.3953 -0.3534
  867MPD2     C12720   1.124   2.104  16.897  0.2047 -0.3698 -0.1958
  867MPD2    C112721   1.092   2.102  17.026 -0.1695  0.3697  0.2321
  867MPD2    C212722   1.055   2.218  17.091 -0.0471  0.0246 -0.0685
  867MPD2    C312723   1.067   2.341  17.023 -0.1249 -0.1306  0.8020
  867MPD2    C412724   1.088   2.335  16.887  0.2598 -0.4823  1.0503
  867MPD2    C512725   1.107   2.218  16.821 -0.1351  0.0132  0.0891
  867MPD2     H12726   1.025   2.223  17.194 -2.6560 -2.6081 -0.7182
  867MPD2    H112727   1.090   2.428  16.831  2.6737 -1.1456  0.0588
  867MPD2    H212728   1.152   2.011  16.848 -0.8449 -2.2884  2.9000
  867MPD2    H312729   1.128   2.219  16.715  0.8645  1.1696  0.2994
  867MPD2     N12730   1.052   2.465  17.085 -0.5655  0.0135 -0.6217
  867MPD2    H512731   1.048   2.545  17.023  3.4105  0.6600 -0.0774
  867MPD2    N112732   1.085   1.979  17.105 -0.3499 -0.0970 -0.0634
  867MPD2    H712733   1.148   1.908  17.069 -0.0798  0.7382 -1.2318
  868MPD2     C12734   2.077   1.674  12.640  0.1679  0.2339 -1.1625
  868MPD2    C112735   2.061   1.584  12.744  0.0699  0.4585  0.6260
  868MPD2    C212736   1.962   1.488  12.737  0.1020  0.2296 -0.2422
  868MPD2    C312737   1.873   1.486  12.631 -0.1064 -0.9888  0.1555
  868MPD2    C412738   1.879   1.581  12.527  0.8838 -0.4343 -0.1775
  868MPD2    C512739   1.987   1.667  12.532  0.0168  0.5367  0.5450
  868MPD2     H12740   1.959   1.410  12.812  1.7254  1.2829  0.9177
  868MPD2    H112741   1.815   1.580  12.439 -0.3758 -0.4881  0.7341
  868MPD2    H212742   2.161   1.743  12.642  0.9892 -0.7860 -0.5978
  868MPD2    H312743   2.019   1.723  12.445  4.1914 -1.4867  0.8126
  868MPD2     N12744   1.776   1.390  12.640  0.5378 -0.1104 -0.8141
  868MPD2    H512745   1.774   1.336  12.726  3.7801 -2.7326 -2.3829
  868MPD2    N112746   2.168   1.580  12.841 -0.4005 -0.3315 -0.7036
  868MPD2    H712747   2.251   1.639  12.840 -1.0296  0.6832  5.0671
  869MPD2     C12748   4.030   0.339   2.354  0.2972  0.3752 -0.1408
  869MPD2    C112749   4.086   0.245   2.270  0.1638 -0.1559 -0.0928
  869MPD2    C212750   3.999   0.171   2.181 -0.0209 -0.1136 -0.2272
  869MPD2    C312751   3.861   0.193   2.188 -0.1527  0.5634 -0.1123
  869MPD2    C412752   3.811   0.281   2.286 -0.2694 -0.2340  0.0076
  869MPD2    C512753   3.895   0.351   2.363 -0.0613  0.5853 -0.5520
  869MPD2     H12754   4.034   0.083   2.128  2.7881 -0.1533  1.6913
  869MPD2    H112755   3.708   0.312   2.297  0.5713  1.7115  2.5218
  869MPD2    H212756   4.090   0.390   2.428  2.0042 -0.0686 -1.2079
  869MPD2    H312757   3.862   0.419   2.441 -1.4263 -2.0892  1.2011
  869MPD2     N12758   3.772   0.151   2.084  0.0410 -0.4009 -0.1150
  869MPD2    H512759   3.688   0.208   2.079  0.3459 -0.0240 -1.0040
  869MPD2    N112760   4.227   0.217   2.287 -0.1904 -0.7561 -0.2495
  869MPD2    H712761   4.281   0.278   2.348  0.2820 -1.0328 -0.4026
  870MPD2     C12762   3.629   3.595   2.137  0.4885 -0.1909 -0.1167
  870MPD2    C112763   3.580   3.520   2.031  0.4674 -0.2377 -0.0806
  870MPD2    C212764   3.525   3.582   1.923  0.3605  0.0344 -0.7602
  870MPD2    C312765   3.501   3.718   1.912 -0.4605  0.1250  0.3135
  870MPD2    C412766   3.558   3.793   2.017 -0.0135  0.2748  0.5042
  870MPD2    C512767   3.619   3.734   2.122 -0.4564  0.6064  0.0347
  870MPD2     H12768   3.467   3.530   1.847  1.5725  0.7725 -2.2084
  870MPD2    H112769   3.549   3.900   2.005  0.3901  0.1692 -0.7570
  870MPD2    H212770   3.683   3.555   2.223 -0.8874 -2.1713 -0.1718
  870MPD2    H312771   3.653   3.799   2.202  0.5157  0.4411 -0.2418
  870MPD2     N12772   3.426   3.769   1.799  0.0642 -0.7714 -0.2896
  870MPD2    H512773   3.394   3.703   1.729 -0.6161 -0.9767  0.2101
  870MPD2    N112774   3.566   3.382   2.046 -0.4413  0.2523 -0.7172
  870MPD2    H712775   3.608   3.344   2.131 -2.6399 -0.4719  0.0529
  871MPD2     C12776   4.064   2.978  16.336 -0.3305 -0.2149 -0.0709
  871MPD2    C112777   4.010   2.891  16.426 -0.0994  0.0423 -0.3961
  871MPD2    C212778   3.951   2.772  16.378 -0.0728 -0.6156  0.4058
  871MPD2    C312779   3.959   2.745  16.245  0.0684 -0.4145 -0.3384
  871MPD2    C412780   3.993   2.845  16.156 -0.3583 -0.1302  0.4925
  871MPD2    C512781   4.047   2.962  16.199  0.4519 -0.0658 -0.2094
  871MPD2     H12782   3.899   2.702  16.441 -1.2984 -1.2959 -1.3727
  871MPD2    H112783   3.999   2.829  16.049 -1.0066 -1.4385  0.6525
  871MPD2    H212784   4.126   3.061  16.366 -0.9927  0.8017 -1.5464
  871MPD2    H312785   4.085   3.040  16.134 -0.1532 -0.0426 -0.5426
  871MPD2     N12786   3.897   2.626  16.199  0.2889  0.3688  0.1393
  871MPD2    H512787   3.858   2.566  16.272  0.6528  0.1771  0.1743
  871MPD2    N112788   4.009   2.932  16.560 -0.8022  0.3533 -0.5764
  871MPD2    H712789   4.046   3.023  16.585  1.5084 -0.6877 -0.2708
  872MPD2     C12790   4.505   0.767  13.730 -0.0095 -0.6685 -0.3887
  872MPD2    C112791   4.599   0.706  13.806 -0.4325  0.3335  0.4985
  872MPD2    C212792   4.553   0.618  13.907  0.7326 -0.1118 -0.4062
  872MPD2    C312793   4.417   0.603  13.936 -0.1815 -0.5757  1.1685
  872MPD2    C412794   4.333   0.675  13.855  0.5757  0.3007  0.4430
  872MPD2    C512795   4.373   0.762  13.759 -0.2206  0.5348 -0.0532
  872MPD2     H12796   4.624   0.557  13.962  0.4772 -0.7277 -0.7696
  872MPD2    H112797   4.225   0.677  13.871  0.4279 -0.0381 -0.5030
  872MPD2    H212798   4.529   0.834  13.648  0.3897 -0.5495 -0.1730
  872MPD2    H312799   4.307   0.813  13.690 -1.2358 -0.2588  0.3278
  872MPD2     N12800   4.359   0.532  14.042  0.1826  0.1644 -0.1275
  872MPD2    H512801   4.258   0.532  14.053  0.2551  0.3223  0.5060
  872MPD2    N112802   0.020   0.717  13.793  0.9526 -0.3447  0.0386
  872MPD2    H712803   0.069   0.648  13.849  0.8270 -0.8406 -0.4570
  873MPD2     C12804   1.946   0.736   0.798  0.6717 -0.1217  0.4883
  873MPD2    C112805   1.938   0.693   0.933  0.7659 -0.8544 -0.5481
  873MPD2    C212806   1.946   0.560   0.955  0.0302 -0.0058  0.3657
  873MPD2    C312807   1.964   0.472   0.845 -0.2546  0.0377 -0.3563
  873MPD2    C412808   1.969   0.515   0.717  0.2434 -0.1660 -0.5516
  873MPD2    C512809   1.960   0.651   0.693  0.0494  0.3026  0.0315
  873MPD2     H12810   1.931   0.516   1.054  0.5977  2.0163  1.3538
  873MPD2    H112811   1.988   0.446   0.636  0.6142 -0.9273  0.1741
  873MPD2    H212812   1.942   0.842   0.775  0.9529 -0.6463 -1.9111
  873MPD2    H312813   1.972   0.683   0.590 -1.0844  0.1107 -0.1547
  873MPD2     N12814   1.980   0.331   0.862  0.1244  0.1747 -0.3808
  873MPD2    H512815   1.979   0.277   0.776  2.0098  1.7579 -1.3919
  873MPD2    N112816   1.914   0.782   1.038 -0.8279 -0.6404  0.0580
  873MPD2    H712817   1.893   0.877   1.008  1.1023  0.1535  1.1623
  874MPD2     C12818   1.256   0.595  16.007  0.9503 -0.2103 -0.3588
  874MPD2    C112819   1.340   0.559  16.110  0.2810 -0.2796 -0.0283
  874MPD2    C212820   1.480   0.567  16.084 -0.4099 -0.6518 -1.0221
  874MPD2    C312821   1.533   0.629  15.970  0.6113 -0.5267  0.4984
  874MPD2    C412822   1.449   0.665  15.869 -0.2098  0.1845  0.1709
  874MPD2    C512823   1.313   0.644  15.889  0.1641 -0.1722 -0.1260
  874MPD2     H12824   1.545   0.512  16.151 -2.4729  0.6467  2.0336
  874MPD2    H112825   1.490   0.705  15.777 -0.2051  1.5163  0.7607
  874MPD2    H212826   1.148   0.599  16.020  0.9908  0.0381 -0.0758
  874MPD2    H312827   1.245   0.670  15.808 -1.4648 -0.1976  1.2261
  874MPD2     N12828   1.672   0.640  15.964  0.8771 -0.8056 -0.1695
  874MPD2    H512829   1.720   0.606  16.047  0.4974  1.6553  1.0569
  874MPD2    N112830   1.287   0.535  16.234  0.0946 -0.2762 -0.1566
  874MPD2    H712831   1.189   0.511  16.238  0.2259 -0.8076 -0.1719
  875MPD2     C12832   2.349   3.104  14.644  0.0106  0.3655  0.6483
  875MPD2    C112833   2.317   3.239  14.622 -0.0803  0.1397  0.2884
  875MPD2    C212834   2.345   3.335  14.720  0.3030  0.7669  0.1554
  875MPD2    C312835   2.432   3.308  14.814 -0.8892  0.5296 -0.4391
  875MPD2    C412836   2.461   3.175  14.841  0.7355  0.6158  0.7723
  875MPD2    C512837   2.429   3.080  14.752 -0.7054 -0.1013 -0.1462
  875MPD2     H12838   2.316   3.439  14.705  0.0624  0.9369  1.8386
  875MPD2    H112839   2.540   3.151  14.912  0.1710  0.8344  1.4673
  875MPD2    H212840   2.302   3.025  14.586  4.5905 -0.6822 -1.5747
  875MPD2    H312841   2.468   2.979  14.760 -1.1572 -0.3407 -1.0373
  875MPD2     N12842   2.478   3.411  14.899  0.2998 -0.1358  0.1859
  875MPD2    H512843   2.546   3.384  14.969 -0.4737  4.7091  2.8063
  875MPD2    N112844   2.234   3.286  14.518 -0.1673 -0.1482  0.2500
  875MPD2    H712845   2.204   3.383  14.513  2.0294  0.4829 -1.0624
  876MPD2     C12846   1.235   0.237  16.052  0.7576  0.3335 -0.1161
  876MPD2    C112847   1.367   0.193  16.046 -0.1527  0.5468 -0.2566
  876MPD2    C212848   1.408   0.094  16.141 -0.7914  0.7484 -0.2666
  876MPD2    C312849   1.321   0.043  16.235 -0.4061  0.1031 -0.3031
  876MPD2    C412850   1.193   0.094  16.240  0.1083  0.1406 -0.6019
  876MPD2    C512851   1.153   0.195  16.153 -0.8623  0.6577  0.1707
  876MPD2     H12852   1.507   0.050  16.143 -0.2270  2.0130 -0.4716
  876MPD2    H112853   1.123   0.068  16.319  0.3641 -0.0325 -0.4306
  876MPD2    H212854   1.198   0.310  15.981  2.3536 -1.2570 -2.5652
  876MPD2    H312855   1.058   0.244  16.172 -0.2621  0.3174  3.8936
  876MPD2     N12856   1.363   4.666  16.322 -0.3975  0.5995  0.0687
  876MPD2    H512857   1.459   4.635  16.317 -0.6214 -0.1523  0.4518
  876MPD2    N112858   1.451   0.265  15.955  0.0700  0.3658  0.5084
  876MPD2    H712859   1.413   0.341  15.900 -1.7701 -0.6930  0.2941
  877MPD2     C12860   1.373   0.392  15.270 -0.3466 -0.2685 -0.2632
  877MPD2    C112861   1.514   0.411  15.270 -0.1310  0.1700  0.2668
  877MPD2    C212862   1.580   0.374  15.155  0.5949  0.5659 -0.8288
  877MPD2    C312863   1.511   0.339  15.041 -0.3951 -0.1446 -0.3200
  877MPD2    C412864   1.374   0.349  15.036 -0.9608 -0.2641  0.4818
  877MPD2    C512865   1.306   0.372  15.152  0.2843  0.0880  0.5765
  877MPD2     H12866   1.687   0.360  15.147  0.6120  1.1687 -1.5726
  877MPD2    H112867   1.303   0.323  14.958 -0.8835 -0.7196  0.5637
  877MPD2    H212868   1.316   0.401  15.361  0.3316 -0.9249  0.2322
  877MPD2    H312869   1.198   0.364  15.146  0.2871 -1.9065  3.2232
  877MPD2     N12870   1.571   0.283  14.927  0.3454 -1.1865  0.1080
  877MPD2    H512871   1.506   0.246  14.859 -1.2171 -1.5475  1.8133
  877MPD2    N112872   1.591   0.436  15.392  0.0152  0.1956 -0.0345
  877MPD2    H712873   1.690   0.419  15.379  0.0778  1.1409 -0.7689
  878MPD2     C12874   1.490   4.034  12.889  0.2482 -0.4154  0.0357
  878MPD2    C112875   1.535   4.146  12.956 -0.1020  0.1647  0.1618
  878MPD2    C212876   1.512   4.162  13.094 -0.6621 -0.1273 -0.0744
  878MPD2    C312877   1.428   4.074  13.164  0.1404 -0.5853 -0.4015
  878MPD2    C412878   1.384   3.966  13.092 -0.2758 -0.4232 -0.6823
  878MPD2    C512879   1.407   3.952  12.953 -0.1089 -1.4700 -0.2645
  878MPD2     H12880   1.563   4.242  13.146 -1.3972  1.0937 -1.2415
  878MPD2    H112881   1.324   3.888  13.137 -0.0163  0.3678  1.0611
  878MPD2    H212882   1.513   4.017  12.784 -1.8367 -1.1964 -0.3003
  878MPD2    H312883   1.377   3.866  12.894 -1.0143 -1.6443  0.4530
  878MPD2     N12884   1.411   4.077  13.305  0.3718  0.2202  0.0555
  878MPD2    H512885   1.468   4.150  13.346 -1.2608  1.1318  0.7084
  878MPD2    N112886   1.608   4.234  12.873  0.7527 -0.0399  0.6589
  878MPD2    H712887   1.635   4.219  12.777 -1.1521 -0.4689  0.1860
  879MPD2     C12888   1.931   1.479  16.993 -0.1946  0.1074 -0.2883
  879MPD2    C112889   1.968   1.461  17.123  0.4774 -0.1230  0.3646
  879MPD2    C212890   1.993   1.327  17.156  0.6672 -0.2725 -0.4704
  879MPD2    C312891   1.984   1.221  17.068  1.1444 -0.5635  0.5948
  879MPD2    C412892   1.935   1.243  16.944  0.2265 -0.1276  0.6867
  879MPD2    C512893   1.922   1.378  16.906 -0.3358 -0.6962 -0.6196
  879MPD2     H12894   2.012   1.304  17.260  5.1422 -0.9264 -1.4107
  879MPD2    H112895   1.924   1.169  16.866 -1.5508 -0.0145  0.8189
  879MPD2    H212896   1.918   1.578  16.951  2.9806  0.5478 -0.2367
  879MPD2    H312897   1.887   1.385  16.803  0.7561 -1.8099 -1.0651
  879MPD2     N12898   2.014   1.086  17.104 -0.1563 -0.5521 -0.2718
  879MPD2    H512899   2.003   1.017  17.030  0.4810 -0.8138 -0.1195
  879MPD2    N112900   1.975   1.570  17.217 -0.2279  0.0927 -0.6833
  879MPD2    H712901   1.958   1.661  17.177 -2.3369 -0.0598 -0.1545
  880MPD2     C12902   3.615   2.709   1.012  0.2974 -0.2097  0.3849
  880MPD2    C112903   3.691   2.784   0.921 -0.6209 -0.1851  0.6188
  880MPD2    C212904   3.785   2.720   0.853  0.6919  0.0058 -0.0767
  880MPD2    C312905   3.819   2.584   0.871  1.0120 -0.4117 -0.1180
  880MPD2    C412906   3.752   2.515   0.970 -0.5014  0.4605  0.1833
  880MPD2    C512907   3.646   2.576   1.036 -0.5581  0.2828 -0.0056
  880MPD2     H12908   3.829   2.778   0.772 -2.0977  1.5486 -0.4834
  880MPD2    H112909   3.778   2.415   1.003  1.3327  1.7660  2.7183
  880MPD2    H212910   3.540   2.749   1.078 -0.1192 -0.4459  0.0530
  880MPD2    H312911   3.596   2.528   1.119 -2.5180 -0.3313 -1.5487
  880MPD2     N12912   3.915   2.528   0.784 -0.7788  0.2431  0.0324
  880MPD2    H512913   3.950   2.604   0.726 -1.6972  0.5199 -0.1621
  880MPD2    N112914   3.664   2.918   0.890  0.5169  0.6557 -0.2060
  880MPD2    H712915   3.701   2.957   0.804 -1.6550 -0.1010 -1.4697
  881MPD2     C12916   3.298   2.851   0.160 -0.5184  0.0353  0.1476
  881MPD2    C112917   3.286   2.985   0.162  0.1385 -0.1940  0.2330
  881MPD2    C212918   3.321   3.050   0.278 -0.4459 -0.4262  0.4228
  881MPD2    C312919   3.349   2.973   0.393  0.5377 -0.6236 -0.9315
  881MPD2    C412920   3.360   2.835   0.390  0.7269 -0.2048 -0.0615
  881MPD2    C512921   3.330   2.777   0.268 -1.3121 -0.0316 -0.9650
  881MPD2     H12922   3.309   3.157   0.277 -0.0811 -0.3949 -0.8923
  881MPD2    H112923   3.394   2.775   0.474 -0.7228  0.9301  1.3063
  881MPD2    H212924   3.275   2.796   0.069 -0.1542  1.8872 -1.0612
  881MPD2    H312925   3.347   2.670   0.265  0.0836  0.1624 -0.1518
  881MPD2     N12926   3.383   3.035   0.516  0.1064  0.5726  0.1212
  881MPD2    H512927   3.424   2.975   0.587  0.2760  1.4183  0.7413
  881MPD2    N112928   3.273   3.045   0.031  1.0158 -0.3117 -0.4279
  881MPD2    H712929   3.246   2.990  17.638  4.4423 -1.3560 -0.8588
  882MPD2     C12930   1.480   0.062  14.133  0.2729  0.3273 -0.3892
  882MPD2    C112931   1.453   0.135  14.245  0.8985  0.1577 -0.6766
  882MPD2    C212932   1.338   0.206  14.262 -0.4907 -0.3719  0.4872
  882MPD2    C312933   1.243   0.203  14.161  0.1539 -0.3266 -0.9747
  882MPD2    C412934   1.277   0.142  14.040  0.3362  0.0484  0.0734
  882MPD2    C512935   1.391   0.070  14.026 -0.0824  0.7278  0.4350
  882MPD2     H12936   1.315   0.255  14.355 -0.6620  0.9331 -0.2452
  882MPD2    H112937   1.204   0.132  13.960 -0.9192  0.9882  1.1033
  882MPD2    H212938   1.570   0.001  14.132 -0.9218 -1.4542 -0.5497
  882MPD2    H312939   1.396   4.720  13.944  0.0879  1.8216 -0.5159
  882MPD2     N12940   1.119   0.263  14.171  0.2062 -1.0593 -0.1700
  882MPD2    H512941   1.059   0.269  14.089 -0.1372  0.2258  0.1889
  882MPD2    N112942   1.549   0.136  14.347 -0.3766 -0.2260 -0.3691
  882MPD2    H712943   1.626   0.070  14.349  1.2880  1.6416 -2.7216
  883MPD2     C12944   3.218   0.360  16.517 -0.2865 -0.7244 -0.3215
  883MPD2    C112945   3.323   0.408  16.437 -0.6312  0.2099  0.0045
  883MPD2    C212946   3.449   0.417  16.486  0.3198  1.0412  0.3719
  883MPD2    C312947   3.483   0.381  16.611  0.5298  0.3011 -0.2371
  883MPD2    C412948   3.379   0.336  16.693 -0.3230  0.3018 -0.2293
  883MPD2    C512949   3.249   0.334  16.648 -0.5390 -0.0350  0.1519
  883MPD2     H12950   3.524   0.433  16.410  0.4461 -0.0412  0.2645
  883MPD2    H112951   3.396   0.312  16.798  0.0834  3.8950  0.5384
  883MPD2    H212952   3.116   0.336  16.487 -0.5062 -2.4579  1.7611
  883MPD2    H312953   3.173   0.303  16.718  1.0493  1.3675  2.5103
  883MPD2     N12954   3.614   0.392  16.663  0.3056  0.3345 -0.1779
  883MPD2    H512955   3.689   0.415  16.598  0.2659  1.2983  0.1064
  883MPD2    N112956   3.303   0.442  16.301  0.6825  0.4002 -0.0053
  883MPD2    H712957   3.389   0.458  16.248  1.1480  0.1413  0.6776
  884MPD2     C12958   0.819   1.142  15.746 -0.2343 -0.5212 -0.0996
  884MPD2    C112959   0.803   1.266  15.696 -0.0195  0.7678  0.1702
  884MPD2    C212960   0.675   1.290  15.648 -0.6918  0.1539 -0.6779
  884MPD2    C312961   0.571   1.202  15.661  0.0912 -0.3420  0.4159
  884MPD2    C412962   0.589   1.072  15.702 -0.6243  0.1278 -0.1970
  884MPD2    C512963   0.712   1.051  15.759 -0.3892 -0.0952 -0.0632
  884MPD2     H12964   0.647   1.383  15.599 -0.8632  0.5407  0.1528
  884MPD2    H112965   0.509   1.000  15.716  0.0296 -0.2898  1.4679
  884MPD2    H212966   0.916   1.117  15.788  0.1684  0.1434 -0.6322
  884MPD2    H312967   0.734   0.966  15.822 -2.4892 -0.2101  0.5081
  884MPD2     N12968   0.443   1.245  15.606 -0.0028  0.6536 -0.2804
  884MPD2    H512969   0.429   1.336  15.564  1.3021  1.1692  0.3890
  884MPD2    N112970   0.903   1.368  15.683 -0.1135  0.3813 -0.2444
  884MPD2    H712971   0.868   1.451  15.635 -0.4180  0.5210  0.2118
  885MPD2     C12972   3.596   0.852  17.686 -0.4451 -0.2561  0.2387
  885MPD2    C112973   3.666   0.958   0.043  0.0956  0.3080 -0.3361
  885MPD2    C212974   3.684   1.067  17.643  0.8025 -0.5821  0.2508
  885MPD2    C312975   3.626   1.069  17.514  0.1214 -0.1393  0.2021
  885MPD2    C412976   3.562   0.946  17.477 -0.2370  0.1272  0.5814
  885MPD2    C512977   3.546   0.843  17.565  0.8251 -0.3445 -0.1120
  885MPD2     H12978   3.730   1.157  17.681 -0.9738  2.2121 -4.1747
  885MPD2    H112979   3.535   0.923  17.374 -1.5557 -0.7144  1.1075
  885MPD2    H212980   3.589   0.766   0.063  0.0326  0.5843  1.3991
  885MPD2    H312981   3.515   0.746  17.528  2.1879 -0.6037 -0.5678
  885MPD2     N12982   3.634   1.183  17.432  0.4004  0.6756  0.1529
  885MPD2    H512983   3.665   1.263  17.486  0.1490  0.0430  1.2252
  885MPD2    N112984   3.710   0.958   0.179 -0.1445  0.5480  0.8750
  885MPD2    H712985   3.691   0.876   0.237 -0.4258 -0.9574 -1.3358
  886MPD2     C12986   0.193   4.385  15.807  0.0654  0.4417 -0.1192
  886MPD2    C112987   0.204   4.403  15.670 -0.5785 -0.2700  0.7917
  886MPD2    C212988   0.174   4.524  15.605  0.8485  0.1343  0.0488
  886MPD2    C312989   0.152   4.633  15.688 -0.8903 -0.2756  0.3039
  886MPD2    C412990   0.172   4.621  15.826  0.1768  0.0652 -0.7088
  886MPD2    C512991   0.173   4.497  15.883  0.0128  0.0867 -0.0312
  886MPD2     H12992   0.170   4.537  15.498 -1.3789 -1.2086 -0.0267
  886MPD2    H112993   0.164   4.707  15.891 -0.9856 -0.5595 -0.0244
  886MPD2    H212994   0.216   4.292  15.858  1.1671 -0.0612 -1.5269
  886MPD2    H312995   0.177   4.497  15.991 -4.4765 -1.7824  0.1435
  886MPD2     N12996   0.147   0.043  15.640 -0.3380 -0.0795  0.6921
  886MPD2    H512997   0.195   0.114  15.695 -0.1139  0.0127  0.3774
  886MPD2    N112998   0.216   4.292  15.586  0.1811  0.0266 -0.3160
  886MPD2    H712999   0.210   4.309  15.486  0.7523 -0.7599 -0.4859
  887MPD2     C13000   0.726   4.441  15.341  0.0425  0.2910  0.2437
  887MPD2    C113001   0.630   4.416  15.437  0.1533 -0.6979  0.0654
  887MPD2    C213002   0.617   4.497  15.545  0.3208  0.6616  0.7632
  887MPD2    C313003   0.700   4.608  15.556  0.5982 -0.1857  0.5922
  887MPD2    C413004   0.793   4.632  15.454  0.4362  0.1408 -0.1676
  887MPD2    C513005   0.803   4.554  15.344 -0.5588  0.7082  0.1448
  887MPD2     H13006   0.557   4.465  15.629 -1.0096  1.0168 -0.0565
  887MPD2    H113007   0.868   4.710  15.452  0.1546  0.3807 -1.3358
  887MPD2    H213008   0.734   4.377  15.254  1.1675  3.0919 -1.7012
  887MPD2    H313009   0.868   4.566  15.259 -1.1716 -0.3792 -0.4762
  887MPD2     N13010   0.689   4.688  15.669  0.0859 -0.2238  0.7555
  887MPD2    H513011   0.604   4.673  15.722 -1.3114  0.1780 -1.3718
  887MPD2    N113012   0.543   4.306  15.420 -0.6990 -0.6221 -0.3029
  887MPD2    H713013   0.471   4.293  15.491 -1.1101  0.5542 -0.5146
  888MPD2     C13014   2.722   0.213  14.868  0.0429  0.0646  0.0244
  888MPD2    C113015   2.744   0.268  14.997  0.3648  0.6170  0.6634
  888MPD2    C213016   2.794   0.399  14.994  0.4716 -0.1016  0.0633
  888MPD2    C313017   2.822   0.469  14.880  0.5918 -0.0520 -1.3439
  888MPD2    C413018   2.811   0.406  14.759 -0.6035  0.5118 -0.5204
  888MPD2    C513019   2.763   0.282  14.754 -0.3496 -0.4375 -0.5223
  888MPD2     H13020   2.791   0.461  15.083 -1.3356 -0.5205  0.2795
  888MPD2    H113021   2.832   0.454  14.664 -0.7287 -0.4755 -1.0513
  888MPD2    H213022   2.699   0.107  14.858  3.5191 -0.4837 -2.2176
  888MPD2    H313023   2.762   0.233  14.657 -2.4923 -1.2234 -0.0926
  888MPD2     N13024   2.873   0.602  14.888 -0.6569  0.3490  0.2941
  888MPD2    H513025   2.885   0.630  14.985 -0.5854  3.7661 -0.6754
  888MPD2    N113026   2.713   0.194  15.116 -0.3023  0.2939 -0.1212
  888MPD2    H713027   2.739   0.235  15.205  1.0837  0.4541 -0.6028
  889MPD2     C13028   2.414   3.742  14.006  0.1721 -0.0460  0.3973
  889MPD2    C113029   2.447   3.784  13.884  0.0659  0.2044 -0.1056
  889MPD2    C213030   2.499   3.908  13.853  0.8265  0.4649 -0.1635
  889MPD2    C313031   2.508   4.000  13.953 -0.9343  0.8471 -0.5361
  889MPD2    C413032   2.481   3.961  14.085 -0.2470  0.1604  0.1211
  889MPD2    C513033   2.436   3.830  14.107 -0.4246 -0.5942 -0.4274
  889MPD2     H13034   2.527   3.945  13.755  0.4417 -1.8734 -1.1511
  889MPD2    H113035   2.489   4.033  14.166 -0.2269  0.7816 -0.4354
  889MPD2    H213036   2.381   3.642  14.030 -0.7091  0.2377  0.3670
  889MPD2    H313037   2.427   3.803  14.211 -0.4982 -2.2435 -0.8557
  889MPD2     N13038   2.561   4.128  13.918  0.1651  0.0373 -0.4941
  889MPD2    H513039   2.595   4.148  13.825  2.5610 -2.0028 -0.0734
  889MPD2    N113040   2.437   3.697  13.766 -0.3839 -0.1209  0.1981
  889MPD2    H713041   2.471   3.726  13.675 -3.4771  0.1393 -0.9035
  890MPD2     C13042   1.097   1.573  14.951  0.1141 -0.2913 -0.8836
  890MPD2    C113043   1.192   1.501  14.880 -0.0493  0.2359  0.3056
  890MPD2    C213044   1.192   1.364  14.889 -0.2638 -0.9153 -0.3814
  890MPD2    C313045   1.087   1.300  14.956  0.0798  1.2173  0.6029
  890MPD2    C413046   0.987   1.374  15.014  0.1841  0.6799  0.7155
  890MPD2    C513047   0.993   1.506  15.012 -0.4711 -0.3727 -0.2015
  890MPD2     H13048   1.269   1.301  14.846  1.7754  2.4155 -1.5709
  890MPD2    H113049   0.899   1.331  15.060  1.6998 -2.5486  0.5569
  890MPD2    H213050   1.099   1.681  14.941 -2.5002 -0.2221 -0.9087
  890MPD2    H313051   0.910   1.560  15.056  0.0808 -1.2956  1.9674
  890MPD2     N13052   1.087   1.158  14.960 -0.1839  0.8639 -0.1451
  890MPD2    H513053   1.170   1.112  14.924  0.3159  0.0827  1.9950
  890MPD2    N113054   1.297   1.575  14.815  0.3441  0.0430  0.7763
  890MPD2    H713055   1.303   1.677  14.820  0.4987  0.1250 -0.8008
  891MPD2     C13056   3.979   4.184  16.745  0.0786 -0.2724  1.3964
  891MPD2    C113057   3.974   4.305  16.816 -0.7821 -0.3378 -0.2572
  891MPD2    C213058   4.085   4.356  16.878 -0.3334  0.1601 -0.0083
  891MPD2    C313059   4.205   4.298  16.866  0.1330 -0.2365  0.6476
  891MPD2    C413060   4.211   4.172  16.800  0.8795 -0.4033 -0.4593
  891MPD2    C513061   4.097   4.108  16.751 -0.2107 -0.3500  0.7544
  891MPD2     H13062   4.077   4.454  16.924  0.0826  0.6574 -0.9942
  891MPD2    H113063   4.304   4.116  16.792  0.4145 -1.3022  0.4376
  891MPD2    H213064   3.885   4.154  16.700  1.8859  0.0505 -2.6012
  891MPD2    H313065   4.100   4.008  16.710  1.5260 -0.0824  0.2169
  891MPD2     N13066   4.313   4.363  16.916 -0.5236 -0.2751  0.6645
  891MPD2    H513067   4.299   4.453  16.960 -1.5389  0.5135 -1.2779
  891MPD2    N113068   3.854   4.374  16.816 -0.6866  0.9118 -0.2155
  891MPD2    H713069   3.782   4.354  16.748 -0.0789  1.3874 -1.0033
  892MPD2     C13070   0.736   0.569  15.001  0.6991  0.3486  0.1984
  892MPD2    C113071   0.639   0.629  14.909 -0.6667 -0.0578  0.1868
  892MPD2    C213072   0.678   0.636  14.772 -0.3482 -0.0967 -0.2741
  892MPD2    C313073   0.802   0.594  14.727  0.0195  0.1629 -0.4057
  892MPD2    C413074   0.898   0.559  14.824  0.3038  0.3946  1.0296
  892MPD2    C513075   0.857   0.532  14.952  0.8702  0.5204  0.2239
  892MPD2     H13076   0.606   0.682  14.705 -0.1796  1.8929  0.9177
  892MPD2    H113077   1.002   0.543  14.797 -0.0686 -0.2984 -0.0127
  892MPD2    H213078   0.718   0.561  15.108  0.5882 -1.4702  0.0370
  892MPD2    H313079   0.929   0.496  15.025 -0.6444  2.0573  2.4584
  892MPD2     N13080   0.831   0.568  14.591 -0.6255 -0.7250  0.2679
  892MPD2    H513081   0.922   0.523  14.580 -0.2948 -0.1964  0.7820
  892MPD2    N113082   0.513   0.687  14.936  0.0530 -0.4182 -0.3655
  892MPD2    H713083   0.475   0.732  14.853 -2.1366 -1.0216  0.3002
  893MPD2     C13084   4.449   3.424   2.248  0.3633 -0.5705  0.1011
  893MPD2    C113085   4.313   3.453   2.241 -0.5345 -0.2473 -0.1594
  893MPD2    C213086   4.219   3.358   2.274  0.3782 -0.0499 -0.2022
  893MPD2    C313087   4.262   3.231   2.314 -0.4755  0.4721 -0.3867
  893MPD2    C413088   4.400   3.206   2.322 -0.4369  0.4237 -0.4752
  893MPD2    C513089   4.490   3.298   2.287  0.8425  0.1233 -0.1225
  893MPD2     H13090   4.113   3.377   2.262  0.2127 -1.4327 -0.9660
  893MPD2    H113091   4.444   3.112   2.352 -0.5735  0.6107  0.3071
  893MPD2    H213092   4.521   3.503   2.233 -1.0175  0.6450 -0.1310
  893MPD2    H313093   4.594   3.270   2.287  0.5002 -1.1430  1.2291
  893MPD2     N13094   4.175   3.118   2.342  0.2138  0.5491 -0.0951
  893MPD2    H513095   4.224   3.029   2.344 -0.5094  0.1273 -0.8914
  893MPD2    N113096   4.279   3.583   2.208 -0.1885 -0.4197  0.3674
  893MPD2    H713097   4.355   3.647   2.188 -0.5431 -0.1007  0.0185
  894MPD2     C13098   0.334   1.301   1.833 -0.5166  0.2783 -0.4331
  894MPD2    C113099   0.437   1.394   1.816 -0.1397  0.0924  0.2601
  894MPD2    C213100   0.453   1.465   1.696 -0.4198  0.1460  0.2237
  894MPD2    C313101   0.370   1.446   1.592 -0.0473 -0.5717  0.5755
  894MPD2    C413102   0.266   1.353   1.609 -0.1312 -0.1168  0.6949
  894MPD2    C513103   0.247   1.282   1.730 -0.2432  0.6842 -0.1727
  894MPD2     H13104   0.538   1.532   1.687 -0.2466  0.0380  1.0340
  894MPD2    H113105   0.186   1.346   1.536  0.8236 -0.2324 -0.3340
  894MPD2    H213106   0.321   1.240   1.921 -0.5176  1.2045  0.2169
  894MPD2    H313107   0.158   1.220   1.734 -1.5022  2.5016  0.3593
  894MPD2     N13108   0.378   1.535   1.476  0.4332 -0.0711  0.2688
  894MPD2    H513109   0.449   1.605   1.495  0.0801  0.8833 -1.9280
  894MPD2    N113110   0.513   1.444   1.931 -0.2994  0.4197 -0.7552
  894MPD2    H713111   0.568   1.527   1.910 -0.2698  0.6071  0.0590
  895MPD2     C13112   0.081   4.476  13.586 -0.0423 -0.0705  0.3428
  895MPD2    C113113   0.098   4.589  13.513 -0.4998 -0.3620  0.4242
  895MPD2    C213114   0.181   4.589  13.408  0.1249  0.7066 -0.3030
  895MPD2    C313115   0.250   4.475  13.371  0.1047 -1.0492 -0.3945
  895MPD2    C413116   0.231   4.359  13.438  0.2230  0.0598 -0.0456
  895MPD2    C513117   0.156   4.367  13.546  0.1195 -0.0709  0.2346
  895MPD2     H13118   0.171   4.677  13.346 -1.2732 -1.1687 -2.7370
  895MPD2    H113119   0.283   4.267  13.414  3.8817  2.0692  0.1159
  895MPD2    H213120   0.013   4.462  13.669 -1.6890 -1.7377 -1.2767
  895MPD2    H313121   0.141   4.277  13.605 -1.6137  0.5580  0.7631
  895MPD2     N13122   0.330   4.480  13.258 -0.2623  0.7495 -0.0859
  895MPD2    H513123   0.367   4.391  13.226 -0.2635  0.8287 -0.3042
  895MPD2    N113124   0.034   4.714  13.542  0.2935 -0.7198  0.2519
  895MPD2    H713125   0.065   0.073  13.489 -0.8213  0.0323  0.7600
  896MPD2     C13126   2.576   2.004   1.247 -0.6503 -0.1919 -0.8407
  896MPD2    C113127   2.552   2.109   1.331  0.5157 -0.1928 -0.6082
  896MPD2    C213128   2.420   2.148   1.335  0.3057 -0.4654 -0.2125
  896MPD2    C313129   2.316   2.085   1.268 -0.4653 -0.4377 -0.1091
  896MPD2    C413130   2.345   1.980   1.188  0.1217  0.0396 -0.3030
  896MPD2    C513131   2.477   1.937   1.176  0.4275 -0.2122  0.2008
  896MPD2     H13132   2.400   2.248   1.371  0.3085 -0.5270 -0.0419
  896MPD2    H113133   2.269   1.935   1.126 -1.0009  2.0771 -0.4191
  896MPD2    H213134   2.671   1.952   1.262 -0.8681 -0.0436  1.1266
  896MPD2    H313135   2.501   1.852   1.114 -0.5048  1.0591 -1.9033
  896MPD2     N13136   2.179   2.110   1.291  0.5953  0.0152  0.2832
  896MPD2    H513137   2.109   2.067   1.232  0.9627 -1.9437  1.2911
  896MPD2    N113138   2.650   2.190   1.375  0.3117 -0.0363  0.1010
  896MPD2    H713139   2.745   2.167   1.348  1.2504  0.7866  2.6578
  897MPD2     C13140   3.485   3.430  10.405  0.0896  0.1365 -0.4032
  897MPD2    C113141   3.539   3.539  10.461 -0.2173  0.4764  0.1849
  897MPD2    C213142   3.451   3.637  10.500 -0.0212 -0.1513  0.3078
  897MPD2    C313143   3.317   3.627  10.486 -0.9218 -0.0782 -0.3176
  897MPD2    C413144   3.259   3.514  10.435 -0.6188 -0.1064 -0.0828
  897MPD2    C513145   3.350   3.420  10.402 -0.4473 -0.0617  0.0711
  897MPD2     H13146   3.484   3.715  10.569 -3.0064  2.0223 -0.7366
  897MPD2    H113147   3.153   3.491  10.433 -0.6814  0.2299 -0.5470
  897MPD2    H213148   3.553   3.353  10.371 -0.3114 -0.7667  0.8237
  897MPD2    H313149   3.316   3.333  10.347 -1.4962 -0.5841  1.5788
  897MPD2     N13150   3.235   3.723  10.540  0.1403 -0.5649  0.0271
  897MPD2    H513151   3.279   3.781  10.610 -0.1383 -0.2052 -0.0960
  897MPD2    N113152   3.679   3.548  10.477 -0.1581  0.1047  0.6475
  897MPD2    H713153   3.733   3.467  10.450 -1.8545  0.6062 -4.1670
  898MPD2     C13154   0.703   0.094   0.115 -0.2857  0.5542  0.8139
  898MPD2    C113155   0.800   0.198   0.114 -0.2286  0.1352 -0.2259
  898MPD2    C213156   0.782   0.311   0.035  0.6305  0.5852  0.0826
  898MPD2    C313157   0.675   0.322  17.638 -0.1596 -0.5577 -0.3992
  898MPD2    C413158   0.587   0.211  17.633 -0.4431 -0.7581  0.5309
  898MPD2    C513159   0.597   0.102   0.025 -0.0892 -0.5301  0.0242
  898MPD2     H13160   0.861   0.385   0.034  1.0088  0.1782 -0.2967
  898MPD2    H113161   0.502   0.208  17.566 -0.1702 -0.2631  0.1623
  898MPD2    H213162   0.705   0.001   0.171  0.0264 -0.2675 -0.5563
  898MPD2    H313163   0.531   0.018   0.007 -1.3809  0.2731  0.9823
  898MPD2     N13164   0.672   0.432  17.546  0.5547 -0.4155 -0.2001
  898MPD2    H513165   0.738   0.506  17.565  0.5428  0.0846 -2.0735
  898MPD2    N113166   0.931   0.192   0.174  0.3779  0.2808  0.3351
  898MPD2    H713167   0.991   0.272   0.159 -0.3682  0.4453 -1.7526
  899MPD2     C13168   1.483   0.699  17.572 -0.8007 -0.0438 -0.2936
  899MPD2    C113169   1.460   0.814  17.642 -0.0380 -0.7921  0.7298
  899MPD2    C213170   1.423   0.812   0.089  0.3883 -0.3782 -0.5180
  899MPD2    C313171   1.408   0.685   0.154 -0.3803  0.9407  0.3052
  899MPD2    C413172   1.423   0.572   0.077  0.9808  0.0807 -1.0982
  899MPD2    C513173   1.468   0.582  17.641  0.3444  0.4992  0.4738
  899MPD2     H13174   1.386   0.903   0.134  0.9919 -1.0028  1.2448
  899MPD2    H113175   1.416   0.475   0.126 -1.0266  0.4279 -0.6717
  899MPD2    H213176   1.509   0.694  17.467  2.4159 -1.0009  0.5371
  899MPD2    H313177   1.479   0.488  17.587 -2.6089  0.3513  0.1135
  899MPD2     N13178   1.376   0.672   0.292 -0.3497  0.5028 -0.0761
  899MPD2    H513179   1.367   0.579   0.332  3.2154 -1.5027 -3.8896
  899MPD2    N113180   1.482   0.932  17.568 -0.5433  0.2338 -0.2651
  899MPD2    H713181   1.511   0.919  17.472 -2.4075 -1.3936 -0.5999
  900MPD2     C13182   0.984   2.424  12.472  0.1605 -0.0285  0.1614
  900MPD2    C113183   0.923   2.326  12.403 -0.0248  0.3211  0.0479
  900MPD2    C213184   0.838   2.364  12.303  0.7519 -0.1708  0.5412
  900MPD2    C313185   0.828   2.496  12.257 -0.1717  0.3026  0.7073
  900MPD2    C413186   0.896   2.595  12.318  0.6040 -0.0113 -0.8755
  900MPD2    C513187   0.983   2.549  12.413 -0.9827 -0.0368  0.6193
  900MPD2     H13188   0.788   2.280  12.255  0.3447  0.1629  0.3771
  900MPD2    H113189   0.911   2.699  12.292  1.3694 -0.0073 -0.4125
  900MPD2    H213190   1.067   2.411  12.542  0.4717 -0.6176 -0.3127
  900MPD2    H313191   1.051   2.620  12.458 -0.3435  0.9695 -1.9791
  900MPD2     N13192   0.736   2.526  12.155 -0.2874 -0.2408 -0.2510
  900MPD2    H513193   0.684   2.446  12.121  0.7340 -1.0103 -0.0075
  900MPD2    N113194   0.957   2.194  12.429 -0.5103  0.0691 -0.3334
  900MPD2    H713195   1.036   2.175  12.491 -1.2321 -0.2917  0.4679
  901MPD2     C13196   0.772   1.126  12.369  0.6632 -0.6286 -0.1496
  901MPD2    C113197   0.899   1.129  12.429  0.6422  0.3165 -0.8128
  901MPD2    C213198   0.962   1.249  12.452  0.3535  0.1222 -0.5082
  901MPD2    C313199   0.902   1.369  12.414 -0.3138  0.6912 -0.3468
  901MPD2    C413200   0.783   1.364  12.342  0.5752  0.4174 -0.2259
  901MPD2    C513201   0.719   1.242  12.325 -0.0671 -0.1684  0.1917
  901MPD2     H13202   1.060   1.253  12.496  0.8913  0.1876 -1.6961
  901MPD2    H113203   0.733   1.449  12.298 -0.8439  0.3915  1.3407
  901MPD2    H213204   0.709   1.039  12.354  0.9617 -1.1550  1.6156
  901MPD2    H313205   0.627   1.228  12.269 -0.7295 -2.5490  1.8874
  901MPD2     N13206   0.969   1.487  12.430 -0.1387  0.3590 -0.5448
  901MPD2    H513207   1.068   1.476  12.450 -0.7528  1.3033  2.9549
  901MPD2    N113208   0.957   1.007  12.459  0.4204 -0.2195  0.1903
  901MPD2    H713209   0.910   0.929  12.414 -0.1965 -0.3990  1.1491
  902MPD2     C13210   0.284   0.202  12.745  0.5865 -0.3544  0.3199
  902MPD2    C113211   0.194   0.221  12.644 -0.2653  0.1070  1.1949
  902MPD2    C213212   0.185   0.116  12.552  0.2477  0.5356  0.0949
  902MPD2    C313213   0.240   4.711  12.584 -0.0642 -0.6027 -0.0304
  902MPD2    C413214   0.319   4.693  12.696 -0.1186 -0.0812  0.1894
  902MPD2    C513215   0.345   0.081  12.777 -0.4546  0.4817  0.7974
  902MPD2     H13216   0.127   0.130  12.461 -0.7455  0.0014  0.6550
  902MPD2    H113217   0.351   4.596  12.732 -2.2612 -0.9357 -0.1917
  902MPD2    H213218   0.313   0.286  12.807  1.2257 -1.2620  1.2485
  902MPD2    H313219   0.414   0.080  12.861  1.2260  0.6511 -0.5905
  902MPD2     N13220   0.209   4.595  12.508  0.0308  0.1031  0.1421
  902MPD2    H513221   0.266   4.512  12.523  0.4369  0.5313  0.9886
  902MPD2    N113222   0.129   0.342  12.640 -0.0546 -0.2971 -0.2591
  902MPD2    H713223   0.176   0.409  12.700  0.8506 -0.4475 -0.8067
  903MPD2     C13224   4.636   4.682  11.723 -0.5085 -0.3987 -0.4111
  903MPD2    C113225   4.578   4.649  11.847  0.4044 -0.2468 -0.5047
  903MPD2    C213226   4.450   4.694  11.875  0.9102  0.3041  0.1225
  903MPD2    C313227   4.385   0.046  11.775 -0.7717  0.2453 -0.3516
  903MPD2    C413228   4.443   0.079  11.651 -0.0245  0.8212  0.3762
  903MPD2    C513229   4.567   0.029  11.627  0.2726  0.1041  0.0256
  903MPD2     H13230   4.411   4.672  11.974 -0.8710 -0.0352 -0.6495
  903MPD2    H113231   4.386   0.147  11.589 -0.1953 -0.4896 -0.9097
  903MPD2    H213232   0.008   4.635  11.694 -0.2502  0.1402 -0.4476
  903MPD2    H313233   4.613   0.054  11.532 -0.2410 -0.5646 -0.4009
  903MPD2     N13234   4.251   0.087  11.810  0.0380  0.6972  0.2325
  903MPD2    H513235   4.217   0.057  11.900 -0.7451 -1.6142 -0.8365
  903MPD2    N113236   4.657   4.561  11.927 -0.3239 -0.1238 -0.3998
  903MPD2    H713237   0.031   4.556  11.894 -0.2724 -1.0573 -0.0922
  904MPD2     C13238   0.088   4.144  13.833  0.4688 -0.2310 -0.0658
  904MPD2    C113239   0.073   4.264  13.892 -0.1116  0.4027  0.0302
  904MPD2    C213240   0.182   4.341  13.927 -0.8895 -0.4541 -0.1064
  904MPD2    C313241   0.308   4.295  13.903 -1.0106  0.3736  0.3043
  904MPD2    C413242   0.324   4.173  13.844  0.1755 -0.0582 -0.6730
  904MPD2    C513243   0.215   4.094  13.807 -0.4129 -0.9411 -0.2271
  904MPD2     H13244   0.173   4.432  13.986 -0.2468 -0.2825 -0.2704
  904MPD2    H113245   0.424   4.135  13.826  0.2197  0.1918 -0.9499
  904MPD2    H213246   0.001   4.092  13.794  0.8602  0.0030 -1.2262
  904MPD2    H313247   0.236   3.999  13.759 -1.5869 -0.4847 -1.6241
  904MPD2     N13248   0.424   4.373  13.936  0.5623 -0.0859 -0.6547
  904MPD2    H513249   0.418   4.453  13.999 -2.3362 -1.4883  0.8580
  904MPD2    N113250   4.670   4.330  13.907 -0.3066  0.0799 -0.1923
  904MPD2    H713251   4.669   4.428  13.934  0.6267  0.3708 -1.1681
  905MPD2     C13252   4.341   0.035  13.322  0.1149 -0.0233 -0.4193
  905MPD2    C113253   4.408   4.640  13.353 -0.5469 -0.3726  0.5888
  905MPD2    C213254   4.504   4.594  13.269 -1.4201 -0.2378 -0.1464
  905MPD2    C313255   4.526   4.655  13.145 -0.0017  0.8999 -0.7131
  905MPD2    C413256   4.460   0.055  13.120 -0.0267  0.2592 -0.9202
  905MPD2    C513257   4.366   0.100  13.208  0.0184  0.0188  0.2559
  905MPD2     H13258   4.554   4.500  13.289  1.1354  0.5517 -2.9735
  905MPD2    H113259   4.469   0.113  13.029 -2.5978  2.1419  0.0292
  905MPD2    H213260   4.256   0.070  13.380 -0.4346  0.8455 -1.7210
  905MPD2    H313261   4.305   0.187  13.186  1.1297  1.1712  1.7531
  905MPD2     N13262   4.628   4.618  13.058  0.5234  0.1666  0.6269
  905MPD2    H513263   4.655   4.689  12.991  0.9940 -0.7081 -0.1120
  905MPD2    N113264   4.397   4.570  13.480 -0.2508 -0.4907 -0.1931
  905MPD2    H713265   4.460   4.495  13.508  0.5326  0.6443  1.1312
  906MPD2     C13266   1.842   3.862  11.218  0.3625  1.0982 -0.1390
  906MPD2    C113267   1.837   3.776  11.111 -0.5819  0.8304  0.2297
  906MPD2    C213268   1.787   3.652  11.136  0.2907 -0.1851  0.5310
  906MPD2    C313269   1.730   3.605  11.249 -0.4744  0.7121 -0.8941
  906MPD2    C413270   1.735   3.697  11.352 -0.0696 -0.4172 -0.2463
  906MPD2    C513271   1.796   3.816  11.334  0.3670 -0.3935  0.0959
  906MPD2     H13272   1.788   3.597  11.042  2.1309  4.2435 -2.0472
  906MPD2    H113273   1.681   3.670  11.443  2.4663 -2.0500  0.7600
  906MPD2    H213274   1.895   3.956  11.205  2.6214 -0.2982 -0.8963
  906MPD2    H313275   1.801   3.875  11.425 -1.6235  1.9558 -1.3378
  906MPD2     N13276   1.679   3.476  11.275 -0.4665  0.0950 -0.2913
  906MPD2    H513277   1.653   3.453  11.370 -1.0673  2.1296  0.0219
  906MPD2    N113278   1.884   3.804  10.980 -0.0373  0.2578  0.1985
  906MPD2    H713279   1.888   3.724  10.917 -0.3408  0.1675  0.2938
  907MPD2     C13280   0.428   3.221  15.770 -0.8273 -0.3245  0.1428
  907MPD2    C113281   0.485   3.097  15.737  0.4289 -0.2309 -0.5618
  907MPD2    C213282   0.568   3.042  15.836  0.6584 -0.0380 -0.5062
  907MPD2    C313283   0.598   3.106  15.955 -0.1090 -0.0929 -0.1177
  907MPD2    C413284   0.546   3.230  15.978  0.3356  0.3593  0.1412
  907MPD2    C513285   0.466   3.287  15.886 -0.0520  0.3129  0.0912
  907MPD2     H13286   0.620   2.950  15.810 -1.3828 -0.7155 -2.1694
  907MPD2    H113287   0.572   3.289  16.065 -1.1599  0.0107  0.8212
  907MPD2    H213288   0.379   3.283  15.696  0.2524  0.9310  0.4922
  907MPD2    H313289   0.436   3.390  15.902 -3.1042 -0.5296 -0.2565
  907MPD2     N13290   0.681   3.039  16.048  0.4514  0.5772 -0.6073
  907MPD2    H513291   0.715   2.949  16.016 -0.8091 -0.2585  0.3895
  907MPD2    N113292   0.463   3.029  15.613  0.1401 -0.6845  0.5476
  907MPD2    H713293   0.501   2.936  15.606 -0.2452 -0.6932 -1.3618
  908MPD2     C13294   4.030   3.528   9.736 -0.0064 -0.2866  0.8265
  908MPD2    C113295   3.976   3.425   9.811 -1.0031  0.5950  0.0555
  908MPD2    C213296   3.990   3.418   9.956 -0.0906 -0.2112 -0.2861
  908MPD2    C313297   4.052   3.523  10.018 -0.6913  0.2648 -1.1159
  908MPD2    C413298   4.098   3.630   9.942 -0.2238 -0.5265  0.0331
  908MPD2    C513299   4.101   3.623   9.802  0.4110 -0.7375  0.1664
  908MPD2     H13300   3.933   3.351  10.020 -0.9607  1.3643  0.5888
  908MPD2    H113301   4.151   3.707   9.996 -0.4665 -0.7320  0.5696
  908MPD2    H213302   4.006   3.532   9.630 -0.7173  0.9728  1.0336
  908MPD2    H313303   4.151   3.702   9.747  0.7793 -0.6784  0.5848
  908MPD2     N13304   4.061   3.518  10.158 -0.5434 -0.0171 -0.2899
  908MPD2    H513305   4.001   3.448  10.202 -0.2817  0.5350  0.9355
  908MPD2    N113306   3.911   3.324   9.736  0.5895  0.1882  0.0022
  908MPD2    H713307   3.916   3.341   9.636 -0.7314 -1.2136 -0.3046
  909MPD2     C13308   3.884   1.359  11.606  0.1922  0.2146 -0.3211
  909MPD2    C113309   3.883   1.472  11.528  0.4167  0.3091 -0.3230
  909MPD2    C213310   3.817   1.579  11.584 -0.7709 -0.7328 -0.0750
  909MPD2    C313311   3.751   1.578  11.703  0.2283 -0.1375  0.4001
  909MPD2    C413312   3.763   1.477  11.786  0.1985  0.0894  0.5291
  909MPD2    C513313   3.829   1.369  11.731  0.4244  0.5199 -0.2566
  909MPD2     H13314   3.826   1.673  11.531 -1.1728 -0.0566  1.0759
  909MPD2    H113315   3.721   1.468  11.886 -1.1600  1.5666  0.0976
  909MPD2    H213316   3.942   1.276  11.569 -0.0501 -0.2906  0.4517
  909MPD2    H313317   3.836   1.285  11.798 -0.6931  1.5820  1.1839
  909MPD2     N13318   3.690   1.698  11.745  0.7917 -0.0444  0.7838
  909MPD2    H513319   3.699   1.772  11.676  0.0286  0.3291  1.0801
  909MPD2    N113320   3.926   1.493  11.399  0.0157  0.1196  0.8084
  909MPD2    H713321   3.896   1.576  11.348  0.3742 -0.1593  0.1380
  910MPD2     C13322   0.156   3.608  16.127 -0.0103  0.1388  0.3945
  910MPD2    C113323   0.197   3.504  16.053  0.2201  0.4078  1.1095
  910MPD2    C213324   0.173   3.510  15.916  0.1627  0.1808 -0.1264
  910MPD2    C313325   0.105   3.612  15.859  0.1933  0.0421 -0.2173
  910MPD2    C413326   0.058   3.712  15.936 -0.3361 -0.4123  0.3076
  910MPD2    C513327   0.081   3.707  16.070 -0.1140 -0.1640  0.2793
  910MPD2     H13328   0.213   3.433  15.851  2.2557  1.9884 -0.9746
  910MPD2    H113329   4.720   3.794  15.897  0.9365  1.0715  1.4586
  910MPD2    H213330   0.172   3.627  16.233  2.0877  1.3207 -0.1414
  910MPD2    H313331   0.052   3.793  16.128  0.5352 -0.1900  0.6431
  910MPD2     N13332   0.080   3.625  15.722 -0.0748 -0.1101 -0.7465
  910MPD2    H513333   0.035   3.712  15.695 -0.7682  0.5119  2.3649
  910MPD2    N113334   0.264   3.391  16.114 -0.2402  0.4095 -0.0324
  910MPD2    H713335   0.273   3.308  16.057  0.9210  0.8845 -0.5330
  911MPD2     C13336   2.667   4.007  16.358  0.0202 -0.0751  0.1112
  911MPD2    C113337   2.696   4.140  16.359 -0.2217 -0.2593  0.5065
  911MPD2    C213338   2.604   4.228  16.305  0.0039  0.1706  0.3616
  911MPD2    C313339   2.494   4.178  16.235 -0.0230  0.0033  0.8084
  911MPD2    C413340   2.472   4.038  16.237 -0.3450  0.1415  0.4296
  911MPD2    C513341   2.556   3.952  16.304 -0.3656  0.1143 -0.1006
  911MPD2     H13342   2.635   4.332  16.298  0.4920  0.0418  0.6157
  911MPD2    H113343   2.394   4.004  16.168  1.3855  0.1373 -1.5211
  911MPD2    H213344   2.740   3.934  16.392  0.3428  0.7491  1.1916
  911MPD2    H313345   2.553   3.846  16.285  0.3605 -0.0810  0.8643
  911MPD2     N13346   2.399   4.257  16.163  0.1852  0.1197 -0.2642
  911MPD2    H513347   2.333   4.205  16.106  1.9007 -3.2160  0.8178
  911MPD2    N113348   2.817   4.168  16.420 -0.5410 -0.1429 -0.1023
  911MPD2    H713349   2.869   4.084  16.442 -1.1139 -0.4874 -0.0761
  912MPD2     C13350   2.444   3.934  15.571  0.4317  0.7789 -0.0795
  912MPD2    C113351   2.392   3.961  15.697 -0.2318  0.2447  0.3475
  912MPD2    C213352   2.368   3.854  15.781  1.0892 -0.2251 -0.7481
  912MPD2    C313353   2.386   3.726  15.740 -0.0279  0.8953 -0.1740
  912MPD2    C413354   2.438   3.699  15.618  0.9366  0.0274  0.2809
  912MPD2    C513355   2.462   3.803  15.535 -0.2221  0.0620 -0.2012
  912MPD2     H13356   2.335   3.871  15.883 -3.7163  0.1525 -2.3692
  912MPD2    H113357   2.461   3.598  15.584 -4.2299 -1.0310 -0.0486
  912MPD2    H213358   2.472   4.006  15.495  2.4238 -2.1315 -2.0819
  912MPD2    H313359   2.503   3.794  15.435 -0.3095 -1.6630 -0.0949
  912MPD2     N13360   2.374   3.619  15.840 -0.6841 -0.5254 -0.8335
  912MPD2    H513361   2.342   3.645  15.933 -3.3098 -1.9059 -1.3589
  912MPD2    N113362   2.380   4.097  15.734  0.1166  0.5235  0.3925
  912MPD2    H713363   2.411   4.170  15.670  1.0312  1.5539  2.0004
  913MPD2     C13364   3.232   0.271  10.091 -0.0250 -0.5169 -0.2363
  913MPD2    C113365   3.348   0.325  10.145 -0.7401 -0.2775  0.2186
  913MPD2    C213366   3.393   0.433  10.076  1.1930 -0.2459  0.3638
  913MPD2    C313367   3.336   0.481   9.959  0.3277 -0.1782  0.2184
  913MPD2    C413368   3.220   0.423   9.909  0.6328  0.0980  0.4007
  913MPD2    C513369   3.171   0.316   9.978 -0.7818 -0.1184 -0.1244
  913MPD2     H13370   3.489   0.472  10.107  0.6896  0.5505  0.9436
  913MPD2    H113371   3.176   0.458   9.816  0.2500  2.5030  1.4647
  913MPD2    H213372   3.191   0.177  10.125 -0.8717 -0.3701 -0.8454
  913MPD2    H313373   3.077   0.268   9.952 -1.0903  0.6924 -0.4948
  913MPD2     N13374   3.391   0.588   9.882 -0.5614  0.0976  0.0439
  913MPD2    H513375   3.361   0.602   9.786 -1.7689  0.7967  0.5240
  913MPD2    N113376   3.425   0.246  10.233  0.2102 -0.5454 -1.0322
  913MPD2    H713377   3.380   0.159  10.261  1.5498 -0.5458  1.1499
  914MPD2     C13378   0.967   0.624  11.791  0.2000 -0.3466 -0.0301
  914MPD2    C113379   1.009   0.751  11.833  0.4877 -0.2643 -0.1449
  914MPD2    C213380   1.062   0.777  11.959 -0.3554 -1.2884 -0.3811
  914MPD2    C313381   1.086   0.670  12.038 -0.4581  0.0661 -0.2910
  914MPD2    C413382   1.060   0.542  11.997 -0.4699 -0.2646  0.8465
  914MPD2    C513383   1.000   0.516  11.872  0.2589  0.2496 -0.1810
  914MPD2     H13384   1.092   0.877  11.987 -2.0579  0.0068 -3.0909
  914MPD2    H113385   1.078   0.456  12.060  1.9244 -0.5331 -0.1688
  914MPD2    H213386   0.924   0.613  11.692  0.9229  1.6672 -0.5611
  914MPD2    H313387   0.978   0.411  11.852  1.8365  0.1234 -1.2288
  914MPD2     N13388   1.135   0.694  12.165 -0.3893 -0.5297 -0.3054
  914MPD2    H513389   1.155   0.791  12.185 -3.1011 -0.3093  1.3205
  914MPD2    N113390   1.000   0.855  11.738  0.0540  0.0422 -0.1081
  914MPD2    H713391   0.980   0.818  11.645  1.6709  0.0045 -0.4411
  915MPD2     C13392   3.912   1.158  15.748  0.2800 -0.1811 -0.3201
  915MPD2    C113393   3.824   1.220  15.666  0.8916 -0.1592 -0.2264
  915MPD2    C213394   3.757   1.334  15.717  0.1188 -0.3239 -0.1084
  915MPD2    C313395   3.785   1.385  15.838 -0.3679 -0.2982 -0.6247
  915MPD2    C413396   3.885   1.324  15.913  0.5412 -0.3720 -1.1604
  915MPD2    C513397   3.945   1.209  15.870 -0.6863  0.6813 -0.5004
  915MPD2     H13398   3.686   1.381  15.650 -0.7520  0.1708  1.1729
  915MPD2    H113399   3.924   1.351  16.011 -2.3874  0.7027 -0.2839
  915MPD2    H213400   3.963   1.067  15.720 -0.3300 -0.8393  0.6803
  915MPD2    H313401   4.023   1.163  15.929 -1.7174 -0.8386 -0.3323
  915MPD2     N13402   3.705   1.493  15.880  0.1922 -0.0684 -0.2187
  915MPD2    H513403   3.631   1.523  15.818 -0.2858  1.7518  1.2479
  915MPD2    N113404   3.790   1.155  15.543 -0.0338 -0.0348  0.0809
  915MPD2    H713405   3.833   1.064  15.529  1.9597  1.2928 -2.4948
  916MPD2     C13406   1.474   4.287  15.924 -0.3794 -0.6765 -0.4194
  916MPD2    C113407   1.504   4.198  16.024  0.1727  0.3279 -0.3856
  916MPD2    C213408   1.587   4.092  15.999 -0.3567 -0.6312  0.1434
  916MPD2    C313409   1.651   4.074  15.877 -1.0426  0.2986  0.3050
  916MPD2    C413410   1.625   4.164  15.773  0.6003 -0.1061  0.1639
  916MPD2    C513411   1.530   4.270  15.800 -0.2008 -0.6699 -0.9818
  916MPD2     H13412   1.604   4.013  16.071  0.8853 -1.2194 -0.7923
  916MPD2    H113413   1.673   4.157  15.676  1.6339  1.4576  0.5605
  916MPD2    H213414   1.403   4.369  15.923 -0.7801 -1.0373 -1.2643
  916MPD2    H313415   1.492   4.337  15.724 -2.7326 -0.9399  0.0504
  916MPD2     N13416   1.740   3.964  15.869  0.5584  0.2173 -0.3981
  916MPD2    H513417   1.773   3.922  15.956 -0.8453  0.2640  0.1615
  916MPD2    N113418   1.446   4.230  16.149  0.8489  0.1275 -0.2956
  916MPD2    H713419   1.388   4.313  16.157  1.0493  0.3023 -0.6738
  917MPD2     C13420   2.686   1.234  10.812 -0.7221  0.1242 -0.1926
  917MPD2    C113421   2.696   1.331  10.917  0.0846 -0.0646 -0.8447
  917MPD2    C213422   2.784   1.432  10.902  0.1913  0.4990  0.6918
  917MPD2    C313423   2.870   1.446  10.790  0.5668  0.3329  0.4891
  917MPD2    C413424   2.852   1.354  10.686  0.0691  0.0518  0.9085
  917MPD2    C513425   2.770   1.253  10.705  0.4053  0.3922  0.3402
  917MPD2     H13426   2.791   1.504  10.983  1.0572  1.4274 -0.2031
  917MPD2    H113427   2.924   1.364  10.605 -2.0031 -1.7362 -1.1679
  917MPD2    H213428   2.617   1.150  10.813 -0.8277  0.2097 -0.3188
  917MPD2    H313429   2.758   1.179  10.626  0.0639 -0.8059  1.5158
  917MPD2     N13430   2.958   1.554  10.772 -0.2884  0.1257  0.2420
  917MPD2    H513431   2.987   1.566  10.676  0.2539 -0.9732  0.2663
  917MPD2    N113432   2.609   1.318  11.031  0.4340 -0.5431 -0.3219
  917MPD2    H713433   2.533   1.251  11.024 -0.8262  0.9174 -0.6472
  918MPD2     C13434   2.400   1.801  11.933 -0.0823 -0.3411  0.1952
  918MPD2    C113435   2.523   1.767  11.887  0.4378 -0.0101 -0.0008
  918MPD2    C213436   2.522   1.682  11.773 -0.3765  0.3819 -0.3229
  918MPD2    C313437   2.403   1.644  11.707  0.2232 -0.0148  0.9547
  918MPD2    C413438   2.284   1.677  11.760  0.0455  0.6683  0.0285
  918MPD2    C513439   2.288   1.751  11.874 -0.5664 -0.6500 -0.5663
  918MPD2     H13440   2.615   1.661  11.722  0.2912  1.9375  0.2538
  918MPD2    H113441   2.197   1.651  11.700  0.2036 -2.2874  1.1141
  918MPD2    H213442   2.378   1.862  12.019  0.1988 -0.6905  0.5122
  918MPD2    H313443   2.193   1.791  11.908  0.8277  0.4532  2.0856
  918MPD2     N13444   2.424   1.555  11.591  0.6382 -0.1813 -0.4341
  918MPD2    H513445   2.519   1.551  11.556  0.1172 -2.2772 -1.5821
  918MPD2    N113446   2.643   1.788  11.960  0.1194 -0.3950  0.1345
  918MPD2    H713447   2.733   1.750  11.933  0.5479 -0.5262  1.6964
  919MPD2     C13448   3.270   0.452  11.893  0.0263 -0.9576  0.5058
  919MPD2    C113449   3.252   0.339  11.805  0.9668  0.0543 -0.1086
  919MPD2    C213450   3.292   0.348  11.673  0.9140  0.0235  0.1888
  919MPD2    C313451   3.353   0.461  11.623  0.3940  0.2404 -0.6370
  919MPD2    C413452   3.369   0.570  11.697  0.1205  0.6743  0.0459
  919MPD2    C513453   3.313   0.567  11.828  0.2994  0.7736 -0.1815
  919MPD2     H13454   3.259   0.272  11.604  1.5857  0.1531 -0.2692
  919MPD2    H113455   3.403   0.661  11.649 -0.8408  0.8749 -0.2443
  919MPD2    H213456   3.252   0.454  12.000 -0.4364 -0.5744  0.4212
  919MPD2    H313457   3.329   0.660  11.882 -1.5905  0.3627  1.0905
  919MPD2     N13458   3.399   0.458  11.488 -0.0363  1.0790 -0.5451
  919MPD2    H513459   3.428   0.547  11.448 -0.7200  1.4269 -0.2703
  919MPD2    N113460   3.195   0.212  11.842  0.0886  0.2657 -0.6699
  919MPD2    H713461   3.187   0.144  11.766 -1.3221  0.3496 -0.5873
  920MPD2     C13462   3.282   0.931  10.618  0.1514  0.1245 -0.2508
  920MPD2    C113463   3.236   0.808  10.591  0.3059  0.1393  0.4739
  920MPD2    C213464   3.245   0.710  10.685 -0.1857 -0.1991  0.8622
  920MPD2    C313465   3.303   0.736  10.811 -0.5356 -0.9322  0.7716
  920MPD2    C413466   3.349   0.861  10.830  0.1488  0.0576 -0.3964
  920MPD2    C513467   3.323   0.958  10.738  0.3248  0.2469 -0.1071
  920MPD2     H13468   3.210   0.610  10.662  1.6098 -0.1566 -1.9248
  920MPD2    H113469   3.397   0.886  10.924 -0.1019 -2.4598  0.3899
  920MPD2    H213470   3.296   1.001  10.536 -0.6144 -2.2928 -2.4459
  920MPD2    H313471   3.353   1.061  10.753 -0.5995  0.6205 -0.8213
  920MPD2     N13472   3.321   0.634  10.905 -0.0136  0.2634  0.2999
  920MPD2    H513473   3.277   0.548  10.873 -0.3231 -0.2004  1.9865
  920MPD2    N113474   3.195   0.772  10.459 -0.2549 -0.5501  0.4352
  920MPD2    H713475   3.182   0.673  10.441 -0.9417 -0.6411  1.3895
  921MPD2     C13476   3.201   0.222  17.012 -0.5989 -0.5678 -0.0065
  921MPD2    C113477   3.288   0.121  17.021 -0.0001 -0.5856  0.7503
  921MPD2    C213478   3.248   4.715  16.969 -0.1139 -0.0147 -0.1303
  921MPD2    C313479   3.131   4.706  16.891  0.1040  0.1439  0.2346
  921MPD2    C413480   3.056   0.100  16.876 -0.0388  0.0859  0.2086
  921MPD2    C513481   3.088   0.214  16.952  0.6172  0.3613 -0.3035
  921MPD2     H13482   3.322   4.636  16.978  0.2181  0.2196 -0.8562
  921MPD2    H113483   2.960   0.093  16.827 -0.0687  1.2551  0.0888
  921MPD2    H213484   3.223   0.320  17.051  0.0451 -0.7303  0.0428
  921MPD2    H313485   3.014   0.293  16.954 -1.0015 -1.2138  1.9152
  921MPD2     N13486   3.097   4.596  16.811  0.1770  0.1413  0.4125
  921MPD2    H513487   3.015   4.604  16.752  0.6944 -0.3988 -0.3822
  921MPD2    N113488   3.411   0.148  17.083  0.2457  0.0788 -0.2883
  921MPD2    H713489   3.410   0.219  17.155 -0.3789 -0.3687  0.1419
  922MPD2     C13490   4.359   2.184  16.719  0.5624  0.3167  0.0180
  922MPD2    C113491   4.350   2.215  16.852 -0.3559 -0.5735 -0.2518
  922MPD2    C213492   4.245   2.153  16.929  0.2770 -0.4348  0.7893
  922MPD2    C313493   4.156   2.070  16.878  0.5358 -0.7470 -0.1495
  922MPD2    C413494   4.148   2.048  16.740 -0.2192  0.1613 -0.1543
  922MPD2    C513495   4.260   2.097  16.671 -0.0041 -0.9557 -0.0019
  922MPD2     H13496   4.233   2.180  17.033 -2.6991 -2.1656  0.9034
  922MPD2    H113497   4.080   1.974  16.700  1.7244 -0.3323 -2.5764
  922MPD2    H213498   4.423   2.240  16.654 -0.1792 -1.4450 -2.2249
  922MPD2    H313499   4.275   2.066  16.568 -0.2246 -0.5573 -0.1567
  922MPD2     N13500   4.058   2.009  16.965  0.0621 -0.8799 -1.0401
  922MPD2    H513501   4.052   2.035  17.064  0.8187  0.7753 -1.4264
  922MPD2    N113502   4.434   2.313  16.920 -0.4051 -0.9307 -0.2798
  922MPD2    H713503   4.409   2.325  17.018 -3.1869 -2.6735 -0.7841
  923MPD2     C13504   2.073   3.848   9.903 -0.3291 -0.3159  0.1270
  923MPD2    C113505   1.986   3.916   9.823  0.2588 -0.7414  0.0495
  923MPD2    C213506   2.008   4.051   9.816  0.6120  0.5936  0.4667
  923MPD2    C313507   2.108   4.117   9.893  0.1622  0.5752 -0.0293
  923MPD2    C413508   2.184   4.047   9.983  0.2614 -0.4953  0.2213
  923MPD2    C513509   2.161   3.918   9.985  0.0502  0.0531 -0.5607
  923MPD2     H13510   1.940   4.112   9.759 -1.3584 -0.5635  1.5752
  923MPD2    H113511   2.264   4.089  10.042  0.4632 -0.6381  0.0509
  923MPD2    H213512   2.055   3.741   9.910  2.7441 -0.7682  1.1252
  923MPD2    H313513   2.208   3.867  10.068  0.0597  1.6956  0.4538
  923MPD2     N13514   2.125   4.256   9.890 -0.0751 -0.2139  0.7939
  923MPD2    H513515   2.200   4.290   9.949  1.4119  0.1402 -1.2835
  923MPD2    N113516   1.908   3.845   9.726  0.6686  0.5408 -0.7934
  923MPD2    H713517   1.933   3.750   9.700 -0.1851  0.7791 -2.5218
  924MPD2     C13518   0.973   2.311  16.042 -0.1401  0.1557  0.2915
  924MPD2    C113519   0.940   2.338  16.177  0.1620  0.4727  0.0196
  924MPD2    C213520   0.970   2.469  16.212  0.6492  0.1856 -0.4078
  924MPD2    C313521   1.030   2.563  16.126  0.4633 -0.2714 -0.0624
  924MPD2    C413522   1.064   2.523  16.000 -0.0403 -0.2777  0.1278
  924MPD2    C513523   1.027   2.402  15.956 -0.9210  0.1056  0.2023
  924MPD2     H13524   0.950   2.513  16.310  0.7376  0.6613 -0.6065
  924MPD2    H113525   1.103   2.591  15.925 -1.6588 -1.4805 -1.7630
  924MPD2    H213526   0.956   2.218  15.990  2.7324  0.2916 -0.8538
  924MPD2    H313527   1.054   2.369  15.857 -2.0306  1.0435 -0.4008
  924MPD2     N13528   1.038   2.697  16.168 -0.6330 -0.4943  0.7173
  924MPD2    H513529   1.009   2.720  16.263  1.4619 -1.7178  1.6372
  924MPD2    N113530   0.881   2.239  16.263  0.8313  0.8313 -0.8195
  924MPD2    H713531   0.849   2.155  16.215  0.1321  0.6084  0.0522
  925MPD2     C13532   4.543   0.203  14.854 -0.1289 -0.2952 -0.5281
  925MPD2    C113533   4.409   0.219  14.833  0.2665  0.2682 -0.2254
  925MPD2    C213534   4.323   0.193  14.940 -0.0297 -0.0592  0.6747
  925MPD2    C313535   4.364   0.171  15.072 -0.7876  0.7026 -0.4050
  925MPD2    C413536   4.494   0.183  15.090 -0.1616 -0.1639 -0.0098
  925MPD2    C513537   4.583   0.187  14.984 -0.1151  0.5121 -0.2629
  925MPD2     H13538   4.215   0.197  14.938  0.0003 -0.6787 -1.5738
  925MPD2    H113539   4.534   0.177  15.190 -1.0834  1.9705  0.4846
  925MPD2    H213540   4.621   0.211  14.779  0.2436  0.9789 -0.0086
  925MPD2    H313541   4.688   0.202  15.007  0.2174 -1.4617 -0.4701
  925MPD2     N13542   4.284   0.154  15.189 -0.4522  0.3279 -0.1631
  925MPD2    H513543   4.324   0.150  15.283 -0.8289 -0.8600 -0.0480
  925MPD2    N113544   4.349   0.254  14.708 -0.7563  0.5498 -0.1068
  925MPD2    H713545   4.248   0.259  14.719 -0.8350  1.0350 -1.0928
  926MPD2     C13546   3.357   3.358  13.525  0.0477 -0.5346 -0.6910
  926MPD2    C113547   3.455   3.451  13.547  0.0963 -0.8066 -0.3736
  926MPD2    C213548   3.541   3.493  13.445  0.7356 -0.7662  0.1460
  926MPD2    C313549   3.528   3.447  13.313 -0.0114  0.1357  0.9301
  926MPD2    C413550   3.429   3.355  13.297 -0.6759  0.0607  0.2748
  926MPD2    C513551   3.353   3.301  13.399  0.4581 -0.4911  0.0582
  926MPD2     H13552   3.626   3.554  13.471  0.4170 -0.5848  0.7599
  926MPD2    H113553   3.413   3.303  13.203  0.9259  2.8004 -1.5028
  926MPD2    H213554   3.288   3.310  13.594 -1.8932  1.2008 -1.4377
  926MPD2    H313555   3.280   3.225  13.374  0.7819  0.4399 -3.6848
  926MPD2     N13556   3.612   3.486  13.204 -0.1278  0.3051  0.6791
  926MPD2    H513557   3.587   3.462  13.109  0.6645 -0.7583  0.7322
  926MPD2    N113558   3.486   3.507  13.673  0.5643  0.0244 -1.2463
  926MPD2    H713559   3.565   3.569  13.679  2.1389 -1.8811 -2.2251
  927MPD2     C13560   3.117   1.711   0.432  0.0655  0.3368 -0.3639
  927MPD2    C113561   3.082   1.580   0.470 -0.1878  0.1258  0.4027
  927MPD2    C213562   3.140   1.475   0.392 -0.1014 -1.1136 -0.2385
  927MPD2    C313563   3.225   1.498   0.274 -0.1002 -0.7619  0.1461
  927MPD2    C413564   3.241   1.631   0.242  0.7523  0.4829 -0.8695
  927MPD2    C513565   3.190   1.732   0.315 -0.4763  0.3248 -0.3839
  927MPD2     H13566   3.108   1.375   0.420 -1.3433 -0.7360 -0.3115
  927MPD2    H113567   3.302   1.653   0.155  0.5671 -0.0137 -1.1219
  927MPD2    H213568   3.075   1.798   0.481 -1.7536 -2.2738  2.6812
  927MPD2    H313569   3.209   1.835   0.287  2.7352 -0.1123  0.1949
  927MPD2     N13570   3.271   1.384   0.195  0.2260  0.0792  0.0267
  927MPD2    H513571   3.244   1.293   0.232  0.6281  0.3235  0.9182
  927MPD2    N113572   3.003   1.558   0.582 -0.0874 -0.0639  0.3932
  927MPD2    H713573   2.974   1.635   0.641 -1.5190 -1.1554  1.1352
  928MPD2     C13574   1.035   4.323   1.384  0.0652  0.2509 -0.1525
  928MPD2    C113575   1.112   4.438   1.410 -0.6524  0.5976 -0.1533
  928MPD2    C213576   1.224   4.457   1.322 -0.8193  0.0739  0.7554
  928MPD2    C313577   1.254   4.370   1.216  0.0790 -0.5259  0.3502
  928MPD2    C413578   1.172   4.263   1.201  0.0226  0.1738 -0.3750
  928MPD2    C513579   1.067   4.241   1.282  0.1943  0.0560 -0.1079
  928MPD2     H13580   1.282   4.547   1.342 -1.2893  1.3098 -3.5187
  928MPD2    H113581   1.192   4.190   1.123  0.8354  0.3724 -0.3463
  928MPD2    H213582   0.952   4.285   1.442 -1.4436 -0.2304 -2.6231
  928MPD2    H313583   1.009   4.149   1.275  0.7547 -0.2326 -0.9369
  928MPD2     N13584   1.338   4.417   1.110 -0.9101 -0.3117  0.4333
  928MPD2    H513585   1.348   4.358   1.028 -1.5474 -1.8240  1.4365
  928MPD2    N113586   1.088   4.528   1.516  0.1992  0.3855  0.5404
  928MPD2    H713587   1.140   4.614   1.523 -1.6530  1.5596 -0.1794
  929MPD2     C13588   1.750   3.768  10.179 -0.6329 -0.0637 -0.2113
  929MPD2    C113589   1.625   3.725  10.230 -0.0925 -0.1956 -0.5219
  929MPD2    C213590   1.509   3.771  10.164 -0.2887  0.1900 -0.1704
  929MPD2    C313591   1.515   3.869  10.062  0.1501 -0.0106 -0.3449
  929MPD2    C413592   1.644   3.913  10.026  0.2866  0.5324 -0.4469
  929MPD2    C513593   1.760   3.860  10.075  0.6721  0.0443  0.4002
  929MPD2     H13594   1.416   3.771  10.220  0.6389 -0.4438  1.3774
  929MPD2    H113595   1.659   3.994   9.956  0.8844  0.9825  0.2115
  929MPD2    H213596   1.839   3.725  10.223 -0.9988  1.2083  1.7983
  929MPD2    H313597   1.861   3.886  10.044  1.6943 -2.7026  1.3248
  929MPD2     N13598   1.405   3.928  10.005 -0.3388 -0.1795  0.6260
  929MPD2    H513599   1.417   4.012   9.948  0.8633 -0.1187  0.9666
  929MPD2    N113600   1.618   3.638  10.345  0.6402 -0.1949  0.2542
  929MPD2    H713601   1.702   3.628  10.401  0.1943  0.9259  1.1345
  930MPD2     C13602   2.716   1.579  14.059  0.3759 -0.1912  0.0469
  930MPD2    C113603   2.730   1.715  14.034 -0.3304  0.2263 -0.2676
  930MPD2    C213604   2.714   1.757  13.899 -0.2850 -0.0852 -0.3017
  930MPD2    C313605   2.702   1.666  13.797  0.2860  0.5742 -0.0581
  930MPD2    C413606   2.686   1.527  13.824 -0.2001 -0.3797  0.1952
  930MPD2    C513607   2.699   1.486  13.956  0.0642  1.4992  0.0935
  930MPD2     H13608   2.711   1.863  13.875  2.0712 -0.1045 -0.6590
  930MPD2    H113609   2.666   1.451  13.749  0.5018 -1.7453  1.4030
  930MPD2    H213610   2.724   1.547  14.162 -3.2454  0.2897  0.4871
  930MPD2    H313611   2.682   1.383  13.984 -0.5697  1.2219 -1.3049
  930MPD2     N13612   2.712   1.695  13.665  0.0603  0.8099 -0.2914
  930MPD2    H513613   2.730   1.613  13.607  1.2959  0.2816  0.8483
  930MPD2    N113614   2.765   1.803  14.139 -1.0619 -0.5160  0.1339
  930MPD2    H713615   2.775   1.766  14.233 -0.2447  0.7388  0.5314
  931MPD2     C13616   3.117   0.931   1.034 -0.9249 -0.4247  0.4975
  931MPD2    C113617   3.016   1.017   1.092 -0.6612  0.1067 -0.0076
  931MPD2    C213618   2.959   0.979   1.213  0.1520 -0.0775  0.0563
  931MPD2    C313619   3.006   0.864   1.269 -0.3030  0.3449  0.7687
  931MPD2    C413620   3.107   0.784   1.215  0.0325  0.2786  0.7107
  931MPD2    C513621   3.162   0.815   1.091  0.5289 -0.1828  0.2674
  931MPD2     H13622   2.871   1.032   1.246  0.1347  0.9321 -1.5945
  931MPD2    H113623   3.139   0.695   1.267  1.5566 -0.0223 -0.7413
  931MPD2    H213624   3.154   0.957   0.936 -2.7512 -0.1421 -0.1314
  931MPD2    H313625   3.228   0.745   1.041  1.8327 -0.0724  1.8315
  931MPD2     N13626   2.951   0.809   1.381 -0.0491  0.3106  0.6711
  931MPD2    H513627   2.990   0.721   1.413 -0.8380 -0.6245 -0.9120
  931MPD2    N113628   2.969   1.123   1.009  0.2539  0.5090 -0.6135
  931MPD2    H713629   3.005   1.126   0.914  3.1422 -0.8812  0.4501
  932MPD2     C13630   0.188   0.241  11.412  0.0903  0.7935 -0.0137
  932MPD2    C113631   0.242   0.236  11.284  0.6860  0.2734  0.2773
  932MPD2    C213632   0.262   0.110  11.230 -0.5945  0.3421 -0.2369
  932MPD2    C313633   0.250   4.716  11.311  0.4582  0.0276  0.2944
  932MPD2    C413634   0.189   0.009  11.440  0.5757 -0.1415 -0.5893
  932MPD2    C513635   0.161   0.134  11.489 -0.8538  0.0309  0.1139
  932MPD2     H13636   0.300   0.100  11.129  0.8204  3.1824 -0.0084
  932MPD2    H113637   0.175   4.647  11.508 -1.4965  1.0117  0.3766
  932MPD2    H213638   0.151   0.332  11.459 -1.7714  0.1659 -0.2497
  932MPD2    H313639   0.114   0.150  11.585  1.9731 -0.3548  1.5581
  932MPD2     N13640   0.284   4.594  11.267 -0.1218 -0.1623  0.0429
  932MPD2    H513641   0.277   4.526  11.341  1.5616  1.2305  1.5048
  932MPD2    N113642   0.293   0.350  11.204  0.1391 -0.2433 -0.1053
  932MPD2    H713643   0.332   0.331  11.113 -0.7878 -1.5535 -0.2325
  933MPD2     C13644   0.375   0.041   1.824  0.1648 -0.1408  0.4620
  933MPD2    C113645   0.476   0.119   1.775  0.3600 -0.6207  0.5778
  933MPD2    C213646   0.440   0.241   1.724 -0.0153 -0.0644 -0.7655
  933MPD2    C313647   0.307   0.284   1.721 -0.1922  0.0330 -0.0530
  933MPD2    C413648   0.211   0.193   1.754  0.0590  0.4401  0.3133
  933MPD2    C513649   0.240   0.073   1.807 -0.0919  0.0891 -0.1019
  933MPD2     H13650   0.516   0.308   1.684  0.9658 -0.9211 -0.3211
  933MPD2    H113651   0.109   0.218   1.729  0.3605 -0.2067 -1.5587
  933MPD2    H213652   0.408   4.667   1.863  0.7245  0.8272  2.3259
  933MPD2    H313653   0.158   0.006   1.829 -0.2089  0.4424  0.5563
  933MPD2     N13654   0.276   0.403   1.652 -0.3316 -0.2456  0.4210
  933MPD2    H513655   0.358   0.452   1.619 -0.6533 -0.7380 -1.0751
  933MPD2    N113656   0.605   0.057   1.770  0.3986 -0.3095 -0.2427
  933MPD2    H713657   0.610   4.694   1.826  2.7025  0.6317  0.9789
  934MPD2     C13658   1.411   1.829   2.465 -0.9426  0.1800 -0.3238
  934MPD2    C113659   1.399   1.931   2.365 -1.0466  0.2939 -0.1911
  934MPD2    C213660   1.361   1.898   2.236  0.4120  0.0176  1.0109
  934MPD2    C313661   1.341   1.771   2.195  0.2111  0.3161  0.2333
  934MPD2    C413662   1.358   1.671   2.288  0.4330  0.5595  0.1167
  934MPD2    C513663   1.393   1.697   2.422 -0.2495 -0.2692 -0.8598
  934MPD2     H13664   1.356   1.981   2.167  1.3135 -0.3315  0.5239
  934MPD2    H113665   1.348   1.567   2.258  0.7399  0.4251  0.4847
  934MPD2    H213666   1.436   1.851   2.568  1.7418  0.2564 -1.0048
  934MPD2    H313667   1.400   1.621   2.499 -0.6727  0.7085  0.1417
  934MPD2     N13668   1.304   1.738   2.064 -0.0389  0.2932 -0.1274
  934MPD2    H513669   1.325   1.642   2.038 -1.0105  0.5355 -1.8113
  934MPD2    N113670   1.427   2.067   2.390 -0.4482 -0.1314 -0.0053
  934MPD2    H713671   1.417   2.116   2.302 -0.1229 -0.5361 -0.2639
  935MPD2     C13672   1.988   1.335   1.731 -0.3491 -0.5237  0.7696
  935MPD2    C113673   1.933   1.381   1.614  0.5147  0.2210  0.7295
  935MPD2    C213674   1.812   1.451   1.626  0.4295 -0.1389  0.4855
  935MPD2    C313675   1.750   1.475   1.749  0.3436 -0.8658  0.2250
  935MPD2    C413676   1.806   1.432   1.863 -0.2725 -0.0729  0.1372
  935MPD2    C513677   1.931   1.373   1.853 -0.2338 -0.1639  0.3962
  935MPD2     H13678   1.772   1.491   1.533 -0.0969 -0.2416  0.6691
  935MPD2    H113679   1.763   1.436   1.962 -0.6061 -1.9989  0.0540
  935MPD2    H213680   2.077   1.274   1.743  0.7678  0.5012 -2.4093
  935MPD2    H313681   1.976   1.343   1.946  0.5746 -1.5898 -0.4572
  935MPD2     N13682   1.615   1.518   1.761  0.5424  0.4267  0.3391
  935MPD2    H513683   1.584   1.521   1.857  1.4434  1.4418  0.5874
  935MPD2    N113684   1.990   1.361   1.485  0.2542  0.1518  0.3463
  935MPD2    H713685   1.933   1.390   1.407 -0.6764  0.1728  1.0333
  936MPD2     C13686   0.551   3.006  12.682  0.5999 -0.0429 -0.4139
  936MPD2    C113687   0.566   3.128  12.745 -0.1579  0.1514 -1.2539
  936MPD2    C213688   0.490   3.231  12.696 -0.5391  0.2802  0.0714
  936MPD2    C313689   0.403   3.219  12.590  0.3726 -0.4791  0.0527
  936MPD2    C413690   0.383   3.098  12.526  0.3686  0.5923  0.9579
  936MPD2    C513691   0.461   2.993  12.577 -0.3125  0.0529 -0.1749
  936MPD2     H13692   0.485   3.333  12.732  1.3760  0.4347 -0.1424
  936MPD2    H113693   0.316   3.082  12.442 -0.4990 -2.0774  2.1634
  936MPD2    H213694   0.624   2.926  12.691 -1.5670 -1.9765  0.1430
  936MPD2    H313695   0.456   2.901  12.519  0.8180 -1.3441  1.9704
  936MPD2     N13696   0.332   3.342  12.560  0.6076  0.0868  0.2609
  936MPD2    H513697   0.364   3.426  12.608  0.2711 -0.2689  1.0904
  936MPD2    N113698   0.653   3.146  12.858 -0.0793  0.1065 -0.3180
  936MPD2    H713699   0.691   3.060  12.897  1.0343  1.6181  1.9725
  937MPD2     C13700   3.280   4.247  11.647  0.1794  0.2390 -0.3144
  937MPD2    C113701   3.284   4.384  11.635  0.8124 -0.4196 -0.1028
  937MPD2    C213702   3.395   4.442  11.570 -0.1861  0.0775 -0.0621
  937MPD2    C313703   3.477   4.352  11.501  0.1150 -0.5415  0.3699
  937MPD2    C413704   3.454   4.215  11.500 -0.9095 -0.1302 -0.2870
  937MPD2    C513705   3.362   4.163  11.580  0.3300  0.0495  0.3692
  937MPD2     H13706   3.410   4.549  11.569 -0.0050  0.0739  2.0261
  937MPD2    H113707   3.516   4.145  11.444  2.2332  0.9016  1.9412
  937MPD2    H213708   3.205   4.199  11.709  0.1928  1.1128  0.3729
  937MPD2    H313709   3.361   4.055  11.588  0.8610 -0.2122 -3.0966
  937MPD2     N13710   3.586   4.402  11.424  0.0422  0.0340 -0.1609
  937MPD2    H513711   3.583   4.502  11.412  3.5206  0.2641  0.7307
  937MPD2    N113712   3.212   4.468  11.727  0.5204 -0.3356 -0.5258
  937MPD2    H713713   3.221   4.568  11.717  1.6958 -0.5054 -1.1516
  938MPD2     C13714   0.555   1.520   0.935 -0.0319 -0.6528 -0.3023
  938MPD2    C113715   0.654   1.555   1.031 -0.5115  0.7053 -0.2607
  938MPD2    C213716   0.662   1.480   1.143  0.3141 -0.2039  0.5208
  938MPD2    C313717   0.563   1.378   1.167 -0.3113  0.5111  0.4708
  938MPD2    C413718   0.457   1.357   1.076  0.4195 -0.0789 -0.5087
  938MPD2    C513719   0.458   1.428   0.958  0.3462 -0.6333  0.5393
  938MPD2     H13720   0.741   1.499   1.214  0.8461  0.3161 -0.2063
  938MPD2    H113721   0.390   1.273   1.086 -1.7042  1.8320  1.2867
  938MPD2    H213722   0.567   1.562   0.836  0.4122 -0.0748 -0.0039
  938MPD2    H313723   0.383   1.405   0.883  0.1446 -2.0326  1.1591
  938MPD2     N13724   0.555   1.306   1.291  0.4332  0.1792 -0.5043
  938MPD2    H513725   0.480   1.238   1.300 -0.5763  1.4893  0.8502
  938MPD2    N113726   0.746   1.663   1.014 -0.2866  0.1345 -0.3589
  938MPD2    H713727   0.817   1.664   1.087 -2.5039  0.3783  1.8151
  939MPD2     C13728   2.496   2.456   1.194  0.6153 -0.0436 -0.2338
  939MPD2    C113729   2.542   2.585   1.191 -0.2521  0.4912 -0.2389
  939MPD2    C213730   2.629   2.620   1.093 -0.3681  0.2867 -0.0749
  939MPD2    C313731   2.679   2.531   1.003 -0.4147  0.2401  0.4397
  939MPD2    C413732   2.641   2.399   1.008 -0.3310  0.5007  0.2666
  939MPD2    C513733   2.547   2.362   1.102 -0.4126  0.1648 -0.2948
  939MPD2     H13734   2.650   2.727   1.088  1.1026 -0.0200 -0.3451
  939MPD2    H113735   2.667   2.325   0.932  2.8384  0.1438  1.6813
  939MPD2    H213736   2.414   2.423   1.257 -0.0963  1.7712 -0.2197
  939MPD2    H313737   2.504   2.262   1.095  2.3579 -0.9461 -1.3013
  939MPD2     N13738   2.765   2.580   0.900 -0.5374 -0.0423 -0.1287
  939MPD2    H513739   2.788   2.679   0.901  1.6704 -0.5566  0.4150
  939MPD2    N113740   2.504   2.673   1.290 -0.8701 -0.0163 -0.1950
  939MPD2    H713741   2.423   2.650   1.345 -1.3359  1.0797 -0.4134
  940MPD2     C13742   1.891   3.470  13.055 -0.0958  0.2104 -0.4859
  940MPD2    C113743   1.846   3.344  13.070 -0.7487 -0.5237  0.1444
  940MPD2    C213744   1.855   3.257  12.960 -0.5722  0.0569 -0.0541
  940MPD2    C313745   1.899   3.305  12.837  0.1970 -0.1559 -0.1545
  940MPD2    C413746   1.941   3.439  12.826 -0.3034 -0.6562 -0.6253
  940MPD2    C513747   1.941   3.511  12.936 -0.7816 -0.2085 -0.3745
  940MPD2     H13748   1.838   3.150  12.974 -0.9692  0.3016  1.3275
  940MPD2    H113749   1.977   3.479  12.732 -0.8757 -0.7864 -0.9007
  940MPD2    H213750   1.885   3.544  13.134  3.3153  0.1440 -0.1632
  940MPD2    H313751   1.973   3.614  12.931 -1.9219  0.1209 -0.9983
  940MPD2     N13752   1.895   3.224  12.722 -0.0232  0.2516 -0.3717
  940MPD2    H513753   1.929   3.277  12.643 -1.2256 -0.8373 -1.6163
  940MPD2    N113754   1.808   3.291  13.196  0.3426 -0.2522  0.7216
  940MPD2    H713755   1.809   3.190  13.210 -3.9562 -0.3483  0.4064
  941MPD2     C13756   0.983   2.224   9.393 -0.1758  0.0363 -0.2135
  941MPD2    C113757   0.990   2.203   9.535  0.6122  0.1778  0.5395
  941MPD2    C213758   0.892   2.135   9.600 -0.0251 -0.3705  0.0556
  941MPD2    C313759   0.784   2.086   9.532 -0.4963  0.0781  0.4638
  941MPD2    C413760   0.763   2.128   9.402  0.4139  0.2699 -0.1310
  941MPD2    C513761   0.862   2.194   9.330 -0.6735  0.8218  0.3901
  941MPD2     H13762   0.893   2.132   9.709  2.1715  0.6421  0.0608
  941MPD2    H113763   0.674   2.105   9.344 -0.4621  0.9544  0.9409
  941MPD2    H213764   1.052   2.289   9.340 -1.1797  0.7346 -0.6707
  941MPD2    H313765   0.858   2.224   9.226 -1.8741  0.8441  0.4504
  941MPD2     N13766   0.691   1.994   9.598 -0.4201 -0.2224 -0.4904
  941MPD2    H513767   0.607   1.972   9.547 -1.3462 -0.5043  1.1429
  941MPD2    N113768   1.096   2.256   9.619  0.2312 -0.2692 -0.0188
  941MPD2    H713769   1.086   2.232   9.717  0.3211  0.9518  0.2919
  942MPD2     C13770   0.360   3.556   9.477 -0.3714 -0.1059  0.3128
  942MPD2    C113771   0.413   3.532   9.352  0.1144 -0.1321  0.3682
  942MPD2    C213772   0.548   3.488   9.338  0.7621  0.0386  0.1720
  942MPD2    C313773   0.621   3.457   9.453 -0.3740  0.4712 -0.2659
  942MPD2    C413774   0.561   3.481   9.579 -0.3908 -0.5749 -0.7124
  942MPD2    C513775   0.434   3.531   9.583 -0.1638 -0.2280  0.1070
  942MPD2     H13776   0.592   3.477   9.240  0.6201  0.7812  0.0317
  942MPD2    H113777   0.614   3.463   9.671  0.7461 -0.9892 -1.4459
  942MPD2    H213778   0.258   3.588   9.496 -0.2080  1.3070 -1.2018
  942MPD2    H313779   0.396   3.557   9.681  0.0350 -0.1730  0.1694
  942MPD2     N13780   0.752   3.409   9.458  0.2317 -0.1895 -0.9030
  942MPD2    H513781   0.784   3.365   9.544  0.7419 -0.3877 -1.1930
  942MPD2    N113782   0.340   3.553   9.234  0.1255  0.1717  0.5394
  942MPD2    H713783   0.377   3.514   9.148  2.7547  0.9717  1.3329
  943MPD2     C13784   4.537   1.880   9.284  0.4145  0.0412  0.2433
  943MPD2    C113785   4.434   1.793   9.321 -0.2274  0.3593 -0.2996
  943MPD2    C213786   4.367   1.732   9.222  0.7727  0.4547  0.3333
  943MPD2    C313787   4.392   1.758   9.088 -0.3240 -0.5341  0.4523
  943MPD2    C413788   4.495   1.843   9.052 -0.9354 -0.0428 -0.6417
  943MPD2    C513789   4.568   1.897   9.152  0.7006 -0.6157 -0.4545
  943MPD2     H13790   4.290   1.660   9.247 -0.6459  1.3496 -1.4658
  943MPD2    H113791   4.519   1.856   8.947  2.9459 -1.3463  0.0815
  943MPD2    H213792   4.597   1.923   9.363  0.9201  0.9352 -0.6473
  943MPD2    H313793   4.655   1.953   9.119 -0.4898  0.6466 -1.4349
  943MPD2     N13794   4.325   1.686   8.993 -0.6921  0.7617  0.9894
  943MPD2    H513795   4.338   1.701   8.893  2.2586  0.7164  1.3592
  943MPD2    N113796   4.402   1.774   9.457 -0.0578  1.2013  0.6177
  943MPD2    H713797   4.473   1.797   9.525  1.3102 -4.0337  0.9830
  944MPD2     C13798   3.713   1.099  10.826  0.2615  0.2284 -0.2813
  944MPD2    C113799   3.820   1.076  10.913  0.2279  0.4309 -0.0721
  944MPD2    C213800   3.802   1.105  11.045 -0.0077 -0.3487  0.1371
  944MPD2    C313801   3.687   1.159  11.092 -0.0916 -0.0719 -0.6073
  944MPD2    C413802   3.578   1.168  11.008  0.1389 -0.0341 -0.1483
  944MPD2    C513803   3.594   1.144  10.873 -0.7626 -0.6112 -0.4405
  944MPD2     H13804   3.882   1.078  11.113  0.0365  0.8245  0.5586
  944MPD2    H113805   3.481   1.204  11.037  0.6299  0.9111  0.3252
  944MPD2    H213806   3.719   1.079  10.720 -1.4459  1.8158 -0.6867
  944MPD2    H313807   3.513   1.175  10.809  0.4272 -2.7137 -2.9387
  944MPD2     N13808   3.674   1.181  11.235 -0.1907 -0.1796 -0.2102
  944MPD2    H513809   3.751   1.152  11.294 -0.1171  0.0414 -0.1952
  944MPD2    N113810   3.936   1.017  10.854 -0.1125 -0.4645 -0.1288
  944MPD2    H713811   3.938   0.997  10.754 -2.3220 -2.2924  0.2144
    1TCq1    O113812   1.268   1.963  14.240 -0.2687 -0.2041 -0.4036
    1TCq1    C113813   1.251   2.027  14.121 -0.1287 -0.1180 -0.4907
    1TCq1    O213814   1.173   1.993  14.034  0.0515 -0.9192  0.0192
    1TCq1    C213815   1.239   2.159  14.177  0.2923 -0.0274  0.0224
    1TCq1    C313816   1.136   2.234  14.132 -0.4940  0.2889 -0.6363
    1TCq1    C413817   1.125   2.365  14.167 -0.2136 -0.3002 -0.2504
    1TCq1    C513818   1.225   2.412  14.244 -0.0944 -0.4741  0.6477
    1TCq1    C613819   1.326   2.331  14.293  0.0514  0.3026  0.0574
    1TCq1    C713820   1.339   2.199  14.256 -0.0528  0.1621  0.6177
    1TCq1    C813821   1.435   2.380  14.379 -0.0272 -0.0689  0.3088
    1TCq1    O413822   1.524   2.309  14.409 -0.3428 -0.0584 -0.0884
    1TCq1    C913823   1.021   2.450  14.124  0.1528  0.1675 -0.0206
    1TCq1    O513824   0.946   2.409  14.031 -0.5485 -0.1375 -0.1163
    1TCq1    O613825   0.990   2.543  14.201  0.1693  0.0530  0.0310
    1TCq1    H113826   1.308   2.023  14.306  1.2315 -1.8303  0.1622
    1TCq1    H213827   1.058   2.182  14.078 -0.1691 -0.3124 -0.5280
    1TCq1    H313828   1.236   2.519  14.259  0.8509 -0.2719 -1.5500
    1TCq1    H413829   1.429   2.142  14.277 -0.2416 -0.1404  0.5958
    2MPD2     C13830   1.703   2.762  14.618 -0.2982 -0.5065  0.6427
    2MPD2    C113831   1.579   2.810  14.585 -0.0227 -0.5898 -0.0469
    2MPD2    C213832   1.490   2.722  14.521  0.1363 -0.3793  0.0041
    2MPD2    C313833   1.513   2.586  14.490  0.3439  0.1725 -0.1995
    2MPD2    C413834   1.632   2.539  14.541 -0.5397 -0.0346 -0.2621
    2MPD2    C513835   1.723   2.625  14.600  0.1719  0.5186  0.2240
    2MPD2     H13836   1.405   2.767  14.472  1.2148  0.7328 -0.8564
    2MPD2    H113837   1.665   2.437  14.524 -0.4362 -0.0124 -0.1934
    2MPD2    H213838   1.786   2.818  14.659  0.6521 -1.1517 -0.3858
    2MPD2    H313839   1.821   2.590  14.631 -0.4873 -0.5061  1.1410
    2MPD2     N13840   1.423   2.509  14.412 -0.9566  0.1168 -0.5113
    2MPD2    H513841   1.340   2.563  14.389 -2.2148 -0.2258  3.1905
    2MPD2    N113842   1.563   2.952  14.605  0.1472  0.0511  0.1126
    2MPD2    H713843   1.641   3.011  14.632  1.1985 -1.8105  1.1163
    3TMC2    C113844   1.486   3.168  14.542  0.3829  0.2400 -0.2120
    3TMC2    C213845   1.573   3.222  14.628 -0.2378  0.3034 -0.1983
    3TMC2    C313846   1.577   3.357  14.630 -0.0201 -0.1049  0.0087
    3TMC2    C413847   1.391   3.235  14.472 -0.3101 -0.3293 -0.0113
    3TMC2    C513848   1.394   3.375  14.484 -0.4484  0.2785  0.8826
    3TMC2    C613849   1.485   3.439  14.567 -0.2336  0.2773  0.2949
    3TMC2     C13850   1.457   3.023  14.564  0.7811  0.3080 -0.0373
    3TMC2     O13851   1.338   2.988  14.555  0.1597  0.0709  0.7234
    3TMC2     H13852   1.648   3.169  14.687  1.1111 -0.5418 -2.6437
    3TMC2    H113853   1.328   3.186  14.398 -3.2303  2.8717  0.3556
    3TMC2    H213854   1.484   3.547  14.567 -1.4222  0.2712  0.6193
    3TMC2    C713855   1.322   3.451  14.384  0.0702  0.9108  0.0879
    3TMC2    C813856   1.697   3.431  14.662 -0.4089 -0.1535  0.0926
    3TMC2    O113857   1.308   3.569  14.414 -0.8914  0.6390  0.6540
    3TMC2    O213858   1.707   3.549  14.687  0.1877 -0.4194 -0.5502
    3TMC2    O513859   1.806   3.350  14.641  0.4486  0.1218  0.7277
    3TMC2    H513860   1.789   3.260  14.605 -0.4453 -0.1929  1.9228
    4MPD2     C13861   0.970   3.691  12.858  1.1882  0.0862  0.0160
    4MPD2    C113862   0.995   3.800  12.941  0.3419  0.1091  0.4727
    4MPD2    C213863   1.069   3.785  13.059  0.8636  0.0859 -0.7731
    4MPD2    C313864   1.118   3.665  13.095 -0.6345 -0.2253  0.0985
    4MPD2    C413865   1.097   3.563  13.008 -0.4642  0.7531  0.0229
    4MPD2    C513866   1.030   3.574  12.883  0.2464  0.2784 -0.3225
    4MPD2     H13867   1.098   3.876  13.110  3.2294 -1.0092 -0.1547
    4MPD2    H113868   1.123   3.464  13.043 -0.4380  1.4720  2.0175
    4MPD2    H213869   0.913   3.694  12.766 -1.1839  0.7553  1.5170
    4MPD2    H313870   1.014   3.487  12.819  1.4074  0.5822 -1.0093
    4MPD2     N13871   1.177   3.660  13.228 -0.3362 -0.2559 -0.6490
    4MPD2    H513872   1.204   3.747  13.271  1.2703 -0.1245 -1.9337
    4MPD2    N113873   0.944   3.926  12.894  0.2931  0.4790  0.2729
    4MPD2    H713874   0.893   3.923  12.806  0.3124  1.7227  0.2197
    5TCq2    C113875   1.211   3.538  13.293 -0.2863  0.0861 -0.7455
    5TCq2    O213876   1.151   3.429  13.280 -0.1507 -0.1240  0.3350
    5TCq2    C213877   1.306   3.558  13.397 -0.1156 -0.4916 -0.2643
    5TCq2    C313878   1.422   3.625  13.376  0.2143 -0.3806 -0.5375
    5TCq2    C413879   1.519   3.637  13.473 -0.6019 -0.4208  0.7929
    5TCq2    C513880   1.510   3.577  13.590  0.5337  0.8116  0.0687
    5TCq2    C613881   1.394   3.501  13.602  0.5635  0.3000 -0.3345
    5TCq2    C713882   1.288   3.487  13.512  0.7087  0.0995  0.4203
    5TCq2    C813883   1.361   3.470  13.741  0.2399 -0.5586  0.3372
    5TCq2    O413884   1.460   3.427  13.799 -0.5269 -0.3179 -0.2721
    5TCq2    C913885   1.630   3.730  13.448 -0.6857 -0.4565  0.4453
    5TCq2    O513886   1.636   3.789  13.336 -0.1180  0.2291  0.1344
    5TCq2    O613887   1.717   3.732  13.541  0.8353  0.6776  0.5882
    5TCq2    H213888   1.428   3.690  13.290 -0.6071  1.3630  0.7211
    5TCq2    H313889   1.585   3.584  13.668  1.2390 -1.0770 -0.4489
    5TCq2    H413890   1.202   3.425  13.533  2.7372 -1.5481  3.8366
    6MPD1     C13891   4.710   0.814  12.110 -0.2530  0.0653 -0.5007
    6MPD1    C113892   0.090   0.858  12.195  0.0277  0.1935  0.4885
    6MPD1    C213893   0.178   0.760  12.240  0.5821 -0.3712  0.0370
    6MPD1    C313894   0.141   0.625  12.241 -0.3300  0.3216  0.7151
    6MPD1    C413895   0.033   0.590  12.167 -0.5126  0.5624  0.2387
    6MPD1    C513896   4.681   0.684  12.100 -0.0530 -0.3350  0.3894
    6MPD1     H13897   0.272   0.790  12.285 -1.0298  1.4222  2.2021
    6MPD1    H113898   0.007   0.485  12.158 -1.7366  0.9058 -0.2326
    6MPD1    H213899   4.657   0.880  12.043 -1.3314 -1.1030 -0.7858
    6MPD1    H313900   4.591   0.655  12.047  1.1158  1.1444 -2.3918
    6MPD1     N13901   0.218   0.514  12.294 -0.2745 -0.3005 -0.5365
    6MPD1    H513902   0.183   0.422  12.269 -4.1472  0.5120  1.9037
    6MPD1    N113903   0.141   0.988  12.188  0.9830 -0.0304  0.1960
    6MPD1    H613904   0.081   1.068  12.167  1.7492  0.4713 -0.1035
    6MPD1    H713905   0.221   1.003  12.249 -0.6269 -2.1454  2.8418
    7MPD2     C13906   0.697   0.197  12.962  0.1435 -0.2236  0.7323
    7MPD2    C113907   0.677   0.122  12.852 -0.7054 -0.3840 -0.3905
    7MPD2    C213908   0.680   4.707  12.865  0.1332  0.2064 -0.6790
    7MPD2    C313909   0.701   4.644  12.981 -0.3891  0.1405 -0.4477
    7MPD2    C413910   0.711   4.717  13.093  0.4441 -0.5752 -0.1443
    7MPD2    C513911   0.719   0.132  13.080  0.4403 -0.1460 -0.2125
    7MPD2     H13912   0.676   4.648  12.775  2.6263 -2.2319  0.8072
    7MPD2    H113913   0.736   4.661  13.182  2.6864 -0.7146 -0.8500
    7MPD2    H213914   0.711   0.305  12.960  1.7602 -0.4153  1.6235
    7MPD2    H313915   0.726   0.188  13.173  2.9369 -2.3003  0.8778
    7MPD2     N13916   0.707   4.502  12.985 -0.1824 -0.0278 -0.1731
    7MPD2    H513917   0.729   4.466  13.077  0.7486 -2.1158 -1.2084
    7MPD2    N113918   0.663   0.188  12.730 -0.5600 -0.4801 -0.6426
    7MPD2    H713919   0.655   0.124  12.652  0.6473 -0.7910 -0.5205
    8TMC3    C113920   0.680   4.275  12.908  0.0531  0.3065  0.4296
    8TMC3    C213921   0.803   4.238  12.957 -0.6166  0.8177 -0.3669
    8TMC3    C313922   0.873   4.146  12.882 -0.3422  0.0352 -0.2607
    8TMC3    C413923   0.637   4.211  12.794  0.4112  0.5246  0.4604
    8TMC3    C513924   0.720   4.145  12.706 -0.6011 -0.6889 -0.1776
    8TMC3    C613925   0.847   4.114  12.753  0.9555  0.0009  0.3984
    8TMC3     C13926   0.649   4.416  12.890 -0.3502  0.0698  0.3052
    8TMC3     O13927   0.571   4.439  12.798  0.2782  0.6034  0.5464
    8TMC3     H13928   0.847   4.296  13.037 -0.8290 -1.3122  1.2730
    8TMC3    H113929   0.536   4.230  12.758  0.2010  1.3482  1.5026
    8TMC3    H213930   0.920   4.055  12.699 -1.2785 -1.2460 -1.2458
    8TMC3    C713931   0.721   4.184  12.565  0.4692 -0.1372 -0.9260
    8TMC3    C813932   0.950   4.052  12.953 -0.3743 -0.0857  0.3174
    8TMC3    O113933   0.797   4.128  12.490  0.0346 -0.0439 -0.4342
    8TMC3    O213934   0.978   4.083  13.068 -0.2204  0.6196 -0.1393
    9TMC3    C113935   0.395   0.404  12.424 -0.0471  0.2156  0.2524
    9TMC3    C213936   0.427   0.309  12.327  0.0569  0.0474  0.3943
    9TMC3    C313937   0.523   0.219  12.365  0.1179 -0.4865  0.7209
    9TMC3    C413938   0.462   0.416  12.543  0.2414  0.1450  0.5265
    9TMC3    C513939   0.551   0.319  12.572  0.8973 -0.2401 -0.2452
    9TMC3    C613940   0.584   0.219  12.487  0.8314  0.0827 -0.5932
    9TMC3     C13941   0.324   0.530  12.380 -0.0995  0.5998  0.3044
    9TMC3     O13942   0.361   0.639  12.425 -0.0952 -0.5177  0.5837
    9TMC3     H13943   0.367   0.299  12.237  0.1029 -1.0383  0.4867
    9TMC3    H113944   0.444   0.499  12.610 -0.3634  0.9946 -0.6889
    9TMC3    H213945   0.674   0.161  12.504  1.1522  1.1908  1.4610
    9TMC3    C713946   0.615   0.315  12.702 -0.0507 -0.3739  0.1080
    9TMC3    C813947   0.540   0.098  12.293 -0.1692 -0.8132  0.2048
    9TMC3    O113948   0.588   0.400  12.787 -0.0216 -0.4234  0.0003
    9TMC3    O213949   0.543   0.111  12.173 -0.7910 -0.4064 -0.0020
   10MPD2     C13950   0.684   4.327  12.309 -0.1735  0.6853  0.0842
   10MPD2    C113951   0.641   4.372  12.438 -0.1720 -0.1569 -0.3489
   10MPD2    C213952   0.597   4.504  12.456 -0.6786 -0.3895 -0.0772
   10MPD2    C313953   0.609   4.588  12.353 -0.6908  0.1744 -0.0435
   10MPD2    C413954   0.650   4.549  12.220 -0.7419  0.5051  0.5773
   10MPD2    C513955   0.690   4.413  12.201  0.4252 -0.1001 -0.5919
   10MPD2     H13956   0.570   4.532  12.558 -0.4783 -1.2025  0.2014
   10MPD2    H113957   0.649   4.619  12.136  0.0846 -1.1423 -0.8008
   10MPD2    H213958   0.708   4.223  12.290 -0.1404  0.5797  0.7040
   10MPD2    H313959   0.716   4.372  12.104 -0.6163  2.1340 -1.8073
   10MPD2     N13960   0.563   4.717  12.380  0.2902  0.7171 -0.3647
   10MPD2    H513961   0.537   0.009  12.477  2.1054  4.1315 -0.3391
   10MPD2    N113962   0.644   4.293  12.556  0.2757 -0.2261 -0.0494
   10MPD2    H713963   0.609   4.339  12.639 -1.3699 -0.5532 -0.5710
   11MPD2     C13964   1.125   3.532  14.187  0.0323  0.3183  0.7122
   11MPD2    C113965   1.235   3.460  14.156  0.1211 -0.1564 -1.0260
   11MPD2    C213966   1.272   3.437  14.021 -0.2497  1.0969 -0.2640
   11MPD2    C313967   1.193   3.489  13.920 -0.4312 -0.7274  0.4444
   11MPD2    C413968   1.087   3.574  13.947 -0.4263 -0.0919  0.3587
   11MPD2    C513969   1.057   3.588  14.084  0.2654  0.5494  0.0164
   11MPD2     H13970   1.364   3.382  14.001 -0.0578  1.7315 -1.1045
   11MPD2    H113971   1.018   3.607  13.870  0.9002 -0.6453 -1.0720
   11MPD2    H213972   1.090   3.535  14.290  0.2339 -2.0128  0.8603
   11MPD2    H313973   0.963   3.632  14.115  1.2349  1.8489  1.1099
   11MPD2     N13974   1.233   3.474  13.783  0.1951 -0.3321  0.0980
   11MPD2    H513975   1.162   3.511  13.720  1.3843  1.2998 -0.2789
   11MPD2    N113976   1.314   3.395  14.256 -0.3447  0.3808 -0.3240
   11MPD2    H713977   1.381   3.320  14.240 -0.1479  0.3678  0.5165
    1MPD1     C13978   3.777   1.171  16.292  0.3130  0.3873  0.9433
    1MPD1    C113979   3.874   1.243  16.354  0.0940  0.2625 -0.4938
    1MPD1    C213980   3.948   1.180  16.449  0.3751 -0.3446  0.2754
    1MPD1    C313981   3.907   1.064  16.514 -0.0674  0.6094  0.4543
    1MPD1    C413982   3.793   1.008  16.463 -0.1854 -0.0913 -0.0261
    1MPD1    C513983   3.737   1.053  16.349  0.1747 -0.1403 -0.2747
    1MPD1     H13984   4.038   1.236  16.473 -0.6779  0.9901  1.0259
    1MPD1    H113985   3.746   0.922  16.509 -0.2712 -0.9811 -1.7797
    1MPD1    H213986   3.721   1.209  16.207  0.5486 -3.2987 -0.8574
    1MPD1    H313987   3.647   1.007  16.308  0.3871  0.0869 -0.9957
    1MPD1     N13988   3.968   0.993  16.618  0.8645 -0.0987 -0.0821
    1MPD1    H513989   3.924   0.906  16.647 -0.0495  1.7199  3.9664
    1MPD1    N113990   3.935   1.348  16.272  0.3181  0.6396 -0.4941
    1MPD1    H613991   3.988   1.411  16.331  3.4974 -2.0171 -0.5172
    1MPD1    H713992   3.875   1.401  16.210 -0.4772 -1.0474 -1.1856
    2MPD1     C13993   0.216   0.787  16.834 -0.4993 -0.3806  0.0541
    2MPD1    C113994   0.175   0.921  16.833  0.0744 -0.0321  0.1981
    2MPD1    C213995   0.032   0.942  16.837 -0.3925 -0.0329 -0.0117
    2MPD1    C313996   4.657   0.835  16.849 -0.4369  0.4112 -0.2515
    2MPD1    C413997   4.708   0.712  16.864  0.0565  0.2036  0.0424
    2MPD1    C513998   0.120   0.688  16.854  0.0352 -0.1727 -0.4356
    2MPD1     H13999   0.004   1.042  16.804  0.6337 -0.2792 -1.6665
    2MPD1    H114000   4.643   0.626  16.870  1.4476 -0.8472  0.1173
    2MPD1    H214001   0.318   0.749  16.836  0.0311  1.0399  0.5700
    2MPD1    H314002   0.151   0.584  16.853 -0.4317 -0.3307  1.1054
    2MPD1     N14003   4.521   0.872  16.854 -0.3502  0.4676  0.0984
    2MPD1    H514004   4.495   0.966  16.828 -1.9777  0.3850  1.4729
    2MPD1    N114005   0.254   1.018  16.777 -0.0120 -0.3049 -0.0642
    2MPD1    H614006   0.221   1.114  16.786  0.2935 -0.1304 -0.7971
    2MPD1    H714007   0.346   1.014  16.819 -0.6686  2.6472  1.6694
    3TMC3    C114008   4.291   0.844  16.897  0.2993 -1.1169 -0.1852
    3TMC3    C214009   4.197   0.780  16.966 -0.2070  0.8574  0.5057
    3TMC3    C314010   4.067   0.806  16.944 -0.2295  0.4888  0.1182
    3TMC3    C414011   4.256   0.934  16.798  0.4174  0.2909  0.1205
    3TMC3    C514012   4.121   0.957  16.780  0.2444  0.4314  0.1301
    3TMC3    C614013   4.024   0.898  16.854 -0.1675 -0.0639 -0.3502
    3TMC3     C14014   4.424   0.787  16.896 -0.1384  0.6431 -0.3890
    3TMC3     O14015   4.435   0.671  16.938  0.0868 -0.0327  0.3528
    3TMC3     H14016   4.227   0.729  17.057 -0.7866 -1.9012 -0.8551
    3TMC3    H114017   4.324   0.971  16.721  0.3197  0.5666  0.1696
    3TMC3    H214018   3.917   0.909  16.847 -0.2301  0.5574  1.5105
    3TMC3    C714019   4.083   1.046  16.678 -0.2342  0.1581 -0.2278
    3TMC3    C814020   3.967   0.716  17.010 -0.1515  0.9684 -0.2614
    3TMC3    O114021   4.159   1.135  16.650  0.5122 -0.3753  0.5546
    3TMC3    O214022   3.847   0.748  17.020 -0.1334  0.4411  0.2380
    4MPD1     C14023   3.848   0.275  17.248 -0.8901  0.1185 -1.0296
    4MPD1    C114024   3.986   0.284  17.231  0.0986  0.2566 -0.0718
    4MPD1    C214025   4.024   0.380  17.144  0.1834  0.6642 -0.8236
    4MPD1    C314026   3.950   0.486  17.097  0.5555 -0.2536  0.7524
    4MPD1    C414027   3.815   0.485  17.122 -0.8571 -0.2714  0.3231
    4MPD1    C514028   3.768   0.374  17.190 -0.3511  0.1312  0.0481
    4MPD1     H14029   4.129   0.395  17.119  0.4152  1.1223  0.4404
    4MPD1    H114030   3.742   0.554  17.081  1.8313  1.9923 -0.6583
    4MPD1    H214031   3.796   0.201  17.307  0.0457 -0.4968 -0.9791
    4MPD1    H314032   3.662   0.361  17.209 -0.3865  1.9058  1.0955
    4MPD1     N14033   4.021   0.596  17.036 -0.4436 -0.5685 -0.3192
    4MPD1    H514034   4.113   0.579  16.996 -0.2946 -0.2045 -0.1310
    4MPD1    N114035   4.069   0.171  17.252  0.1118  0.4217 -0.1193
    4MPD1    H614036   4.046   0.109  17.330 -1.5156  0.7067 -0.3688
    4MPD1    H714037   4.167   0.193  17.264 -0.2441  0.9464  1.8192
    1TCq1    O114038   0.128   4.305  11.085  0.0038 -0.6128 -0.3414
    1TCq1    C114039   0.081   4.257  11.204  0.1298 -0.4241 -0.2287
    1TCq1    O214040   0.089   4.325  11.309 -0.2577 -0.1367 -0.1669
    1TCq1    C214041   0.125   4.120  11.189  0.3500  0.4382 -0.5200
    1TCq1    C314042   0.128   4.055  11.066 -0.6593 -0.0498 -0.0164
    1TCq1    C414043   0.214   3.955  11.051 -0.1347 -0.1203  0.2544
    1TCq1    C514044   0.254   3.887  11.163 -1.0515  0.0732  0.6287
    1TCq1    C614045   0.239   3.942  11.287 -0.0497  0.2124 -0.2940
    1TCq1    C714046   0.172   4.062  11.304  1.0592  0.0665 -0.5001
    1TCq1    C814047   0.333   3.905  11.393 -0.5238 -0.4286  0.8112
    1TCq1    O414048   0.326   3.983  11.485  0.5432  0.1969  0.1007
    1TCq1    C914049   0.226   3.893  10.928  0.0822 -0.2417 -0.6049
    1TCq1    O514050   0.169   3.948  10.828 -0.0986 -0.5748  0.3797
    1TCq1    O614051   0.327   3.821  10.915  0.2902  0.1576 -0.0230
    1TCq1    H114052   0.141   4.242  11.012  1.5795 -1.7561  0.9272
    1TCq1    H214053   0.075   4.097  10.981  0.9966  2.2426  0.0937
    1TCq1    H314054   0.309   3.796  11.145 -1.5237 -0.4439  1.8698
    1TCq1    H414055   0.182   4.119  11.396 -0.5765  1.0232 -0.9205
    2MPD1     C14056   0.681   3.631  11.652  0.1292 -0.5241 -0.3937
    2MPD1    C114057   0.663   3.574  11.526  0.6638  0.1141  0.2100
    2MPD1    C214058   0.574   3.632  11.435  0.0478 -0.6674 -0.4450
    2MPD1    C314059   0.506   3.743  11.466 -0.0250 -0.2198  0.9425
    2MPD1    C414060   0.532   3.805  11.588 -0.2209  0.0609  0.4411
    2MPD1    C514061   0.610   3.746  11.679  0.5743  0.3772 -0.0285
    2MPD1     H14062   0.548   3.576  11.346 -1.1516 -1.9870  0.7308
    2MPD1    H114063   0.483   3.896  11.620 -0.3054  0.6923 -1.5002
    2MPD1    H214064   0.742   3.586  11.730 -1.4214  1.9444  2.2199
    2MPD1    H314065   0.624   3.785  11.779  1.9604  1.4891 -0.6584
    2MPD1     N14066   0.402   3.788  11.377  0.5555 -0.5382 -0.0923
    2MPD1    H514067   0.389   3.737  11.290 -0.9213 -2.2263  1.1209
    2MPD1    N114068   0.710   3.445  11.502 -0.0783  0.6215  0.5682
    2MPD1    H614069   0.711   3.427  11.402  1.5639 -1.2629  0.9168
    2MPD1    H714070   0.800   3.426  11.544 -0.7871 -0.6538  1.5334
    1TCq1    O114071   0.862   1.883   1.826  0.0352 -0.4684 -0.4913
    1TCq1    C114072   0.868   2.016   1.831  0.1317  0.3651  0.4828
    1TCq1    O214073   0.945   2.085   1.896 -0.0879  0.1672 -0.0368
    1TCq1    C214074   0.743   2.074   1.771  0.0296 -0.4801 -0.0203
    1TCq1    C314075   0.739   2.211   1.776 -0.0875  0.4023  0.0489
    1TCq1    C414076   0.622   2.266   1.729 -0.2197 -0.0681 -0.2585
    1TCq1    C514077   0.524   2.194   1.666 -0.3675  0.4404  0.5639
    1TCq1    C614078   0.548   2.063   1.643  0.3052 -0.0211 -0.5027
    1TCq1    C714079   0.652   1.994   1.702  0.4993  0.1202  0.1328
    1TCq1    C814080   0.459   1.994   1.553  0.0010  0.2251 -0.1608
    1TCq1    O414081   0.446   1.874   1.579  0.5683  1.1226  0.3942
    1TCq1    C914082   0.614   2.407   1.691 -0.0709 -0.3066 -0.1649
    1TCq1    O514083   0.720   2.476   1.702 -0.7851  0.3318 -0.0097
    1TCq1    O614084   0.505   2.469   1.681  0.0012  0.2433 -0.5296
    1TCq1    H114085   0.796   1.846   1.763  2.0220 -1.1117 -2.1845
    1TCq1    H214086   0.826   2.275   1.786  0.7256 -0.6035 -0.5837
    1TCq1    H314087   0.434   2.246   1.637 -0.3197  0.0776 -0.2341
    1TCq1    H414088   0.655   1.886   1.691 -0.2515  0.3637 -2.4652
    2MPD1     C14089   0.076   1.963   1.210 -0.0427  0.4390  0.0367
    2MPD1    C114090   0.162   2.069   1.176  0.0999  0.1002 -0.4862
    2MPD1    C214091   0.261   2.105   1.263  0.3228 -0.3059  0.0627
    2MPD1    C314092   0.290   2.041   1.379 -0.8876  0.0933 -0.1854
    2MPD1    C414093   0.205   1.931   1.405 -0.7895  0.4313  0.6424
    2MPD1    C514094   0.100   1.896   1.326 -0.2454  0.4214  1.0498
    2MPD1     H14095   0.320   2.191   1.234  0.8461 -0.9808 -0.8489
    2MPD1    H114096   0.226   1.865   1.488  2.8380  0.1687 -0.5002
    2MPD1    H214097   4.721   1.920   1.145 -1.1354  0.1106  1.5290
    2MPD1    H314098   0.046   1.805   1.349 -1.7162  0.7952 -0.9523
    2MPD1     N14099   0.397   2.076   1.462 -0.4476  0.4719  0.2587
    2MPD1    H514100   0.425   2.173   1.458 -0.0607  0.2652 -2.0631
    2MPD1    N114101   0.123   2.154   1.064 -0.7159 -0.0430  0.1432
    2MPD1    H614102   0.208   2.194   1.026 -0.5738 -1.4301 -0.9658
    2MPD1    H714103   0.078   2.094   0.996  0.0360  3.2966 -3.2789
    1MPD1     C14104   2.692   3.700  10.883  0.7038  0.5890 -0.3650
    1MPD1    C114105   2.714   3.664  11.011 -0.2679  0.0038  0.0012
    1MPD1    C214106   2.761   3.759  11.106  0.5655 -0.3636  0.2755
    1MPD1    C314107   2.769   3.895  11.067  0.5775  0.2514  0.2490
    1MPD1    C414108   2.737   3.926  10.938  0.0717 -0.0678  0.2604
    1MPD1    C514109   2.691   3.834  10.847  0.6357  0.0548  0.0153
    1MPD1     H14110   2.794   3.729  11.205  2.0142 -0.7647 -0.3291
    1MPD1    H114111   2.741   4.025  10.894  1.2571  0.8205  2.3495
    1MPD1    H214112   2.667   3.629  10.805 -1.4655  0.2199  0.6715
    1MPD1    H314113   2.655   3.866  10.750 -2.4297  0.9095  1.4165
    1MPD1     N14114   2.823   3.988  11.156 -0.1275 -0.3823 -0.3693
    1MPD1    H514115   2.854   3.951  11.246 -1.5937  3.2316  1.6364
    1MPD1    N114116   2.707   3.527  11.049 -0.0176 -0.1358 -0.5918
    1MPD1    H614117   2.641   3.483  10.985 -2.0135  2.4659 -0.3068
    1MPD1    H714118   2.663   3.529  11.141  1.4585  3.2481  0.0322
    2MPD1     C14119   1.626   4.345  11.151  0.1558 -0.1895  0.3471
    2MPD1    C114120   1.708   4.267  11.083 -0.5997  0.2413  0.3437
    2MPD1    C214121   1.823   4.325  11.037 -0.2495  0.1409 -0.6721
    2MPD1    C314122   1.841   4.465  11.041 -0.0531 -0.3702  0.9433
    2MPD1    C414123   1.751   4.546  11.105  0.3625  0.4128 -0.4915
    2MPD1    C514124   1.648   4.480  11.161  0.9429 -0.0928  0.1036
    2MPD1     H14125   1.898   4.253  11.008 -1.4052 -1.7873  1.1637
    2MPD1    H114126   1.759   4.653  11.120 -1.6462  0.5184 -0.1582
    2MPD1    H214127   1.533   4.304  11.189  0.3292  0.1278  1.1026
    2MPD1    H314128   1.570   4.538  11.208  0.7741 -1.3983  1.4242
    2MPD1     N14129   1.955   4.528  10.983  0.3958  1.0255  0.1642
    2MPD1    H514130   1.962   4.628  10.999 -1.3937  0.8356  2.1895
    2MPD1    N114131   1.694   4.131  11.108  0.3130  0.4043  0.3416
    2MPD1    H614132   1.604   4.088  11.126 -0.0181  1.3751  1.0395
    2MPD1    H714133   1.748   4.072  11.045  0.6366 -0.5613  1.5244
    3MPD1     C14134   2.611   4.288  10.246  0.4690 -0.3019 -0.0688
    3MPD1    C114135   2.503   4.218  10.297 -0.4282 -0.1451  0.4889
    3MPD1    C214136   2.407   4.286  10.381 -0.1006 -0.2630 -0.1219
    3MPD1    C314137   2.428   4.412  10.409  0.0055 -0.1454 -0.1836
    3MPD1    C414138   2.546   4.476  10.372  0.3408  0.6627 -0.5795
    3MPD1    C514139   2.634   4.416  10.282  0.0214  0.3452  0.7695
    3MPD1     H14140   2.314   4.240  10.415 -0.6015  0.6943 -0.2084
    3MPD1    H114141   2.562   4.582  10.385  1.3285  0.4824 -0.3458
    3MPD1    H214142   2.684   4.245  10.179  2.3075  0.6695  1.2971
    3MPD1    H314143   2.714   4.473  10.236 -1.1070 -0.0605 -1.6780
    3MPD1     N14144   2.331   4.470  10.497  0.1032 -0.1126  0.0591
    3MPD1    H514145   2.250   4.424  10.536 -0.6666 -0.2894 -1.7428
    3MPD1    N114146   2.457   4.098  10.237  0.2192 -0.7212  0.2023
    3MPD1    H614147   2.526   4.032  10.202 -0.0507 -0.9671  0.1341
    3MPD1    H714148   2.409   4.050  10.313 -0.2835 -0.2598  0.1745
    4MPD2     C14149   2.643   4.449  11.742 -0.2559 -0.2307 -0.0356
    4MPD2    C114150   2.747   4.486  11.656 -0.4012  0.0307 -0.4442
    4MPD2    C214151   2.770   4.621  11.643 -0.0895  0.1703  0.1107
    4MPD2    C314152   2.707   4.716  11.720 -0.1969 -0.4110 -0.3521
    4MPD2    C414153   2.600   4.674  11.797 -0.4594  0.1829  0.4706
    4MPD2    C514154   2.573   4.542  11.811 -0.3614 -0.0279  0.6446
    4MPD2     H14155   2.845   4.645  11.569 -2.3519  1.7874 -1.6681
    4MPD2    H114156   2.535   0.016  11.857 -0.4915 -0.0927  0.7244
    4MPD2    H214157   2.613   4.346  11.756  1.5743 -0.6448  0.8867
    4MPD2    H314158   2.481   4.507  11.855 -0.9219  1.0344  0.3198
    4MPD2     N14159   2.727   0.133  11.700 -0.4904 -0.3540  0.7228
    4MPD2    H514160   2.656   0.194  11.738  0.9874  0.6775  1.7798
    4MPD2    N114161   2.825   4.386  11.579 -0.2953  0.1465  0.3260
    4MPD2    H714162   2.901   4.428  11.527 -0.0784  0.4315  0.8850
    5TMC3    C114163   2.903   4.201  11.475  0.9016  0.1800 -0.2596
    5TMC3    C214164   2.853   4.141  11.362  0.2102 -0.2785 -0.0770
    5TMC3    C314165   2.882   4.194  11.241  0.0863  0.7315 -0.0563
    5TMC3    C414166   3.009   4.282  11.465 -0.4144  0.4019 -0.9065
    5TMC3    C514167   3.035   4.341  11.347 -0.5620 -0.1451  0.6318
    5TMC3    C614168   2.968   4.298  11.236 -0.6218 -0.0981  0.6901
    5TMC3     C14169   2.799   4.251  11.559 -0.5062 -0.3981  0.2579
    5TMC3     O14170   2.706   4.184  11.583 -0.6036 -0.0939 -0.2840
    5TMC3     H14171   2.762   4.085  11.376  0.6513 -0.9871 -0.0761
    5TMC3    H114172   3.049   4.333  11.552 -1.1747  0.9122 -0.8541
    5TMC3    H214173   2.972   4.361  11.147  1.1494 -1.1895 -0.0030
    5TMC3    C714174   3.067   4.486  11.369  1.0821 -0.3400  0.5191
    5TMC3    C814175   2.849   4.117  11.125 -0.0512  0.5855  0.4418
    5TMC3    O114176   3.044   4.535  11.482  0.7981  0.3731 -0.5382
    5TMC3    O214177   2.828   4.182  11.024 -0.3215  0.3156 -0.4046
    6TMC3    C114178   2.152   4.551  10.854  0.3833  0.1746  0.5500
    6TMC3    C214179   2.177   4.535  10.717  0.3205 -0.2948 -0.1073
    6TMC3    C314180   2.258   4.631  10.661 -0.3848  0.3478  0.6445
    6TMC3    C414181   2.204   4.651  10.924 -0.5072  0.0583 -0.0732
    6TMC3    C514182   2.265   0.035  10.866 -0.0044 -0.3955 -0.4178
    6TMC3    C614183   2.297   0.028  10.731 -0.7988  0.2419 -0.3814
    6TMC3     C14184   2.056   4.464  10.908  0.1410  0.6024  0.3476
    6TMC3     O14185   2.061   4.353  10.857 -0.6581 -0.3526 -0.4840
    6TMC3     H14186   2.133   4.451  10.665  0.7070 -0.2421 -0.5135
    6TMC3    H114187   2.174   4.649  11.028 -1.0687 -0.0690 -0.2363
    6TMC3    H214188   2.367   0.099  10.687 -0.6095 -0.0745 -0.5921
    6TMC3    C714189   2.326   0.135  10.946  0.1018 -0.0563  0.7585
    6TMC3    C814190   2.342   4.596  10.550  0.6007  0.1770  0.5301
    6TMC3    O114191   2.350   0.102  11.061 -0.8539  0.1785 -0.6834
    6TMC3    O214192   2.413   4.691  10.510  0.3137  0.0018 -0.6436
    7MPD2     C14193   3.119   0.222  11.143  0.1116  0.0202 -0.4066
    7MPD2    C114194   3.090   0.192  11.271  0.7189  0.3255 -0.4284
    7MPD2    C214195   3.100   0.061  11.315 -0.2340  0.8079  0.3168
    7MPD2    C314196   3.126   4.681  11.221 -0.3538 -0.4651  0.2741
    7MPD2    C414197   3.144   4.714  11.088  0.2769  0.3357  0.3551
    7MPD2    C514198   3.144   0.121  11.052 -0.6437 -0.7910 -0.6602
    7MPD2     H14199   3.097   0.032  11.420 -1.5589 -1.2843 -0.2865
    7MPD2    H114200   3.172   4.635  11.019  0.5733  0.7400  0.0129
    7MPD2    H214201   3.119   0.325  11.110  0.7645  0.4117  0.8022
    7MPD2    H314202   3.163   0.151  10.949 -1.5069 -1.9878 -1.1712
    7MPD2     N14203   3.114   4.541  11.250 -0.0578  0.2575 -0.0336
    7MPD2    H514204   3.122   4.480  11.170  1.3330  2.2549 -1.4408
    7MPD2    N114205   3.039   0.288  11.363  0.5665  0.6191  0.0390
    7MPD2    H714206   3.026   0.256  11.459 -2.8266  0.2951 -0.5220
    8TMC3    C114207   2.920   0.473  11.453 -0.2176  0.1733  0.6652
    8TMC3    C214208   2.805   0.509  11.400  0.8513  0.7253 -0.4472
    8TMC3    C314209   2.688   0.439  11.437  0.2042 -0.8534 -0.0350
    8TMC3    C414210   2.927   0.387  11.563 -0.6086 -0.2382 -0.0443
    8TMC3    C514211   2.807   0.325  11.597 -0.1355 -0.5124  0.0158
    8TMC3    C614212   2.686   0.354  11.543  0.0895 -0.9535  0.2488
    8TMC3     C14213   3.008   0.423  11.337 -0.6461 -0.2175 -0.6306
    8TMC3     O14214   3.013   0.486  11.230 -0.2503 -0.1950  0.0145
    8TMC3     H14215   2.817   0.554  11.302  1.1311 -1.9013 -1.6304
    8TMC3    H114216   3.022   0.350  11.601 -0.4843 -0.2432 -0.3645
    8TMC3    H214217   2.599   0.296  11.572 -1.4771  0.3561 -1.8932
    8TMC3    C714218   2.835   0.189  11.637  0.2998  0.2598  0.3594
    8TMC3    C814219   2.591   0.411  11.333 -0.8905 -0.2397  0.3706
    8TMC3    O114220   2.948   0.145  11.612 -0.0605 -0.0621  0.7232
    8TMC3    O214221   2.520   0.317  11.348 -0.5332 -0.1424  0.1776
    9MPD2     C14222   2.551   0.587  11.013 -0.0959  0.5748 -0.2692
    9MPD2    C114223   2.547   0.480  11.097 -0.1271  0.1512  0.1854
    9MPD2    C214224   2.480   0.368  11.051  0.4554  0.1236  0.5797
    9MPD2    C314225   2.427   0.357  10.928  0.2230  0.2594 -0.9546
    9MPD2    C414226   2.446   0.465  10.845  0.5643  0.4229 -0.0099
    9MPD2    C514227   2.498   0.581  10.883  0.3264 -0.2949  0.0277
    9MPD2     H14228   2.459   0.292  11.125 -1.2222 -0.6382 -0.6942
    9MPD2    H114229   2.388   0.457  10.753  1.3474 -0.3396 -0.4418
    9MPD2    H214230   2.590   0.682  11.046  0.7774  0.8013 -1.9359
    9MPD2    H314231   2.490   0.677  10.833 -1.2502 -0.3499  0.1711
    9MPD2     N14232   2.349   0.252  10.878  0.2050 -0.1308  0.0690
    9MPD2    H514233   2.333   0.245  10.778 -0.6010  1.4622  0.0838
    9MPD2    N114234   2.599   0.500  11.227 -0.2007 -0.3271 -0.0298
    9MPD2    H714235   2.651   0.585  11.247  1.1170 -1.0701 -0.2928
    1MPD1     C14236   2.661   3.225  16.753  0.7043  1.0905 -0.6079
    1MPD1    C114237   2.536   3.253  16.718 -0.4309 -0.0761  0.0994
    1MPD1    C214238   2.451   3.314  16.805  0.3940 -0.3805 -0.4527
    1MPD1    C314239   2.485   3.340  16.939  0.1470 -0.4760 -0.1639
    1MPD1    C414240   2.612   3.300  16.976 -0.3272  0.6382  0.2147
    1MPD1    C514241   2.700   3.245  16.885  0.2392  0.6295  0.5928
    1MPD1     H14242   2.347   3.325  16.779  0.8906  0.3634 -2.0880
    1MPD1    H114243   2.645   3.311  17.079  1.1242 -0.1212 -0.1761
    1MPD1    H214244   2.736   3.191  16.682  1.1854  1.4140 -0.2577
    1MPD1    H314245   2.795   3.217  16.929 -0.5538 -1.3789  1.0392
    1MPD1     N14246   2.402   3.406  17.039  0.6313  0.5002 -0.0663
    1MPD1    H514247   2.441   3.435  17.128  2.4920  0.8979 -1.0006
    1MPD1    N114248   2.493   3.253  16.581  0.3485  0.5831 -0.3800
    1MPD1    H614249   2.546   3.176  16.539  0.2431 -0.2829  1.0491
    1MPD1    H714250   2.392   3.244  16.578  0.3788  1.2358 -2.8693
    2MPD1     C14251   1.701   3.916  16.724  0.2262  0.3819 -0.1494
    2MPD1    C114252   1.701   3.777  16.747  0.2704 -0.3014 -0.1987
    2MPD1    C214253   1.778   3.721  16.849 -0.1316 -0.6205 -0.1166
    2MPD1    C314254   1.844   3.799  16.942  0.4300  0.1200  0.3711
    2MPD1    C414255   1.850   3.937  16.917 -0.3087 -0.7044 -0.7648
    2MPD1    C514256   1.789   3.988  16.804  0.0308  0.5432  0.4527
    2MPD1     H14257   1.764   3.616  16.872 -1.1223 -0.6550 -0.8391
    2MPD1    H114258   1.911   3.998  16.982 -0.8616  0.5367 -1.3960
    2MPD1    H214259   1.652   3.950  16.634  0.0765 -0.8432 -0.5355
    2MPD1    H314260   1.792   4.096  16.795 -0.5307  0.3509 -1.9596
    2MPD1     N14261   1.910   3.729  17.044  0.2620 -0.2254 -0.0376
    2MPD1    H514262   1.891   3.630  17.035 -3.0384  0.3770  0.1340
    2MPD1    N114263   1.626   3.688  16.668  0.6246  0.0612  0.5913
    2MPD1    H614264   1.621   3.726  16.574 -0.4104 -0.9985  0.2078
    2MPD1    H714265   1.650   3.589  16.676 -0.4862 -0.3003 -0.6232
    3TCq2    C114266   1.987   3.779  17.156 -1.0631  0.2921  0.4387
    3TCq2    O214267   1.993   3.895  17.192 -0.5105 -0.2126 -0.1253
    3TCq2    C214268   2.076   3.680  17.217  0.5754 -0.1851  0.6983
    3TCq2    C314269   2.172   3.741  17.300  0.1304 -0.0578 -0.5936
    3TCq2    C414270   2.302   3.705  17.286  0.8455  0.4399  0.0531
    3TCq2    C514271   2.344   3.617  17.187 -0.5280  0.5417  0.6502
    3TCq2    C614272   2.245   3.550  17.119 -0.7250 -0.4913  0.1445
    3TCq2    C714273   2.111   3.579  17.134  0.4559  0.3149 -0.6816
    3TCq2    C814274   2.275   3.439  17.024  0.0624  0.4576  0.0341
    3TCq2    O414275   2.203   3.406  16.931  0.1775 -0.0202 -0.3409
    3TCq2    C914276   2.398   3.773  17.365  0.0401  0.9070 -0.3219
    3TCq2    O514277   2.518   3.725  17.357  0.2618 -0.0252  0.1534
    3TCq2    O614278   2.355   3.851  17.445 -0.0846  0.2009 -0.4642
    3TCq2    H214279   2.139   3.815  17.372 -0.1845 -0.2523 -0.5414
    3TCq2    H314280   2.449   3.615  17.162 -0.6402  0.1820  0.1962
    3TCq2    H414281   2.037   3.529  17.073 -1.0188  1.6390  0.0038
    1TCq1    O114282   4.543   2.573  12.396  0.1459 -0.0195  0.3305
    1TCq1    C114283   4.430   2.587  12.469  0.3972  0.5916 -0.4187
    1TCq1    O214284   4.314   2.589  12.427 -0.0167 -0.2804 -0.1359
    1TCq1    C214285   4.471   2.592  12.607  0.3382 -0.2716 -0.1013
    1TCq1    C314286   4.380   2.552  12.699  0.3103  0.0475  0.2718
    1TCq1    C414287   4.401   2.571  12.834  0.5736 -0.5000  0.4166
    1TCq1    C514288   4.530   2.614  12.873 -0.6627 -0.1253 -0.6302
    1TCq1    C614289   4.623   2.644  12.783  0.7587 -0.2842 -0.3611
    1TCq1    C714290   4.595   2.632  12.648  0.3242  0.2128 -0.2355
    1TCq1    C814291   0.041   2.648  12.822  0.1159  0.2746 -0.0849
    1TCq1    O414292   0.117   2.703  12.747  0.4563 -0.3354 -0.0301
    1TCq1    C914293   4.307   2.521  12.938 -0.8246  0.7002  0.4176
    1TCq1    O514294   4.188   2.495  12.906  0.2375 -0.3371  0.7455
    1TCq1    O614295   4.354   2.493  13.053  0.2780  0.1032 -0.6141
    1TCq1    H114296   4.632   2.575  12.437  0.5269 -0.9661 -0.4449
    1TCq1    H214297   4.279   2.526  12.669  0.2557  3.3629 -2.4283
    1TCq1    H314298   4.552   2.604  12.979  1.3870 -1.1270 -1.1492
    1TCq1    H414299   4.669   2.674  12.580  0.4745  0.7379  0.2495
    2MPD2     C14300   0.302   2.567  12.932  0.3191  0.7825  0.1582
    2MPD2    C114301   0.195   2.583  13.016 -0.0194  0.2564 -0.3610
    2MPD2    C214302   0.215   2.584  13.154  0.8996  0.0841  0.4792
    2MPD2    C314303   0.336   2.583  13.207  0.3763 -0.5212 -0.1382
    2MPD2    C414304   0.439   2.571  13.117 -0.0139  0.4494 -0.1338
    2MPD2    C514305   0.426   2.561  12.981  0.3476 -0.0311  0.1049
    2MPD2     H14306   0.126   2.596  13.214  0.3928 -0.5485 -0.1524
    2MPD2    H114307   0.543   2.566  13.148 -0.3068 -0.9448  0.6158
    2MPD2    H214308   0.295   2.560  12.824 -0.6439  0.5498  0.2383
    2MPD2    H314309   0.515   2.548  12.920  1.4084 -0.0718  1.6507
    2MPD2     N14310   0.356   2.581  13.351  0.3676 -0.5270  0.2077
    2MPD2    H514311   0.277   2.612  13.407  1.6354  2.3382  0.4141
    2MPD2    N114312   0.066   2.606  12.953  0.0938  0.2707  0.2091
    2MPD2    H714313   4.715   2.567  13.013  0.3042 -0.3864  0.0369
    3TCq1    O114314   0.339   2.834  13.919  0.4249 -0.3127  0.8015
    3TCq1    C114315   0.293   2.772  13.809 -0.7995  0.0745 -0.8431
    3TCq1    O214316   0.198   2.809  13.744  0.0625  0.2075  0.2196
    3TCq1    C214317   0.405   2.709  13.748  0.1239  0.0851  0.2712
    3TCq1    C314318   0.491   2.634  13.820  0.1773  0.4280  0.3679
    3TCq1    C414319   0.574   2.542  13.756  0.0099  1.1196  0.0070
    3TCq1    C514320   0.561   2.520  13.625 -0.0544  0.0633 -0.1136
    3TCq1    C614321   0.482   2.602  13.551 -0.3893 -0.7343 -0.0718
    3TCq1    C714322   0.408   2.693  13.612  0.1685  0.1461  0.0334
    3TCq1    C814323   0.481   2.580  13.407 -0.3474 -0.0015  0.6903
    3TCq1    O414324   0.578   2.516  13.366  0.1970  0.0018  0.1173
    3TCq1    C914325   0.663   2.460  13.842  0.4306  0.1643  0.7130
    3TCq1    O514326   0.662   2.468  13.968  0.5333 -0.2544 -0.3411
    3TCq1    O614327   0.761   2.412  13.775 -0.1332  0.0686 -0.2027
    3TCq1    H114328   0.432   2.810  13.941 -0.2061 -1.6479  2.0268
    3TCq1    H214329   0.479   2.625  13.927  2.5254  0.8347  0.6657
    3TCq1    H314330   0.628   2.449  13.579  0.3295 -0.7071  1.6276
    3TCq1    H414331   0.342   2.755  13.552 -0.0479 -0.4661 -0.3563
    1MPD2     C14332   4.533   3.912  14.855 -0.2007  0.0127  0.8084
    1MPD2    C114333   4.457   3.798  14.870 -0.4958 -0.4115  0.0268
    1MPD2    C214334   4.520   3.675  14.861 -0.5598  0.1019  0.2584
    1MPD2    C314335   4.655   3.666  14.853 -0.4375  0.8340  0.5009
    1MPD2    C414336   0.013   3.782  14.852  0.5821  0.0265  0.2240
    1MPD2    C514337   4.672   3.904  14.845 -0.1756  0.3376  0.0103
    1MPD2     H14338   4.458   3.592  14.893 -0.7140 -0.4499 -1.4430
    1MPD2    H114339   0.121   3.781  14.867  0.8216  2.0463 -1.3384
    1MPD2    H214340   4.491   4.011  14.863 -1.3420 -0.5762  2.0960
    1MPD2    H314341   0.001   3.999  14.834 -0.4035  0.4375 -0.1880
    1MPD2     N14342   4.711   3.544  14.820 -0.0787 -0.4021  0.1774
    1MPD2    H514343   0.090   3.548  14.821  0.0048 -2.5581 -1.6708
    1MPD2    N114344   4.320   3.807  14.875  0.0186 -0.1894 -0.1021
    1MPD2    H714345   4.292   3.904  14.863  0.2919 -0.3485 -1.9843
    2TMC3    C114346   4.111   3.737  14.798  0.6172  0.1578 -0.5496
    2TMC3    C214347   4.021   3.630  14.792 -0.3828  0.3751 -0.5506
    2TMC3    C314348   3.965   3.610  14.667 -0.6047  0.4384  0.7743
    2TMC3    C414349   4.130   3.827  14.698  0.0214 -0.7521 -1.1641
    2TMC3    C514350   4.051   3.814  14.582  0.4026 -0.0715 -0.5114
    2TMC3    C614351   3.983   3.699  14.559  0.3181  1.2620 -0.3796
    2TMC3     C14352   4.232   3.700  14.867 -0.4687 -0.2996  0.3273
    2TMC3     O14353   4.242   3.578  14.862 -0.5949 -0.8068  0.2580
    2TMC3     H14354   4.013   3.554  14.868 -0.1960  0.2664 -0.6394
    2TMC3    H114355   4.173   3.922  14.728 -0.6436 -0.8455  0.1095
    2TMC3    H214356   3.941   3.677  14.461 -0.5833 -1.4174  0.5898
    2TMC3    C714357   4.071   3.911  14.483 -0.3578 -0.3366 -0.0986
    2TMC3    C814358   3.960   3.471  14.633 -0.3812 -0.3826 -0.1506
    2TMC3    O114359   3.985   3.930  14.401 -0.7946  0.1693 -0.0964
    2TMC3    O214360   3.900   3.441  14.528 -0.0668  0.0148  0.1795
    3TCq1    O114361   0.473   4.279  14.381 -0.1583  0.7457  0.0215
    3TCq1    C114362   0.380   4.347  14.315  0.0080 -0.4509  0.0697
    3TCq1    O214363   0.399   4.448  14.249  0.0523  0.6451 -0.1888
    3TCq1    C214364   0.268   4.257  14.299  0.7985 -0.4149 -0.6831
    3TCq1    C314365   0.298   4.129  14.263  0.1405  0.1011  0.5463
    3TCq1    C414366   0.202   4.046  14.208  0.5005  0.1165  0.0790
    3TCq1    C514367   0.075   4.095  14.185 -0.3872 -0.2576 -0.1724
    3TCq1    C614368   0.048   4.226  14.210 -0.3651  0.2504 -0.2712
    3TCq1    C714369   0.147   4.307  14.272 -0.0348  0.2040 -0.4104
    3TCq1    C814370   4.631   4.271  14.216  0.5110 -0.2613 -0.3777
    3TCq1    O414371   4.615   4.393  14.199  0.2433 -0.1331 -0.4746
    3TCq1    C914372   0.239   3.916  14.153 -0.1319  0.1771  1.0300
    3TCq1    O514373   0.362   3.888  14.149 -0.0652 -0.1755 -0.0100
    3TCq1    O614374   0.142   3.841  14.122 -0.1161  0.1996  0.3703
    3TCq1    H114375   0.423   4.210  14.430  0.2623  0.8188  0.5389
    3TCq1    H214376   0.396   4.091  14.287  0.8276  2.8752  2.0877
    3TCq1    H314377   4.713   4.034  14.153  0.8785 -0.7646 -2.4735
    3TCq1    H414378   0.117   4.410  14.287 -1.4101 -0.3474  0.6557
    4MPD2     C14379   4.336   4.290  14.272 -0.0303 -0.4927  0.2464
    4MPD2    C114380   4.425   4.196  14.328  0.5049  0.1647 -0.5286
    4MPD2    C214381   4.377   4.090  14.403 -0.5808  0.3795  0.2166
    4MPD2    C314382   4.241   4.070  14.409  0.0489 -0.1742  0.7745
    4MPD2    C414383   4.155   4.158  14.354 -0.1838 -0.5250  0.7865
    4MPD2    C514384   4.206   4.271  14.299  0.0272  0.2290  0.2832
    4MPD2     H14385   4.442   4.018  14.451  0.8163  1.7525  0.3944
    4MPD2    H114386   4.047   4.155  14.369  0.1670  0.2956  3.3834
    4MPD2    H214387   4.384   4.372  14.221 -0.7191 -0.1716  0.1243
    4MPD2    H314388   4.136   4.347  14.265  1.8994  1.4717 -0.7985
    4MPD2     N14389   4.198   3.961  14.485  0.1202 -0.1901 -0.2038
    4MPD2    H514390   4.272   3.915  14.535 -0.8939 -0.9222  0.6261
    4MPD2    N114391   4.562   4.193  14.301 -0.6826 -0.5199  0.1603
    4MPD2    H714392   4.610   4.109  14.331  0.8564  0.6821  1.0268
    5TMC2    C114393   4.604   3.133  14.840  0.2214 -0.4742  0.4045
    5TMC2    C214394   4.659   3.143  14.965 -0.4448  0.0626  0.2240
    5TMC2    C314395   0.039   3.224  14.991  0.5260 -0.2741  0.7897
    5TMC2    C414396   4.650   3.208  14.739  0.2394  0.1455  0.1289
    5TMC2    C514397   0.013   3.308  14.782 -0.0452  0.3370 -0.4267
    5TMC2    C614398   0.088   3.300  14.896 -0.1371 -0.5801 -0.7756
    5TMC2     C14399   4.458   3.119  14.833 -0.0967  0.7105 -0.1926
    5TMC2     O14400   4.405   3.174  14.930 -0.5501  0.3445 -0.2456
    5TMC2     H14401   4.616   3.075  15.039  0.7472  0.4078  1.2389
    5TMC2    H114402   4.585   3.215  14.652  0.9953 -0.4122 -0.4839
    5TMC2    H214403   0.165   3.372  14.924 -1.5671  0.8767 -0.5936
    5TMC2    C714404   4.645   3.429  14.795 -0.4108  0.4327 -0.2884
    5TMC2    C814405   0.141   3.197  15.092  0.1272 -0.6668 -0.1092
    5TMC2    O114406   4.524   3.409  14.791  0.0486 -0.2575 -0.1699
    5TMC2    O214407   0.259   3.222  15.073 -0.2132  0.9332  0.0174
    5TMC2    O514408   0.081   3.161  15.207 -0.3794 -0.0938 -0.0589
    5TMC2    H514409   4.711   3.194  15.210 -0.6979 -0.9878  0.1028
    6MPD2     C14410   4.051   3.191  14.556  0.4751  0.0258 -0.4062
    6MPD2    C114411   4.107   3.266  14.657 -0.1070 -0.1976 -1.0904
    6MPD2    C214412   4.221   3.211  14.715  0.2875  0.4449 -0.3015
    6MPD2    C314413   4.283   3.098  14.671 -0.1054  0.6630  0.3343
    6MPD2    C414414   4.234   3.024  14.568  0.4429 -0.0688  0.0555
    6MPD2    C514415   4.114   3.076  14.519 -0.5298  0.5539 -0.4239
    6MPD2     H14416   4.265   3.262  14.800 -1.7472  1.5635  0.0771
    6MPD2    H114417   4.280   2.937  14.522 -1.0554 -2.3743  2.9330
    6MPD2    H214418   3.970   3.222  14.491  0.8326  0.6586 -0.5476
    6MPD2    H314419   4.082   3.022  14.430  0.5098  1.1934 -1.1895
    6MPD2     N14420   4.407   3.059  14.721  0.0857 -0.2191 -0.7214
    6MPD2    H514421   4.464   2.994  14.668  0.1489 -0.9781  0.2802
    6MPD2    N114422   4.061   3.397  14.694 -0.7930 -0.5261 -0.5059
    6MPD2    H714423   4.120   3.446  14.761 -1.7355  0.0541 -0.1098
  945NH4     N114424   0.958   2.242  17.478  0.3421 -0.3056 -0.2444
  945NH4     H214425   1.005   2.194  17.558 -0.1634 -1.9278 -0.9120
  945NH4     H314426   1.016   2.317  17.436  0.8082  0.1136  1.1381
  945NH4     H414427   0.869   2.288  17.506  0.6882 -0.3517  0.9516
  945NH4     H514428   0.949   2.174  17.400 -0.5281  2.5114 -2.5600
  946SOD     NA14429   0.267   2.914  11.498 -0.2428 -0.2338 -0.3714
  947SOD     NA14430   1.945   4.418  11.887  0.1178 -0.1519 -0.1507
  948SOD     NA14431   0.142   2.157   9.335 -0.1189 -0.0218  0.4729
  949SOD     NA14432   1.454   1.679   6.418  0.2026 -0.2572 -0.5614
  950SOD     NA14433   0.079   3.911   0.646 -0.1898  0.1731  0.1859
  951SOD     NA14434   4.416   4.070   9.879 -0.3579 -0.3807  0.2068
  952SOD     NA14435   2.722   3.102  16.028  0.1782  0.4249  0.2010
  953SOD     NA14436   4.399   0.843   2.045  0.1339 -0.3044 -0.5180
  954SOD     NA14437   4.205   4.367  13.016 -0.2292  0.5960 -0.2934
  955SOD     NA14438   2.818   0.058   0.496  0.4958  0.5412  0.2553
  956SOD     NA14439   0.964   2.359  13.823  0.4733 -0.0367  0.5713
  957SOD     NA14440   4.583   0.990  11.133  0.0955  0.3411  0.5858
  958SOD     NA14441   3.220   0.138   0.830  0.2825 -0.1972 -0.6990
  959SOD     NA14442   3.381   1.977  10.368  0.1121  0.4960  0.3316
  960SOD     NA14443   2.719   1.262  16.212 -0.0746 -0.1350  0.2089
  961SOD     NA14444   0.571   2.056  12.315 -0.5297  0.6135 -0.9194
  962SOD     NA14445   4.005   3.842   5.678  0.4880 -0.0411  0.3726
  963SOD     NA14446   1.800   2.610   8.087  0.1118 -0.4440 -0.5290
  964SOD     NA14447   0.926   1.295  10.164  0.5608  0.0761 -0.0983
  965SOD     NA14448   1.138   1.205   3.082 -0.0949  0.0309 -0.2851
  966SOD     NA14449   0.087   3.461   0.124 -0.2694  0.2162  0.3044
  967SOD     NA14450   4.079   2.149  13.128 -0.9519 -0.4615  0.4852
  968SOD     NA14451   0.899   2.430  10.845 -0.2815  0.0803 -0.4196
  969SOD     NA14452   2.798   3.185   0.634 -0.0743 -0.1812  0.0966
  970SOD     NA14453   1.447   3.838   4.432  0.0038  0.1430 -0.1839
  971SOD     NA14454   0.058   1.797  10.023  0.2364  0.0360  0.0669
  972SOD     NA14455   0.641   2.749  14.394  0.1973 -0.5514 -0.0379
  973SOD     NA14456   4.571   0.710  11.123  0.0054  0.0326 -0.4588
  974SOD     NA14457   3.338   3.231   1.377  0.7272 -0.1556 -0.2866
  975SOD     NA14458   0.112   1.519   9.819  0.0394 -0.2348  0.0220
  976SOD     NA14459   4.247   2.444  13.258 -0.3105  0.0094 -0.0343
  977SOD     NA14460   3.397   0.599  16.888 -0.6253  0.4157  0.2847
  978SOD     NA14461   2.751   4.153   3.998  0.2700 -0.3491  0.2366
  979SOD     NA14462   2.331   1.895   3.321 -0.0903 -0.8801 -0.1913
  980SOD     NA14463   0.995   0.737  13.305  0.0079  0.1485  0.0284
  981SOD     NA14464   4.302   3.026  10.517 -0.0176  0.4404 -0.6357
  982SOD     NA14465   1.336   2.236  10.279 -0.3138 -0.7981  0.3473
  983SOD     NA14466   0.894   3.734  15.179  0.3432  0.0470 -0.1122
  984SOD     NA14467   0.541   3.846  10.935 -0.0709 -0.0072  0.1867
  985SOD     NA14468   3.259   1.815  13.067 -0.0696 -0.0318 -0.1162
  986SOD     NA14469   4.379   3.385  14.979 -0.0325  0.2794  0.7073
  987SOD     NA14470   2.158   3.102  13.811  0.4750  0.0013 -0.2394
  988SOD     NA14471   0.087   1.202   9.909  0.2668  0.3626 -0.0336
  989SOD     NA14472   1.096   2.098  10.096  0.5378 -0.2792 -0.1284
  990SOD     NA14473   2.633   1.209   1.343  0.1486  0.1663  0.2516
  991SOD     NA14474   0.545   2.266   0.693 -0.0829  0.2783 -0.4266
  992SOD     NA14475   0.434   0.585   7.641  0.4708 -0.1663  0.0092
  993SOD     NA14476   0.950   2.622  14.390  0.4088  0.1262 -0.2766
  994SOD     NA14477   1.217   4.402  14.002  0.1190  0.1035 -0.5246
  995SOD     NA14478   0.929   1.188  17.431 -0.2434  0.5427 -0.0365
  996SOD     NA14479   2.853   1.095  14.061 -0.3005 -0.7093  0.0113
  997SOD     NA14480   2.078   4.413   2.630  0.4961 -0.0284 -0.2997
  998SOD     NA14481   0.380   2.635  11.500 -0.3777  0.3193  0.1623
  999SOD     NA14482   1.938   3.740  15.296  0.0581  0.0123  0.8414
 1000SOD     NA14483   2.000   3.908  13.145 -0.0864 -0.4090 -0.2673
 1001SOD     NA14484   4.456   3.133  15.345 -0.2289  0.4528  0.1033
 1002SOD     NA14485   0.774   2.526  14.143  0.1538  0.1007 -0.1381
 1003SOD     NA14486   0.051   0.901  10.908 -0.1600  0.2243 -0.1298
 1004SOD     NA14487   0.741   4.586   2.634  0.1286  0.3647  0.1737
 1005SOD     NA14488   1.593   3.295  16.843 -0.3521  0.3680 -0.1779
 1006SOD     NA14489   4.242   4.006  11.629 -0.1167 -0.3809 -0.3946
 1007SOD     NA14490   0.991   0.499   4.627  0.0111  0.9987  0.7315
 1008SOD     NA14491   1.589   1.622   8.375  0.3486 -0.0880  0.0101
 1009SOD     NA14492   2.002   3.238  10.681  0.2015  0.0210  0.5053
 1010SOD     NA14493   4.679   1.878   9.743 -0.1482  0.2961 -0.3039
 1011SOL     OW14494   2.286   3.809  16.753  0.7947 -0.3376  0.3306
 1011SOL    HW114495   2.202   3.766  16.769 -0.6056  2.5678  0.8142
 1011SOL    HW214496   2.331   3.743  16.700  0.7699 -0.5789  0.6140
 1012SOL     OW14497   3.744   2.044  17.356  0.2701  0.1265  0.2320
 1012SOL    HW114498   3.664   1.992  17.361  1.0401 -1.1312 -0.5928
 1012SOL    HW214499   3.792   2.021  17.435 -0.9801  0.1822  1.0066
 1013SOL     OW14500   1.789   0.366  16.437 -0.3152 -0.1365 -0.1946
 1013SOL    HW114501   1.751   0.283  16.406 -1.9992  1.0048 -1.1762
 1013SOL    HW214502   1.870   0.333  16.475  1.8580  2.6848 -2.4077
 1014SOL     OW14503   3.355   3.893   7.147 -0.3701 -0.2908  0.5601
 1014SOL    HW114504   3.428   3.834   7.164  0.6396  0.9988  0.7173
 1014SOL    HW214505   3.288   3.839   7.189 -0.4285  1.2018  2.4029
 1015SOL     OW14506   3.821   1.390   2.470 -0.5218 -0.1463 -0.0400
 1015SOL    HW114507   3.913   1.416   2.462 -0.6106  0.3870  0.6823
 1015SOL    HW214508   3.837   1.318   2.531  0.7163 -0.5465 -0.8382
 1016SOL     OW14509   2.877   3.200  16.482  0.2077 -0.2368  0.2337
 1016SOL    HW114510   2.968   3.182  16.506  0.1208 -0.1965  0.5845
 1016SOL    HW214511   2.844   3.115  16.511 -0.4305  0.4355  1.4642
 1017SOL     OW14512   2.170   0.452   7.808  0.2224  0.3328 -0.2359
 1017SOL    HW114513   2.177   0.494   7.893 -0.8462 -1.3111  0.6735
 1017SOL    HW214514   2.076   0.433   7.817  0.5123 -0.4744  1.0643
 1018SOL     OW14515   2.504   3.813   8.333  0.1741 -0.6230 -0.6453
 1018SOL    HW114516   2.512   3.890   8.389 -0.4832  1.0199 -2.8567
 1018SOL    HW214517   2.470   3.844   8.250  2.4636  2.5407 -0.3853
 1019SOL     OW14518   0.999   1.507   7.850 -0.8617  0.0299 -0.2138
 1019SOL    HW114519   1.026   1.598   7.839  0.0854 -0.1282  0.8566
 1019SOL    HW214520   0.930   1.513   7.916  0.0807 -0.4700  0.8162
 1020SOL     OW14521   2.982   2.322   5.841 -1.0171  0.5468  0.0913
 1020SOL    HW114522   2.945   2.386   5.901 -2.0853  2.5250 -2.6588
 1020SOL    HW214523   3.054   2.283   5.891 -0.2630 -0.4174 -1.7384
 1021SOL     OW14524   0.251   4.122   1.550  0.2062 -0.4718  0.0463
 1021SOL    HW114525   0.217   4.209   1.572 -1.4486 -0.7293 -1.5382
 1021SOL    HW214526   0.303   4.104   1.629  0.5811 -0.3542 -0.1760
 1022SOL     OW14527   4.708   0.241   8.426 -0.3887  0.0360 -0.7987
 1022SOL    HW114528   4.674   0.330   8.418 -1.0052 -0.1605 -0.3172
 1022SOL    HW214529   0.068   0.255   8.474 -1.9217 -1.4779  2.2503
 1023SOL     OW14530   4.714   1.611   1.611  0.7110  0.0757  0.2537
 1023SOL    HW114531   4.670   1.672   1.670 -0.2154 -1.3343  1.0145
 1023SOL    HW214532   0.073   1.610   1.663  0.3927  0.1474  0.7498
 1024SOL     OW14533   1.306   3.975   0.946  0.5325  0.3969 -0.2705
 1024SOL    HW114534   1.228   4.029   0.960 -1.1962 -1.7211 -1.7780
 1024SOL    HW214535   1.367   4.031   0.995 -2.0106  1.1631  2.0559
 1025SOL     OW14536   2.436   1.801  13.084 -0.4865 -0.4040 -0.0584
 1025SOL    HW114537   2.359   1.807  13.028  0.0868  0.8080 -0.7289
 1025SOL    HW214538   2.404   1.820  13.172  0.3658  2.0022 -0.2490
 1026SOL     OW14539   2.361   1.463  13.871  0.0552 -0.2493  0.0214
 1026SOL    HW114540   2.440   1.514  13.890  0.5134 -0.8236 -0.3461
 1026SOL    HW214541   2.358   1.462  13.775  1.1052 -0.7544 -0.0012
 1027SOL     OW14542   1.330   4.683  12.580  0.2269 -0.0699  0.3454
 1027SOL    HW114543   1.339   0.056  12.595  1.2403  0.0808 -1.2048
 1027SOL    HW214544   1.296   4.678  12.491  1.9814 -0.1612 -0.3196
 1028SOL     OW14545   4.273   4.036   9.364  0.3101 -0.1730  0.2167
 1028SOL    HW114546   4.331   4.078   9.301 -0.2969  0.4543  0.0766
 1028SOL    HW214547   4.336   3.984   9.413 -0.0130 -1.7382 -1.0345
 1029SOL     OW14548   1.406   4.308   5.780  0.1326 -0.1014  0.3315
 1029SOL    HW114549   1.371   4.229   5.739 -1.0799 -0.2306  1.6086
 1029SOL    HW214550   1.402   4.372   5.710  1.0651 -1.5195 -1.0146
 1030SOL     OW14551   3.407   4.381   7.498  0.0982  0.0868 -0.1463
 1030SOL    HW114552   3.368   4.355   7.582  1.8732 -1.9307  0.0704
 1030SOL    HW214553   3.453   4.462   7.520  0.8673 -0.2922 -0.3586
 1031SOL     OW14554   0.111   4.665   5.912 -0.0488  0.4526  0.3469
 1031SOL    HW114555   0.203   4.678   5.934  0.6648 -4.3434  0.1955
 1031SOL    HW214556   0.076   4.703   5.993  1.6017 -1.0452  1.7621
 1032SOL     OW14557   1.611   4.418  14.981 -0.2649  0.0782 -0.3720
 1032SOL    HW114558   1.535   4.462  14.941  0.0868  0.2219 -0.8833
 1032SOL    HW214559   1.682   4.430  14.918  0.3424  0.0165  0.3101
 1033SOL     OW14560   3.697   4.230   8.359  0.0639  0.2129 -0.2605
 1033SOL    HW114561   3.703   4.303   8.297  0.3908  2.1441  2.0578
 1033SOL    HW214562   3.608   4.199   8.344 -0.6116  2.9282 -1.8709
 1034SOL     OW14563   0.435   4.382  14.674  0.1720 -0.4095  0.0250
 1034SOL    HW114564   0.460   4.293  14.648 -0.6090 -0.4808 -0.4613
 1034SOL    HW214565   0.343   4.390  14.649  0.6667 -0.8819 -1.9824
 1035SOL     OW14566   2.191   3.306   0.809  0.0048  0.4639 -0.4759
 1035SOL    HW114567   2.197   3.401   0.812  0.6110  0.4038  0.4862
 1035SOL    HW214568   2.104   3.287   0.845 -0.0863  0.7942 -0.5234
 1036SOL     OW14569   2.614   1.791   1.521 -0.0270 -0.3573 -0.0473
 1036SOL    HW114570   2.542   1.730   1.506  0.4700 -0.7415 -0.8588
 1036SOL    HW214571   2.585   1.827   1.605  0.1824 -2.0942  0.7748
 1037SOL     OW14572   3.332   3.061   8.358  0.0725 -0.3243 -0.3446
 1037SOL    HW114573   3.309   3.154   8.350 -0.4856 -0.4638 -0.3804
 1037SOL    HW214574   3.301   3.014   8.280 -0.4967 -0.0062 -0.3122
 1038SOL     OW14575   1.342   1.634   3.131  0.3240  0.2187 -0.2632
 1038SOL    HW114576   1.322   1.673   3.046 -0.9534  2.3278  0.9933
 1038SOL    HW214577   1.424   1.667   3.168  1.2492 -3.5566  0.9901
 1039SOL     OW14578   2.914   2.669   4.431  0.2450  0.0430  0.3410
 1039SOL    HW114579   2.825   2.636   4.449 -0.0422  0.9297  0.5373
 1039SOL    HW214580   2.930   2.731   4.502 -1.4796 -0.6553  1.3579
 1040SOL     OW14581   2.741   1.477   6.528 -0.1948 -0.0197 -0.3586
 1040SOL    HW114582   2.695   1.394   6.521  1.7623 -1.0384 -1.0820
 1040SOL    HW214583   2.672   1.530   6.569 -0.2954 -0.1565 -0.3538
 1041SOL     OW14584   0.395   1.992   2.947  0.2579 -0.2274 -0.0027
 1041SOL    HW114585   0.418   2.034   2.864 -0.0209  0.9299  0.5125
 1041SOL    HW214586   0.467   1.929   2.957 -0.3287 -0.5868  2.0652
 1042SOL     OW14587   0.366   1.475   5.626  0.1952  0.0262  0.1240
 1042SOL    HW114588   0.390   1.515   5.543 -1.6744 -1.5873 -1.1978
 1042SOL    HW214589   0.290   1.425   5.597  0.0152  0.0326  0.5786
 1043SOL     OW14590   3.043   3.863   0.289 -0.2017 -0.2173  0.2212
 1043SOL    HW114591   2.966   3.837   0.239  1.8457 -1.0159 -2.5526
 1043SOL    HW214592   3.095   3.900   0.217 -2.6220  1.0420 -0.8878
 1044SOL     OW14593   0.602   3.153   1.613 -0.2881  0.2098 -0.0983
 1044SOL    HW114594   0.567   3.185   1.696 -0.4230 -1.9907  0.6901
 1044SOL    HW214595   0.691   3.185   1.627  0.6563 -2.7036  0.3571
 1045SOL     OW14596   4.034   2.808   0.683  0.2229 -0.6542 -0.0873
 1045SOL    HW114597   4.071   2.843   0.603  0.9228  0.5476  0.7629
 1045SOL    HW214598   4.050   2.882   0.742 -1.1749  1.2468 -2.0797
 1046SOL     OW14599   2.782   3.150   2.372  0.1667  0.6762 -0.5491
 1046SOL    HW114600   2.754   3.216   2.309 -1.0754  0.7100  0.0391
 1046SOL    HW214601   2.762   3.071   2.322 -1.4337  1.1951 -0.7224
 1047SOL     OW14602   3.974   2.198  11.380  0.2893 -0.3297  0.2739
 1047SOL    HW114603   4.065   2.215  11.355 -0.0611 -1.5762 -1.8745
 1047SOL    HW214604   3.954   2.112  11.342 -1.6344  0.3011 -0.1271
 1048SOL     OW14605   2.601   0.400   0.291  0.2342  0.1310  0.3589
 1048SOL    HW114606   2.576   0.487   0.258  0.8597 -0.4062 -1.5056
 1048SOL    HW214607   2.601   0.422   0.384  0.4821  0.3305  0.3114
 1049SOL     OW14608   2.287   3.937  12.505  0.5281 -0.5687 -0.0583
 1049SOL    HW114609   2.272   3.853  12.461 -2.6984 -0.3331  0.5445
 1049SOL    HW214610   2.367   3.966  12.463  0.0930 -1.1326 -1.2830
 1050SOL     OW14611   0.516   4.006  17.319 -0.0840  0.2726 -0.2350
 1050SOL    HW114612   0.560   3.937  17.271  1.4140  1.3065 -0.3554
 1050SOL    HW214613   0.426   3.975  17.306  0.2907 -0.9829  0.1762
 1051SOL     OW14614   3.019   2.859   2.604 -0.3816 -0.1421 -0.5772
 1051SOL    HW114615   3.051   2.827   2.519  0.0295  1.5442 -1.0498
 1051SOL    HW214616   3.047   2.950   2.592  0.5713 -0.8155 -3.5422
 1052SOL     OW14617   3.447   1.430   3.879  0.4656 -0.6720 -0.6333
 1052SOL    HW114618   3.377   1.468   3.932  1.4469  0.5578 -0.2295
 1052SOL    HW214619   3.514   1.412   3.945  0.5813 -0.9399 -0.8243
 1053SOL     OW14620   1.028   3.806  17.247 -0.2464  0.0347 -0.1868
 1053SOL    HW114621   1.014   3.897  17.274  4.2835  0.8382 -0.5602
 1053SOL    HW214622   1.106   3.811  17.192 -0.0655 -1.5060 -0.0586
 1054SOL     OW14623   0.627   3.484   0.367  0.2060 -0.1681 -0.6605
 1054SOL    HW114624   0.704   3.478   0.311 -1.0112  2.5554 -2.5955
 1054SOL    HW214625   0.637   3.570   0.407 -3.4056 -0.1153  0.0933
 1055SOL     OW14626   0.702   0.174  11.355 -0.5227 -0.4604 -0.4146
 1055SOL    HW114627   0.751   0.099  11.387  0.4399  1.0942  1.7585
 1055SOL    HW214628   0.611   0.148  11.367 -0.1730 -1.5487 -0.1404
 1056SOL     OW14629   3.851   2.412   3.821 -0.3289  0.7998 -0.1914
 1056SOL    HW114630   3.777   2.355   3.798  0.4153  0.6616 -2.2876
 1056SOL    HW214631   3.822   2.500   3.847 -1.5943  0.0918  0.7768
 1057SOL     OW14632   4.592   0.778   4.634 -0.1486  0.2321  0.2331
 1057SOL    HW114633   4.645   0.854   4.656 -1.3613  0.7764  1.2465
 1057SOL    HW214634   4.505   0.803   4.664 -0.2120 -0.4978  0.6709
 1058SOL     OW14635   3.752   1.750   6.793  0.3442 -0.1955  0.2754
 1058SOL    HW114636   3.781   1.841   6.799  0.9069 -0.2387 -1.6915
 1058SOL    HW214637   3.737   1.730   6.885 -3.0391  0.0696 -0.2324
 1059SOL     OW14638   0.235   1.859   3.337 -0.3271  0.8834  0.3163
 1059SOL    HW114639   0.223   1.768   3.307  2.5961  0.2299  1.1697
 1059SOL    HW214640   0.319   1.880   3.297 -0.9871 -0.8841 -2.0178
 1060SOL     OW14641   2.647   1.672   8.454  0.2098  0.2937  0.2164
 1060SOL    HW114642   2.646   1.768   8.450 -0.7104  0.2958  0.6798
 1060SOL    HW214643   2.675   1.657   8.364 -0.7968  1.8711 -0.3617
 1061SOL     OW14644   0.357   2.801   5.008 -0.1421  0.2805 -0.0837
 1061SOL    HW114645   0.297   2.875   5.018 -0.9115 -0.4517  0.6667
 1061SOL    HW214646   0.309   2.737   4.956 -0.4325  0.7793 -0.4254
 1062SOL     OW14647   1.645   4.379   2.777 -0.0955  0.0006  0.7362
 1062SOL    HW114648   1.560   4.367   2.819  0.4314 -2.3397  1.1284
 1062SOL    HW214649   1.701   4.425   2.841 -0.3469  1.0177  0.2186
 1063SOL     OW14650   4.096   2.867  12.107  0.6247 -0.0295 -0.0910
 1063SOL    HW114651   4.165   2.831  12.051  0.2977 -1.5280  0.4751
 1063SOL    HW214652   4.069   2.793  12.162  0.1488  0.3304  0.1531
 1064SOL     OW14653   0.559   0.800  12.415  0.3027 -0.4157  0.1746
 1064SOL    HW114654   0.489   0.735  12.409  0.2418 -0.3984  0.7187
 1064SOL    HW214655   0.513   0.880  12.439  0.1689 -0.5068  0.2246
 1065SOL     OW14656   4.514   3.381   4.070 -0.0536  0.4045  0.3132
 1065SOL    HW114657   4.595   3.421   4.101 -0.2886  1.5812 -0.6126
 1065SOL    HW214658   4.549   3.301   4.031 -0.8564 -1.0971  2.6341
 1066SOL     OW14659   1.714   2.135  14.489  0.8381 -0.0138 -0.5976
 1066SOL    HW114660   1.775   2.196  14.446  0.0774  2.2389  1.4579
 1066SOL    HW214661   1.628   2.177  14.485 -0.4971 -2.2943  3.8499
 1067SOL     OW14662   1.870   2.286   2.745 -0.0476 -0.3372  0.4293
 1067SOL    HW114663   1.965   2.275   2.744  0.3341  2.8567 -0.0766
 1067SOL    HW214664   1.852   2.346   2.672  0.2527 -1.8125 -0.8506
 1068SOL     OW14665   2.553   4.667   2.722  0.4898 -0.6028  1.3044
 1068SOL    HW114666   2.471   4.714   2.708  1.6972  0.8345 -0.8377
 1068SOL    HW214667   2.523   4.576   2.720  1.3009 -0.7937 -1.6386
 1069SOL     OW14668   3.440   2.549   7.072 -0.0450  0.2420  0.5706
 1069SOL    HW114669   3.529   2.519   7.055  0.0747 -0.4611  2.4158
 1069SOL    HW214670   3.404   2.490   7.139  1.1652 -0.4260  0.6343
 1070SOL     OW14671   3.849   0.459   8.037  0.0189  0.5210 -0.4902
 1070SOL    HW114672   3.898   0.509   8.103 -1.1617 -1.3177  1.7978
 1070SOL    HW214673   3.794   0.530   8.006 -1.6317  0.3102  1.9483
 1071SOL     OW14674   2.177   3.170  15.347  0.0814  0.8456  0.1477
 1071SOL    HW114675   2.246   3.120  15.391 -0.1178  1.0316  0.6747
 1071SOL    HW214676   2.229   3.225  15.288  0.6509  0.5983  0.4117
 1072SOL     OW14677   0.862   3.604   6.653  0.0294  0.0549 -0.0538
 1072SOL    HW114678   0.865   3.696   6.628  2.3388  0.1355  0.5366
 1072SOL    HW214679   0.830   3.610   6.743  0.4972  1.0075  0.0450
 1073SOL     OW14680   3.404   2.941  13.401  0.7342  0.7764  0.2235
 1073SOL    HW114681   3.330   3.002  13.414  1.4493  1.5774  0.5341
 1073SOL    HW214682   3.474   2.994  13.439  2.0990 -1.9002  1.3939
 1074SOL     OW14683   2.925   1.202   8.922 -0.4748  0.2871 -0.5164
 1074SOL    HW114684   2.947   1.239   8.837  0.9946  0.4614 -0.0531
 1074SOL    HW214685   2.912   1.109   8.903 -0.3580 -0.2670  2.1554
 1075SOL     OW14686   4.379   3.116   0.592 -0.6541  0.4010 -0.4631
 1075SOL    HW114687   4.320   3.192   0.590 -0.1054  0.8978  2.3290
 1075SOL    HW214688   4.406   3.109   0.684  2.7002  1.5696 -1.3927
 1076SOL     OW14689   0.082   3.679   2.815  0.0056  0.2879  0.1542
 1076SOL    HW114690   4.709   3.696   2.812  0.2679  1.4968 -1.1592
 1076SOL    HW214691   0.104   3.733   2.740 -1.0902 -3.0219 -2.5411
 1077SOL     OW14692   3.466   4.565   5.557  0.0016 -0.5238  0.2043
 1077SOL    HW114693   3.379   4.531   5.534 -0.4980  0.3787  0.7859
 1077SOL    HW214694   3.443   4.591   5.646  1.1483  1.6694 -0.1480
 1078SOL     OW14695   1.485   3.060   2.376  0.1082  0.3347 -0.2248
 1078SOL    HW114696   1.436   3.076   2.295  1.4855  0.4505 -1.0332
 1078SOL    HW214697   1.574   3.077   2.344 -1.1231  1.9559 -2.7655
 1079SOL     OW14698   3.374   0.323   2.719  0.5565 -0.5750  0.5696
 1079SOL    HW114699   3.320   0.326   2.798  1.9139 -0.6428  1.4918
 1079SOL    HW214700   3.384   0.418   2.708  0.7824 -0.6936 -0.2495
 1080SOL     OW14701   3.324   1.255  13.960 -0.1201  0.0285  0.1179
 1080SOL    HW114702   3.355   1.271  13.870  0.2075 -1.5613 -0.0387
 1080SOL    HW214703   3.371   1.175  13.983  2.8024  1.9475  0.7959
 1081SOL     OW14704   2.614   0.753   2.948  0.4558  0.1464  0.3356
 1081SOL    HW114705   2.571   0.724   2.868  1.3371 -0.9082  0.2507
 1081SOL    HW214706   2.655   0.837   2.926  1.7923 -0.7229 -0.4833
 1082SOL     OW14707   3.481   0.507   1.857 -0.0573  0.0386  0.0258
 1082SOL    HW114708   3.420   0.579   1.872  1.1226  1.3462 -1.4860
 1082SOL    HW214709   3.446   0.472   1.775  0.0415  0.9654 -0.4131
 1083SOL     OW14710   0.565   2.661   5.900 -0.4773 -0.1532  0.7782
 1083SOL    HW114711   0.572   2.590   5.837 -0.6402  1.6416 -1.2429
 1083SOL    HW214712   0.471   2.671   5.911 -0.0901  2.0106  2.3073
 1084SOL     OW14713   1.800   3.990  13.597  0.4974  0.1427  0.0707
 1084SOL    HW114714   1.823   4.033  13.515  0.5792 -0.8650 -0.4348
 1084SOL    HW214715   1.797   3.896  13.582  0.3543 -0.1341  1.7951
 1085SOL     OW14716   3.567   2.331   6.434  0.6310  0.5375 -0.3204
 1085SOL    HW114717   3.574   2.346   6.340 -0.1174  0.8980 -0.3195
 1085SOL    HW214718   3.543   2.239   6.435  1.5909  0.2847 -0.7647
 1086SOL     OW14719   2.748   2.308   5.119 -0.4911  0.2277 -0.5405
 1086SOL    HW114720   2.835   2.275   5.093 -1.1427 -1.5734 -0.4169
 1086SOL    HW214721   2.766   2.394   5.158  0.5066  0.1361 -0.7788
 1087SOL     OW14722   2.942   3.008   6.558  0.2721 -0.0167 -0.0058
 1087SOL    HW114723   2.970   3.063   6.485 -3.2089  2.7124  0.7007
 1087SOL    HW214724   2.976   2.922   6.534  1.3140  0.5305 -0.4754
 1088SOL     OW14725   4.131   3.114   5.836  0.2533  0.2226  0.3562
 1088SOL    HW114726   4.194   3.075   5.775  0.8377  1.5017  0.1229
 1088SOL    HW214727   4.175   3.098   5.919  1.1116  2.1497  0.2700
 1089SOL     OW14728   3.194   4.560   3.996  0.0715  0.1201 -0.3616
 1089SOL    HW114729   3.162   4.635   3.945  0.5608 -0.9488 -2.2590
 1089SOL    HW214730   3.161   4.484   3.948 -1.2249 -0.0370  0.7853
 1090SOL     OW14731   3.694   4.702   9.767  0.0189  0.1396 -0.9410
 1090SOL    HW114732   3.704   4.657   9.684  3.4912  3.5188 -2.3155
 1090SOL    HW214733   3.629   0.047   9.744 -0.5922 -0.7894 -1.8697
 1091SOL     OW14734   4.349   2.852  12.014 -0.0999  0.4739  0.2237
 1091SOL    HW114735   4.344   2.938  12.057 -1.1638  0.8336 -0.6154
 1091SOL    HW214736   4.326   2.876  11.924  2.2259  1.8873 -0.0077
 1092SOL     OW14737   3.094   1.170  10.529 -0.3519  0.9830  0.8036
 1092SOL    HW114738   3.031   1.106  10.563  1.6709 -1.2748  0.3401
 1092SOL    HW214739   3.118   1.130  10.445  0.9308 -1.5460  2.3622
 1093SOL     OW14740   4.106   2.763   7.501 -0.2748 -0.7250  0.1580
 1093SOL    HW114741   4.088   2.808   7.584  0.4807 -1.1195  0.5319
 1093SOL    HW214742   4.174   2.813   7.457 -1.9672  1.1602 -0.3169
 1094SOL     OW14743   1.552   1.407   8.344 -0.2356 -0.2362  0.9373
 1094SOL    HW114744   1.514   1.380   8.261 -0.1114 -0.8424  1.0727
 1094SOL    HW214745   1.534   1.332   8.402 -0.5261 -0.7495  0.1783
 1095SOL     OW14746   1.813   3.560   4.317  0.1752 -0.1536  0.0852
 1095SOL    HW114747   1.895   3.549   4.365  1.1176 -2.2782 -1.9641
 1095SOL    HW214748   1.825   3.535   4.225 -1.2385  0.9893 -0.4109
 1096SOL     OW14749   2.272   0.623   0.778 -0.4522  0.5007 -0.3478
 1096SOL    HW114750   2.253   0.568   0.854  0.5150 -1.5676 -1.5931
 1096SOL    HW214751   2.275   0.709   0.820 -0.4627 -0.2905  1.2744
 1097SOL     OW14752   1.490   2.679   3.548  0.5356  0.5282  0.5784
 1097SOL    HW114753   1.468   2.649   3.460 -0.6359  0.9887  0.7069
 1097SOL    HW214754   1.564   2.622   3.571  1.5775  1.4696 -0.4952
 1098SOL     OW14755   3.361   3.811   3.428  0.0256 -0.3800  0.2289
 1098SOL    HW114756   3.421   3.737   3.416  1.2848  0.7606 -0.5206
 1098SOL    HW214757   3.290   3.806   3.364  2.2554 -0.9650 -2.1958
 1099SOL     OW14758   1.448   4.215   7.082 -0.5082 -0.5802 -0.0672
 1099SOL    HW114759   1.447   4.309   7.066 -1.4139 -0.7546 -1.0014
 1099SOL    HW214760   1.355   4.212   7.104 -0.2106 -0.2836  1.2652
 1100SOL     OW14761   2.513   2.175  11.304 -0.0819  0.1564  0.2848
 1100SOL    HW114762   2.563   2.100  11.272 -0.3642 -0.4216  1.1855
 1100SOL    HW214763   2.473   2.148  11.388  2.5862  3.0432  2.4598
 1101SOL     OW14764   2.778   2.064  16.328 -0.4976  0.5236  0.3452
 1101SOL    HW114765   2.778   2.156  16.352 -0.5182  0.7326 -0.4748
 1101SOL    HW214766   2.800   2.031  16.416  2.1732  0.4735 -0.3510
 1102SOL     OW14767   1.387   2.694   8.495  0.0195  0.2217 -0.2461
 1102SOL    HW114768   1.291   2.693   8.498  0.0428 -0.3959  0.1127
 1102SOL    HW214769   1.401   2.602   8.474 -0.1656  0.5641 -1.8722
 1103SOL     OW14770   3.391   3.040   6.344 -0.3260 -0.0641  0.4521
 1103SOL    HW114771   3.437   2.957   6.358 -1.6451 -0.9009 -0.1524
 1103SOL    HW214772   3.456   3.105   6.315  0.2990 -0.0777  1.8263
 1104SOL     OW14773   4.089   2.704   8.145  0.1836 -0.8419  0.4277
 1104SOL    HW114774   4.016   2.741   8.193 -0.2749 -1.0887 -0.0709
 1104SOL    HW214775   4.144   2.781   8.129  0.4433 -0.7776  1.6894
 1105SOL     OW14776   3.855   3.583   8.141  0.0568  0.1391  0.8291
 1105SOL    HW114777   3.779   3.633   8.109 -1.3419 -2.2679  0.4223
 1105SOL    HW214778   3.841   3.495   8.107 -3.2178  1.2542 -0.8327
 1106SOL     OW14779   2.084   4.239   5.661 -1.0085  0.3605  0.3362
 1106SOL    HW114780   2.121   4.318   5.620 -1.7531  0.0154 -0.9877
 1106SOL    HW214781   2.022   4.280   5.721  1.9885  1.6823  2.5749
 1107SOL     OW14782   2.171   3.853   4.873  0.5426 -0.3123  0.1566
 1107SOL    HW114783   2.242   3.794   4.898  0.3879 -0.7032 -0.3445
 1107SOL    HW214784   2.214   3.939   4.878 -0.8427  0.3312  0.7828
 1108SOL     OW14785   3.932   2.111  11.808 -0.4859  0.3028  0.1401
 1108SOL    HW114786   3.968   2.199  11.810 -2.1669  0.9981  0.2007
 1108SOL    HW214787   4.011   2.063  11.834  0.9724  0.9041 -3.1853
 1109SOL     OW14788   0.452   3.384   7.435 -0.0120 -0.0144  0.1564
 1109SOL    HW114789   0.502   3.331   7.374 -1.7970 -0.0162 -1.3142
 1109SOL    HW214790   0.513   3.442   7.480 -1.2744  0.3154  1.4705
 1110SOL     OW14791   2.641   2.460   7.291  0.1280  0.1507 -0.0975
 1110SOL    HW114792   2.644   2.366   7.274  0.7444 -0.6358  4.4565
 1110SOL    HW214793   2.614   2.456   7.382  0.3369  2.0342  0.0543
 1111SOL     OW14794   0.446   1.088   3.222 -0.0006  0.9554 -0.6445
 1111SOL    HW114795   0.357   1.099   3.189  0.3654  1.7725 -1.3478
 1111SOL    HW214796   0.491   1.101   3.139  1.9370  0.7707  0.3838
 1112SOL     OW14797   3.411   0.218   0.922  0.8435 -0.8205 -0.5616
 1112SOL    HW114798   3.502   0.246   0.917  1.0957 -1.5168  0.1854
 1112SOL    HW214799   3.380   0.297   0.967  0.1210 -0.5876 -1.4793
 1113SOL     OW14800   0.428   4.102   7.920 -0.0791  0.0599 -0.4199
 1113SOL    HW114801   0.497   4.036   7.929 -1.5781 -0.9911  3.3961
 1113SOL    HW214802   0.459   4.175   7.974 -0.0467  0.3620 -0.8484
 1114SOL     OW14803   4.468   0.092  15.430 -0.1949  0.5628 -0.0939
 1114SOL    HW114804   4.563   0.082  15.436 -0.0943  0.2432 -2.4398
 1114SOL    HW214805   4.450   0.138  15.512  0.3063 -0.0553  0.3616
 1115SOL     OW14806   2.523   3.667   5.901 -0.5680  0.4091 -0.0079
 1115SOL    HW114807   2.584   3.606   5.859 -0.4316  0.6516 -0.1637
 1115SOL    HW214808   2.495   3.602   5.966  2.6088 -1.3635 -0.4003
 1116SOL     OW14809   2.996   2.627  12.483 -0.0777  0.6107  0.1616
 1116SOL    HW114810   2.915   2.594  12.523 -0.2278 -0.0765 -0.6958
 1116SOL    HW214811   2.955   2.697  12.432  0.5982  0.6368 -0.3494
 1117SOL     OW14812   4.531   0.939   7.303 -0.0312 -0.3784 -0.2305
 1117SOL    HW114813   4.468   0.968   7.237  0.3511 -2.1642 -1.3486
 1117SOL    HW214814   4.583   0.869   7.265  1.1836  0.3139  0.1809
 1118SOL     OW14815   0.781   4.244   8.503 -0.0430  0.5528  0.1770
 1118SOL    HW114816   0.732   4.235   8.421 -0.5073  1.4122  0.3642
 1118SOL    HW214817   0.792   4.339   8.503 -0.2083  0.5770  0.7184
 1119SOL     OW14818   1.354   4.567  11.107 -0.6706  0.4053  0.0537
 1119SOL    HW114819   1.379   4.649  11.151 -1.2474  0.0829  0.9895
 1119SOL    HW214820   1.340   4.507  11.181 -0.8477  0.8293  0.3600
 1120SOL     OW14821   4.689   1.652   3.408 -0.1431 -0.0240 -0.4635
 1120SOL    HW114822   4.674   1.683   3.319 -0.1272 -1.7500 -1.0607
 1120SOL    HW214823   4.605   1.659   3.454 -0.2568  3.2784 -1.1870
 1121SOL     OW14824   4.001   3.468   1.384  0.1749 -0.3228  0.4891
 1121SOL    HW114825   3.907   3.484   1.389 -0.0242 -0.5272 -2.3392
 1121SOL    HW214826   4.043   3.553   1.399  0.1658  0.5649 -4.4923
 1122SOL     OW14827   3.257   1.155  11.339  0.0582  1.0940  0.4049
 1122SOL    HW114828   3.250   1.086  11.273 -0.4105  3.6051 -2.1752
 1122SOL    HW214829   3.311   1.216  11.289  1.1634 -0.5604 -0.4293
 1123SOL     OW14830   3.515   0.647   2.710 -0.2555 -0.0666  0.4613
 1123SOL    HW114831   3.604   0.657   2.744 -0.0998 -0.5615  0.2051
 1123SOL    HW214832   3.518   0.701   2.631 -0.1576 -0.0840  0.4520
 1124SOL     OW14833   2.498   0.313   6.495 -0.2565 -0.2377 -0.4606
 1124SOL    HW114834   2.472   0.286   6.407  0.5643 -3.3179  0.2685
 1124SOL    HW214835   2.424   0.276   6.545 -1.1639  0.1587 -1.5140
 1125SOL     OW14836   1.949   4.164   8.251 -0.4444 -0.3822 -0.2021
 1125SOL    HW114837   1.988   4.161   8.339 -3.5464  1.8293  1.2403
 1125SOL    HW214838   1.893   4.089   8.271 -1.4488 -0.0250 -1.7476
 1126SOL     OW14839   1.072   3.701   1.063 -0.2254 -0.2105  0.6813
 1126SOL    HW114840   1.160   3.667   1.048 -0.8022 -1.5305  0.2852
 1126SOL    HW214841   1.085   3.708   1.158  3.0665  0.8307  0.1402
 1127SOL     OW14842   4.206   3.280  15.326  0.5993 -0.0376 -0.0323
 1127SOL    HW114843   4.158   3.200  15.346  0.4894  0.2707  0.9131
 1127SOL    HW214844   4.221   3.330  15.406  1.2880  1.2685 -0.9543
 1128SOL     OW14845   2.771   0.984   5.323 -0.6759  0.1532  0.3208
 1128SOL    HW114846   2.735   1.055   5.375  0.3853  1.1452 -0.3017
 1128SOL    HW214847   2.775   0.914   5.388  2.7351 -0.5047 -0.6195
 1129SOL     OW14848   1.573   1.745   5.053  0.0617  0.3129 -0.2906
 1129SOL    HW114849   1.666   1.723   5.050  0.0596  0.0530  1.2119
 1129SOL    HW214850   1.545   1.731   4.963  2.8765 -0.3520 -1.0554
 1130SOL     OW14851   0.319   3.425   6.216  0.0616 -0.1028 -0.1288
 1130SOL    HW114852   0.285   3.394   6.300 -0.5468  0.6056 -0.1139
 1130SOL    HW214853   0.302   3.519   6.222  0.1847 -0.0394 -0.7808
 1131SOL     OW14854   0.320   1.404   3.388 -0.0663 -0.1471 -0.2130
 1131SOL    HW114855   0.380   1.439   3.322 -0.0314  0.3942  0.1117
 1131SOL    HW214856   0.258   1.361   3.329 -0.6380 -0.8438  0.8933
 1132SOL     OW14857   3.284   1.761   4.437 -0.2775  0.1126  0.4556
 1132SOL    HW114858   3.238   1.799   4.513  1.7717  2.2057  0.6506
 1132SOL    HW214859   3.260   1.669   4.448 -3.1934  0.5041 -2.4055
 1133SOL     OW14860   0.984   3.106   2.457  0.8211  0.1158 -0.3154
 1133SOL    HW114861   0.963   3.024   2.504 -0.3073  0.5214 -0.1008
 1133SOL    HW214862   1.026   3.084   2.374  2.4410  0.8678  0.3013
 1134SOL     OW14863   2.780   2.860   7.912 -0.4479  0.2767 -0.1893
 1134SOL    HW114864   2.731   2.848   7.831  0.1227  0.4360 -0.5626
 1134SOL    HW214865   2.859   2.898   7.874 -1.0450  2.0363  0.3391
 1135SOL     OW14866   1.526   0.107   2.318 -0.5476  0.0611 -0.1653
 1135SOL    HW114867   1.565   0.194   2.329  0.3164 -0.2583 -0.7549
 1135SOL    HW214868   1.485   0.107   2.232 -1.0672 -3.0178  0.0719
 1136SOL     OW14869   3.455   1.323   7.148  0.1680 -0.3208  0.3741
 1136SOL    HW114870   3.481   1.361   7.232  1.5020 -1.4810  0.4857
 1136SOL    HW214871   3.532   1.341   7.095 -0.7003  0.3775 -0.6326
 1137SOL     OW14872   1.776   2.711   5.523 -0.0415  0.4178  0.0384
 1137SOL    HW114873   1.781   2.801   5.556 -0.6670  0.6874 -0.6138
 1137SOL    HW214874   1.832   2.711   5.445  0.1459 -0.7682  0.1786
 1138SOL     OW14875   0.251   2.350  10.036 -0.2057 -0.0589  0.0330
 1138SOL    HW114876   0.281   2.364  10.126 -3.3199 -0.3630  1.1277
 1138SOL    HW214877   0.239   2.255  10.038  1.5255 -0.2868 -0.6429
 1139SOL     OW14878   2.811   1.051  16.301 -0.0523 -0.5007 -0.1573
 1139SOL    HW114879   2.877   1.023  16.365  0.0736  0.0640 -0.0419
 1139SOL    HW214880   2.744   0.986  16.323 -0.2028  0.0047  0.8438
 1140SOL     OW14881   1.852   0.258   7.534 -0.2995 -0.1127 -0.5273
 1140SOL    HW114882   1.869   0.204   7.457  0.5886 -0.2657 -0.2218
 1140SOL    HW214883   1.837   0.337   7.482  1.4252 -0.9511 -2.2891
 1141SOL     OW14884   1.040   1.721  11.178  0.3095  0.6361  0.1269
 1141SOL    HW114885   0.976   1.718  11.249 -0.6859 -0.6100 -0.8158
 1141SOL    HW214886   0.995   1.684  11.102 -0.4047  0.0203  0.8435
 1142SOL     OW14887   2.509   3.043   6.767 -0.3019  0.4061 -0.7187
 1142SOL    HW114888   2.572   2.988   6.813 -2.0006 -0.1408  0.9808
 1142SOL    HW214889   2.506   3.000   6.682  1.1232 -1.5035  0.2041
 1143SOL     OW14890   1.692   4.250   3.427 -0.0737  1.0474  0.1049
 1143SOL    HW114891   1.647   4.226   3.346  0.1372  0.3742  0.1887
 1143SOL    HW214892   1.771   4.290   3.388  0.5187  1.2165  1.4962
 1144SOL     OW14893   2.383   1.927  10.550  0.0524 -0.1377  0.1919
 1144SOL    HW114894   2.372   1.883  10.466  3.0009 -0.6981  0.1019
 1144SOL    HW214895   2.315   1.879  10.598  0.0740  1.3934  1.7505
 1145SOL     OW14896   0.780   3.399   5.138 -0.4868 -0.5440  0.0635
 1145SOL    HW114897   0.854   3.358   5.094 -0.3130  1.2196 -1.2569
 1145SOL    HW214898   0.707   3.383   5.079  0.5687 -0.1499 -1.3427
 1146SOL     OW14899   0.966   4.086   6.961 -0.3407  0.4102  0.4724
 1146SOL    HW114900   1.007   4.042   7.035  0.7073  1.6028  0.5985
 1146SOL    HW214901   0.928   4.008   6.921  1.2869 -0.2503  0.2397
 1147SOL     OW14902   2.487   1.311   3.700 -0.3465 -0.0185 -0.2328
 1147SOL    HW114903   2.423   1.255   3.655 -0.7259  0.1357  0.1089
 1147SOL    HW214904   2.566   1.259   3.690 -0.0554  0.5107 -0.6769
 1148SOL     OW14905   1.356   3.221  15.610 -0.1123  0.2215  0.5685
 1148SOL    HW114906   1.377   3.184  15.695  1.5684 -0.0217  0.0543
 1148SOL    HW214907   1.297   3.294  15.630 -1.4375 -0.9428  0.9017
 1149SOL     OW14908   1.688   0.994   7.277  0.2703  0.6097 -0.0728
 1149SOL    HW114909   1.739   0.919   7.310 -0.3592  0.1930 -0.0478
 1149SOL    HW214910   1.751   1.037   7.219 -0.2072 -0.2492 -1.2511
 1150SOL     OW14911   2.922   4.523   2.146 -0.5574  0.7359  0.4016
 1150SOL    HW114912   3.017   4.507   2.146 -0.3008  2.2509 -0.9474
 1150SOL    HW214913   2.927   4.614   2.176 -3.3091  1.1177 -0.3300
 1151SOL     OW14914   0.348   2.154   2.390 -0.0518 -0.7962  0.6004
 1151SOL    HW114915   0.435   2.188   2.410  0.3945 -1.6736  0.1488
 1151SOL    HW214916   0.349   2.060   2.410 -2.6717 -1.4729 -2.3590
 1152SOL     OW14917   3.231   3.831   3.782 -0.1754  0.2336 -0.1593
 1152SOL    HW114918   3.295   3.767   3.751 -0.9546  0.8463 -2.9524
 1152SOL    HW214919   3.267   3.916   3.760  1.3001 -0.2381  0.4346
 1153SOL     OW14920   0.865   1.131   5.755  0.2898  0.4325 -0.1696
 1153SOL    HW114921   0.886   1.041   5.729 -2.1070 -0.5251  1.2177
 1153SOL    HW214922   0.775   1.117   5.783  0.6262  0.1448  0.7703
 1154SOL     OW14923   1.322   2.429   0.343 -0.4787  0.1789  0.1577
 1154SOL    HW114924   1.342   2.413   0.435 -0.0497  0.0648  0.0446
 1154SOL    HW214925   1.326   2.346   0.296 -1.6265  0.9773 -1.3546
 1155SOL     OW14926   1.725   3.843   3.528 -0.8331  0.4420  0.1001
 1155SOL    HW114927   1.660   3.855   3.458 -1.1100  2.5085  0.6914
 1155SOL    HW214928   1.677   3.839   3.610  0.8169  0.7608  1.0738
 1156SOL     OW14929   0.960   1.235   4.446  0.5275 -0.5618  0.8161
 1156SOL    HW114930   0.991   1.163   4.390  1.6364  0.6764 -0.1570
 1156SOL    HW214931   1.002   1.315   4.414  1.2827  0.0300  3.2756
 1157SOL     OW14932   3.439   0.365   9.126  0.3389  0.4028 -0.6071
 1157SOL    HW114933   3.358   0.325   9.093 -0.3833  1.5132 -0.1959
 1157SOL    HW214934   3.418   0.390   9.216  2.6300 -1.3331  0.3979
 1158SOL     OW14935   3.149   1.353   3.663 -0.3216  0.4638 -0.0181
 1158SOL    HW114936   3.106   1.429   3.702  1.4841  1.8580 -0.7516
 1158SOL    HW214937   3.114   1.286   3.722  1.4027  1.0980  1.7102
 1159SOL     OW14938   4.242   3.665   5.388 -0.5476  0.0491  0.4686
 1159SOL    HW114939   4.157   3.707   5.402 -0.7206  0.3056 -1.2452
 1159SOL    HW214940   4.247   3.664   5.292  0.0542  1.3064  0.4938
 1160SOL     OW14941   1.474   0.190   6.268 -0.3541 -0.1557 -0.2330
 1160SOL    HW114942   1.441   0.160   6.183 -1.1000  1.1076 -0.3944
 1160SOL    HW214943   1.473   0.285   6.276  1.5545 -0.0986 -0.7410
 1161SOL     OW14944   1.271   1.806  16.995  0.1484  0.0674 -0.2217
 1161SOL    HW114945   1.257   1.806  16.900  2.1760  0.3358 -0.5227
 1161SOL    HW214946   1.343   1.743  17.002 -0.9004 -1.3216 -1.7646
 1162SOL     OW14947   3.680   0.109   6.190  0.4011 -0.3910  0.5555
 1162SOL    HW114948   3.764   0.064   6.187 -0.2103 -1.6340  2.0917
 1162SOL    HW214949   3.666   0.090   6.097  1.0966  0.5534  0.2648
 1163SOL     OW14950   0.138   0.481  13.875  0.0338 -0.9204 -0.2950
 1163SOL    HW114951   0.212   0.489  13.934  1.1490  1.0331 -1.9695
 1163SOL    HW214952   0.078   0.425  13.925  0.8231 -1.3033  0.2074
 1164SOL     OW14953   2.544   3.589   5.055  0.6433 -0.0876 -0.2672
 1164SOL    HW114954   2.613   3.654   5.039 -0.1067  0.4699 -1.2016
 1164SOL    HW214955   2.594   3.523   5.103 -0.6037  0.1089  1.3128
 1165SOL     OW14956   1.585   0.595   8.047 -0.4337  1.1251 -0.2140
 1165SOL    HW114957   1.579   0.533   8.120  3.0488 -1.2947 -1.9463
 1165SOL    HW214958   1.495   0.625   8.044 -1.0699 -0.7869 -0.1290
 1166SOL     OW14959   1.452   1.276   6.119 -0.0052  0.0766 -0.0638
 1166SOL    HW114960   1.377   1.263   6.177  0.5176  0.1016  0.6220
 1166SOL    HW214961   1.479   1.185   6.117 -0.4935 -0.0671 -0.1505
 1167SOL     OW14962   1.345   2.470  11.068 -0.2069  0.1576  0.3362
 1167SOL    HW114963   1.420   2.413  11.050  0.3955  1.2392 -0.5662
 1167SOL    HW214964   1.304   2.425  11.141 -2.5928  0.1129 -1.0262
 1168SOL     OW14965   0.442   2.500  16.780 -0.3451 -0.1162 -0.1968
 1168SOL    HW114966   0.511   2.472  16.840 -1.2144 -0.3824  0.6733
 1168SOL    HW214967   0.478   2.578  16.737  0.9166  0.2775  1.5534
 1169SOL     OW14968   4.097   0.595   3.304  0.1271 -0.7623  0.7423
 1169SOL    HW114969   4.072   0.504   3.288 -0.9135 -0.5648  1.2119
 1169SOL    HW214970   4.189   0.583   3.282  0.1204 -0.4738  0.5631
 1170SOL     OW14971   1.541   2.820   6.591 -0.0395  0.3708  0.2918
 1170SOL    HW114972   1.452   2.849   6.568  0.5295  1.0347 -1.0603
 1170SOL    HW214973   1.515   2.789   6.677  2.0744 -1.1026  0.3651
 1171SOL     OW14974   0.127   3.216  17.424 -0.3445  0.2419 -0.2487
 1171SOL    HW114975   0.107   3.199  17.331 -2.9056 -0.5277  0.4546
 1171SOL    HW214976   0.076   3.146  17.464 -0.6858  0.9576  0.5711
 1172SOL     OW14977   0.207   0.803  10.240  0.4173 -0.2279  0.3952
 1172SOL    HW114978   0.277   0.868  10.229 -0.8702  1.1683  0.4044
 1172SOL    HW214979   0.138   0.834  10.299  0.2661 -0.7731  0.5074
 1173SOL     OW14980   2.401   3.886   2.367  0.1021  0.0349  0.0648
 1173SOL    HW114981   2.384   3.856   2.278 -1.2183  0.6989  0.0919
 1173SOL    HW214982   2.496   3.895   2.376  0.2680 -0.0806 -1.4808
 1174SOL     OW14983   3.967   0.613   6.921  0.1305 -0.9670  0.0793
 1174SOL    HW114984   3.889   0.668   6.915  0.1790 -0.9974 -0.7448
 1174SOL    HW214985   3.934   0.566   6.998  0.5237 -0.6662  0.4303
 1175SOL     OW14986   2.756   2.757  15.867  0.6797  0.5070  0.1977
 1175SOL    HW114987   2.800   2.679  15.834 -0.6965 -0.6420  1.0390
 1175SOL    HW214988   2.745   2.804  15.785  0.6413 -1.1359 -0.7246
 1176SOL     OW14989   2.531   0.480   6.094  0.0745 -0.1274 -0.0816
 1176SOL    HW114990   2.531   0.393   6.135 -0.1690  0.4376  1.1101
 1176SOL    HW214991   2.514   0.449   6.005  0.4394  0.2841 -0.2928
 1177SOL     OW14992   2.247   3.825   1.150 -0.3549  0.8933 -0.5853
 1177SOL    HW114993   2.158   3.789   1.154  0.1296 -0.1164  0.9837
 1177SOL    HW214994   2.228   3.913   1.181 -2.2420  0.2733  0.0250
 1178SOL     OW14995   0.447   2.734  11.057  0.4783  0.2735 -0.6758
 1178SOL    HW114996   0.525   2.751  11.004  0.7879  2.3763  0.4486
 1178SOL    HW214997   0.450   2.639  11.062 -0.7427  0.4947  3.8116
 1179SOL     OW14998   0.095   4.664   8.089 -0.2489 -0.2225  0.5726
 1179SOL    HW114999   0.064   4.616   8.013  1.9257 -1.0646  0.2116
 1179SOL    HW215000   0.023   0.003   8.105  0.6186  1.3223 -1.4132
 1180SOL     OW15001   0.861   1.504   7.046  0.2314  0.3499  0.2416
 1180SOL    HW115002   0.772   1.532   7.068 -0.3986 -0.0497 -1.7494
 1180SOL    HW215003   0.906   1.588   7.057 -0.7448  1.0638 -1.1318
 1181SOL     OW15004   3.745   1.693   2.430 -0.5006  0.4849 -0.1545
 1181SOL    HW115005   3.660   1.727   2.457  0.0179  1.2937  0.4621
 1181SOL    HW215006   3.737   1.608   2.473 -2.4747  1.5951  1.7183
 1182SOL     OW15007   1.982   3.466  11.990 -0.0443  0.4466 -0.3623
 1182SOL    HW115008   2.027   3.539  11.949 -0.2897  0.9026  0.1678
 1182SOL    HW215009   2.019   3.390  11.946 -2.9792 -0.8226 -0.6377
 1183SOL     OW15010   0.171   0.176   3.025 -0.4662  0.4360 -0.0070
 1183SOL    HW115011   0.117   0.188   2.946 -0.3908  2.1424  0.2014
 1183SOL    HW215012   0.157   0.254   3.079  0.5799  0.7167 -0.1397
 1184SOL     OW15013   1.710   1.391   8.763  0.6861 -0.0027  0.2099
 1184SOL    HW115014   1.726   1.302   8.731 -0.7443 -0.4409  0.7140
 1184SOL    HW215015   1.735   1.379   8.855 -1.0975  1.9454  0.9611
 1185SOL     OW15016   4.205   4.533  12.486 -0.0624 -0.1281  0.5075
 1185SOL    HW115017   4.253   4.614  12.501 -1.1879  0.7020 -0.4250
 1185SOL    HW215018   4.271   4.471  12.519  0.0053 -0.6046 -0.5263
 1186SOL     OW15019   3.200   1.832  13.870 -0.4236 -0.1555 -0.4748
 1186SOL    HW115020   3.126   1.892  13.871  2.2835  3.1838  0.1739
 1186SOL    HW215021   3.282   1.882  13.870 -0.1126 -0.6484 -1.5756
 1187SOL     OW15022   3.007   3.661  13.972  0.0256  0.2955  0.0002
 1187SOL    HW115023   2.912   3.666  13.970 -0.0970 -1.2740  1.8791
 1187SOL    HW215024   3.026   3.569  13.954  1.2947  0.2262  1.6056
 1188SOL     OW15025   4.050   3.964   4.858 -0.2430  0.2065 -0.3688
 1188SOL    HW115026   4.110   3.898   4.891  1.4699  1.0302 -1.8331
 1188SOL    HW215027   4.011   3.906   4.793  0.3018  0.3312 -0.7986
 1189SOL     OW15028   3.135   2.841  17.552 -0.1553  0.2954 -0.3736
 1189SOL    HW115029   3.050   2.861  17.592  0.4299 -0.4743  1.2365
 1189SOL    HW215030   3.137   2.747  17.573  0.8374  0.3777 -0.1068
 1190SOL     OW15031   0.817   2.841   4.715 -0.7287  0.5998 -0.2895
 1190SOL    HW115032   0.825   2.751   4.682 -0.1412  0.7001 -0.4171
 1190SOL    HW215033   0.729   2.852   4.752 -0.3014  1.0276  0.6206
 1191SOL     OW15034   1.926   4.573   8.202 -0.5146  0.0747 -1.0058
 1191SOL    HW115035   1.840   4.558   8.242  0.1010  0.6944  0.5388
 1191SOL    HW215036   1.947   4.648   8.258  0.7267 -0.9654 -0.0795
 1192SOL     OW15037   0.699   4.406   4.242  0.0048  0.1195 -0.4468
 1192SOL    HW115038   0.747   4.437   4.318 -1.1019  1.3582 -0.2685
 1192SOL    HW215039   0.631   4.472   4.250  0.7311  0.5341  2.1220
 1193SOL     OW15040   2.857   4.553   5.449  0.4932 -0.4200 -0.1336
 1193SOL    HW115041   2.899   4.539   5.534 -0.3822  0.2419  0.4148
 1193SOL    HW215042   2.841   4.459   5.438 -0.2193 -0.1795 -1.1521
 1194SOL     OW15043   2.571   4.343  13.356 -0.2464  0.0115  0.6477
 1194SOL    HW115044   2.574   4.414  13.420 -0.1508  0.5626  0.0326
 1194SOL    HW215045   2.567   4.269  13.417 -2.9273 -1.4876 -1.3867
 1195SOL     OW15046   1.227   0.506   9.597  0.4361 -0.5656  0.0366
 1195SOL    HW115047   1.261   0.485   9.510  1.9341  0.6515  0.3442
 1195SOL    HW215048   1.152   0.447   9.607  0.9785 -0.8150  2.5731
 1196SOL     OW15049   3.346   2.842   2.948  0.2598  0.0367 -0.0337
 1196SOL    HW115050   3.336   2.751   2.920  1.0345  0.2802 -1.1209
 1196SOL    HW215051   3.442   2.847   2.955  0.3865  0.9390 -2.3259
 1197SOL     OW15052   3.268   3.456   7.296  0.4051 -0.2986 -0.5848
 1197SOL    HW115053   3.330   3.511   7.344  2.2055 -2.5818 -0.2982
 1197SOL    HW215054   3.327   3.387   7.268 -0.5522 -0.8208 -1.3186
 1198SOL     OW15055   3.232   2.265  10.802 -0.1838 -0.3085 -0.1341
 1198SOL    HW115056   3.292   2.340  10.810 -0.6704 -0.0288  0.9715
 1198SOL    HW215057   3.292   2.191  10.798  0.4787  0.1760  0.8263
 1199SOL     OW15058   0.352   4.381   6.045  0.2242  0.4642 -0.9129
 1199SOL    HW115059   0.305   4.337   6.115  0.9460  1.4595  0.2115
 1199SOL    HW215060   0.356   4.473   6.072 -0.8184  0.6724 -1.4604
 1200SOL     OW15061   4.114   2.303   9.380 -0.2724 -0.2875 -0.2327
 1200SOL    HW115062   4.044   2.255   9.424  0.6551  0.1467  1.7400
 1200SOL    HW215063   4.071   2.332   9.300 -0.6249  0.9401  0.3916
 1201SOL     OW15064   4.019   1.334   5.303  0.5210 -0.0070 -0.3951
 1201SOL    HW115065   4.011   1.411   5.247  1.0081 -0.0140 -0.4737
 1201SOL    HW215066   4.015   1.367   5.393 -1.0786 -0.3651 -0.3465
 1202SOL     OW15067   2.301   1.076   9.635  0.0887  0.0563  0.5408
 1202SOL    HW115068   2.341   1.001   9.678  0.2387  0.2434  0.7285
 1202SOL    HW215069   2.370   1.096   9.572  1.1122  0.5956  1.8371
 1203SOL     OW15070   4.368   2.794   3.528 -0.3159 -0.6353 -0.2742
 1203SOL    HW115071   4.366   2.722   3.464 -2.6475 -2.3761  1.7457
 1203SOL    HW215072   4.358   2.733   3.602  1.4778  0.4174  0.8234
 1204SOL     OW15073   3.663   4.039   5.171 -0.3666  0.2867  0.2510
 1204SOL    HW115074   3.742   4.042   5.117  0.3903  2.1953  1.4880
 1204SOL    HW215075   3.612   4.113   5.138  0.1440 -0.4640 -2.2519
 1205SOL     OW15076   2.972   3.598   2.063  0.0790  0.3883 -0.6437
 1205SOL    HW115077   3.029   3.524   2.045 -0.9146 -1.4662  3.7607
 1205SOL    HW215078   3.035   3.665   2.038 -0.2632  0.3422 -1.6381
 1206SOL     OW15079   1.670   1.384   5.272 -0.2176  0.2055  0.0230
 1206SOL    HW115080   1.741   1.447   5.287  0.7310 -0.0684 -3.2428
 1206SOL    HW215081   1.674   1.371   5.177 -0.2445  2.8624 -0.3417
 1207SOL     OW15082   2.553   0.666   1.312 -0.4122 -0.5046 -0.4575
 1207SOL    HW115083   2.539   0.756   1.340 -1.8240 -0.9151  0.1563
 1207SOL    HW215084   2.462   0.642   1.294 -0.6196 -1.1544  1.5355
 1208SOL     OW15085   2.222   2.310   1.939  0.5234 -0.0651  0.3156
 1208SOL    HW115086   2.262   2.309   1.852 -2.2188 -0.1786 -0.9559
 1208SOL    HW215087   2.155   2.376   1.921 -0.4485 -1.2403 -0.3887
 1209SOL     OW15088   3.833   1.807   7.077  0.3038  0.0584  0.5804
 1209SOL    HW115089   3.914   1.817   7.027 -1.4980 -1.4502 -2.6369
 1209SOL    HW215090   3.846   1.723   7.122  0.9784 -0.3907 -0.4334
 1210SOL     OW15091   1.753   4.132   1.544  0.4084 -0.1183 -0.2967
 1210SOL    HW115092   1.700   4.209   1.560 -0.3677 -0.3925 -1.5467
 1210SOL    HW215093   1.793   4.114   1.630  0.7655 -0.3474 -0.5078
 1211SOL     OW15094   3.596   2.234   7.548 -0.2111 -0.0351  0.6529
 1211SOL    HW115095   3.543   2.155   7.553 -0.3030  0.1431  2.4723
 1211SOL    HW215096   3.566   2.285   7.623 -0.3848  3.2249 -1.5989
 1212SOL     OW15097   3.855   4.351   3.896  0.1588  0.0273 -0.1250
 1212SOL    HW115098   3.859   4.343   3.801  0.2302 -1.9237  0.0407
 1212SOL    HW215099   3.852   4.447   3.896 -0.5162  0.0025  0.2496
 1213SOL     OW15100   3.164   2.946   7.407 -0.5136 -0.1384 -0.0858
 1213SOL    HW115101   3.083   2.966   7.359 -0.1843  0.0680 -0.5579
 1213SOL    HW215102   3.122   2.918   7.488 -1.4824  0.2532 -0.4499
 1214SOL     OW15103   0.269   1.125   4.091 -0.2437 -0.0926  0.1866
 1214SOL    HW115104   0.195   1.084   4.137 -0.0205 -0.5056  0.1702
 1214SOL    HW215105   0.284   1.198   4.151  0.1611 -2.0052  2.4153
 1215SOL     OW15106   1.997   4.299   3.498 -0.2651  0.3454 -0.0149
 1215SOL    HW115107   2.067   4.255   3.449 -1.0451 -1.7139  0.7321
 1215SOL    HW215108   2.028   4.388   3.484  1.5105 -0.3322 -0.4519
 1216SOL     OW15109   4.357   2.750  10.183  0.3784 -0.6257  0.2680
 1216SOL    HW115110   4.371   2.734  10.089  2.5437 -0.5347  0.5832
 1216SOL    HW215111   4.315   2.677  10.229  0.2487 -1.3542 -0.9981
 1217SOL     OW15112   1.332   2.943   3.692 -0.1672 -0.4648  0.0047
 1217SOL    HW115113   1.307   2.862   3.648 -0.0291 -0.7201  0.4014
 1217SOL    HW215114   1.283   3.010   3.642  0.4389  1.4152  1.9354
 1218SOL     OW15115   2.337   0.848   3.730 -0.2456  0.2619 -0.3935
 1218SOL    HW115116   2.404   0.780   3.720  0.0807 -0.1409  4.3147
 1218SOL    HW215117   2.328   0.879   3.640  1.9090 -0.5600 -0.8977
 1219SOL     OW15118   0.372   4.480   4.146 -0.7226 -0.8275  0.5408
 1219SOL    HW115119   0.414   4.535   4.211  1.4809 -0.9879 -0.7564
 1219SOL    HW215120   0.342   4.552   4.090 -0.4955  0.5499  2.2167
 1220SOL     OW15121   0.622   3.968  14.184 -0.2995 -0.2801  0.3583
 1220SOL    HW115122   0.653   3.946  14.272  0.4060 -0.6732  0.0121
 1220SOL    HW215123   0.535   3.928  14.186 -0.9922  1.2410  0.4005
 1221SOL     OW15124   1.099   4.547  17.193  0.3868 -0.2192  0.4140
 1221SOL    HW115125   1.126   4.637  17.173 -1.8805  0.4796  0.4650
 1221SOL    HW215126   1.157   4.512  17.125 -0.3413  1.0803 -0.8743
 1222SOL     OW15127   1.947   2.675   3.837  0.5254  0.3105  0.2383
 1222SOL    HW115128   1.852   2.682   3.832  0.2241 -3.1207  1.1921
 1222SOL    HW215129   1.967   2.599   3.892  1.4931  0.1827 -0.2854
 1223SOL     OW15130   3.057   1.609   6.223 -0.0771 -0.2309 -0.4847
 1223SOL    HW115131   3.043   1.615   6.318  2.4527  0.3867 -0.1511
 1223SOL    HW215132   3.152   1.602   6.234  0.0105  1.5914 -0.1430
 1224SOL     OW15133   2.881   3.768   1.614  0.1553 -0.5331 -0.1585
 1224SOL    HW115134   2.895   3.693   1.672  1.4382 -0.9201 -0.9730
 1224SOL    HW215135   2.907   3.740   1.526  1.5772  0.4017 -0.0366
 1225SOL     OW15136   2.282   2.199  14.052 -0.1602 -0.6204  0.1364
 1225SOL    HW115137   2.359   2.151  14.022  0.1442 -0.0974  0.0787
 1225SOL    HW215138   2.307   2.287  14.023  0.8251 -0.6557  0.8596
 1226SOL     OW15139   4.234   1.735   1.862  0.2661  0.0486 -0.0745
 1226SOL    HW115140   4.179   1.691   1.796  1.0169 -0.0335 -0.6457
 1226SOL    HW215141   4.235   1.670   1.932  0.3308  0.1077 -0.0209
 1227SOL     OW15142   4.396   2.677   4.664 -0.2028 -0.0180 -0.2022
 1227SOL    HW115143   4.441   2.760   4.646  1.6554 -1.3688 -1.7018
 1227SOL    HW215144   4.381   2.693   4.758  1.7780  0.8051 -0.0365
 1228SOL     OW15145   1.478   1.061   7.868 -0.1712  0.4487  0.0532
 1228SOL    HW115146   1.571   1.075   7.884  0.0185 -1.4394  0.6138
 1228SOL    HW215147   1.466   0.968   7.889 -0.0087  0.4424  0.1181
 1229SOL     OW15148   0.635   4.484   5.689  0.2529 -0.1134 -0.5059
 1229SOL    HW115149   0.669   4.467   5.601 -0.1974 -0.8859 -0.5305
 1229SOL    HW215150   0.637   4.580   5.693  0.8324 -0.2155  1.9628
 1230SOL     OW15151   3.795   1.992   6.498  0.3472 -0.1252 -0.0292
 1230SOL    HW115152   3.809   2.084   6.474  1.6484 -0.5965 -1.1274
 1230SOL    HW215153   3.882   1.958   6.476 -0.2713 -0.5777 -1.8017
 1231SOL     OW15154   3.042   2.869   4.595 -0.3745  0.9510 -0.6308
 1231SOL    HW115155   3.075   2.956   4.572 -0.3040  1.7669  2.5270
 1231SOL    HW215156   3.121   2.818   4.577 -1.6984 -0.1832 -3.2829
 1232SOL     OW15157   4.015   0.993  15.172  0.1299  0.1122 -0.6654
 1232SOL    HW115158   4.018   1.070  15.229  0.3317 -0.0273 -0.4854
 1232SOL    HW215159   4.106   0.964  15.169 -0.0582 -0.5702  0.1068
 1233SOL     OW15160   2.976   4.325  14.648  0.3308  0.4498 -0.2898
 1233SOL    HW115161   3.013   4.368  14.726  0.7087  0.6520 -0.5801
 1233SOL    HW215162   3.046   4.345  14.586  0.5696  1.4702  0.3179
 1234SOL     OW15163   1.888   1.584   5.281 -0.4232  0.1135  0.0200
 1234SOL    HW115164   1.976   1.564   5.251 -0.6999 -2.5154  0.9695
 1234SOL    HW215165   1.894   1.598   5.375 -1.3373  1.1664 -0.0725
 1235SOL     OW15166   2.678   0.661   0.511 -0.4173  0.3117 -0.0862
 1235SOL    HW115167   2.613   0.679   0.579 -1.3725  0.1110 -0.9556
 1235SOL    HW215168   2.671   0.566   0.518  0.8719  0.2001 -0.2350
 1236SOL     OW15169   2.257   3.436  12.340 -0.0543  0.3931 -0.0036
 1236SOL    HW115170   2.306   3.395  12.269 -0.9440 -2.2385  0.9251
 1236SOL    HW215171   2.298   3.400  12.418 -2.8844  0.4853  1.5523
 1237SOL     OW15172   0.169   2.560   9.380 -0.2031 -0.2064 -0.4580
 1237SOL    HW115173   0.220   2.491   9.339  1.1125  0.2936  0.3278
 1237SOL    HW215174   0.116   2.517   9.447 -0.8386 -0.0581 -0.8667
 1238SOL     OW15175   3.328   3.857   2.839  0.1542  0.0089  0.0018
 1238SOL    HW115176   3.233   3.859   2.850 -0.1188  1.0579 -2.3097
 1238SOL    HW215177   3.351   3.877   2.929  0.9658 -2.8371  0.4147
 1239SOL     OW15178   1.917   0.136   1.343  0.3377 -0.2130 -0.3599
 1239SOL    HW115179   1.825   0.145   1.315  0.2924  1.6055  0.3743
 1239SOL    HW215180   1.949   0.226   1.343  0.0148 -0.0929 -1.6932
 1240SOL     OW15181   0.677   3.645  14.142  0.9959 -0.3026  0.2521
 1240SOL    HW115182   0.749   3.622  14.199  1.6854  0.4921 -0.2927
 1240SOL    HW215183   0.727   3.699  14.081  0.1234 -2.5998 -2.5235
 1241SOL     OW15184   1.967   3.242   3.020 -0.5807  0.0518  0.5751
 1241SOL    HW115185   2.049   3.285   3.046 -0.1683  0.5334 -1.5558
 1241SOL    HW215186   1.997   3.164   2.973  1.1715  0.9789  0.1534
 1242SOL     OW15187   1.353   1.647   5.950 -0.2563  0.1009  0.5633
 1242SOL    HW115188   1.363   1.620   5.858  0.3570 -0.3332  0.7595
 1242SOL    HW215189   1.325   1.738   5.939  2.2911  0.7402 -0.5428
 1243SOL     OW15190   0.800   2.418   7.247  0.5814  0.0050  0.0601
 1243SOL    HW115191   0.881   2.408   7.297  0.1893  2.4076  1.1543
 1243SOL    HW215192   0.739   2.436   7.318  0.1059 -2.6802  0.3247
 1244SOL     OW15193   0.797   0.534   4.754  0.3943  0.0947  0.0670
 1244SOL    HW115194   0.754   0.585   4.824  1.4356  0.7389  0.2489
 1244SOL    HW215195   0.728   0.481   4.715 -1.7103  1.3330  2.0665
 1245SOL     OW15196   2.311   1.573   8.962 -0.2869  0.0337  0.1546
 1245SOL    HW115197   2.330   1.654   9.010  1.2500 -0.8529  1.0404
 1245SOL    HW215198   2.391   1.560   8.911 -0.9878  0.4844 -1.0562
 1246SOL     OW15199   0.316   2.726   4.248 -0.0942  0.0867  0.0504
 1246SOL    HW115200   0.394   2.747   4.198 -0.5634 -1.0698 -1.1913
 1246SOL    HW215201   0.302   2.637   4.216 -2.2464  0.3826  0.1728
 1247SOL     OW15202   0.885   4.314   3.030 -0.1478  0.1001  0.2537
 1247SOL    HW115203   0.813   4.284   2.975  1.3130 -1.3064 -0.8748
 1247SOL    HW215204   0.952   4.249   3.009  0.9532  2.4663 -3.5892
 1248SOL     OW15205   3.002   4.460  10.799  0.2501  0.1914  0.1831
 1248SOL    HW115206   3.055   4.462  10.719  0.1598 -1.7044  0.0610
 1248SOL    HW215207   3.066   4.431  10.864  0.9684 -0.0034 -0.6117
 1249SOL     OW15208   2.330   3.944   3.038  0.0105  0.0441  0.5755
 1249SOL    HW115209   2.255   3.954   3.095 -1.7528 -1.5063 -1.4685
 1249SOL    HW215210   2.376   3.869   3.077  0.7112  0.7691  1.1453
 1250SOL     OW15211   0.233   0.446   3.602 -0.0738 -0.0667 -0.1295
 1250SOL    HW115212   0.262   0.418   3.515  1.4684  0.9789  0.0422
 1250SOL    HW215213   0.138   0.436   3.593 -0.2619  0.0078  1.6209
 1251SOL     OW15214   1.534   3.992   2.160  0.3641  0.5903  0.1061
 1251SOL    HW115215   1.480   3.922   2.198  1.6986 -0.7332 -0.4315
 1251SOL    HW215216   1.620   3.962   2.188  0.6750  0.5064 -0.9493
 1252SOL     OW15217   0.069   4.052   6.166 -0.2395 -0.6898 -0.0295
 1252SOL    HW115218   0.034   4.003   6.240 -0.2547  1.1082  1.1209
 1252SOL    HW215219   0.104   4.128   6.211 -1.7241  0.1336 -0.2779
 1253SOL     OW15220   3.377   1.878  13.234  0.2892  0.2135 -0.1704
 1253SOL    HW115221   3.349   1.959  13.276 -1.9255 -1.4914  1.6525
 1253SOL    HW215222   3.429   1.841  13.305  0.0880 -1.0661 -0.6826
 1254SOL     OW15223   2.366   2.083   1.922 -0.4649 -0.8503  0.1859
 1254SOL    HW115224   2.288   2.139   1.923  0.9230  1.0985 -0.8573
 1254SOL    HW215225   2.423   2.145   1.877  0.5958  0.8615  3.8626
 1255SOL     OW15226   1.401   3.667  12.448  0.0994  0.3864 -0.2100
 1255SOL    HW115227   1.428   3.575  12.440  1.0107  0.6855 -0.5201
 1255SOL    HW215228   1.358   3.662  12.534 -1.8213 -0.1054 -1.2080
 1256SOL     OW15229   0.779   4.124   4.765 -0.0936  0.1640  0.4895
 1256SOL    HW115230   0.761   4.158   4.852 -1.8683  0.6710 -0.0564
 1256SOL    HW215231   0.798   4.201   4.710  0.7621 -0.5014 -0.1413
 1257SOL     OW15232   0.457   2.465  11.115  0.1180  0.2321 -0.1187
 1257SOL    HW115233   0.401   2.443  11.190 -0.1334 -0.8218 -0.6192
 1257SOL    HW215234   0.489   2.379  11.086 -0.2171  0.0368  0.0898
 1258SOL     OW15235   3.461   1.604   1.967 -0.0509 -0.4834 -0.5463
 1258SOL    HW115236   3.521   1.653   1.911  0.4812  2.0490  2.1871
 1258SOL    HW215237   3.512   1.593   2.047 -1.7200 -1.7466  0.3478
 1259SOL     OW15238   0.135   1.293   3.221  0.9324  0.4627  0.1114
 1259SOL    HW115239   0.122   1.310   3.127 -1.0954 -1.2424  0.0686
 1259SOL    HW215240   0.046   1.311   3.253 -0.2143 -0.4285 -2.5424
 1260SOL     OW15241   1.516   4.485   4.966  0.7335 -0.2382 -0.7043
 1260SOL    HW115242   1.611   4.480   4.964  0.6817 -1.4117 -0.6598
 1260SOL    HW215243   1.504   4.537   5.045  0.1213  0.6886 -1.4101
 1261SOL     OW15244   4.174   3.100   1.597  0.1351 -0.3327 -0.2879
 1261SOL    HW115245   4.209   3.158   1.530  1.2775 -2.5517 -1.6185
 1261SOL    HW215246   4.204   3.138   1.680 -0.0200 -0.1808 -0.3017
 1262SOL     OW15247   4.219   1.449   5.960 -0.0449  0.2572  0.0069
 1262SOL    HW115248   4.221   1.543   5.942 -1.9820  0.4663  0.9056
 1262SOL    HW215249   4.238   1.445   6.054  2.5546 -0.2911 -0.5369
 1263SOL     OW15250   4.172   2.679   1.013 -0.1521  0.0453  0.1703
 1263SOL    HW115251   4.220   2.740   1.070 -1.0180  0.5305  0.3866
 1263SOL    HW215252   4.159   2.727   0.931  0.2442  0.0360  0.1035
 1264SOL     OW15253   2.358   0.962   8.996  0.0753  0.0263 -0.0169
 1264SOL    HW115254   2.354   1.054   9.022  0.9729 -0.0083  0.2414
 1264SOL    HW215255   2.394   0.931   9.079  0.8499  1.0313  0.0143
 1265SOL     OW15256   0.836   1.920  11.763  0.4151 -0.2515 -0.2004
 1265SOL    HW115257   0.869   1.833  11.788  1.6171  0.4236  0.5584
 1265SOL    HW215258   0.878   1.976  11.828 -2.2424  2.4601 -0.8441
 1266SOL     OW15259   1.641   4.510  13.688  0.3252 -0.6487  0.5604
 1266SOL    HW115260   1.650   4.523  13.782 -4.4371  2.6613  0.5376
 1266SOL    HW215261   1.707   4.442  13.671  2.1182  1.4278 -0.7802
 1267SOL     OW15262   1.253   1.403   3.036  0.2143  0.4068  0.4429
 1267SOL    HW115263   1.331   1.389   3.089 -0.0208  0.7672  0.8889
 1267SOL    HW215264   1.242   1.498   3.045  1.5668  0.7278 -1.2640
 1268SOL     OW15265   1.987   4.375   7.739  0.1722 -0.2839  0.3780
 1268SOL    HW115266   1.970   4.467   7.762  1.6147 -0.6988  3.1284
 1268SOL    HW215267   1.894   4.352   7.742  0.0348  0.4429  2.3168
 1269SOL     OW15268   0.747   0.972  15.434  0.4235  0.6956 -0.5313
 1269SOL    HW115269   0.689   1.011  15.499  0.6285  1.8719 -1.0560
 1269SOL    HW215270   0.823   0.943  15.485 -0.8155 -0.7305  0.5015
 1270SOL     OW15271   3.446   2.145  12.887  0.4224 -0.5574 -0.1342
 1270SOL    HW115272   3.504   2.215  12.913  0.7865 -0.8111 -0.2662
 1270SOL    HW215273   3.363   2.191  12.900 -0.1946 -1.7048  0.0333
 1271SOL     OW15274   2.425   1.359   7.229 -0.2658  0.2067 -0.3591
 1271SOL    HW115275   2.358   1.298   7.261 -0.4838 -0.1503 -1.4852
 1271SOL    HW215276   2.496   1.326   7.284  0.2544  0.7286 -0.7229
 1272SOL     OW15277   1.252   3.172   8.919 -0.3027 -0.3438 -0.7196
 1272SOL    HW115278   1.187   3.215   8.975  0.9115  1.1689 -0.4642
 1272SOL    HW215279   1.265   3.090   8.966 -2.2321 -0.0779  0.2662
 1273SOL     OW15280   2.918   2.385   3.402 -0.5217 -0.0590  0.3271
 1273SOL    HW115281   2.833   2.342   3.413  0.5677 -2.2416  0.1829
 1273SOL    HW215282   2.970   2.318   3.357 -0.9217  0.9136 -1.6181
 1274SOL     OW15283   0.726   2.545   8.145 -0.1878 -0.1085  0.1811
 1274SOL    HW115284   0.675   2.612   8.101 -1.2508 -1.8017 -1.1934
 1274SOL    HW215285   0.657   2.479   8.144  0.1715 -0.5840  3.5876
 1275SOL     OW15286   2.593   4.368   5.150 -0.4152  0.7484  0.2086
 1275SOL    HW115287   2.675   4.394   5.108 -0.8769  1.0142 -0.5141
 1275SOL    HW215288   2.567   4.446   5.199 -2.3961 -1.2835  2.4496
 1276SOL     OW15289   0.099   1.919  14.619 -0.3127 -0.2088 -0.3937
 1276SOL    HW115290   0.122   1.966  14.699  0.0254 -2.0383  0.6014
 1276SOL    HW215291   0.036   1.976  14.576  0.1379 -0.3349 -1.2183
 1277SOL     OW15292   4.014   4.103   3.505  0.9322  0.0526 -0.5446
 1277SOL    HW115293   3.991   4.144   3.421 -4.3267 -0.7906  0.4824
 1277SOL    HW215294   3.947   4.036   3.516  1.2869 -0.2965 -0.5274
 1278SOL     OW15295   0.482   1.171  17.133 -0.2644  0.2446 -0.3948
 1278SOL    HW115296   0.528   1.187  17.215  2.5076 -0.7438 -1.7487
 1278SOL    HW215297   0.487   1.076  17.119 -0.5387 -0.2686  3.1140
 1279SOL     OW15298   1.319   2.907   4.174  0.0340 -0.4741  0.1163
 1279SOL    HW115299   1.343   2.879   4.263  1.4607 -1.7497 -0.6826
 1279SOL    HW215300   1.310   3.001   4.194 -3.0549 -1.0282  1.2631
 1280SOL     OW15301   1.484   4.415  14.293 -0.1453 -0.3584 -0.2922
 1280SOL    HW115302   1.554   4.350  14.290 -0.3851 -0.5673 -1.5670
 1280SOL    HW215303   1.414   4.351  14.278  0.8480 -0.8858 -2.7607
 1281SOL     OW15304   3.257   2.702   4.421  0.3689 -1.0561 -0.2730
 1281SOL    HW115305   3.278   2.657   4.340  1.3534  0.0959 -0.6588
 1281SOL    HW215306   3.273   2.792   4.393  0.1438 -0.1219  2.5483
 1282SOL     OW15307   4.333   1.259   3.517 -0.0538 -0.4807 -0.2006
 1282SOL    HW115308   4.338   1.336   3.461 -0.6438 -0.7499 -0.6276
 1282SOL    HW215309   4.243   1.232   3.498  0.3541 -1.5888 -0.6069
 1283SOL     OW15310   2.519   4.525   3.128  0.0476 -0.1586  0.4940
 1283SOL    HW115311   2.503   4.446   3.077 -0.0372  0.3057 -0.1901
 1283SOL    HW215312   2.607   4.500   3.157 -0.4531  1.5141  3.4818
 1284SOL     OW15313   3.868   0.782  15.224  0.1811 -0.5460  0.2007
 1284SOL    HW115314   3.887   0.855  15.166 -0.1181  1.6099  2.8273
 1284SOL    HW215315   3.906   0.820  15.303  0.1827  0.3193 -0.2178
 1285SOL     OW15316   3.650   4.432  12.665 -0.0103 -0.0340 -0.0460
 1285SOL    HW115317   3.655   4.503  12.729 -0.9732 -0.2321  0.2420
 1285SOL    HW215318   3.656   4.351  12.716  1.5748 -1.0904 -1.9137
 1286SOL     OW15319   2.820   3.767  14.313  0.0997  0.2542  0.0767
 1286SOL    HW115320   2.852   3.701  14.374  0.6607 -0.0190 -0.5104
 1286SOL    HW215321   2.763   3.710  14.261  0.0800  0.2755  0.0752
 1287SOL     OW15322   0.842   0.030   2.816 -0.0027  0.0040 -0.4461
 1287SOL    HW115323   0.928   0.020   2.776  0.4558  1.9512  0.0519
 1287SOL    HW215324   0.852   4.696   2.893 -1.3655 -0.1230 -0.3557
 1288SOL     OW15325   0.146   3.422   7.080  0.2329 -0.5074 -0.0530
 1288SOL    HW115326   0.169   3.330   7.095  1.3747 -0.0102  1.1779
 1288SOL    HW215327   0.157   3.460   7.166 -4.4274  0.0735  0.2860
 1289SOL     OW15328   3.824   0.579   4.489 -0.2690  0.6503  0.0031
 1289SOL    HW115329   3.875   0.627   4.424  0.3248  1.1548  0.8474
 1289SOL    HW215330   3.884   0.521   4.535  0.2216  2.4172  1.5770
 1290SOL     OW15331   0.177   2.532   8.236 -0.4991  0.2923  0.0270
 1290SOL    HW115332   0.210   2.443   8.222  0.1964  0.4983  0.3525
 1290SOL    HW215333   0.083   2.519   8.226 -0.2396  0.5389 -3.0268
 1291SOL     OW15334   2.815   4.023   3.087 -0.2132 -0.2345 -0.4325
 1291SOL    HW115335   2.788   3.931   3.084  1.3588 -0.6808 -0.6388
 1291SOL    HW215336   2.729   4.064   3.074  0.3377  1.5529  1.5490
 1292SOL     OW15337   4.225   4.203  12.863  0.0749 -0.2370 -0.4009
 1292SOL    HW115338   4.149   4.160  12.824  0.4063 -1.3014  0.1373
 1292SOL    HW215339   4.281   4.126  12.863  0.9424  0.4027 -1.4648
 1293SOL     OW15340   0.758   4.171  16.526  0.6169 -0.7737 -0.4425
 1293SOL    HW115341   0.817   4.144  16.456  2.4830 -0.0375  0.8433
 1293SOL    HW215342   0.809   4.225  16.586  0.6178 -3.0024  1.5673
 1294SOL     OW15343   0.174   0.675   0.632 -0.2768  0.1244  0.1760
 1294SOL    HW115344   0.084   0.664   0.602  0.1405 -0.7198 -0.7811
 1294SOL    HW215345   0.193   0.754   0.582 -0.6542  0.4176  0.4978
 1295SOL     OW15346   4.191   0.721   2.067 -0.0520  0.5481  0.2085
 1295SOL    HW115347   4.106   0.702   2.028  0.4456  0.0693 -0.6608
 1295SOL    HW215348   4.173   0.709   2.160 -2.4672  2.9230  0.0339
 1296SOL     OW15349   0.664   1.715  10.928 -0.1002  0.1729 -0.3128
 1296SOL    HW115350   0.587   1.691  10.875  1.6516 -2.9809 -1.4103
 1296SOL    HW215351   0.678   1.636  10.981  0.1135  0.7692  0.5023
 1297SOL     OW15352   0.765   3.102   7.132  0.0299  0.3617  0.5166
 1297SOL    HW115353   0.740   3.021   7.088 -1.4449  2.9757 -3.4924
 1297SOL    HW215354   0.810   3.068   7.209 -1.1532 -0.5204  0.8270
 1298SOL     OW15355   4.649   4.645   6.588 -0.1826  0.1498  0.3764
 1298SOL    HW115356   4.604   4.604   6.514 -0.4631  0.9543  0.0957
 1298SOL    HW215357   4.683   0.001   6.544  0.0674 -0.2487 -0.1420
 1299SOL     OW15358   3.765   1.151  14.707 -0.1013 -0.8131 -0.4829
 1299SOL    HW115359   3.700   1.157  14.637  1.2458  0.0826 -1.6582
 1299SOL    HW215360   3.849   1.148  14.662 -0.6273 -2.7195 -1.3747
 1300SOL     OW15361   3.266   0.401   5.657 -0.3099 -0.0380  0.2561
 1300SOL    HW115362   3.236   0.406   5.748  1.1880  1.1103  0.6795
 1300SOL    HW215363   3.206   0.462   5.616  2.1699  2.4036  0.2513
 1301SOL     OW15364   1.118   4.214  12.169 -0.4031  0.3808 -0.3955
 1301SOL    HW115365   1.157   4.131  12.197  0.4300  0.2486 -1.9170
 1301SOL    HW215366   1.046   4.219  12.232 -0.6734  0.3485 -0.7006
 1302SOL     OW15367   4.087   4.194  13.132 -0.0496  0.0229 -0.4069
 1302SOL    HW115368   4.173   4.159  13.106 -0.3293 -0.4745 -0.6617
 1302SOL    HW215369   4.051   4.123  13.185  0.4719 -0.4107 -0.6269
 1303SOL     OW15370   0.357   2.738   3.533  0.5134  0.6136  0.1547
 1303SOL    HW115371   0.423   2.789   3.580 -0.2115  0.9959  0.7569
 1303SOL    HW215372   0.384   2.650   3.558 -2.5293 -0.2249  0.5788
 1304SOL     OW15373   0.558   0.093   5.385 -0.2914 -0.9708 -0.1677
 1304SOL    HW115374   0.613   0.029   5.341  0.1904 -0.5512 -0.1834
 1304SOL    HW215375   0.514   0.042   5.453  0.2884 -1.1098  0.1053
 1305SOL     OW15376   0.968   1.240   3.579 -0.7787  0.8077  0.5900
 1305SOL    HW115377   0.887   1.275   3.542  0.3426 -0.7054 -3.3202
 1305SOL    HW215378   0.994   1.306   3.643  1.7652 -1.3825  1.7991
 1306SOL     OW15379   2.455   3.314  12.525  0.1800  0.1698  0.0387
 1306SOL    HW115380   2.405   3.232  12.521  0.9472 -0.3806  1.6998
 1306SOL    HW215381   2.444   3.343  12.616 -2.0946  0.7114 -0.4099
 1307SOL     OW15382   3.686   4.248  17.123 -0.3417  0.2410 -0.1781
 1307SOL    HW115383   3.668   4.224  17.214 -0.5469  1.0865  0.0105
 1307SOL    HW215384   3.754   4.315  17.134 -0.1787  0.2630 -1.3669
 1308SOL     OW15385   3.856   1.827   1.972  0.7160  0.2199  0.0840
 1308SOL    HW115386   3.838   1.750   2.025  1.6429  0.2503  0.4550
 1308SOL    HW215387   3.944   1.855   1.997  0.7970  0.0909 -0.0516
 1309SOL     OW15388   2.899   4.492   1.418 -0.2871 -0.0179  0.1274
 1309SOL    HW115389   2.924   4.408   1.457  0.7053  0.1158 -0.2305
 1309SOL    HW215390   2.884   4.473   1.326 -0.8450 -1.1577  0.4493
 1310SOL     OW15391   0.877   3.548   6.155  0.6686 -0.4999  0.4087
 1310SOL    HW115392   0.804   3.609   6.154  0.0084 -1.2941  1.5321
 1310SOL    HW215393   0.827   3.466   6.155 -0.1354 -0.0049 -0.4436
 1311SOL     OW15394   2.720   2.779   7.209 -0.6605  0.3093  0.1045
 1311SOL    HW115395   2.672   2.705   7.247 -0.4569  1.0098  1.7433
 1311SOL    HW215396   2.655   2.816   7.150 -0.2060  0.8631 -0.0507
 1312SOL     OW15397   3.633   2.126   2.810 -0.2533 -0.9806  0.2975
 1312SOL    HW115398   3.571   2.166   2.872 -0.3445 -0.1943 -0.3078
 1312SOL    HW215399   3.715   2.172   2.830 -1.2992  0.4013  1.3495
 1313SOL     OW15400   2.191   2.009   5.541 -0.0678 -0.1822 -0.2074
 1313SOL    HW115401   2.218   2.100   5.530  2.1765 -0.8817 -0.5369
 1313SOL    HW215402   2.119   2.010   5.604 -1.3396  0.5285 -1.6631
 1314SOL     OW15403   0.032   3.223   0.219  0.5351  0.8384  0.0814
 1314SOL    HW115404   4.697   3.177   0.157  0.8620  1.3209 -0.5793
 1314SOL    HW215405   4.708   3.194   0.298  0.0651  1.0551 -0.1117
 1315SOL     OW15406   0.755   2.270   4.390  0.0463  0.0269 -0.1101
 1315SOL    HW115407   0.744   2.223   4.308  1.8909  0.2864 -0.5135
 1315SOL    HW215408   0.843   2.307   4.378 -0.3295  1.4274  1.4247
 1316SOL     OW15409   4.675   2.325   7.514  0.3363  0.3982 -0.0188
 1316SOL    HW115410   4.710   2.237   7.527  0.3565 -0.0633 -3.1966
 1316SOL    HW215411   4.599   2.298   7.463  0.6259 -0.9127  0.2411
 1317SOL     OW15412   2.309   3.602  15.274 -0.1703  0.3333  0.0665
 1317SOL    HW115413   2.271   3.596  15.361  2.0328  1.8563  1.1397
 1317SOL    HW215414   2.247   3.662  15.233  0.1576  0.7850  0.2412
 1318SOL     OW15415   2.441   4.261  11.454  0.6516  0.2125  0.0020
 1318SOL    HW115416   2.489   4.260  11.372 -1.2722 -0.9041 -1.0967
 1318SOL    HW215417   2.516   4.265  11.514 -0.9765  0.6275  2.0197
 1319SOL     OW15418   3.902   3.392   2.562 -0.4594 -0.3059 -0.6022
 1319SOL    HW115419   3.814   3.422   2.538 -0.5458 -0.7837 -0.8945
 1319SOL    HW215420   3.933   3.334   2.492 -2.0176 -0.7751 -0.9123
 1320SOL     OW15421   4.011   1.541   7.422 -0.0975 -0.0012 -0.4348
 1320SOL    HW115422   4.074   1.596   7.469 -1.0050 -0.8155  1.7355
 1320SOL    HW215423   4.007   1.470   7.486  4.5510 -0.0879 -0.2669
 1321SOL     OW15424   0.730   0.320   2.500  0.4035 -0.1912 -0.0103
 1321SOL    HW115425   0.744   0.288   2.411  0.6394  0.1309 -0.0887
 1321SOL    HW215426   0.767   0.245   2.546 -0.8916  0.4900  2.1538
 1322SOL     OW15427   1.969   2.518   6.977 -0.2038 -1.1244  0.6206
 1322SOL    HW115428   1.998   2.566   7.054 -1.4013  2.3251 -1.1077
 1322SOL    HW215429   2.047   2.489   6.928  0.4541  0.1454  0.9271
 1323SOL     OW15430   4.054   1.924   8.834 -0.2393 -0.4845 -0.1258
 1323SOL    HW115431   4.107   1.986   8.885  0.4611  0.1748 -1.6622
 1323SOL    HW215432   4.068   1.962   8.747 -1.6149 -0.5766 -0.3902
 1324SOL     OW15433   0.274   1.511   6.484  0.1826  0.7187  0.2713
 1324SOL    HW115434   0.285   1.420   6.457 -0.8576  0.3262  1.1661
 1324SOL    HW215435   0.225   1.537   6.406 -1.1153 -1.3111  0.3957
 1325SOL     OW15436   1.640   4.679   6.945 -0.5344 -0.6251  0.9102
 1325SOL    HW115437   1.597   4.690   6.860  2.1271  0.0780 -0.3581
 1325SOL    HW215438   1.682   0.044   6.950 -3.6720  0.9772 -0.5148
 1326SOL     OW15439   1.653   2.810   8.992 -0.0609 -0.1454  0.2052
 1326SOL    HW115440   1.744   2.786   8.978  0.3155  0.7110  1.2312
 1326SOL    HW215441   1.619   2.765   8.914  2.5384 -0.6042 -0.6678
 1327SOL     OW15442   4.631   3.674  10.032  0.0267  0.3633 -0.3228
 1327SOL    HW115443   4.717   3.634  10.038 -0.3374 -0.6812 -2.0936
 1327SOL    HW215444   4.606   3.697  10.122  3.2870  1.7803  0.2043
 1328SOL     OW15445   2.670   2.649  12.010  0.0219 -0.4655 -0.4023
 1328SOL    HW115446   2.759   2.654  12.045 -0.0317  1.6322 -0.5296
 1328SOL    HW215447   2.687   2.611  11.924 -1.6717 -3.2120  0.5029
 1329SOL     OW15448   2.947   4.376   6.946  0.1467  0.0918  0.3304
 1329SOL    HW115449   3.018   4.391   7.007 -0.3037 -1.0915  1.1530
 1329SOL    HW215450   2.874   4.387   7.007 -1.5799  1.4364 -1.9816
 1330SOL     OW15451   2.542   0.172   8.375 -0.5606 -0.0849  0.1377
 1330SOL    HW115452   2.464   0.118   8.386  0.0824 -0.7972  1.2392
 1330SOL    HW215453   2.510   0.254   8.338 -0.9073  0.9905  2.7883
 1331SOL     OW15454   3.747   1.127   9.392 -0.0883  0.4393  0.8099
 1331SOL    HW115455   3.755   1.200   9.329 -0.2895  1.2034  1.6696
 1331SOL    HW215456   3.815   1.153   9.453  0.9082  0.6493 -0.3878
 1332SOL     OW15457   0.658   3.457   5.771 -0.6253 -0.0950 -0.1316
 1332SOL    HW115458   0.742   3.425   5.804  0.3695  2.7525  0.0766
 1332SOL    HW215459   0.602   3.451   5.849  1.2550 -1.5941  1.1083
 1333SOL     OW15460   1.366   4.676  10.528  0.5529  0.4050 -0.3265
 1333SOL    HW115461   1.332   0.018  10.592 -0.1741 -1.6443  1.3391
 1333SOL    HW215462   1.320   4.599  10.561  2.5934 -0.2844  0.9395
 1334SOL     OW15463   3.552   4.408   2.211 -0.4701  0.3918  0.3773
 1334SOL    HW115464   3.574   4.466   2.284 -2.9887  1.2738  0.4412
 1334SOL    HW215465   3.475   4.364   2.246 -1.6647  1.1865 -1.2457
 1335SOL     OW15466   2.088   2.489   7.762  0.7429 -0.2622  0.2282
 1335SOL    HW115467   2.048   2.571   7.732  0.0763 -0.1796  1.3534
 1335SOL    HW215468   2.082   2.495   7.857 -1.3022  0.0363  0.0826
 1336SOL     OW15469   0.194   1.527  13.771  0.2190  0.0513  0.1683
 1336SOL    HW115470   0.137   1.461  13.731  2.3449 -0.7871 -1.4979
 1336SOL    HW215471   0.280   1.490  13.754  1.0357  2.3965 -0.8799
 1337SOL     OW15472   0.476   1.291   6.915 -0.2280 -0.2367 -0.1305
 1337SOL    HW115473   0.504   1.361   6.856 -1.2165  0.8434  0.6837
 1337SOL    HW215474   0.550   1.229   6.916  0.5344  0.6807  1.0243
 1338SOL     OW15475   3.423   2.801   9.117 -0.0069  0.5473 -0.5019
 1338SOL    HW115476   3.516   2.808   9.095  0.0688 -1.1050 -0.6968
 1338SOL    HW215477   3.426   2.819   9.211  3.1579  0.0229 -0.4970
 1339SOL     OW15478   4.389   4.583  11.352  0.4781 -0.1572  0.2344
 1339SOL    HW115479   4.435   4.666  11.340  2.8217 -1.2931  1.2350
 1339SOL    HW215480   4.456   4.524  11.388  1.1931  0.7144  0.3146
 1340SOL     OW15481   1.499   3.691  12.755 -0.7256  0.1094 -0.6244
 1340SOL    HW115482   1.496   3.598  12.776 -2.3369  0.2771 -0.1293
 1340SOL    HW215483   1.407   3.710  12.735 -1.0918  0.5507  1.4852
 1341SOL     OW15484   1.365   1.350   8.584 -0.5123  0.2005 -0.3709
 1341SOL    HW115485   1.325   1.275   8.541  0.0831 -0.2739 -0.0979
 1341SOL    HW215486   1.311   1.354   8.663  0.1626  0.9604  0.0580
 1342SOL     OW15487   1.176   1.545  10.580  0.0003 -0.6731 -0.0144
 1342SOL    HW115488   1.242   1.510  10.520  0.3291  0.5597 -0.3806
 1342SOL    HW215489   1.223   1.531  10.662  1.2323 -4.2470 -1.3250
 1343SOL     OW15490   1.836   4.206   6.370  0.0936 -0.1200 -0.2107
 1343SOL    HW115491   1.839   4.119   6.329  0.7286 -0.0177 -0.3745
 1343SOL    HW215492   1.918   4.247   6.343 -0.1747  1.3922  1.2409
 1344SOL     OW15493   1.315   2.362   5.404 -0.3303 -0.1749  0.3157
 1344SOL    HW115494   1.373   2.418   5.456  1.8034 -1.5646 -0.6070
 1344SOL    HW215495   1.367   2.283   5.390  0.1399  0.6318 -2.3985
 1345SOL     OW15496   3.072   1.257   4.324 -0.1113  0.6908  0.4613
 1345SOL    HW115497   3.137   1.211   4.377  0.7808 -0.3824 -1.5228
 1345SOL    HW215498   3.022   1.311   4.384  0.1072  1.4108  0.0034
 1346SOL     OW15499   4.478   1.548   8.126 -0.3954 -0.1338  0.2960
 1346SOL    HW115500   4.384   1.563   8.137 -1.0034 -1.7658 -2.6651
 1346SOL    HW215501   4.512   1.607   8.193 -2.6708  0.0231  1.3006
 1347SOL     OW15502   4.243   4.713   1.350  0.2861  0.2538 -0.3645
 1347SOL    HW115503   4.156   0.029   1.363 -0.3372 -1.2947 -0.0950
 1347SOL    HW215504   4.229   4.649   1.280 -3.7374  0.5915  0.1214
 1348SOL     OW15505   4.435   2.082   4.941 -0.1642 -0.2353 -0.0416
 1348SOL    HW115506   4.359   2.140   4.934 -0.0449 -0.1856 -0.9615
 1348SOL    HW215507   4.405   2.012   4.884 -0.1937 -0.9179  0.8158
 1349SOL     OW15508   0.829   4.152  10.991  0.3376  0.3477  0.4019
 1349SOL    HW115509   0.736   4.133  10.975  0.1915  1.4872 -0.0508
 1349SOL    HW215510   0.844   4.061  11.018  1.3798 -0.1077 -1.6392
 1350SOL     OW15511   3.797   3.318   2.804  0.6179  0.1518  0.5382
 1350SOL    HW115512   3.834   3.334   2.717 -0.1119  1.7244  0.4978
 1350SOL    HW215513   3.876   3.283   2.844  2.3791  2.7299 -0.6737
 1351SOL     OW15514   4.614   0.629   4.105  0.5750  0.4542  0.1112
 1351SOL    HW115515   4.578   0.542   4.123  1.7126 -0.0237  0.0591
 1351SOL    HW215516   4.544   0.679   4.064  1.1304  1.7104  0.6923
 1352SOL     OW15517   3.587   4.003   9.246 -0.0930  0.8382 -0.2454
 1352SOL    HW115518   3.670   4.006   9.198  0.2321  0.0042  0.2597
 1352SOL    HW215519   3.543   3.933   9.197  1.5949  0.0237 -0.5925
 1353SOL     OW15520   2.625   0.936  16.545  0.1235 -0.1514 -0.0999
 1353SOL    HW115521   2.545   0.990  16.547  1.0961  1.2782  0.4431
 1353SOL    HW215522   2.653   0.931  16.636  1.1636 -0.3504 -0.4413
 1354SOL     OW15523   4.424   1.360   1.413 -0.3458  0.7419 -0.3458
 1354SOL    HW115524   4.346   1.408   1.441  0.0514  1.8617 -1.1451
 1354SOL    HW215525   4.459   1.416   1.344  0.4482 -1.8771 -2.0554
 1355SOL     OW15526   4.060   4.452   6.595 -0.9896  0.4300 -0.4211
 1355SOL    HW115527   4.071   4.359   6.573  1.3747  0.1422  1.9052
 1355SOL    HW215528   3.967   4.444   6.617 -0.9652 -1.1855 -0.8453
 1356SOL     OW15529   0.166   3.061   4.015 -0.0255 -0.0663  0.1027
 1356SOL    HW115530   0.101   3.106   4.069 -1.4569 -1.5850 -0.3826
 1356SOL    HW215531   0.142   2.975   4.049  0.2773 -0.4596 -0.6927
 1357SOL     OW15532   4.541   4.168  16.624  0.0720  0.3453 -0.2870
 1357SOL    HW115533   4.516   4.178  16.716  0.5730 -1.2543  0.0182
 1357SOL    HW215534   4.530   4.259  16.597 -1.7693  0.6756  1.5879
 1358SOL     OW15535   0.184   3.272   9.245 -0.2803 -0.2773 -0.2790
 1358SOL    HW115536   0.222   3.259   9.332  0.5857  1.1486 -0.4340
 1358SOL    HW215537   0.103   3.324   9.252 -0.9830 -1.8084  3.1414
 1359SOL     OW15538   3.442   4.037  10.947  0.1505 -0.1036 -0.0240
 1359SOL    HW115539   3.436   3.977  10.873 -2.8294 -1.0398  0.9963
 1359SOL    HW215540   3.352   4.059  10.971 -0.1110 -1.1023 -0.0953
 1360SOL     OW15541   4.095   4.185   9.248  0.0193 -0.8840 -0.8235
 1360SOL    HW115542   4.143   4.179   9.165  0.1451  1.0279 -0.8909
 1360SOL    HW215543   4.145   4.123   9.301  1.3985 -0.4507 -1.6228
 1361SOL     OW15544   1.827   3.939   7.292  0.0946 -0.0609  0.3411
 1361SOL    HW115545   1.803   3.857   7.249  0.2047  0.6326 -1.0244
 1361SOL    HW215546   1.741   3.981   7.299  0.6394  1.1746 -0.3867
 1362SOL     OW15547   0.234   1.605   2.731  0.1459  0.5312  0.3421
 1362SOL    HW115548   0.191   1.577   2.812 -1.6498  0.7354 -0.5228
 1362SOL    HW215549   0.248   1.524   2.682  1.8659  0.0269  1.6917
 1363SOL     OW15550   2.952   1.732   7.408 -0.2226  0.1588  0.2932
 1363SOL    HW115551   2.957   1.673   7.334  1.3029  0.1513  0.3925
 1363SOL    HW215552   2.931   1.811   7.359 -1.0770  0.0933  0.5561
 1364SOL     OW15553   3.801   4.261   6.924  0.5989  0.3089  0.1006
 1364SOL    HW115554   3.775   4.245   7.015 -1.2148 -0.4411 -0.5410
 1364SOL    HW215555   3.755   4.344   6.913  2.0259  0.8087 -2.0493
 1365SOL     OW15556   4.391   0.504  10.183  0.2549  0.0182  0.7517
 1365SOL    HW115557   4.301   0.529  10.162  0.6462  2.4524  1.9776
 1365SOL    HW215558   4.427   0.592  10.186  0.0791  0.2056 -1.8752
 1366SOL     OW15559   0.835   0.251   7.361 -0.1846 -0.1231 -0.2694
 1366SOL    HW115560   0.768   0.198   7.319  0.8988 -0.3265 -1.7703
 1366SOL    HW215561   0.915   0.216   7.322  0.4551 -0.3224  1.2052
 1367SOL     OW15562   1.730   1.202  14.601 -0.4028  0.3896 -0.9918
 1367SOL    HW115563   1.638   1.198  14.575 -1.4747 -0.4039  2.8264
 1367SOL    HW215564   1.748   1.117  14.640  1.8918  0.7227 -1.3420
 1368SOL     OW15565   2.403   2.465  10.688  0.7134 -0.3953 -0.4547
 1368SOL    HW115566   2.445   2.380  10.676 -0.8182 -1.3558  0.8983
 1368SOL    HW215567   2.421   2.478  10.781  0.6728  1.7725 -0.7465
 1369SOL     OW15568   3.287   4.213  15.089  0.6661  0.2594  0.4267
 1369SOL    HW115569   3.201   4.180  15.115  0.3127  1.4636  0.7520
 1369SOL    HW215570   3.302   4.149  15.019  1.7412  0.3684  0.5471
 1370SOL     OW15571   0.056   2.379   5.842  0.1291 -0.2971  0.1861
 1370SOL    HW115572   0.023   2.317   5.777  0.4604 -1.2176  0.8952
 1370SOL    HW215573   0.141   2.342   5.867  0.8893 -0.1629 -2.2560
 1371SOL     OW15574   2.842   2.127   3.175  0.8626  0.1673  0.4601
 1371SOL    HW115575   2.758   2.170   3.195  1.8345  3.0713 -1.6585
 1371SOL    HW215576   2.842   2.136   3.079  1.8557 -1.7196  0.2995
 1372SOL     OW15577   0.965   4.419   7.245 -0.5772  0.0285 -0.0667
 1372SOL    HW115578   0.970   4.459   7.331 -0.6602  1.4675 -0.7400
 1372SOL    HW215579   0.970   4.501   7.196  0.5006  1.0097  1.6921
 1373SOL     OW15580   4.381   0.397  12.167  0.4495 -0.5610  0.2919
 1373SOL    HW115581   4.315   0.412  12.099 -0.3230 -0.6175  1.0270
 1373SOL    HW215582   4.356   0.455  12.240 -1.6024  0.1302 -0.9704
 1374SOL     OW15583   4.462   2.465   7.817  0.0112 -0.3782  0.2801
 1374SOL    HW115584   4.411   2.446   7.896  0.2026 -0.0822  0.4763
 1374SOL    HW215585   4.418   2.408   7.755  1.6116 -0.5346 -0.7077
 1375SOL     OW15586   1.717   4.352   9.056 -0.0500 -0.0530 -0.4522
 1375SOL    HW115587   1.657   4.349   8.981  0.7917  0.4423 -1.1430
 1375SOL    HW215588   1.661   4.318   9.126 -0.2612 -0.4508 -0.8139
 1376SOL     OW15589   1.640   2.952   0.351 -0.5653  0.2037  0.4273
 1376SOL    HW115590   1.628   2.950   0.446 -0.3120 -0.8218  0.4408
 1376SOL    HW215591   1.700   2.880   0.332 -0.2669  0.4276  0.5227
 1377SOL     OW15592   0.629   3.946   3.764 -0.6041  0.2057 -0.0088
 1377SOL    HW115593   0.657   4.011   3.829 -1.1731  0.1847  0.2502
 1377SOL    HW215594   0.657   3.994   3.686 -1.1337 -0.2217 -0.4553
 1378SOL     OW15595   2.267   0.509   1.037 -0.6898  0.3402 -0.1540
 1378SOL    HW115596   2.182   0.467   1.053 -0.5717  1.6224  3.8469
 1378SOL    HW215597   2.333   0.442   1.057 -1.2080 -0.0088  0.4129
 1379SOL     OW15598   2.317   3.236   4.552  0.2979 -0.0969 -0.4957
 1379SOL    HW115599   2.341   3.229   4.459 -1.6114  0.4056 -1.0340
 1379SOL    HW215600   2.395   3.267   4.596  0.3285 -0.0398 -0.5905
 1380SOL     OW15601   3.705   1.154   1.323 -0.5162 -0.6440 -0.1127
 1380SOL    HW115602   3.799   1.147   1.337 -0.1560  3.3618 -0.5616
 1380SOL    HW215603   3.672   1.069   1.354 -1.0998 -0.3050  0.2024
 1381SOL     OW15604   0.005   3.731   0.508  0.1202 -0.4899  0.1154
 1381SOL    HW115605   0.070   3.677   0.552 -1.4193 -1.9938  0.5725
 1381SOL    HW215606   4.696   3.679   0.433  1.8372  0.3795 -1.1813
 1382SOL     OW15607   1.436   1.665   4.086  0.0940 -0.4220  0.2650
 1382SOL    HW115608   1.466   1.713   4.009  0.6998  2.1401  2.0752
 1382SOL    HW215609   1.350   1.703   4.105  0.9459  0.7797  1.7689
 1383SOL     OW15610   3.215   3.728   6.708 -0.2833 -0.4340  0.0631
 1383SOL    HW115611   3.162   3.654   6.736 -0.0370 -0.5544  0.2145
 1383SOL    HW215612   3.266   3.680   6.642 -1.3353  1.0310 -1.7975
 1384SOL     OW15613   1.658   1.372   6.873 -0.0446  0.1903  0.4584
 1384SOL    HW115614   1.719   1.302   6.849 -0.8485  0.2916 -1.9288
 1384SOL    HW215615   1.723   1.434   6.906  1.5569 -0.2988 -1.7660
 1385SOL     OW15616   0.002   4.469   4.703  1.0007  0.0974 -0.1387
 1385SOL    HW115617   0.093   4.497   4.696  0.6938  1.0188 -0.4104
 1385SOL    HW215618   4.689   4.494   4.617  1.2575 -0.0936 -0.2972
 1386SOL     OW15619   2.600   3.922   0.267  0.2349  0.1999  0.2818
 1386SOL    HW115620   2.531   3.984   0.242 -1.4018 -2.1132 -0.8847
 1386SOL    HW215621   2.652   3.969   0.333 -0.5705  1.5524 -0.0371
 1387SOL     OW15622   3.832   0.734  11.362 -0.3358  0.6293  0.1933
 1387SOL    HW115623   3.878   0.801  11.310 -0.6950  1.2921  0.7392
 1387SOL    HW215624   3.743   0.743  11.329  0.0812  3.0575 -0.2752
 1388SOL     OW15625   3.989   0.509   2.666  0.3314 -0.2281  0.1615
 1388SOL    HW115626   3.976   0.580   2.603 -2.0737 -1.3878 -0.6618
 1388SOL    HW215627   3.917   0.516   2.728  0.6541  2.5850  0.1972
 1389SOL     OW15628   1.594   0.536  16.588 -0.6438  0.1526 -0.1980
 1389SOL    HW115629   1.546   0.548  16.506  0.5376 -0.4529 -0.9880
 1389SOL    HW215630   1.687   0.539  16.563 -0.4379  0.7146  0.6508
 1390SOL     OW15631   0.918   3.241   3.109  0.0204  0.0987  0.1994
 1390SOL    HW115632   0.902   3.303   3.038 -2.2759  0.7299  1.2941
 1390SOL    HW215633   0.967   3.176   3.058 -1.0003 -0.1910 -0.4104
 1391SOL     OW15634   4.429   0.237   9.194 -0.1000 -0.4214 -0.1107
 1391SOL    HW115635   4.412   0.265   9.104  2.3740  0.5670 -0.2537
 1391SOL    HW215636   4.501   0.176   9.181 -0.2812 -0.6453 -0.0775
 1392SOL     OW15637   3.250   3.934   9.539 -0.2388 -0.4905 -0.6152
 1392SOL    HW115638   3.335   3.978   9.545 -0.2734 -0.1091 -2.8242
 1392SOL    HW215639   3.201   4.015   9.548  1.6659  0.5169  0.6066
 1393SOL     OW15640   4.053   0.061   4.874 -0.1083 -0.2454  0.0993
 1393SOL    HW115641   4.042   4.715   4.941 -1.1869  1.6810  1.8953
 1393SOL    HW215642   4.003   0.134   4.910  1.2617  1.5411 -1.6423
 1394SOL     OW15643   0.818   3.399   1.969  0.1409  0.1288  0.0506
 1394SOL    HW115644   0.902   3.405   2.016  0.1551 -3.6596  0.5747
 1394SOL    HW215645   0.771   3.474   2.005  0.0684 -0.1107  0.4556
 1395SOL     OW15646   2.135   1.484   4.656  0.2289 -0.5141 -0.8257
 1395SOL    HW115647   2.129   1.514   4.565  2.0619  3.0462  0.2276
 1395SOL    HW215648   2.079   1.406   4.661 -0.4144 -0.1371 -2.2604
 1396SOL     OW15649   0.939   2.843   5.849 -0.1890 -0.2758  0.3019
 1396SOL    HW115650   0.922   2.931   5.881  3.5714 -0.7045  3.5234
 1396SOL    HW215651   0.855   2.814   5.813 -0.2785  0.9626 -0.4727
 1397SOL     OW15652   3.105   2.542   4.808  0.1406 -0.0211 -0.0888
 1397SOL    HW115653   3.031   2.602   4.800  2.1157  2.1941 -1.7716
 1397SOL    HW215654   3.171   2.612   4.806 -0.0075  0.1574  1.4175
 1398SOL     OW15655   1.928   3.998   4.264 -0.0455  0.9068  0.1341
 1398SOL    HW115656   1.850   4.020   4.213 -0.8135  0.7438  1.2533
 1398SOL    HW215657   1.928   4.053   4.341 -1.0767 -1.4609  1.8380
 1399SOL     OW15658   2.165   3.931   3.259 -0.3875  0.6099  0.0504
 1399SOL    HW115659   2.084   3.969   3.293 -0.8745  0.2864 -0.7474
 1399SOL    HW215660   2.229   3.976   3.313 -1.2432  0.6870  1.0125
 1400SOL     OW15661   0.598   0.104   1.415 -0.5967 -0.4596 -0.4400
 1400SOL    HW115662   0.588   0.077   1.324  2.9003  1.4220 -1.3616
 1400SOL    HW215663   0.620   0.020   1.455 -2.3105 -1.0810 -0.7782
 1401SOL     OW15664   4.337   2.291   2.693  0.0762  0.3169  0.0644
 1401SOL    HW115665   4.431   2.308   2.694  0.0660  0.1981  2.3276
 1401SOL    HW215666   4.298   2.375   2.715 -1.1505 -0.8446  2.2707
 1402SOL     OW15667   1.569   2.159   3.800  0.4365 -0.6864 -0.3599
 1402SOL    HW115668   1.497   2.128   3.854  0.1485  0.4650 -0.0745
 1402SOL    HW215669   1.553   2.119   3.714  1.0001  1.0082 -1.2678
 1403SOL     OW15670   0.894   1.009   1.520 -0.2355  0.1508 -0.2198
 1403SOL    HW115671   0.842   0.929   1.533  0.3452 -0.4150 -1.3738
 1403SOL    HW215672   0.947   0.988   1.443  0.0784  0.6879 -0.1468
 1404SOL     OW15673   3.486   0.735  11.414 -0.3775 -0.0694 -0.2416
 1404SOL    HW115674   3.511   0.799  11.347 -0.4154  1.2884  1.0362
 1404SOL    HW215675   3.439   0.786  11.480 -0.5891  0.9014 -1.1347
 1405SOL     OW15676   0.277   1.196   1.308  0.0262 -0.0854  0.0861
 1405SOL    HW115677   0.197   1.152   1.338  1.4069 -1.2169  2.0780
 1405SOL    HW215678   0.249   1.287   1.298 -0.1065  0.0686  1.7669
 1406SOL     OW15679   2.293   3.775   3.683 -0.9142  0.0788 -0.2316
 1406SOL    HW115680   2.247   3.756   3.601  0.0106  1.6362 -1.1170
 1406SOL    HW215681   2.379   3.735   3.672 -0.4103  1.6699 -2.0647
 1407SOL     OW15682   4.677   1.834   4.824  0.2200  0.3014  0.5227
 1407SOL    HW115683   4.592   1.808   4.860  0.3583 -1.0995 -0.1657
 1407SOL    HW215684   0.013   1.794   4.889  2.5245  2.1220 -0.3935
 1408SOL     OW15685   4.588   2.548  14.349 -0.2095  0.1314  0.1878
 1408SOL    HW115686   4.611   2.605  14.276 -1.5441 -0.0461 -0.3577
 1408SOL    HW215687   4.512   2.499  14.320 -0.5748  0.0508  1.2621
 1409SOL     OW15688   2.388   4.093   1.299 -0.4641  0.0529  0.6598
 1409SOL    HW115689   2.392   4.180   1.260  0.4256 -0.4431 -0.3524
 1409SOL    HW215690   2.478   4.066   1.280 -0.4803  0.7903 -0.4580
 1410SOL     OW15691   1.336   4.152   0.071  0.1718  0.4755  0.1539
 1410SOL    HW115692   1.252   4.110   0.091  0.1336  0.9797  1.0973
 1410SOL    HW215693   1.367   4.165   0.161 -1.0073  1.2391  0.4506
 1411SOL     OW15694   3.243   2.865   8.889 -0.0963 -0.3799  0.5587
 1411SOL    HW115695   3.148   2.864   8.898 -0.2088 -2.3497 -0.9211
 1411SOL    HW215696   3.257   2.888   8.981  0.3919 -0.0441  0.3992
 1412SOL     OW15697   3.464   2.264   1.245 -0.6022 -0.3384  0.2795
 1412SOL    HW115698   3.474   2.223   1.158  2.7968  0.0818  0.4526
 1412SOL    HW215699   3.485   2.354   1.220 -0.9376  0.4002  2.7379
 1413SOL     OW15700   3.046   1.723   5.412 -0.3037  0.2627 -0.1368
 1413SOL    HW115701   3.127   1.673   5.408  0.0674  1.1370 -2.9472
 1413SOL    HW215702   3.029   1.721   5.318 -1.9166  0.9307  0.1364
 1414SOL     OW15703   2.895   0.595   5.912 -0.0088  0.4112 -0.0539
 1414SOL    HW115704   2.947   0.649   5.972 -0.9394  1.3269 -0.0819
 1414SOL    HW215705   2.964   0.577   5.848 -0.2875 -1.7485  0.2404
 1415SOL     OW15706   3.839   3.694   2.408  0.1311  0.3431 -0.2224
 1415SOL    HW115707   3.756   3.717   2.449 -0.0508 -1.1427  0.2620
 1415SOL    HW215708   3.830   3.599   2.411 -1.8760  0.5020 -1.4250
 1416SOL     OW15709   1.051   2.140  13.814 -0.1054 -0.7401  0.0444
 1416SOL    HW115710   1.068   2.075  13.883  0.1991 -0.8527 -0.1387
 1416SOL    HW215711   1.133   2.143  13.766 -0.0445 -1.0410  0.1298
 1417SOL     OW15712   4.473   1.270  11.651 -0.2577  0.1031  0.3051
 1417SOL    HW115713   4.512   1.228  11.727  1.1846  0.9089  0.0150
 1417SOL    HW215714   4.533   1.238  11.583 -0.1502  0.1049  0.4000
 1418SOL     OW15715   1.964   1.706   0.691 -0.0227 -0.0721 -0.1615
 1418SOL    HW115716   1.964   1.678   0.600  2.0330  1.5233 -0.6503
 1418SOL    HW215717   1.916   1.629   0.720  1.3770  0.0897  2.5870
 1419SOL     OW15718   4.232   4.031  10.020  0.3631 -0.2230  0.1609
 1419SOL    HW115719   4.162   4.090  10.048  0.0701 -0.7583  0.5645
 1419SOL    HW215720   4.283   4.015  10.099 -1.0830  0.2249  1.1975
 1420SOL     OW15721   3.804   2.414  11.362  0.2359  0.0927  0.1661
 1420SOL    HW115722   3.715   2.384  11.382 -0.3255  1.0079 -0.9117
 1420SOL    HW215723   3.857   2.336  11.374 -0.4044  0.0962  2.9748
 1421SOL     OW15724   4.381   2.699   7.133  0.6251 -0.2123  0.9774
 1421SOL    HW115725   4.460   2.746   7.106 -0.2033 -0.2501 -1.5839
 1421SOL    HW215726   4.312   2.761   7.111  0.6781 -0.3292  0.4761
 1422SOL     OW15727   3.983   1.949   0.782  0.7581  0.0953 -0.4346
 1422SOL    HW115728   3.941   1.911   0.859  2.6764  0.9352  1.0327
 1422SOL    HW215729   4.078   1.953   0.792  0.9256 -1.2672 -1.3494
 1423SOL     OW15730   4.583   1.022  13.234  0.1387  0.1335 -0.7727
 1423SOL    HW115731   4.593   1.117  13.233  0.3221  0.1204 -0.3372
 1423SOL    HW215732   4.655   0.986  13.182  0.3946  1.3164 -1.2248
 1424SOL     OW15733   1.441   3.096   0.214 -0.1958  0.4736 -0.4713
 1424SOL    HW115734   1.360   3.078   0.262  0.9701 -0.9312  0.9992
 1424SOL    HW215735   1.503   3.048   0.269  0.9665  0.7665 -1.5359
 1425SOL     OW15736   1.224   4.259   4.545 -0.1548  0.2734  0.0449
 1425SOL    HW115737   1.318   4.274   4.561 -0.5461  0.9166  1.7618
 1425SOL    HW215738   1.178   4.342   4.557  1.4272  1.2023 -0.2289
 1426SOL     OW15739   0.204   4.316   3.469 -0.0773 -0.2230 -0.4714
 1426SOL    HW115740   0.237   4.242   3.521  0.5511  0.1623 -0.3318
 1426SOL    HW215741   0.194   4.389   3.529 -1.2744 -1.4749  0.8508
 1427SOL     OW15742   3.698   3.144   1.620  0.6434 -0.0268  0.4505
 1427SOL    HW115743   3.772   3.152   1.560 -0.0022  1.5832 -0.1153
 1427SOL    HW215744   3.755   3.160   1.695  1.3270 -0.6478  0.0734
 1428SOL     OW15745   0.969   0.287  13.903 -0.0549 -0.1803  0.6060
 1428SOL    HW115746   1.003   0.362  13.855  0.2392 -0.6070  0.1425
 1428SOL    HW215747   0.904   0.254  13.841 -0.3128  1.0977  0.1949
 1429SOL     OW15748   2.201   4.115   6.878  0.0501  0.1484  0.4315
 1429SOL    HW115749   2.120   4.141   6.922 -1.8280 -0.8771 -2.4733
 1429SOL    HW215750   2.232   4.202   6.852 -0.3871 -0.2546 -1.3872
 1430SOL     OW15751   0.261   1.021   5.240 -0.1848  0.1924  0.0041
 1430SOL    HW115752   0.328   0.984   5.182 -1.1228 -2.3861  0.5752
 1430SOL    HW215753   0.188   0.999   5.182 -1.6327  0.7261  1.6294
 1431SOL     OW15754   0.794   3.778  13.937  0.0989 -0.3556 -0.7707
 1431SOL    HW115755   0.732   3.845  13.906  0.4932  0.0568 -0.6685
 1431SOL    HW215756   0.877   3.815  13.906 -0.7306  0.8739 -1.5641
 1432SOL     OW15757   0.167   3.258   0.481 -0.1095  0.1266 -0.4767
 1432SOL    HW115758   0.261   3.269   0.499 -0.3083  2.2070 -0.7539
 1432SOL    HW215759   0.164   3.237   0.387  0.6452 -0.8228 -0.2985
 1433SOL     OW15760   1.620   4.230   2.259  0.5387  0.0569  0.3345
 1433SOL    HW115761   1.558   4.303   2.250 -0.7108 -1.0398 -0.1081
 1433SOL    HW215762   1.578   4.172   2.195 -0.6114  0.1823  0.9701
 1434SOL     OW15763   0.472   1.047   2.867  0.1971  0.2776 -0.3969
 1434SOL    HW115764   0.436   1.127   2.828 -1.2384  1.5242  3.4569
 1434SOL    HW215765   0.390   1.001   2.885  0.9056 -1.0936 -0.7169
 1435SOL     OW15766   2.692   2.280   2.016  0.2332  0.1037 -0.0834
 1435SOL    HW115767   2.774   2.234   2.033  0.0051  0.1924  1.2493
 1435SOL    HW215768   2.655   2.236   1.939  0.4339 -1.7217  0.8724
 1436SOL     OW15769   2.224   1.018   5.099  0.1501 -0.2282 -0.7696
 1436SOL    HW115770   2.295   1.083   5.096 -1.3864  1.4954 -0.1028
 1436SOL    HW215771   2.173   1.043   5.022 -1.4502 -1.6494 -0.1791
 1437SOL     OW15772   3.207   1.510   2.588 -0.0262 -0.2171  0.3365
 1437SOL    HW115773   3.272   1.447   2.556 -0.3979 -0.8397  0.8134
 1437SOL    HW215774   3.143   1.457   2.636  0.7831 -0.2179  1.4156
 1438SOL     OW15775   2.346   3.021   3.462 -0.3465  0.2361  0.4155
 1438SOL    HW115776   2.369   2.983   3.547  3.2143  1.9382  0.1980
 1438SOL    HW215777   2.259   2.982   3.453  0.1353 -0.6068 -0.4324
 1439SOL     OW15778   3.834   3.402   5.768 -0.1655 -0.3609 -0.0061
 1439SOL    HW115779   3.836   3.325   5.825  0.7971 -0.9913 -0.8790
 1439SOL    HW215780   3.869   3.363   5.688  1.6639  0.2198  0.5344
 1440SOL     OW15781   2.002   1.849   8.974  0.1282  0.7020  0.0117
 1440SOL    HW115782   1.968   1.766   9.007 -0.1468  0.7703 -0.1025
 1440SOL    HW215783   1.926   1.902   8.949 -2.5853 -1.9277  2.8073
 1441SOL     OW15784   1.284   4.366   4.851 -0.5867  0.4001  0.3800
 1441SOL    HW115785   1.377   4.377   4.874 -0.8545  2.8245  0.2934
 1441SOL    HW215786   1.290   4.291   4.793  0.1923  0.7414  0.0097
 1442SOL     OW15787   2.761   0.133   0.955 -0.3885  0.2259  0.3482
 1442SOL    HW115788   2.765   0.096   1.044 -3.0589 -1.3145 -0.1586
 1442SOL    HW215789   2.666   0.144   0.953 -0.5742 -0.9530  2.1689
 1443SOL     OW15790   3.662   3.467   2.485  0.0211 -0.6430 -0.2258
 1443SOL    HW115791   3.609   3.547   2.477  1.2577  0.0231 -1.8756
 1443SOL    HW215792   3.632   3.399   2.424 -1.1514  2.1586 -2.8174
 1444SOL     OW15793   0.828   1.572   3.916 -0.3339 -0.3387  0.9123
 1444SOL    HW115794   0.767   1.498   3.917  1.8082 -2.0929  0.6433
 1444SOL    HW215795   0.807   1.610   3.830 -1.5386 -0.5127  1.1324
 1445SOL     OW15796   1.525   1.056   8.896 -0.4226  0.1000  0.0430
 1445SOL    HW115797   1.539   1.039   8.803  1.7757 -2.1905  0.7991
 1445SOL    HW215798   1.614   1.036   8.926  0.2310 -0.4278 -2.2475
 1446SOL     OW15799   1.515   3.214   6.399 -0.5368  0.0669 -0.6842
 1446SOL    HW115800   1.487   3.179   6.314  0.5139  1.0140 -1.4278
 1446SOL    HW215801   1.461   3.293   6.404  0.9209  1.1388 -1.7574
 1447SOL     OW15802   1.148   0.694   6.842 -0.0443  0.2230 -0.1650
 1447SOL    HW115803   1.181   0.608   6.864 -0.2969  0.0939 -0.2861
 1447SOL    HW215804   1.098   0.669   6.764 -0.7456  0.4012  0.2284
 1448SOL     OW15805   4.680   0.639   0.181 -0.2042  0.5058  0.0524
 1448SOL    HW115806   4.624   0.662   0.107  0.5909  0.1025 -0.6648
 1448SOL    HW215807   4.629   0.569   0.221 -2.2639  3.2054  2.2363
 1449SOL     OW15808   1.201   3.169  12.766 -0.2981  0.9541 -0.3774
 1449SOL    HW115809   1.261   3.218  12.821 -1.1767  1.7430 -0.1189
 1449SOL    HW215810   1.177   3.239  12.706  1.0471  0.6627 -1.2422
 1450SOL     OW15811   0.982   1.912  14.310 -0.0939  0.6066  0.5748
 1450SOL    HW115812   1.075   1.915  14.285 -0.2490 -0.2690 -0.0998
 1450SOL    HW215813   0.966   1.830  14.264  3.0420  1.2273 -1.6558
 1451SOL     OW15814   0.955   3.944  15.021 -1.0209  0.0469  0.2333
 1451SOL    HW115815   0.922   3.962  14.933  0.9234 -2.0547 -0.9255
 1451SOL    HW215816   0.931   4.022  15.072 -2.3699 -1.1691  1.4842
 1452SOL     OW15817   3.979   1.207   1.362  0.1834  0.1012 -0.0202
 1452SOL    HW115818   3.967   1.287   1.311 -0.8665  0.6733  1.1343
 1452SOL    HW215819   3.998   1.243   1.448  1.0561 -1.1284  0.3024
 1453SOL     OW15820   2.971   0.625   7.965  0.5272 -0.0708 -0.1084
 1453SOL    HW115821   2.996   0.708   7.926 -1.5023  0.7904  0.4390
 1453SOL    HW215822   2.932   0.643   8.051 -0.1435  0.6446 -0.5680
 1454SOL     OW15823   3.349   2.764  16.549  0.0906  0.3721  0.6282
 1454SOL    HW115824   3.305   2.695  16.600  2.1079  0.2406  2.1824
 1454SOL    HW215825   3.440   2.751  16.574  0.4610 -0.3726 -1.1079
 1455SOL     OW15826   0.023   1.050   6.215 -0.3086  0.3729 -0.5255
 1455SOL    HW115827   0.015   0.955   6.210  4.0594  0.1064 -2.4832
 1455SOL    HW215828   0.042   1.076   6.124  1.9793 -1.6831 -0.6399
 1456SOL     OW15829   1.391   3.453   9.994 -0.3779  0.2272 -0.6206
 1456SOL    HW115830   1.469   3.496   9.959  1.2158 -2.1167  0.0853
 1456SOL    HW215831   1.368   3.499  10.076  0.3772 -2.4067  1.0513
 1457SOL     OW15832   1.446   2.706   0.204  0.0681  0.4597  0.5710
 1457SOL    HW115833   1.444   2.802   0.206  1.3125  0.4886  0.4261
 1457SOL    HW215834   1.464   2.695   0.298  1.5278  2.1418  0.4646
 1458SOL     OW15835   2.875   2.104  11.299  0.2334  0.1483  0.3948
 1458SOL    HW115836   2.888   2.082  11.207 -0.6579 -1.5311  0.6722
 1458SOL    HW215837   2.801   2.166  11.297 -0.0039 -0.1544 -0.2452
 1459SOL     OW15838   3.158   4.351  10.984 -0.0324 -0.4765 -0.2168
 1459SOL    HW115839   3.251   4.362  11.004 -0.0171 -0.5343 -0.2568
 1459SOL    HW215840   3.139   4.257  10.985  0.0234 -0.4831  0.7105
 1460SOL     OW15841   4.649   2.044   4.618 -0.4492 -0.2270  0.0711
 1460SOL    HW115842   0.020   2.056   4.596 -0.2282  0.2497  1.2678
 1460SOL    HW215843   4.664   1.984   4.691 -0.5015 -0.4699 -0.1144
 1461SOL     OW15844   2.528   3.580   2.568  0.2004 -0.3498  0.2737
 1461SOL    HW115845   2.533   3.527   2.647 -0.2419 -1.1560 -0.2503
 1461SOL    HW215846   2.602   3.640   2.581 -0.6848  1.0396 -1.0989
 1462SOL     OW15847   3.933   1.535   7.166 -0.5958 -0.4668  0.2343
 1462SOL    HW115848   3.998   1.525   7.236 -0.1126 -1.2564 -0.3210
 1462SOL    HW215849   3.968   1.487   7.091  1.4308 -0.9715  1.4900
 1463SOL     OW15850   3.170   0.402   4.580 -0.4121 -0.4781  0.0380
 1463SOL    HW115851   3.216   0.410   4.663  0.4788  2.3946 -0.7464
 1463SOL    HW215852   3.247   0.416   4.525 -1.7076  0.4823 -1.5444
 1464SOL     OW15853   3.464   0.797   4.724  0.0194 -0.8181 -0.4385
 1464SOL    HW115854   3.487   0.705   4.714  0.2530 -0.7963 -0.0891
 1464SOL    HW215855   3.538   0.826   4.670 -2.2288 -0.4055 -3.3489
 1465SOL     OW15856   2.513   2.109   0.654  0.2550  0.1570  0.6172
 1465SOL    HW115857   2.542   2.022   0.680 -0.2842 -0.0011  0.6905
 1465SOL    HW215858   2.420   2.089   0.649  0.4223 -0.4292 -0.0664
 1466SOL     OW15859   0.410   4.532   5.027 -0.0179  0.1535  0.6077
 1466SOL    HW115860   0.387   4.450   5.071  3.2154 -1.7770 -1.3963
 1466SOL    HW215861   0.322   4.560   5.002  0.1982 -0.1593 -0.4897
 1467SOL     OW15862   2.694   4.090  17.672  0.0633  0.7213  0.0265
 1467SOL    HW115863   2.693   4.072   0.078  0.3368 -1.0022 -0.2950
 1467SOL    HW215864   2.608   4.055  17.652  0.3636 -0.7737  1.3337
 1468SOL     OW15865   1.159   4.065   9.216 -0.3532 -0.3494  0.4649
 1468SOL    HW115866   1.226   4.127   9.188  0.8209 -1.1557  1.5458
 1468SOL    HW215867   1.146   4.103   9.303 -0.5549 -1.2051  0.8066
 1469SOL     OW15868   3.242   3.948   8.537  0.5111 -0.4015 -0.4007
 1469SOL    HW115869   3.202   3.867   8.505  1.3506 -1.5414  1.4250
 1469SOL    HW215870   3.176   4.017   8.533  2.0255  1.1456  1.3979
 1470SOL     OW15871   2.792   3.556  11.532  0.4707  0.0725  0.6107
 1470SOL    HW115872   2.707   3.598  11.547  1.7972  2.7053  0.7621
 1470SOL    HW215873   2.778   3.502  11.454  1.8022 -0.0475  0.4594
 1471SOL     OW15874   4.483   1.799   7.550  0.4737 -0.0343  0.6325
 1471SOL    HW115875   4.447   1.882   7.580 -0.3231 -0.6711  1.4402
 1471SOL    HW215876   4.515   1.760   7.631  0.2850 -1.4856  0.0094
 1472SOL     OW15877   3.006   2.197   5.056 -0.0858  0.2622  0.2921
 1472SOL    HW115878   3.051   2.260   5.112 -0.1045  0.2881  0.2778
 1472SOL    HW215879   3.021   2.240   4.972 -0.4193  0.9976  0.6029
 1473SOL     OW15880   2.471   2.844   0.155 -0.0517  0.2946  0.0080
 1473SOL    HW115881   2.489   2.894   0.076  1.7044  1.0620  0.8900
 1473SOL    HW215882   2.485   2.901   0.231 -0.6336  0.7293 -0.2079
 1474SOL     OW15883   0.154   4.686   0.925 -0.7690  0.6707 -0.1859
 1474SOL    HW115884   0.073   0.013   0.914  0.5471  2.9497  0.0470
 1474SOL    HW215885   0.132   4.612   0.869  0.2561 -0.2074  0.5718
 1475SOL     OW15886   0.184   3.985   1.855  0.2603 -0.1189 -0.9468
 1475SOL    HW115887   0.215   3.933   1.781  1.0814  2.8768 -2.7211
 1475SOL    HW215888   0.116   4.042   1.817  0.5382  1.0529  0.2927
 1476SOL     OW15889   3.187   2.015   8.878 -0.3954  0.3678  0.3953
 1476SOL    HW115890   3.187   2.022   8.973  1.0537 -0.4386  0.4467
 1476SOL    HW215891   3.236   2.094   8.856 -0.5754  0.6200  0.8967
 1477SOL     OW15892   3.077   1.949  12.701 -0.4099 -0.3124  0.3264
 1477SOL    HW115893   3.113   2.035  12.721 -0.4998 -0.3608  0.6953
 1477SOL    HW215894   3.144   1.903  12.652 -1.0674  0.4914 -1.3355
 1478SOL     OW15895   1.534   4.374   9.291  0.5802  0.3115 -0.2339
 1478SOL    HW115896   1.552   4.347   9.381  0.5491  0.6631 -0.1228
 1478SOL    HW215897   1.509   4.464   9.312 -0.6407 -0.0557 -0.0974
 1479SOL     OW15898   4.178   1.202  16.195 -0.0907  0.4338  0.1763
 1479SOL    HW115899   4.082   1.205  16.195 -0.0446  1.9770  1.3239
 1479SOL    HW215900   4.203   1.265  16.263  0.8684 -0.9557  1.1058
 1480SOL     OW15901   1.135   0.555   7.602 -0.0735 -0.0816 -0.2854
 1480SOL    HW115902   1.151   0.543   7.508 -0.8233  0.1319 -0.4477
 1480SOL    HW215903   1.219   0.555   7.647  0.7742 -1.6891 -1.8534
 1481SOL     OW15904   1.501   0.101   4.888  0.4082 -0.1601  0.1134
 1481SOL    HW115905   1.591   0.089   4.858  0.1769  0.0478 -0.6513
 1481SOL    HW215906   1.459   0.031   4.838 -0.0078  0.1471  0.0365
 1482SOL     OW15907   0.960   3.392   1.251 -0.5144  0.0074 -0.3688
 1482SOL    HW115908   0.960   3.363   1.160 -0.5013  2.0829 -1.0285
 1482SOL    HW215909   0.921   3.313   1.288  1.9108 -1.0650 -0.1273
 1483SOL     OW15910   0.237   3.051   2.733 -0.5234 -0.0170  0.1344
 1483SOL    HW115911   0.328   3.075   2.753 -0.3234  0.3523 -1.2316
 1483SOL    HW215912   0.247   3.048   2.638  1.3813 -1.3606  0.3691
 1484SOL     OW15913   3.829   3.872   6.526 -0.5089 -0.1392 -0.3012
 1484SOL    HW115914   3.877   3.872   6.444 -0.6466  0.0549 -0.3799
 1484SOL    HW215915   3.836   3.964   6.553 -0.6626 -1.4557  4.3327
 1485SOL     OW15916   2.355   3.999  14.714  0.5129 -0.0560  0.4550
 1485SOL    HW115917   2.339   4.092  14.732 -1.1816 -0.3835  0.5793
 1485SOL    HW215918   2.425   3.987  14.778  0.0501  0.6788  1.1034
 1486SOL     OW15919   3.729   3.515   1.456  0.3066  0.0765  0.2671
 1486SOL    HW115920   3.649   3.463   1.457  0.7044 -0.5511 -0.5891
 1486SOL    HW215921   3.734   3.552   1.544  1.0714 -1.8144  1.0218
 1487SOL     OW15922   3.867   1.283   5.992  0.2791  0.2544 -0.0965
 1487SOL    HW115923   3.863   1.367   6.038  1.0958 -0.6401  1.5994
 1487SOL    HW215924   3.885   1.221   6.062  2.1884 -0.5493 -1.3095
 1488SOL     OW15925   4.147   4.402   5.800 -0.3889  0.6746  0.4412
 1488SOL    HW115926   4.240   4.379   5.798 -0.3416  0.8302  0.8620
 1488SOL    HW215927   4.162   4.495   5.815  2.2311  0.0353  1.8094
 1489SOL     OW15928   2.783   1.101   5.817 -0.6852  0.1803 -0.0373
 1489SOL    HW115929   2.745   1.185   5.844 -1.3531 -0.3283  0.5905
 1489SOL    HW215930   2.845   1.127   5.749  1.2367 -1.6042  1.0337
 1490SOL     OW15931   2.277   0.735   1.189 -0.0691  0.1747  0.6830
 1490SOL    HW115932   2.183   0.739   1.206 -0.1385 -2.3467  0.8600
 1490SOL    HW215933   2.273   0.660   1.129 -1.1681  2.1483 -1.7228
 1491SOL     OW15934   2.722   1.450  13.460  0.6342  0.4980  0.4793
 1491SOL    HW115935   2.651   1.388  13.444  1.1852  0.4081 -1.5959
 1491SOL    HW215936   2.792   1.393  13.489 -0.0038 -0.2922  0.4752
 1492SOL     OW15937   2.264   3.558   0.869  0.0176  0.1007  0.5165
 1492SOL    HW115938   2.256   3.599   0.956  2.1852 -0.5305  1.0133
 1492SOL    HW215939   2.206   3.616   0.819 -1.0589 -0.8859  0.6411
 1493SOL     OW15940   3.548   4.699   5.196  0.2179 -0.5726  0.3252
 1493SOL    HW115941   3.461   4.666   5.174  0.6509 -0.5277 -1.4947
 1493SOL    HW215942   3.587   4.691   5.108 -0.6540  1.6579 -0.2439
 1494SOL     OW15943   1.148   1.862   4.764 -0.1418 -0.2128 -0.7722
 1494SOL    HW115944   1.162   1.948   4.804  0.1546 -0.5214 -0.2048
 1494SOL    HW215945   1.146   1.811   4.846  1.5904  0.4011 -0.3495
 1495SOL     OW15946   3.201   2.472  11.744 -0.5487 -0.3923  0.2854
 1495SOL    HW115947   3.169   2.487  11.656  2.2834  0.3753 -0.6031
 1495SOL    HW215948   3.234   2.382  11.741 -0.8534 -0.5417  1.2440
 1496SOL     OW15949   1.917   2.266   5.969 -0.6552  0.5985 -0.2018
 1496SOL    HW115950   1.990   2.315   5.930 -0.9999  0.7123 -0.7114
 1496SOL    HW215951   1.844   2.308   5.923 -1.6973 -1.9361 -0.8575
 1497SOL     OW15952   3.877   0.851   4.715  0.3950  0.0172  0.0338
 1497SOL    HW115953   3.798   0.810   4.679 -0.1642 -0.5244  1.8439
 1497SOL    HW215954   3.932   0.872   4.640 -1.2220  2.2692 -0.5340
 1498SOL     OW15955   4.500   3.429   4.438 -0.5870  0.0672 -0.3738
 1498SOL    HW115956   4.577   3.403   4.387 -0.7120 -0.7822 -0.1219
 1498SOL    HW215957   4.551   3.468   4.510 -3.1575  1.3605  0.7259
 1499SOL     OW15958   4.163   1.201   4.665  0.3122  0.0253 -0.3322
 1499SOL    HW115959   4.163   1.252   4.746 -2.5339  2.3515 -1.8048
 1499SOL    HW215960   4.147   1.272   4.604  1.6484 -0.1378 -0.8827
 1500SOL     OW15961   1.403   2.101   7.346  0.4678 -0.5507 -0.6277
 1500SOL    HW115962   1.328   2.148   7.309  0.8202  1.4607  1.1760
 1500SOL    HW215963   1.425   2.053   7.267  0.1978 -1.6254 -0.0604
 1501SOL     OW15964   2.049   1.739   2.952 -0.5585 -0.0937 -0.1970
 1501SOL    HW115965   2.090   1.703   2.873 -1.5759 -1.6640 -0.0084
 1501SOL    HW215966   1.966   1.691   2.948  0.2481 -1.2750 -2.6569
 1502SOL     OW15967   0.473   4.065   5.847 -0.1718  0.0451 -0.0990
 1502SOL    HW115968   0.491   3.993   5.908  0.3475  1.7716  1.7612
 1502SOL    HW215969   0.540   4.046   5.781  0.7460  0.9986  0.5704
 1503SOL     OW15970   1.349   1.770  12.976 -0.1465  0.3808  0.2424
 1503SOL    HW115971   1.433   1.726  12.988  0.6762  2.5303  2.5370
 1503SOL    HW215972   1.352   1.805  12.887 -2.6484  0.2990  0.1008
 1504SOL     OW15973   1.300   1.350  13.195  0.1174 -0.0284  0.5028
 1504SOL    HW115974   1.324   1.412  13.127  0.4451 -0.7057  0.0009
 1504SOL    HW215975   1.338   1.399  13.268  1.0912  2.2516 -1.5350
 1505SOL     OW15976   0.572   1.453   4.691  0.1524  0.1849 -0.2982
 1505SOL    HW115977   0.648   1.396   4.702 -0.6060 -0.3742  2.1575
 1505SOL    HW215978   0.585   1.503   4.611  0.8005  1.6353  0.7001
 1506SOL     OW15979   0.643   0.101   5.028  0.3271 -0.4756 -0.5148
 1506SOL    HW115980   0.584   0.083   4.955 -1.3997  1.0655  0.4721
 1506SOL    HW215981   0.625   0.030   5.090 -0.7105  1.5206  1.4532
 1507SOL     OW15982   1.354   2.246   2.158  0.0810 -0.0924  0.0951
 1507SOL    HW115983   1.312   2.231   2.073 -0.6681  1.6782  0.1480
 1507SOL    HW215984   1.429   2.302   2.137 -0.7695  0.8366 -0.4772
 1508SOL     OW15985   2.123   1.487   9.150  0.1555  0.3400  0.0169
 1508SOL    HW115986   2.184   1.496   9.076  0.2564 -0.9971 -0.0697
 1508SOL    HW215987   2.058   1.556   9.138  1.9383  1.9718 -0.2807
 1509SOL     OW15988   2.666   1.292  16.431  0.2947  0.3892  0.2187
 1509SOL    HW115989   2.589   1.260  16.477  0.3178  1.7313  1.1993
 1509SOL    HW215990   2.727   1.313  16.502 -1.3701 -0.7523  1.9990
 1510SOL     OW15991   2.991   4.182   2.459 -0.1558 -0.8150  0.3203
 1510SOL    HW115992   3.006   4.116   2.392  0.7462 -1.4466  1.1446
 1510SOL    HW215993   3.057   4.167   2.527  1.6595 -0.4340 -1.3578
 1511SOL     OW15994   0.375   3.241   4.766  0.6118  0.1396  0.0787
 1511SOL    HW115995   0.352   3.286   4.685  1.1086 -0.9529 -0.6692
 1511SOL    HW215996   0.329   3.159   4.748  0.9105  0.3272 -1.6127
 1512SOL     OW15997   0.294   3.551  10.324 -0.3168 -0.4738 -0.0617
 1512SOL    HW115998   0.245   3.524  10.246 -0.6098  0.1605 -0.1014
 1512SOL    HW215999   0.225   3.603  10.364 -0.5011  0.7326 -1.9089
 1513SOL     OW16000   0.390   3.877   9.089  0.1961 -0.0448 -0.0798
 1513SOL    HW116001   0.449   3.819   9.042 -0.1168 -2.1673  2.1225
 1513SOL    HW216002   0.382   3.946   9.024 -1.4482 -1.4936 -1.4160
 1514SOL     OW16003   2.266   0.642   7.110 -0.2233 -0.0587 -0.1092
 1514SOL    HW116004   2.327   0.677   7.044 -0.3507 -0.1672 -0.2821
 1514SOL    HW216005   2.311   0.561   7.133 -2.3363 -0.6411  1.9490
 1515SOL     OW16006   3.338   0.143   8.659 -0.3593 -0.3439  0.5094
 1515SOL    HW116007   3.346   0.104   8.571  1.2099 -1.5079  1.1660
 1515SOL    HW216008   3.414   0.103   8.701  0.4820 -1.0484 -1.6450
 1516SOL     OW16009   3.110   3.195   4.263 -0.2881 -1.0332  0.7300
 1516SOL    HW116010   3.122   3.289   4.277 -2.2857 -0.5500 -0.8791
 1516SOL    HW216011   3.173   3.177   4.193 -0.3389  1.7917 -0.0451
 1517SOL     OW16012   3.477   2.309   1.856 -0.1148 -0.1495  0.0854
 1517SOL    HW116013   3.472   2.279   1.947  0.1189 -0.5086 -0.0161
 1517SOL    HW216014   3.422   2.251   1.804 -1.0433  1.1771 -0.3983
 1518SOL     OW16015   2.600   1.579  16.585  0.5454  0.5719  0.2177
 1518SOL    HW116016   2.606   1.651  16.522 -0.7730 -1.0382 -1.7595
 1518SOL    HW216017   2.565   1.510  16.529  0.5127  0.4653  0.3688
 1519SOL     OW16018   2.033   3.962   5.076  0.3360  0.1764  0.0078
 1519SOL    HW116019   1.958   3.906   5.096 -0.8409  1.4047 -1.0202
 1519SOL    HW216020   2.087   3.904   5.022  1.1237  0.7107  0.2298
 1520SOL     OW16021   1.774   2.006   2.745  0.0714  0.0789 -0.0873
 1520SOL    HW116022   1.779   2.098   2.721 -0.0234  0.4389  1.2927
 1520SOL    HW216023   1.832   1.956   2.687 -1.4974 -0.6161 -1.0639
 1521SOL     OW16024   0.856   2.528  11.244 -0.3113  0.0939 -0.0577
 1521SOL    HW116025   0.876   2.436  11.260 -0.5778 -0.2548 -1.7984
 1521SOL    HW216026   0.777   2.523  11.190  0.2842  1.1559 -1.0330
 1522SOL     OW16027   1.117   0.571   5.241  0.1632 -0.3493  0.0218
 1522SOL    HW116028   1.159   0.654   5.263 -1.9283  0.3196  1.5392
 1522SOL    HW216029   1.104   0.528   5.325  2.8955  0.9804  1.1248
 1523SOL     OW16030   2.998   0.365   8.279  0.0528 -0.2498  0.0508
 1523SOL    HW116031   2.926   0.307   8.306  0.0115  0.1394  0.7675
 1523SOL    HW216032   3.065   0.347   8.344  0.1575 -0.5007 -0.1239
 1524SOL     OW16033   0.757   0.904   2.912 -0.1475 -0.1599 -0.3043
 1524SOL    HW116034   0.678   0.957   2.918  0.6085  0.9032  0.2493
 1524SOL    HW216035   0.724   0.814   2.921 -0.6236 -0.1789 -2.3799
 1525SOL     OW16036   0.326   0.687   3.450 -0.1464  0.1407 -0.0848
 1525SOL    HW116037   0.363   0.775   3.450 -0.0081  0.0830  0.0332
 1525SOL    HW216038   0.313   0.666   3.543 -0.2298 -0.9916 -0.3604
 1526SOL     OW16039   4.001   2.008   1.668  0.3497  0.1998  0.2849
 1526SOL    HW116040   4.022   2.044   1.754  1.8752  1.3995 -0.5966
 1526SOL    HW216041   4.058   2.057   1.609 -0.8764 -1.1853 -2.0767
 1527SOL     OW16042   2.104   1.523   5.898 -0.9139  0.6971  0.0834
 1527SOL    HW116043   2.103   1.428   5.915  0.3965  0.5186 -0.8419
 1527SOL    HW216044   2.013   1.541   5.925 -0.5903 -0.6890  2.0862
 1528SOL     OW16045   3.211   2.603   7.638  0.2126  0.5111  0.1828
 1528SOL    HW116046   3.271   2.542   7.594 -0.8626  0.3122 -1.0292
 1528SOL    HW216047   3.276   2.657   7.683 -0.8660  0.7270  1.4626
 1529SOL     OW16048   1.417   4.549  13.130  0.2656  0.0528 -0.2312
 1529SOL    HW116049   1.491   4.588  13.178  1.2021 -0.9943 -0.8338
 1529SOL    HW216050   1.473   4.496  13.074  0.0297 -0.0062 -0.4058
 1530SOL     OW16051   0.077   2.539   3.978  0.0290  0.0516 -0.4991
 1530SOL    HW116052   0.031   2.457   3.994 -0.9036  0.8816  1.0457
 1530SOL    HW216053   0.070   2.550   3.883 -1.0076  1.3408 -0.2779
 1531SOL     OW16054   2.372   3.681   3.131 -0.6468 -0.3052  0.0167
 1531SOL    HW116055   2.296   3.631   3.100 -0.3804 -0.6852 -0.0158
 1531SOL    HW216056   2.440   3.614   3.127  1.6791  2.0498  0.2139
 1532SOL     OW16057   4.141   0.488   6.505  0.1898  0.3840 -0.6658
 1532SOL    HW116058   4.178   0.426   6.569  0.1921  3.0191  1.8769
 1532SOL    HW216059   4.060   0.513   6.549 -0.2860 -1.6374 -0.3723
 1533SOL     OW16060   1.849   1.867   4.531  0.6805 -0.4232  0.2160
 1533SOL    HW116061   1.844   1.962   4.526 -2.5069 -0.7163 -1.6692
 1533SOL    HW216062   1.913   1.854   4.601  1.4892  1.3784 -0.1978
 1534SOL     OW16063   1.357   4.249   9.135  0.1167  0.3806  0.3830
 1534SOL    HW116064   1.398   4.260   9.049 -1.6874  0.1082 -0.5058
 1534SOL    HW216065   1.429   4.274   9.193  0.4812 -0.8387  0.4590
 1535SOL     OW16066   0.744   1.690   6.509 -0.0035  0.1005  0.1593
 1535SOL    HW116067   0.649   1.696   6.517  0.1559 -0.9259  2.6796
 1535SOL    HW216068   0.770   1.761   6.567  1.7342 -2.4360  2.4893
 1536SOL     OW16069   0.300   2.173   5.163  0.3873  0.0627 -0.2238
 1536SOL    HW116070   0.272   2.245   5.107  2.0584  0.1674 -0.9395
 1536SOL    HW216071   0.241   2.101   5.142 -0.9567  0.9385  0.5625
 1537SOL     OW16072   1.455   4.081   1.334  0.3163 -0.4252 -0.3160
 1537SOL    HW116073   1.405   4.123   1.404 -0.3062  0.5583 -1.3587
 1537SOL    HW216074   1.461   3.991   1.366 -1.6821 -0.3814  0.1695
 1538SOL     OW16075   0.557   2.853   3.705  0.6445  0.1819 -0.1449
 1538SOL    HW116076   0.611   2.919   3.748  0.4695  0.1044  0.1918
 1538SOL    HW216077   0.571   2.782   3.768 -1.6512 -0.1775 -0.0243
 1539SOL     OW16078   3.933   1.245   2.686  0.6598 -0.3556  0.7048
 1539SOL    HW116079   4.024   1.215   2.681  0.4933 -0.3666 -2.1399
 1539SOL    HW216080   3.902   1.187   2.757 -1.2960 -1.0023 -0.6542
 1540SOL     OW16081   3.833   1.158   5.207 -0.0255 -0.1942 -0.2153
 1540SOL    HW116082   3.870   1.084   5.256  0.6358  0.1175 -0.2516
 1540SOL    HW216083   3.900   1.222   5.231 -0.0301  0.0251 -0.8016
 1541SOL     OW16084   1.893   3.602   6.951  0.0942  0.4965  0.4127
 1541SOL    HW116085   1.877   3.681   6.899  1.6850  0.4338 -0.1787
 1541SOL    HW216086   1.939   3.641   7.026 -1.2487  0.2864  1.3365
 1542SOL     OW16087   4.526   4.126   9.508  0.4718  0.0171  0.2763
 1542SOL    HW116088   4.577   4.162   9.580 -1.6356 -0.6158  2.1007
 1542SOL    HW216089   4.552   4.188   9.440 -0.1245 -1.2491 -1.1200
 1543SOL     OW16090   1.811   3.443  17.039 -0.0196  0.2081  0.2015
 1543SOL    HW116091   1.725   3.443  17.080 -0.5698  0.9609 -0.9544
 1543SOL    HW216092   1.849   3.357  17.059  1.8431  0.5852 -1.6862
 1544SOL     OW16093   0.394   1.061   9.144 -0.0680 -0.3383 -0.0012
 1544SOL    HW116094   0.337   0.984   9.145 -0.9537  0.3512  2.4824
 1544SOL    HW216095   0.337   1.103   9.208  0.4230  1.9045 -1.0404
 1545SOL     OW16096   2.070   1.819  14.366 -0.2155 -0.0674  0.4215
 1545SOL    HW116097   2.027   1.748  14.320  1.4308  0.1906 -1.5077
 1545SOL    HW216098   2.138   1.851  14.307  0.1241 -0.5984  0.5295
 1546SOL     OW16099   0.656   3.685  12.486  0.1222 -0.0311  0.7224
 1546SOL    HW116100   0.650   3.609  12.544  0.1235  2.3805  3.8897
 1546SOL    HW216101   0.715   3.646  12.421 -0.5287 -1.1625  0.8122
 1547SOL     OW16102   3.520   0.102   9.352 -0.6390 -0.0572  0.0316
 1547SOL    HW116103   3.453   0.170   9.360 -1.8765 -0.9369 -2.5579
 1547SOL    HW216104   3.603   0.145   9.372 -1.6747  2.4362 -0.9472
 1548SOL     OW16105   2.116   0.800   9.111 -0.3573  0.6100  0.1727
 1548SOL    HW116106   2.181   0.845   9.056  0.6514 -1.1964 -0.1019
 1548SOL    HW216107   2.155   0.798   9.198 -1.3566  0.3337  0.6103
 1549SOL     OW16108   1.006   4.246  12.423 -0.1490  0.2776  0.1217
 1549SOL    HW116109   1.077   4.221  12.482  0.5490 -2.1503 -1.7258
 1549SOL    HW216110   0.927   4.200  12.449 -0.6905  1.1651  0.0663
 1550SOL     OW16111   1.107   3.620  16.790  0.1321 -0.5156 -0.4131
 1550SOL    HW116112   1.145   3.703  16.819 -1.1859  0.7249 -2.1824
 1550SOL    HW216113   1.083   3.643  16.700  0.2542  0.5277 -0.1871
 1551SOL     OW16114   4.434   2.360  14.998  0.1799  0.0831  0.5844
 1551SOL    HW116115   4.408   2.267  14.998  0.1236  0.1076 -1.2502
 1551SOL    HW216116   4.353   2.410  15.009 -0.0490  0.0770 -1.0697
 1552SOL     OW16117   4.545   3.518   2.958 -0.3124  0.0877 -0.1715
 1552SOL    HW116118   4.597   3.569   3.021  0.8940  0.8138 -1.7625
 1552SOL    HW216119   4.539   3.584   2.889 -3.7350 -0.8776 -0.8115
 1553SOL     OW16120   2.752   3.824  17.496 -0.1276 -0.1780  0.8066
 1553SOL    HW116121   2.692   3.796  17.427  0.7916  0.2812 -0.1871
 1553SOL    HW216122   2.701   3.800  17.574 -0.0793 -1.6843  0.3676
 1554SOL     OW16123   2.507   3.858  16.926  0.7147 -0.3283  0.2090
 1554SOL    HW116124   2.437   3.816  16.876 -0.0688 -0.0150  1.0527
 1554SOL    HW216125   2.522   3.923  16.858 -0.5868 -1.1095 -0.8243
 1555SOL     OW16126   1.108   1.199  10.283 -0.1019  0.0401 -0.4635
 1555SOL    HW116127   1.137   1.115  10.247 -1.6994 -0.4163 -0.6646
 1555SOL    HW216128   1.189   1.234  10.322  0.3116 -1.3521 -0.0493
 1556SOL     OW16129   3.042   2.070   7.497 -0.4692  0.0920  0.0282
 1556SOL    HW116130   3.027   1.992   7.443  0.8117 -1.6106  2.1419
 1556SOL    HW216131   3.132   2.061   7.528 -0.1184  2.0931 -0.4021
 1557SOL     OW16132   2.014   3.660   5.660 -1.1683  0.0126 -0.2259
 1557SOL    HW116133   1.991   3.711   5.738  0.5519 -0.7162  0.7643
 1557SOL    HW216134   2.109   3.648   5.670 -1.0467  1.5427  0.5604
 1558SOL     OW16135   3.842   3.515   9.192  0.4316  0.6000 -0.4484
 1558SOL    HW116136   3.921   3.538   9.143 -0.9063  3.3883 -1.2835
 1558SOL    HW216137   3.785   3.573   9.142  0.2656 -1.2423 -2.4203
 1559SOL     OW16138   4.089   4.224  12.109  0.3654 -0.4354 -0.6205
 1559SOL    HW116139   4.062   4.313  12.088  0.4869 -0.3342 -0.3544
 1559SOL    HW216140   4.182   4.235  12.132 -0.1128 -1.2095  1.7351
 1560SOL     OW16141   1.467   4.156   1.056 -0.3747  0.6830 -0.3469
 1560SOL    HW116142   1.558   4.182   1.072 -0.6359  1.6667 -0.4373
 1560SOL    HW216143   1.438   4.137   1.146  1.6677 -2.3015 -0.3226
 1561SOL     OW16144   0.799   2.900  12.476 -0.1355  0.2545  0.3201
 1561SOL    HW116145   0.725   2.927  12.421  0.7527 -2.9199 -2.3883
 1561SOL    HW216146   0.837   2.830  12.423 -0.8273  0.8390 -0.9456
 1562SOL     OW16147   2.791   3.591  15.914  0.5529  0.0501 -0.1172
 1562SOL    HW116148   2.729   3.661  15.933  1.8499  1.8300 -2.5279
 1562SOL    HW216149   2.830   3.628  15.835  0.1332 -3.1560 -1.8247
 1563SOL     OW16150   3.005   2.290  13.015 -0.8709 -0.5211 -0.4954
 1563SOL    HW116151   2.969   2.255  13.097 -0.1670  0.4355  0.2282
 1563SOL    HW216152   2.938   2.255  12.957 -1.9321  2.0771 -0.8285
 1564SOL     OW16153   2.681   1.724   5.843  0.2419  0.0580  0.3223
 1564SOL    HW116154   2.668   1.791   5.776  2.7039 -0.3234 -0.5466
 1564SOL    HW216155   2.754   1.676   5.804  0.9550  0.2110  1.4592
 1565SOL     OW16156   1.696   2.026   3.053  0.3163  0.2916  0.1690
 1565SOL    HW116157   1.713   1.958   2.988  0.3419 -0.9869  1.5066
 1565SOL    HW216158   1.695   2.107   3.003  1.3025  0.2521  0.0952
 1566SOL     OW16159   3.921   1.389  17.490  0.5549 -0.0345  0.2295
 1566SOL    HW116160   3.863   1.432  17.552 -0.1955 -0.2178 -0.3474
 1566SOL    HW216161   3.968   1.331  17.550  1.0988  1.3222  1.1178
 1567SOL     OW16162   2.780   1.143  13.844  0.0526 -0.1546  0.4289
 1567SOL    HW116163   2.686   1.160  13.842  0.0500 -0.1989  0.1963
 1567SOL    HW216164   2.812   1.175  13.760 -1.0149 -3.5697 -1.2645
 1568SOL     OW16165   2.386   0.878   2.832  0.4200  0.1534 -0.1963
 1568SOL    HW116166   2.363   0.950   2.774  1.1478  0.8408  0.3681
 1568SOL    HW216167   2.352   0.808   2.778 -0.0197 -0.5084  0.9318
 1569SOL     OW16168   1.160   1.451   6.949 -0.8613  0.6319 -0.1060
 1569SOL    HW116169   1.247   1.466   6.911  0.3978  1.4327  3.1230
 1569SOL    HW216170   1.138   1.542   6.968 -2.5496 -0.1688  1.6801
 1570SOL     OW16171   3.974   4.599   8.388 -0.4080  0.2389  0.1036
 1570SOL    HW116172   4.004   4.591   8.479  1.2575 -1.8122 -0.6379
 1570SOL    HW216173   3.923   4.518   8.383  0.6811 -0.3964 -0.7115
 1571SOL     OW16174   2.515   0.843   4.255 -0.0035 -0.3551 -0.0074
 1571SOL    HW116175   2.582   0.875   4.195  1.5859 -1.6246  1.0890
 1571SOL    HW216176   2.563   0.852   4.338  0.9991 -0.4927 -0.5698
 1572SOL     OW16177   0.012   1.589  12.552 -0.4278  0.0301  0.4356
 1572SOL    HW116178   0.015   1.674  12.596  1.8119  0.1267  0.0875
 1572SOL    HW216179   0.027   1.524  12.621  0.8351 -1.2631 -1.0630
 1573SOL     OW16180   3.009   1.749   2.226 -0.2383 -0.3139  0.0738
 1573SOL    HW116181   3.097   1.719   2.250 -0.1770  0.2486  0.5915
 1573SOL    HW216182   2.952   1.675   2.244 -0.1910 -0.5644 -0.8204
 1574SOL     OW16183   4.032   1.765  12.889  0.3317 -0.1695  0.3779
 1574SOL    HW116184   4.066   1.709  12.819 -2.3991 -2.0609  0.5869
 1574SOL    HW216185   3.941   1.774  12.862  0.7435  0.3480 -0.8421
 1575SOL     OW16186   3.445   0.514   1.221 -0.0345 -0.1481  0.1082
 1575SOL    HW116187   3.481   0.588   1.173  2.2412 -1.9476 -0.9626
 1575SOL    HW216188   3.406   0.456   1.155 -1.8553  0.4278  0.6975
 1576SOL     OW16189   3.524   4.712  11.417 -0.1208  0.5467  0.3630
 1576SOL    HW116190   3.447   0.047  11.422  0.7557  1.7028  0.4834
 1576SOL    HW216191   3.582   0.015  11.489  1.0276  0.1401 -0.4193
 1577SOL     OW16192   1.141   4.439  17.441 -0.4303  0.5520  1.0263
 1577SOL    HW116193   1.201   4.497  17.487 -1.9115  2.0911  1.0147
 1577SOL    HW216194   1.126   4.473  17.353  0.3260 -2.4641 -0.2839
 1578SOL     OW16195   3.608   0.951  14.912 -0.5643  0.1510  0.2897
 1578SOL    HW116196   3.648   1.029  14.873 -0.9071 -0.4834 -1.3482
 1578SOL    HW216197   3.610   0.904  14.828  0.2959 -0.5479  0.7034
 1579SOL     OW16198   4.619   3.192   6.773 -0.0713 -0.5978  0.2227
 1579SOL    HW116199   4.626   3.109   6.727  0.4545 -0.7821  0.6434
 1579SOL    HW216200   4.592   3.254   6.705 -0.2874 -1.0805 -0.1310
 1580SOL     OW16201   2.332   3.804  10.317 -0.1828  0.1768  0.3530
 1580SOL    HW116202   2.416   3.799  10.363 -0.5640 -0.4295  0.9762
 1580SOL    HW216203   2.369   3.767  10.236  1.0015  2.9342 -0.3526
 1581SOL     OW16204   4.074   2.955   4.485  0.0328  0.5565  0.3540
 1581SOL    HW116205   4.101   2.985   4.572  0.6428  1.8268 -0.2698
 1581SOL    HW216206   4.090   3.035   4.435 -2.2766  0.5611 -0.3781
 1582SOL     OW16207   3.048   1.061   0.717 -0.1752  0.4943 -0.5623
 1582SOL    HW116208   3.059   1.127   0.649  0.0759  0.4496 -0.5619
 1582SOL    HW216209   2.956   1.033   0.720 -0.5413  1.6695 -0.7455
 1583SOL     OW16210   2.172   0.123  11.247  0.5466 -0.2633  0.0792
 1583SOL    HW116211   2.217   0.113  11.163 -0.1391  0.1242 -0.3308
 1583SOL    HW216212   2.197   0.211  11.273 -0.4036  0.1550 -0.4184
 1584SOL     OW16213   1.178   3.198  15.247 -0.1254  0.0009  0.0504
 1584SOL    HW116214   1.125   3.262  15.296  0.6531  0.7359 -0.0634
 1584SOL    HW216215   1.109   3.160  15.194  0.1100 -1.0494  0.4929
 1585SOL     OW16216   1.586   0.163  11.760 -0.1996  0.2172  0.1735
 1585SOL    HW116217   1.624   0.211  11.833  1.2068 -0.0343 -0.3940
 1585SOL    HW216218   1.598   0.074  11.795 -2.5022  0.0614  0.5612
 1586SOL     OW16219   2.742   2.950   5.309 -0.0000 -0.0330 -0.3895
 1586SOL    HW116220   2.760   3.017   5.375  0.5865 -0.2152 -0.3658
 1586SOL    HW216221   2.649   2.933   5.325 -0.1037 -0.2294 -1.2001
 1587SOL     OW16222   2.660   1.335   2.797  0.2112 -0.4303  0.0309
 1587SOL    HW116223   2.706   1.383   2.866 -2.2570  0.8243  0.8310
 1587SOL    HW216224   2.586   1.305   2.850  0.9612  0.9000  1.8553
 1588SOL     OW16225   2.170   4.069   0.179  0.2224 -0.1671  0.2766
 1588SOL    HW116226   2.178   3.987   0.227  0.7992  0.3182  1.0068
 1588SOL    HW216227   2.117   4.043   0.104 -0.8449 -0.7096  1.2140
 1589SOL     OW16228   1.951   4.267   7.500  0.0844  0.5170 -0.4855
 1589SOL    HW116229   1.964   4.173   7.516  1.1809  1.0597  1.8283
 1589SOL    HW216230   1.959   4.305   7.587  1.9377  0.5862 -0.6835
 1590SOL     OW16231   4.680   2.993   2.691  0.0042  0.1037 -0.4393
 1590SOL    HW116232   4.631   3.075   2.692  0.7814  0.5515  1.1485
 1590SOL    HW216233   0.048   3.025   2.702  0.6963 -1.7503 -0.7286
 1591SOL     OW16234   0.317   0.478  14.322  0.2785  0.4689  0.9926
 1591SOL    HW116235   0.221   0.479  14.319  0.2825 -1.2059  0.4520
 1591SOL    HW216236   0.333   0.538  14.394  0.9168 -0.9651  2.0379
 1592SOL     OW16237   2.656   4.076  12.951 -0.2882  0.2953 -0.3019
 1592SOL    HW116238   2.719   4.145  12.975  0.7024 -0.8675  0.4671
 1592SOL    HW216239   2.707   4.000  12.923  1.7538  0.1131  3.8441
 1593SOL     OW16240   4.195   0.541  15.296  0.4191 -0.3183  0.3365
 1593SOL    HW116241   4.275   0.551  15.244  0.0782  1.6781  0.2254
 1593SOL    HW216242   4.218   0.483  15.369 -0.7375 -2.0502 -0.6577
 1594SOL     OW16243   2.913   2.085  11.570  0.5770 -0.4257 -0.3019
 1594SOL    HW116244   2.926   2.121  11.482  3.0628 -2.2162 -0.6558
 1594SOL    HW216245   2.859   2.008  11.553  1.8387 -1.4823  0.5044
 1595SOL     OW16246   2.720   0.190   6.560 -0.4927 -0.0310 -0.2018
 1595SOL    HW116247   2.642   0.229   6.521 -0.2561 -0.8476 -1.4927
 1595SOL    HW216248   2.692   0.171   6.649  0.6099  0.4062  0.2433
 1596SOL     OW16249   3.346   4.119   6.331  0.0947  0.1493  0.1614
 1596SOL    HW116250   3.298   4.201   6.344  0.1347 -0.2514  3.0146
 1596SOL    HW216251   3.335   4.080   6.418  1.8548 -2.0478 -0.6072
 1597SOL     OW16252   1.195   4.174   0.563  0.0711 -0.0954  0.2904
 1597SOL    HW116253   1.160   4.166   0.651 -1.9791 -1.1367 -0.6244
 1597SOL    HW216254   1.228   4.264   0.569 -0.9924  0.4605 -2.0583
 1598SOL     OW16255   2.005   3.557   4.585  0.2931 -0.1355 -0.8508
 1598SOL    HW116256   2.020   3.650   4.599 -0.4687 -0.5401  2.6592
 1598SOL    HW216257   1.926   3.538   4.637  2.3171 -0.3368  2.1356
 1599SOL     OW16258   2.578   4.078  13.448  0.0584  0.1649  0.2327
 1599SOL    HW116259   2.523   4.016  13.495 -0.2719  1.3591  1.4300
 1599SOL    HW216260   2.549   4.052  13.360  0.1343  0.6468  0.0609
 1600SOL     OW16261   2.081   0.454   6.869 -0.1959 -0.2713  0.1769
 1600SOL    HW116262   2.166   0.497   6.874 -0.4709  0.2045  0.6606
 1600SOL    HW216263   2.083   0.409   6.784  1.8057  1.2887 -0.5964
 1601SOL     OW16264   2.279   0.360  12.721  0.5003 -0.0744 -0.0457
 1601SOL    HW116265   2.281   0.279  12.771 -1.5052  0.3112  0.6799
 1601SOL    HW216266   2.328   0.331  12.645  1.9392 -1.2569  1.3487
 1602SOL     OW16267   2.683   3.288   8.542 -0.4213 -0.5590 -0.9789
 1602SOL    HW116268   2.755   3.276   8.480 -0.0531  0.2614 -0.7130
 1602SOL    HW216269   2.737   3.284   8.622 -1.0619  2.0781 -0.4357
 1603SOL     OW16270   0.571   4.537   2.233 -0.8118 -0.1164  0.0254
 1603SOL    HW116271   0.597   4.606   2.295 -0.0927 -0.1851 -0.2058
 1603SOL    HW216272   0.500   4.488   2.276  0.3142 -0.4470  1.4979
 1604SOL     OW16273   3.842   4.378  13.176 -1.0786 -0.0343  0.3672
 1604SOL    HW116274   3.879   4.417  13.255 -2.4594 -1.5417  1.7463
 1604SOL    HW216275   3.906   4.308  13.163  0.1335  1.2601 -0.6677
 1605SOL     OW16276   2.976   2.888   8.836  0.0454 -0.5410 -0.2693
 1605SOL    HW116277   2.919   2.857   8.906  0.0837 -1.7119 -0.7580
 1605SOL    HW216278   2.958   2.982   8.836 -2.5456 -1.0563 -1.8124
 1606SOL     OW16279   1.587   0.404   4.906 -0.0687  0.5694  0.2006
 1606SOL    HW116280   1.636   0.377   4.829 -0.3725  1.0472 -0.1618
 1606SOL    HW216281   1.569   0.314   4.933  0.3244  0.0540 -1.2960
 1607SOL     OW16282   3.971   1.750   1.620  0.5041 -0.0863  0.0080
 1607SOL    HW116283   4.009   1.832   1.652 -0.4731 -0.0112  0.9728
 1607SOL    HW216284   3.886   1.774   1.585  1.3943  0.9451 -1.4531
 1608SOL     OW16285   1.786   4.244   5.996 -0.6712  0.2051  0.1782
 1608SOL    HW116286   1.727   4.180   6.035 -0.9903 -0.3016 -1.1538
 1608SOL    HW216287   1.874   4.221   6.027 -0.0997  2.5756  0.3186
 1609SOL     OW16288   3.363   3.585   7.964  0.2375  0.4251 -0.3198
 1609SOL    HW116289   3.355   3.645   8.039  0.6563  0.4864 -0.3213
 1609SOL    HW216290   3.458   3.601   7.958 -0.2969  2.8893 -2.1793
 1610SOL     OW16291   4.602   4.411  12.692 -0.1201  0.7544 -0.2313
 1610SOL    HW116292   4.596   4.506  12.684 -0.5245  0.9826  2.7723
 1610SOL    HW216293   4.528   4.387  12.637 -1.3165  1.9555  0.8323
 1611SOL     OW16294   3.229   0.925   5.906  0.1367 -0.0510 -0.2233
 1611SOL    HW116295   3.311   0.957   5.868 -0.6115  2.5087  0.3116
 1611SOL    HW216296   3.187   1.011   5.900  0.8676  0.2172 -1.6927
 1612SOL     OW16297   0.661   4.208   3.870  0.4701  0.1544 -0.1686
 1612SOL    HW116298   0.747   4.249   3.874  0.2244  0.4865  2.0028
 1612SOL    HW216299   0.620   4.256   3.798  0.3015  1.2677  0.6572
 1613SOL     OW16300   0.174   1.423   7.647  0.1641  0.2426 -0.3401
 1613SOL    HW116301   0.144   1.397   7.734 -0.3548 -0.3548 -0.6939
 1613SOL    HW216302   0.260   1.462   7.663  0.9176 -1.4964 -0.1639
 1614SOL     OW16303   2.420   1.912  13.715 -0.0994  0.3826 -0.0231
 1614SOL    HW116304   2.402   1.848  13.646  0.8598  1.1137 -0.9621
 1614SOL    HW216305   2.498   1.961  13.688  0.2260 -1.1042 -1.7648
 1615SOL     OW16306   0.554   2.098   6.754  0.1170 -0.1652 -0.7139
 1615SOL    HW116307   0.626   2.094   6.691  0.0127  0.3046 -0.8614
 1615SOL    HW216308   0.473   2.114   6.707 -0.4560 -1.9589 -0.3377
 1616SOL     OW16309   0.593   3.861  13.453 -0.6945 -0.0412 -0.4358
 1616SOL    HW116310   0.555   3.790  13.401 -1.1352 -0.6664  0.7302
 1616SOL    HW216311   0.529   3.870  13.524 -1.5265 -0.4821 -1.1372
 1617SOL     OW16312   3.174   1.179  12.406  0.0951 -0.7708 -0.6746
 1617SOL    HW116313   3.254   1.212  12.365 -1.6027  2.8960 -1.0466
 1617SOL    HW216314   3.204   1.161  12.496 -0.9442  0.5272 -0.0585
 1618SOL     OW16315   1.240   2.132  16.098 -0.0097  0.1405  0.3435
 1618SOL    HW116316   1.188   2.066  16.052  0.3264  1.2807 -1.7114
 1618SOL    HW216317   1.326   2.091  16.094 -0.3202 -0.4784 -0.0247
 1619SOL     OW16318   2.224   4.406   3.108  0.0597 -0.5149 -0.0083
 1619SOL    HW116319   2.271   4.488   3.120 -1.2100  0.2229 -0.0281
 1619SOL    HW216320   2.281   4.361   3.046  1.4740  0.4281  0.6224
 1620SOL     OW16321   0.066   3.960   6.931  0.0173 -0.6571  0.1473
 1620SOL    HW116322   0.144   4.000   6.970 -1.7619  2.3370  0.6064
 1620SOL    HW216323   0.102   3.872   6.923 -1.5439 -1.2801 -0.1462
 1621SOL     OW16324   4.623   2.934   2.194 -0.5296  0.1603  0.5548
 1621SOL    HW116325   4.680   3.004   2.164  0.1901 -0.5051  0.3799
 1621SOL    HW216326   4.642   2.935   2.287 -1.7100  3.6020  0.7573
 1622SOL     OW16327   2.330   1.254   4.855 -0.0890  0.6657 -0.6917
 1622SOL    HW116328   2.316   1.343   4.823  1.9168  1.6895  1.2216
 1622SOL    HW216329   2.315   1.197   4.780 -0.2967 -0.0446 -0.1186
 1623SOL     OW16330   0.507   1.392  10.868 -0.3048  0.3337 -0.0858
 1623SOL    HW116331   0.430   1.341  10.841  1.8463 -2.5825 -0.7422
 1623SOL    HW216332   0.559   1.331  10.920 -0.6775  0.7631  0.7855
 1624SOL     OW16333   2.502   2.464   7.512  0.0641 -0.1150 -0.3234
 1624SOL    HW116334   2.422   2.413   7.522  0.0530  0.1649  1.1303
 1624SOL    HW216335   2.503   2.525   7.586  0.2099  1.0753 -1.3073
 1625SOL     OW16336   4.299   1.428   6.215  0.7239  0.0103 -0.0261
 1625SOL    HW116337   4.386   1.389   6.226  0.6696  0.4933  2.0879
 1625SOL    HW216338   4.266   1.417   6.304 -1.2198  0.0034 -0.7528
 1626SOL     OW16339   2.841   1.470  13.223 -0.1122 -0.5242 -0.6349
 1626SOL    HW116340   2.789   1.456  13.303  0.9088 -0.7330 -0.0117
 1626SOL    HW216341   2.802   1.545  13.177 -0.3417 -0.4960 -0.3979
 1627SOL     OW16342   0.282   2.125  16.846 -0.3124 -0.2777  0.0055
 1627SOL    HW116343   0.306   2.077  16.925 -0.8759 -0.2252  0.2061
 1627SOL    HW216344   0.292   2.217  16.871 -1.1895  0.0751 -0.9308
 1628SOL     OW16345   3.171   2.040   2.268  0.2450 -0.2418 -0.3196
 1628SOL    HW116346   3.251   2.066   2.313  0.6720 -0.5544 -0.8927
 1628SOL    HW216347   3.204   1.962   2.222 -1.0394  0.3635 -2.2349
 1629SOL     OW16348   2.268   0.684   5.711 -0.3187  0.4012 -0.0326
 1629SOL    HW116349   2.227   0.629   5.778 -0.6044  0.8935  0.1946
 1629SOL    HW216350   2.204   0.687   5.641 -0.5313 -2.3841  0.0132
 1630SOL     OW16351   0.066   0.867  10.464  0.2224 -0.2676 -0.7162
 1630SOL    HW116352   0.022   0.946  10.494 -3.4105 -1.9351 -1.7279
 1630SOL    HW216353   0.111   0.836  10.543 -3.3966 -0.1475  1.3955
 1631SOL     OW16354   4.086   0.067   8.610 -0.3819  0.1668 -0.4721
 1631SOL    HW116355   4.091   0.004   8.681  0.3119 -0.4496 -1.0705
 1631SOL    HW216356   3.994   0.084   8.593 -0.3153  2.6054  1.6262
 1632SOL     OW16357   2.311   1.200  16.783  0.0094 -0.3851 -0.2737
 1632SOL    HW116358   2.321   1.218  16.877  1.0435  0.9304 -0.6307
 1632SOL    HW216359   2.293   1.106  16.791 -3.6551  0.4716  1.5922
 1633SOL     OW16360   2.309   0.493   0.535 -0.2149  0.3223 -0.1901
 1633SOL    HW116361   2.230   0.516   0.486 -0.0955  0.5066 -0.2946
 1633SOL    HW216362   2.295   0.542   0.616 -1.6483  4.2345 -2.7898
 1634SOL     OW16363   3.863   2.201   3.203  0.3624  0.1744 -0.3250
 1634SOL    HW116364   3.815   2.118   3.196  0.5293 -0.2769  3.7703
 1634SOL    HW216365   3.903   2.194   3.116 -0.3993 -1.2476 -0.5673
 1635SOL     OW16366   1.611   3.462   1.669 -0.4198  0.0848  0.3739
 1635SOL    HW116367   1.685   3.496   1.620  0.5357  0.2969  1.9851
 1635SOL    HW216368   1.632   3.369   1.668 -0.5272  0.0628 -0.0683
 1636SOL     OW16369   2.807   2.892  16.087  0.5659 -0.7496 -0.8886
 1636SOL    HW116370   2.789   2.826  16.154  1.0815 -0.9259 -0.9244
 1636SOL    HW216371   2.802   2.842  16.005  0.0723 -1.4916 -0.4067
 1637SOL     OW16372   0.657   2.409  11.750  0.0196 -0.4323 -0.8743
 1637SOL    HW116373   0.740   2.363  11.737  0.0015 -0.1312 -2.1129
 1637SOL    HW216374   0.630   2.384  11.838  0.5165  2.3015  0.0475
 1638SOL     OW16375   3.748   1.526  12.769  0.0527  0.5715 -0.0822
 1638SOL    HW116376   3.752   1.618  12.793 -1.4330  0.3202  1.0978
 1638SOL    HW216377   3.668   1.533  12.716  0.7152  1.1955 -1.0109
 1639SOL     OW16378   2.096   2.131  14.259 -0.7789 -0.3885 -0.4810
 1639SOL    HW116379   2.093   2.038  14.282  0.5476 -0.5404 -0.9198
 1639SOL    HW216380   2.168   2.126  14.196 -1.6433  1.1265 -1.5961
 1640SOL     OW16381   4.194   3.301   6.894 -0.3760 -0.3481  0.0839
 1640SOL    HW116382   4.121   3.345   6.851 -0.0113  1.3570  1.2015
 1640SOL    HW216383   4.184   3.340   6.981 -0.3573 -0.3920  0.1058
 1641SOL     OW16384   4.007   0.369   3.191 -0.1601  0.0673 -0.4965
 1641SOL    HW116385   3.919   0.407   3.196  0.5130  1.7684 -1.3224
 1641SOL    HW216386   4.012   0.316   3.111  1.5781 -1.4575  0.6218
 1642SOL     OW16387   2.321   1.842  16.938  0.0836  0.1913  0.1810
 1642SOL    HW116388   2.230   1.820  16.952  0.6036 -0.9668  1.6492
 1642SOL    HW216389   2.342   1.773  16.875 -0.0626 -0.1088  0.4603
 1643SOL     OW16390   4.599   2.361  10.234 -0.2318 -0.7331  0.2487
 1643SOL    HW116391   4.535   2.312  10.284  0.0490 -1.3557 -0.0067
 1643SOL    HW216392   4.558   2.378  10.149  1.0480 -0.8577 -0.3960
 1644SOL     OW16393   1.271   3.763   0.755  0.4338  0.6412  0.7498
 1644SOL    HW116394   1.276   3.690   0.816 -1.7594 -1.4383 -1.5387
 1644SOL    HW216395   1.275   3.835   0.819  2.0264  1.5367 -0.3700
 1645SOL     OW16396   1.923   2.358   5.566 -0.0669  0.2507 -0.6268
 1645SOL    HW116397   1.863   2.287   5.590  0.4028 -0.7636 -2.4030
 1645SOL    HW216398   1.942   2.391   5.654 -1.4959 -0.9429  0.1349
 1646SOL     OW16399   4.302   2.636   9.899  0.1993 -0.3048 -0.7505
 1646SOL    HW116400   4.210   2.618   9.917  0.4766 -0.4283  0.5147
 1646SOL    HW216401   4.302   2.642   9.803  1.8696 -3.4414 -0.9485
 1647SOL     OW16402   2.870   1.260  14.916 -0.2021 -0.0637 -0.2348
 1647SOL    HW116403   2.956   1.290  14.888 -1.6476  0.8623 -3.8099
 1647SOL    HW216404   2.887   1.235  15.007  1.0192  2.7196  0.2708
 1648SOL     OW16405   1.505   1.258  15.095  0.2962  0.2945 -0.7957
 1648SOL    HW116406   1.449   1.185  15.123 -0.6566  0.9671 -0.9701
 1648SOL    HW216407   1.539   1.223  15.012  0.0343  0.1304 -0.8372
 1649SOL     OW16408   1.622   3.461   6.899 -0.2015  0.6948 -0.4492
 1649SOL    HW116409   1.691   3.518   6.934 -0.8172  1.1570  0.0197
 1649SOL    HW216410   1.571   3.435   6.976  0.3591 -1.7170 -0.8919
 1650SOL     OW16411   4.554   2.866   5.120  0.2756  0.2295  0.5852
 1650SOL    HW116412   4.505   2.894   5.197 -0.2170 -1.8693  1.0514
 1650SOL    HW216413   4.588   2.782   5.152  0.3991  0.3744  0.8326
 1651SOL     OW16414   1.795   0.193   8.669  0.2585 -0.3479  0.6496
 1651SOL    HW116415   1.889   0.179   8.670  0.4812  1.2097  2.4221
 1651SOL    HW216416   1.785   0.288   8.676  1.4062 -0.2122  0.3978
 1652SOL     OW16417   2.397   4.610   8.114 -0.0183 -0.0627  0.2676
 1652SOL    HW116418   2.468   4.626   8.051 -0.3217  2.0315  0.4871
 1652SOL    HW216419   2.323   4.591   8.055 -0.0338 -2.0771  0.9239
 1653SOL     OW16420   0.973   2.524   2.339  0.5168  0.8622 -0.5505
 1653SOL    HW116421   0.960   2.486   2.252  1.9886 -0.9813  0.0365
 1653SOL    HW216422   1.069   2.524   2.343  0.5425  0.4071 -1.0708
 1654SOL     OW16423   2.672   1.016   7.334  0.0311  0.2967  0.0977
 1654SOL    HW116424   2.604   1.032   7.400  0.1808 -1.3428  0.6618
 1654SOL    HW216425   2.636   1.056   7.255  0.2975  0.3532  0.0064
 1655SOL     OW16426   4.022   0.584   2.935  0.2750 -0.3305  0.0655
 1655SOL    HW116427   4.050   0.654   2.994  1.1880 -2.0095  1.6356
 1655SOL    HW216428   4.105   0.540   2.916  1.4641  1.6443  0.6445
 1656SOL     OW16429   1.221   3.033   5.107  0.2888  0.1587 -0.4224
 1656SOL    HW116430   1.180   2.959   5.062 -1.8681 -0.0367  1.8604
 1656SOL    HW216431   1.233   2.988   5.190  0.1006  0.3763 -0.2793
 1657SOL     OW16432   1.360   1.850   7.435  0.2579  0.1421 -0.4756
 1657SOL    HW116433   1.444   1.821   7.473 -0.2420 -1.0844 -0.3099
 1657SOL    HW216434   1.368   1.945   7.422  1.2419 -0.2059 -2.3482
 1658SOL     OW16435   0.329   0.416   7.518  0.3274 -0.1408 -0.5082
 1658SOL    HW116436   0.242   0.401   7.555  0.0320  0.1799 -1.0613
 1658SOL    HW216437   0.345   0.352   7.449  1.6446 -0.5480  0.1836
 1659SOL     OW16438   4.207   2.086   9.221 -0.3056 -0.2145 -0.2675
 1659SOL    HW116439   4.167   2.010   9.264  1.3076  0.1961  2.0154
 1659SOL    HW216440   4.197   2.154   9.288  2.8084  0.1101 -0.0924
 1660SOL     OW16441   1.815   4.518   1.951  0.3346  0.2603  0.2702
 1660SOL    HW116442   1.778   4.524   1.863  2.4682 -0.7686 -0.7089
 1660SOL    HW216443   1.867   4.439   1.937  0.1281  0.0061  0.9655
 1661SOL     OW16444   3.788   3.283  10.541 -0.0849 -0.0911  0.0218
 1661SOL    HW116445   3.711   3.231  10.517 -1.0163  0.8809  0.8462
 1661SOL    HW216446   3.842   3.228  10.597 -0.0676  1.5156  1.5995
 1662SOL     OW16447   4.370   0.982   7.089 -0.2663 -0.4066  0.4735
 1662SOL    HW116448   4.276   0.991   7.103 -0.2261  0.4167  0.2042
 1662SOL    HW216449   4.378   1.010   6.998  4.4361 -0.4595  0.8649
 1663SOL     OW16450   3.082   3.451   6.379  0.1974  0.5169 -0.7152
 1663SOL    HW116451   3.015   3.509   6.414 -0.4291 -1.0378  0.7163
 1663SOL    HW216452   3.127   3.509   6.318 -0.4957  1.7619 -0.0532
 1664SOL     OW16453   2.074   4.198   7.923  0.8752 -0.5319  0.2896
 1664SOL    HW116454   2.065   4.266   7.857 -1.3139 -0.4904  0.6510
 1664SOL    HW216455   1.985   4.163   7.927  0.1663  1.0821 -1.8259
 1665SOL     OW16456   4.319   2.544   2.466 -0.5401  0.6512 -0.3577
 1665SOL    HW116457   4.395   2.572   2.518  0.0502 -0.2317 -0.7394
 1665SOL    HW216458   4.248   2.588   2.513  0.1842  1.2256  0.1943
 1666SOL     OW16459   0.492   3.745   4.487  0.2923 -0.0271 -0.2034
 1666SOL    HW116460   0.403   3.710   4.481  1.1482 -1.9385 -1.7250
 1666SOL    HW216461   0.467   3.837   4.497  1.5642  0.1559  1.2243
 1667SOL     OW16462   2.635   4.174   6.142 -0.0391 -0.1890  0.2138
 1667SOL    HW116463   2.731   4.171   6.143 -0.0997 -1.8685  1.6821
 1667SOL    HW216464   2.613   4.091   6.100 -1.1037  1.0038 -1.5707
 1668SOL     OW16465   2.838   0.655   7.279 -0.0377  0.1344  0.3623
 1668SOL    HW116466   2.904   0.674   7.346 -0.4631  2.4666  0.1263
 1668SOL    HW216467   2.874   0.577   7.238 -0.9757  0.0290 -0.2508
 1669SOL     OW16468   4.653   3.240   0.618 -0.4556  0.0194  0.4774
 1669SOL    HW116469   4.635   3.162   0.671  1.5969 -0.6051  0.2551
 1669SOL    HW216470   0.012   3.227   0.567 -1.8701 -0.7834 -1.5951
 1670SOL     OW16471   2.316   4.598   6.934 -0.2930 -0.1437 -0.2296
 1670SOL    HW116472   2.342   4.541   7.007  0.8500  0.2085 -0.3485
 1670SOL    HW216473   2.222   4.609   6.946 -0.4891  0.2477 -2.1359
 1671SOL     OW16474   2.913   3.256   9.213  0.1650  0.0183 -0.5799
 1671SOL    HW116475   2.892   3.290   9.300  1.8491 -0.2668 -0.0580
 1671SOL    HW216476   2.857   3.305   9.153  0.2356 -1.5810 -1.9531
 1672SOL     OW16477   4.541   0.367   9.995 -0.3343  0.1234 -0.1490
 1672SOL    HW116478   4.490   0.396  10.071 -0.2679 -0.7520  0.2278
 1672SOL    HW216479   4.517   0.432   9.928  0.4492 -0.4556 -0.9866
 1673SOL     OW16480   1.637   2.449  16.739  0.2489 -0.0570 -0.0173
 1673SOL    HW116481   1.681   2.440  16.823  1.0187 -0.8848 -0.5046
 1673SOL    HW216482   1.543   2.451  16.761  0.2872  0.0086  0.1371
 1674SOL     OW16483   0.361   0.432   8.224 -0.6207 -0.3326  0.0708
 1674SOL    HW116484   0.353   0.365   8.291 -4.0302  0.0242  0.0479
 1674SOL    HW216485   0.283   0.487   8.235  0.2880  1.4885 -2.7379
 1675SOL     OW16486   4.443   3.563   9.802 -0.5081  0.5283 -0.1129
 1675SOL    HW116487   4.389   3.508   9.859 -0.1215  0.8841  0.6008
 1675SOL    HW216488   4.516   3.574   9.863 -0.0672 -0.8011 -0.4059
 1676SOL     OW16489   3.693   3.837  11.440 -0.4781 -0.8410  0.0342
 1676SOL    HW116490   3.686   3.745  11.468  2.2103 -0.7295  1.0886
 1676SOL    HW216491   3.639   3.850  11.363  1.7458 -1.8448 -1.7120
 1677SOL     OW16492   0.810   3.933  16.145 -0.0822 -0.4064 -0.0763
 1677SOL    HW116493   0.850   3.975  16.221  1.7768 -2.2994 -0.0084
 1677SOL    HW216494   0.835   3.842  16.161 -1.5413 -1.3143 -2.8610
 1678SOL     OW16495   2.816   1.618   1.717 -0.2329 -0.1367 -0.5153
 1678SOL    HW116496   2.728   1.582   1.727  0.6215 -2.3616 -0.9954
 1678SOL    HW216497   2.788   1.708   1.734 -0.8048 -0.3538 -0.3063
 1679SOL     OW16498   1.211   1.608   3.823  0.3470 -0.3637 -0.3327
 1679SOL    HW116499   1.244   1.518   3.818 -0.9550 -0.8696  0.1699
 1679SOL    HW216500   1.284   1.664   3.796  2.2397 -2.4213  0.4614
 1680SOL     OW16501   3.032   3.650  13.596 -0.3955 -0.2041 -0.4547
 1680SOL    HW116502   3.057   3.620  13.508  2.6592  0.5725  0.1376
 1680SOL    HW216503   3.029   3.571  13.650  1.5700 -1.7960 -2.6677
 1681SOL     OW16504   0.636   0.693   3.047 -0.7540 -0.4408  0.0011
 1681SOL    HW116505   0.614   0.614   2.997 -3.0533 -0.2957  0.7835
 1681SOL    HW216506   0.575   0.683   3.120 -0.1793 -1.1780  0.3829
 1682SOL     OW16507   3.507   1.442   7.429  0.0645  0.0169  0.1176
 1682SOL    HW116508   3.535   1.530   7.405  1.3617 -0.6758 -0.9047
 1682SOL    HW216509   3.432   1.464   7.484 -0.5209 -1.1341 -0.2063
 1683SOL     OW16510   3.145   2.068  16.089  0.3406  0.1326 -0.5834
 1683SOL    HW116511   3.220   2.066  16.029 -0.1086 -3.4425 -0.9742
 1683SOL    HW216512   3.124   2.162  16.093 -1.3736 -0.2222 -1.4206
 1684SOL     OW16513   3.787   2.285   9.121 -0.4049  0.3620  0.1246
 1684SOL    HW116514   3.865   2.327   9.157  0.4867 -0.7212 -0.5386
 1684SOL    HW216515   3.832   2.200   9.127  1.1770  1.1400 -0.8173
 1685SOL     OW16516   3.343   4.051   8.777  0.2149  0.5684  1.0044
 1685SOL    HW116517   3.334   3.994   8.700 -1.4889  0.8566  0.9874
 1685SOL    HW216518   3.344   4.140   8.741  0.0212  0.3776  0.5233
 1686SOL     OW16519   3.763   1.964  11.609  0.0866  0.4576 -0.4473
 1686SOL    HW116520   3.821   2.009  11.671 -0.7663  0.7549  0.1470
 1686SOL    HW216521   3.825   1.951  11.537 -0.2727  0.1544 -0.7011
 1687SOL     OW16522   2.016   2.864   1.857 -0.4134 -0.4822 -0.3869
 1687SOL    HW116523   2.109   2.884   1.859 -0.2173 -1.7635  3.6511
 1687SOL    HW216524   2.018   2.783   1.807 -1.1913 -1.4308  1.1365
 1688SOL     OW16525   0.939   1.749  10.887  0.0731 -0.0572 -0.0476
 1688SOL    HW116526   0.929   1.665  10.842  0.8921  0.7322 -1.7041
 1688SOL    HW216527   0.853   1.767  10.926 -0.0393 -2.3616  0.7520
 1689SOL     OW16528   4.482   2.316   5.384 -0.2000 -0.3946 -0.1407
 1689SOL    HW116529   4.549   2.358   5.330  0.5407 -0.0107  1.0802
 1689SOL    HW216530   4.499   2.228   5.349 -0.5829 -0.8486  0.8257
 1690SOL     OW16531   4.622   4.677   1.643  0.2492  0.0654 -0.0333
 1690SOL    HW116532   4.632   4.583   1.652  0.2783 -0.0579 -1.3432
 1690SOL    HW216533   4.528   4.681   1.622  0.1558 -1.6291  0.1166
 1691SOL     OW16534   4.572   2.380   2.605  0.4339  0.3122  0.0527
 1691SOL    HW116535   4.622   2.320   2.550 -0.0895  0.1077 -0.2021
 1691SOL    HW216536   4.639   2.424   2.658 -0.1421  1.1311  0.1024
 1692SOL     OW16537   2.676   1.862   3.624 -0.1720  0.5196 -0.2149
 1692SOL    HW116538   2.673   1.868   3.528 -1.1555  0.5952 -0.1810
 1692SOL    HW216539   2.592   1.903   3.644 -0.5797 -0.9073  0.9570
 1693SOL     OW16540   2.232   4.670   7.865 -0.1139  0.1376  0.0547
 1693SOL    HW116541   2.138   4.657   7.851 -0.6133  0.6376  2.9547
 1693SOL    HW216542   2.244   0.040   7.841  1.7216 -0.2173 -0.3814
 1694SOL     OW16543   3.478   1.590   6.920  0.2288  0.1171 -0.3791
 1694SOL    HW116544   3.538   1.637   6.863  0.3332  0.6786  0.2024
 1694SOL    HW216545   3.543   1.546   6.975 -1.1743 -0.4926  0.7943
 1695SOL     OW16546   1.340   3.085  15.835  0.4141  0.0612  0.0235
 1695SOL    HW116547   1.333   3.112  15.927 -2.7384 -0.9381  0.0715
 1695SOL    HW216548   1.359   2.994  15.854  1.6797  0.3997  0.3955
 1696SOL     OW16549   1.684   1.384   9.038  0.0372 -0.0391  0.2505
 1696SOL    HW116550   1.612   1.422   9.088 -0.7220  0.4889 -1.2310
 1696SOL    HW216551   1.741   1.374   9.114  0.2766  0.9313  0.2015
 1697SOL     OW16552   3.606   1.678   2.963 -0.5283  0.0176 -0.2694
 1697SOL    HW116553   3.578   1.688   3.054  0.5596  1.5559 -0.1014
 1697SOL    HW216554   3.692   1.720   2.961  0.2484 -1.4582  2.2280
 1698SOL     OW16555   0.094   1.622   7.349  0.0149 -0.4353  0.2966
 1698SOL    HW116556   0.132   1.541   7.383  0.3055 -0.7067 -0.6836
 1698SOL    HW216557   0.112   1.682   7.421 -0.9988  0.1612  0.0541
 1699SOL     OW16558   1.637   2.848   1.775  0.4768 -0.3795 -0.0789
 1699SOL    HW116559   1.721   2.881   1.744  0.7964 -0.9049  0.2334
 1699SOL    HW216560   1.607   2.925   1.823 -1.3430 -2.5458  2.2673
 1700SOL     OW16561   2.576   0.529   9.957 -0.4752 -0.2427 -0.5612
 1700SOL    HW116562   2.523   0.460   9.998  0.1611 -0.3265  0.1244
 1700SOL    HW216563   2.654   0.509  10.009  0.3848  2.5937 -0.7530
 1701SOL     OW16564   0.823   1.555   6.001  0.4322 -0.4643  0.5429
 1701SOL    HW116565   0.774   1.513   6.072  0.8562  2.6962  2.7201
 1701SOL    HW216566   0.901   1.502   6.014  0.5672 -0.1780  0.8883
 1702SOL     OW16567   1.347   3.824   2.614 -0.4194  0.2995 -0.8331
 1702SOL    HW116568   1.331   3.747   2.560 -0.5075 -0.9570  0.9716
 1702SOL    HW216569   1.264   3.824   2.661 -1.0252  0.9811 -1.9003
 1703SOL     OW16570   2.493   1.577   5.637  0.3504 -0.5253  0.5562
 1703SOL    HW116571   2.427   1.566   5.706  0.8468 -0.8327  0.9765
 1703SOL    HW216572   2.551   1.639   5.680 -0.7006 -0.5553  2.0317
 1704SOL     OW16573   3.412   0.684   3.854  0.0553  0.1772  0.3956
 1704SOL    HW116574   3.505   0.693   3.835 -0.5650  3.8689 -0.8808
 1704SOL    HW216575   3.425   0.646   3.941 -1.0458  0.9359  0.8941
 1705SOL     OW16576   3.409   3.534   6.886  0.2651 -0.0583  0.0215
 1705SOL    HW116577   3.319   3.555   6.863  0.1289 -0.3745  0.2756
 1705SOL    HW216578   3.404   3.440   6.903 -1.3763  0.2832  1.3868
 1706SOL     OW16579   1.813   0.522   7.425  0.0230  0.0647  0.3672
 1706SOL    HW116580   1.907   0.530   7.440  0.2983 -0.7927 -0.8691
 1706SOL    HW216581   1.804   0.558   7.337  1.4935 -0.9069 -0.1872
 1707SOL     OW16582   1.974   0.731   9.563  0.1807  0.1833 -0.0108
 1707SOL    HW116583   1.953   0.709   9.473 -1.7791 -1.3661  0.8222
 1707SOL    HW216584   1.973   0.647   9.608 -0.4267 -0.0077 -0.3821
 1708SOL     OW16585   3.133   2.843   3.113 -0.1298 -1.0256  0.1031
 1708SOL    HW116586   3.147   2.759   3.156 -0.7582 -0.2007  1.9375
 1708SOL    HW216587   3.203   2.842   3.048  1.5837  1.8202  1.9163
 1709SOL     OW16588   4.280   0.913   5.290 -0.0600  0.3216 -0.1094
 1709SOL    HW116589   4.258   1.005   5.283 -1.3518  0.0632  0.5787
 1709SOL    HW216590   4.278   0.907   5.385  0.8957 -1.4953 -0.2055
 1710SOL     OW16591   2.137   1.410   3.121 -0.0214 -0.3697  0.1998
 1710SOL    HW116592   2.147   1.386   3.213  1.0178 -0.3271  0.1030
 1710SOL    HW216593   2.231   1.420   3.106  0.5894 -1.4088  3.2855
 1711SOL     OW16594   3.614   3.335   6.686 -0.3207  0.2210  0.5671
 1711SOL    HW116595   3.597   3.263   6.748 -1.1530 -1.2013 -1.3107
 1711SOL    HW216596   3.597   3.414   6.736 -0.5035  0.5741 -0.0586
 1712SOL     OW16597   4.133   4.518   9.999  0.1841  0.1428  0.2182
 1712SOL    HW116598   4.153   4.534  10.091 -1.6357  0.6938  0.5110
 1712SOL    HW216599   4.100   4.605   9.977 -0.5401 -0.1970 -0.0486
 1713SOL     OW16600   0.544   2.649   1.203  0.7185 -0.0781  0.1374
 1713SOL    HW116601   0.560   2.555   1.213  1.0643 -0.3204 -2.6205
 1713SOL    HW216602   0.466   2.662   1.257  0.2458 -0.5044 -0.4514
 1714SOL     OW16603   0.211   2.583   3.312 -0.2747  0.1432 -0.4670
 1714SOL    HW116604   0.279   2.550   3.254  1.8319  3.3851  0.1506
 1714SOL    HW216605   0.267   2.609   3.385 -0.1562  2.1538 -1.2681
 1715SOL     OW16606   0.206   3.628   4.428 -0.7571  0.8743  0.2324
 1715SOL    HW116607   0.211   3.610   4.334  0.0940  1.1673  0.2253
 1715SOL    HW216608   0.177   3.720   4.426 -0.0542  1.0910 -0.1557
 1716SOL     OW16609   0.087   3.460   6.792  0.0036  0.2741 -0.7569
 1716SOL    HW116610   0.113   3.370   6.774  1.3136  0.6552 -0.7377
 1716SOL    HW216611   0.084   3.456   6.888  0.3129  1.3684 -0.7031
 1717SOL     OW16612   2.372   2.272   2.895 -0.3364 -0.1466  0.6065
 1717SOL    HW116613   2.402   2.190   2.856  1.5320  1.5622 -1.5541
 1717SOL    HW216614   2.290   2.285   2.847 -0.5476 -0.0391  0.9959
 1718SOL     OW16615   4.638   0.384   4.790  0.2633 -0.1257 -0.2718
 1718SOL    HW116616   4.650   0.434   4.871 -0.5467  1.4323 -1.1247
 1718SOL    HW216617   4.543   0.389   4.782  0.2036  1.5804  1.3822
 1719SOL     OW16618   0.441   2.379   5.967  0.2396 -0.1818  0.2468
 1719SOL    HW116619   0.473   2.420   6.047 -1.8830  2.5539 -0.2974
 1719SOL    HW216620   0.518   2.327   5.943  0.1786 -0.4431  0.6270
 1720SOL     OW16621   3.520   4.496   2.733  0.0611  0.1285  0.1988
 1720SOL    HW116622   3.502   4.589   2.722 -0.2189 -0.2360 -2.6492
 1720SOL    HW216623   3.578   4.494   2.808  0.1774  1.3254  0.1333
 1721SOL     OW16624   0.433   2.779  17.580 -0.4696  0.5482 -0.5906
 1721SOL    HW116625   0.417   2.815  17.667  2.2162 -0.4506  0.3102
 1721SOL    HW216626   0.343   2.777  17.546  0.7133 -0.7308 -3.5855
 1722SOL     OW16627   4.400   1.916   2.618 -0.2086 -0.5923  0.5460
 1722SOL    HW116628   4.380   1.918   2.524  1.5121  2.3612  0.2420
 1722SOL    HW216629   4.316   1.943   2.655 -0.0234 -0.4671  0.8718
 1723SOL     OW16630   2.247   2.536   6.598 -0.6050  0.2218  0.7764
 1723SOL    HW116631   2.330   2.499   6.568 -1.0810  0.9521 -1.4409
 1723SOL    HW216632   2.187   2.553   6.525  2.4708 -0.2646 -1.8838
 1724SOL     OW16633   3.976   1.230   9.540  0.5824  0.4379  0.0571
 1724SOL    HW116634   3.971   1.157   9.601 -4.5617  0.3471 -0.4601
 1724SOL    HW216635   3.977   1.307   9.597  0.3420  1.0878 -0.8035
 1725SOL     OW16636   2.998   2.766  15.319 -0.4736 -0.2694 -0.4172
 1725SOL    HW116637   3.057   2.830  15.360  0.1051 -1.1474  0.1313
 1725SOL    HW216638   3.047   2.689  15.346 -1.9083 -0.6019  1.2599
 1726SOL     OW16639   0.906   0.058   4.577 -0.4303  0.1444  0.1732
 1726SOL    HW116640   0.860   0.072   4.494 -0.9927  1.0619  0.6392
 1726SOL    HW216641   0.904   0.148   4.611  1.0632  0.0603  0.4709
 1727SOL     OW16642   4.421   0.487   6.453  0.3015  0.2807  0.1984
 1727SOL    HW116643   4.456   0.568   6.490 -1.1168  0.4872  1.1265
 1727SOL    HW216644   4.336   0.481   6.499  0.3232  1.9083  0.4652
 1728SOL     OW16645   3.789   3.107   8.412 -0.3470  0.4332  0.2506
 1728SOL    HW116646   3.744   3.089   8.495 -2.6103  3.1452 -0.4090
 1728SOL    HW216647   3.720   3.145   8.358 -0.6124 -0.7744 -0.2786
 1729SOL     OW16648   0.575   2.316  17.547 -0.4632 -0.0615  0.4808
 1729SOL    HW116649   0.499   2.260  17.564  1.5525 -2.7040  0.7443
 1729SOL    HW216650   0.569   2.373  17.624  2.1052  1.4564 -0.4602
 1730SOL     OW16651   2.036   3.128   8.612 -0.0555  0.1125 -0.6616
 1730SOL    HW116652   2.103   3.191   8.585 -0.4005  0.2333 -1.2481
 1730SOL    HW216653   1.979   3.140   8.535 -1.2203 -0.2020  0.1433
 1731SOL     OW16654   0.208   2.157   3.089  0.1933 -0.2496 -0.5862
 1731SOL    HW116655   0.256   2.175   3.170 -3.6064  0.5359  1.5467
 1731SOL    HW216656   0.264   2.099   3.039 -1.3016 -1.8755 -0.3562
 1732SOL     OW16657   1.039   0.548   9.925  0.1183 -0.3030 -0.2066
 1732SOL    HW116658   1.125   0.572   9.959  0.5121 -0.5388 -1.0558
 1732SOL    HW216659   1.043   0.458   9.957 -0.6818 -0.8528 -1.6809
 1733SOL     OW16660   0.732   2.450  15.966 -0.1291 -0.1982 -0.1572
 1733SOL    HW116661   0.817   2.481  15.999 -0.2831 -0.8865  0.8683
 1733SOL    HW216662   0.747   2.477  15.875  0.4980 -0.2134 -0.0580
 1734SOL     OW16663   3.645   2.135   4.074 -0.2562  0.2891  0.1794
 1734SOL    HW116664   3.616   2.079   4.145 -0.6235  0.3210  0.0548
 1734SOL    HW216665   3.714   2.077   4.042  2.8577  2.7484  2.5247
 1735SOL     OW16666   3.237   0.524   8.182 -0.0934 -0.2309 -0.0504
 1735SOL    HW116667   3.189   0.590   8.232 -0.4216  0.2202 -0.9451
 1735SOL    HW216668   3.214   0.443   8.228  0.1356 -1.3327 -1.8774
 1736SOL     OW16669   3.348   0.672  16.680  0.4708  0.2270  0.8407
 1736SOL    HW116670   3.385   0.738  16.621 -1.0109  0.8728  0.6360
 1736SOL    HW216671   3.368   0.600  16.620 -1.5570  1.4256 -1.3133
 1737SOL     OW16672   2.968   1.547   8.630  0.0494 -0.6114  0.0491
 1737SOL    HW116673   3.005   1.613   8.572 -1.4027 -0.1654 -0.3656
 1737SOL    HW216674   2.930   1.598   8.702 -0.8562  0.1288 -0.9588
 1738SOL     OW16675   2.077   2.587   6.389 -0.0412 -0.1564 -0.3548
 1738SOL    HW116676   2.047   2.547   6.307  1.8223 -2.2683  0.0173
 1738SOL    HW216677   2.060   2.681   6.382  0.3711 -0.0302  0.3265
 1739SOL     OW16678   3.354   3.107   5.920 -0.1307 -0.1387  0.2008
 1739SOL    HW116679   3.313   3.193   5.927  0.9085  0.4105 -0.3612
 1739SOL    HW216680   3.446   3.131   5.905 -0.1845  0.1838  0.3912
 1740SOL     OW16681   1.023   3.197  15.719  0.1848  0.1126 -0.1181
 1740SOL    HW116682   1.109   3.186  15.759  0.2756  1.7559  0.1219
 1740SOL    HW216683   0.994   3.265  15.780  0.4624 -1.7535  2.1339
 1741SOL     OW16684   1.271   3.948   3.152 -0.1564  0.1778 -0.1915
 1741SOL    HW116685   1.244   4.035   3.181  0.7890  0.4876 -0.2540
 1741SOL    HW216686   1.328   3.916   3.222  0.4718  2.0407  0.1363
 1742SOL     OW16687   1.813   4.577   1.682  0.8072 -0.2733  0.0959
 1742SOL    HW116688   1.809   4.584   1.586  0.7079  3.3869  0.3807
 1742SOL    HW216689   1.825   4.669   1.704  2.8219 -0.7015  0.7554
 1743SOL     OW16690   2.919   1.432   4.862  0.3632 -0.6615  0.6616
 1743SOL    HW116691   2.834   1.474   4.853  0.8542  0.1637 -0.1590
 1743SOL    HW216692   2.983   1.489   4.819 -0.8038 -1.4467 -2.1276
 1744SOL     OW16693   1.700   0.186  13.907 -0.2251 -0.1415 -0.0867
 1744SOL    HW116694   1.651   0.149  13.833 -2.6150 -0.3439  1.5844
 1744SOL    HW216695   1.674   0.278  13.921  1.6448  0.2667  0.7025
 1745SOL     OW16696   4.094   2.448  17.327  0.2627 -0.5649 -0.2168
 1745SOL    HW116697   4.013   2.444  17.277  1.1921 -0.2780 -1.7612
 1745SOL    HW216698   4.069   2.378  17.387 -0.4412 -0.8874 -0.8870
 1746SOL     OW16699   2.078   1.066  11.644 -0.0074 -0.2391  0.1110
 1746SOL    HW116700   2.132   1.122  11.699 -0.0009  0.4598 -0.5996
 1746SOL    HW216701   2.125   1.077  11.561  0.0117  2.2611  0.4572
 1747SOL     OW16702   0.689   0.522   6.518 -0.1771  0.0285  0.6240
 1747SOL    HW116703   0.649   0.601   6.554 -0.8650 -0.1377  0.2211
 1747SOL    HW216704   0.763   0.501   6.575 -0.4250 -2.8523 -0.0997
 1748SOL     OW16705   0.002   3.438   3.673  0.2580  0.0473 -0.0107
 1748SOL    HW116706   0.013   3.374   3.602  1.0599 -1.0779  1.1223
 1748SOL    HW216707   0.093   3.450   3.699  0.9278 -2.8408 -1.0008
 1749SOL     OW16708   1.190   0.873   4.536 -0.2538 -0.1439  0.2248
 1749SOL    HW116709   1.164   0.909   4.621  0.4109 -0.0861  0.4039
 1749SOL    HW216710   1.237   0.943   4.491  0.1541  0.6003  1.8134
 1750SOL     OW16711   0.287   0.047   2.551  0.1441 -0.0208 -0.4229
 1750SOL    HW116712   0.217   0.111   2.538  1.3074  1.3253 -0.1046
 1750SOL    HW216713   0.241   4.711   2.612  4.6776 -2.1050  1.0184
 1751SOL     OW16714   0.984   2.654   5.524  0.2165 -0.5164 -0.4181
 1751SOL    HW116715   0.993   2.724   5.458 -2.2304  0.2946  0.1032
 1751SOL    HW216716   1.015   2.573   5.484 -1.4768 -1.0329 -0.6985
 1752SOL     OW16717   1.877   2.086   5.212  0.4257  0.5140  0.8052
 1752SOL    HW116718   1.968   2.086   5.243  0.8798 -0.9155 -0.5662
 1752SOL    HW216719   1.886   2.047   5.125 -1.9304  1.2438  0.2363
 1753SOL     OW16720   2.879   3.583   5.737 -0.4521 -0.5547 -0.1151
 1753SOL    HW116721   2.875   3.663   5.684  2.2665 -1.8528 -2.2770
 1753SOL    HW216722   2.795   3.538   5.729 -0.9622  0.5112 -0.7389
 1754SOL     OW16723   2.808   3.855  12.890  0.1922 -0.4917 -0.2722
 1754SOL    HW116724   2.759   3.774  12.904  0.6611 -0.9208 -1.1289
 1754SOL    HW216725   2.875   3.823  12.830  1.2543  0.5787  0.3540
 1755SOL     OW16726   0.592   4.585  17.065 -0.3035  0.0958  0.4648
 1755SOL    HW116727   0.564   4.635  17.142 -0.4800  0.2160  0.3220
 1755SOL    HW216728   0.667   4.534  17.094  1.0661  1.4709 -0.6550
 1756SOL     OW16729   1.921   3.232   4.068  0.1101  0.2000 -0.1102
 1756SOL    HW116730   1.870   3.303   4.029  1.3202  2.9522  3.3143
 1756SOL    HW216731   1.865   3.155   4.056 -0.2042  0.5284 -0.7986
 1757SOL     OW16732   2.358   3.407   7.067  0.5087  0.0520 -0.5190
 1757SOL    HW116733   2.436   3.380   7.115 -0.2644  2.5971  2.1544
 1757SOL    HW216734   2.355   3.338   7.001 -2.9060 -0.1038 -0.1975
 1758SOL     OW16735   0.505   2.653  10.429  0.1506 -0.4735 -0.3755
 1758SOL    HW116736   0.463   2.725  10.477  1.4633  1.3782 -2.0358
 1758SOL    HW216737   0.596   2.662  10.458 -0.2095  1.7961  0.0690
 1759SOL     OW16738   0.385   3.231   2.148 -1.2804  0.7833 -0.0460
 1759SOL    HW116739   0.341   3.198   2.226  0.6423 -2.0340 -0.1509
 1759SOL    HW216740   0.311   3.236   2.087  0.0560 -2.2116 -1.9181
 1760SOL     OW16741   1.221   1.803   8.494 -0.0522  0.1594  0.1399
 1760SOL    HW116742   1.264   1.723   8.524  0.0443 -0.2211 -1.0267
 1760SOL    HW216743   1.297   1.821   8.438 -0.6313 -1.1423 -1.0449
 1761SOL     OW16744   1.314   0.751   6.119  0.7061 -0.1496 -0.5553
 1761SOL    HW116745   1.316   0.665   6.077 -0.0014 -0.5096  0.1578
 1761SOL    HW216746   1.249   0.800   6.068 -0.9890 -1.2558  0.5680
 1762SOL     OW16747   3.149   3.008   9.121 -0.0286 -0.3002  0.2725
 1762SOL    HW116748   3.217   3.075   9.114  0.2618 -0.3635  2.6138
 1762SOL    HW216749   3.066   3.053   9.131 -0.5866 -1.0944 -0.7636
 1763SOL     OW16750   2.669   2.115   9.893 -0.1392  0.5006  0.3211
 1763SOL    HW116751   2.588   2.098   9.845  0.3211  0.9471 -0.6229
 1763SOL    HW216752   2.732   2.103   9.821 -0.4830 -0.1956  0.1313
 1764SOL     OW16753   1.803   2.541   3.413  0.3580  1.3568 -0.1612
 1764SOL    HW116754   1.776   2.467   3.358 -0.0113  0.6498  0.9660
 1764SOL    HW216755   1.777   2.609   3.352  1.3586  1.2546 -0.7046
 1765SOL     OW16756   4.304   4.028  11.963  0.8974 -0.8128  0.1255
 1765SOL    HW116757   4.368   3.992  11.902  2.8162  1.9914  0.4911
 1765SOL    HW216758   4.327   4.121  11.952 -0.6901 -0.7680 -2.7028
 1766SOL     OW16759   0.255   4.638   3.976  0.0529  0.1691 -0.2996
 1766SOL    HW116760   0.188   4.678   4.032  0.2685  0.4447 -0.2381
 1766SOL    HW216761   0.296   4.720   3.948 -1.4202  1.1354  0.3735
 1767SOL     OW16762   0.407   2.040   5.575  0.2596 -0.2763  0.1027
 1767SOL    HW116763   0.436   1.983   5.646 -3.1793 -0.2514  1.5371
 1767SOL    HW216764   0.453   1.996   5.504 -1.5022 -1.3113 -0.3813
 1768SOL     OW16765   2.959   4.012   3.336 -0.2056 -0.7398 -0.1448
 1768SOL    HW116766   2.901   4.014   3.260 -0.4914 -0.5319  0.0820
 1768SOL    HW216767   3.044   4.019   3.292 -1.8023 -0.2767 -3.1126
 1769SOL     OW16768   4.119   3.414   7.144 -0.3138  0.1354 -0.0304
 1769SOL    HW116769   4.195   3.427   7.202  0.3884 -0.6993 -0.7530
 1769SOL    HW216770   4.078   3.498   7.124  2.7465  1.2149 -1.7969
 1770SOL     OW16771   3.325   2.338   3.539 -0.0681  0.3856 -0.2801
 1770SOL    HW116772   3.326   2.320   3.633  0.2033 -1.2963 -0.6046
 1770SOL    HW216773   3.322   2.433   3.535  1.0875  0.3878 -0.9544
 1771SOL     OW16774   1.677   4.171   1.229  0.7936 -0.5265  0.3227
 1771SOL    HW116775   1.730   4.091   1.229  1.3028 -0.1998 -1.6818
 1771SOL    HW216776   1.607   4.148   1.289  0.9414 -0.1626  0.6321
 1772SOL     OW16777   1.398   3.178   1.198 -0.1968 -0.3097  0.1531
 1772SOL    HW116778   1.357   3.194   1.283 -1.0626  2.3560 -0.7509
 1772SOL    HW216779   1.391   3.084   1.183 -1.7210 -0.1925  0.1393
 1773SOL     OW16780   4.056   2.432   8.378  0.1151 -1.0540  0.0875
 1773SOL    HW116781   4.071   2.417   8.285  1.6682  4.3029 -0.5302
 1773SOL    HW216782   3.961   2.437   8.380  0.1494 -0.4663  0.2280
 1774SOL     OW16783   4.632   1.559   3.741  0.0000  0.7910  0.3404
 1774SOL    HW116784   4.674   1.478   3.711  0.7593  1.1514  0.4168
 1774SOL    HW216785   4.712   1.611   3.726 -0.5598  1.1980 -1.1883
 1775SOL     OW16786   2.073   1.796   7.929  0.5436 -0.5192  0.4399
 1775SOL    HW116787   2.059   1.856   7.856 -3.9257 -0.7015  1.1329
 1775SOL    HW216788   2.033   1.840   8.004 -2.0261 -1.4077 -0.3908
 1776SOL     OW16789   3.685   2.190   8.178 -0.6874  0.2911  0.2761
 1776SOL    HW116790   3.645   2.239   8.250 -0.9108 -1.6719  1.5062
 1776SOL    HW216791   3.723   2.109   8.213 -1.4158 -0.4057 -0.5156
 1777SOL     OW16792   0.807   2.460   5.853 -0.1441  1.0205 -0.4564
 1777SOL    HW116793   0.829   2.455   5.760 -1.6265 -0.2510 -0.7363
 1777SOL    HW216794   0.754   2.540   5.853 -0.2331  0.9561  2.4645
 1778SOL     OW16795   1.260   3.885   9.613  0.5903  0.3954 -0.6531
 1778SOL    HW116796   1.179   3.835   9.622  0.4139  1.3706  3.5277
 1778SOL    HW216797   1.301   3.856   9.532 -0.5828  2.5100 -1.9897
 1779SOL     OW16798   3.128   4.404  10.582  0.3360  0.2336  0.0016
 1779SOL    HW116799   3.092   4.346  10.515 -0.7485  1.1068 -0.1731
 1779SOL    HW216800   3.203   4.437  10.532 -1.7862  1.3479 -2.4527
 1780SOL     OW16801   4.620   4.626   8.440  0.2107  0.4924 -0.2619
 1780SOL    HW116802   4.707   4.642   8.476  1.2811 -3.7809 -0.9353
 1780SOL    HW216803   4.624   4.680   8.361  2.5076  0.2967 -0.2609
 1781SOL     OW16804   1.344   2.621   7.236  0.2661 -0.1659 -0.1207
 1781SOL    HW116805   1.286   2.632   7.311 -1.1753 -0.1975 -1.2246
 1781SOL    HW216806   1.302   2.555   7.181 -1.7962  0.4529  0.7059
 1782SOL     OW16807   2.256   3.606   8.885 -0.2838 -0.0231  0.0756
 1782SOL    HW116808   2.246   3.701   8.885 -1.9029 -0.1880 -2.5578
 1782SOL    HW216809   2.273   3.590   8.792 -1.0113  0.4334 -0.1357
 1783SOL     OW16810   3.428   0.795   6.775  1.0277  0.1141  0.0647
 1783SOL    HW116811   3.337   0.826   6.765  0.6342 -1.0660  0.0561
 1783SOL    HW216812   3.432   0.804   6.870 -1.5296  1.9914  0.0257
 1784SOL     OW16813   0.110   1.208   5.870 -0.2475  0.2643  0.3503
 1784SOL    HW116814   0.072   1.168   5.792 -0.4730  0.7297  0.2238
 1784SOL    HW216815   0.162   1.134   5.901 -0.2803 -0.8275 -2.1999
 1785SOL     OW16816   4.437   3.702  17.137  0.2966 -0.0430  0.5227
 1785SOL    HW116817   4.405   3.673  17.051 -1.6120  0.9086  0.9363
 1785SOL    HW216818   4.401   3.630  17.189 -0.3571  0.1612  0.3467
 1786SOL     OW16819   2.827   1.213   6.122 -0.1510 -0.0751  0.3240
 1786SOL    HW116820   2.896   1.180   6.065  0.5453  0.7547  0.6777
 1786SOL    HW216821   2.764   1.242   6.057 -0.2956  1.5111  1.1444
 1787SOL     OW16822   4.372   2.677   1.612 -0.7269 -0.1488  0.6594
 1787SOL    HW116823   4.317   2.727   1.552  0.6897 -1.7636 -1.9963
 1787SOL    HW216824   4.432   2.618   1.566 -2.3666 -1.7726  0.6203
 1788SOL     OW16825   4.083   3.973   8.819 -0.0677  0.2603 -0.6433
 1788SOL    HW116826   4.048   4.060   8.837 -2.0491 -0.9457  1.2753
 1788SOL    HW216827   4.094   3.983   8.724 -1.1655 -1.2991 -0.9439
 1789SOL     OW16828   3.634   2.867  10.503  0.4611  0.3133  0.3322
 1789SOL    HW116829   3.649   2.798  10.567  1.1127  0.7585  0.6583
 1789SOL    HW216830   3.700   2.847  10.436 -0.1704 -2.7218  0.6295
 1790SOL     OW16831   3.037   1.794   4.870 -0.1945 -0.0759 -0.1827
 1790SOL    HW116832   3.001   1.762   4.787 -1.0366 -0.5234  0.3588
 1790SOL    HW216833   2.963   1.846   4.900  0.1397  0.6068 -0.5492
 1791SOL     OW16834   2.383   4.039   7.521 -0.4902 -0.0320  0.0639
 1791SOL    HW116835   2.323   3.968   7.501 -0.5523  0.0916 -0.1986
 1791SOL    HW216836   2.319   4.109   7.530 -0.8084  0.1682 -3.7713
 1792SOL     OW16837   3.703   1.396   6.310 -0.0770 -0.3649  0.8343
 1792SOL    HW116838   3.736   1.455   6.242  0.2044  0.2787  1.5352
 1792SOL    HW216839   3.616   1.429   6.331 -0.6190 -0.5907 -1.0359
 1793SOL     OW16840   0.655   0.047  16.559 -0.0677  0.1489  0.4305
 1793SOL    HW116841   0.606   4.691  16.534 -0.6449  0.5225  0.3964
 1793SOL    HW216842   0.739   0.015  16.524  0.5407  1.5550  0.6089
 1794SOL     OW16843   2.950   1.985  11.060  0.0436 -0.0071  0.1091
 1794SOL    HW116844   2.914   2.040  10.990 -0.9186 -0.9312 -0.1261
 1794SOL    HW216845   2.899   1.905  11.046  1.7801 -1.2450  0.8527
 1795SOL     OW16846   3.006   0.485  15.352  0.0858  0.0684 -0.1705
 1795SOL    HW116847   2.930   0.427  15.356 -0.2560  0.6146  1.2971
 1795SOL    HW216848   3.075   0.425  15.381 -1.2369 -0.9667  0.8480
 1796SOL     OW16849   4.690   2.327   1.233  0.0900 -0.3006 -0.4985
 1796SOL    HW116850   4.679   2.406   1.181 -0.5363 -0.2155 -0.2285
 1796SOL    HW216851   0.028   2.277   1.176  0.5573 -0.4005  0.0832
 1797SOL     OW16852   0.553   2.223  11.051  0.0630  0.1531 -0.5130
 1797SOL    HW116853   0.647   2.211  11.066 -0.0445  0.6371  0.4900
 1797SOL    HW216854   0.509   2.156  11.103 -0.1539  1.8968  1.5328
 1798SOL     OW16855   2.613   3.756   0.033 -0.6856 -0.3751  0.3724
 1798SOL    HW116856   2.542   3.811   0.067 -2.5508 -3.3058  1.2400
 1798SOL    HW216857   2.576   3.670   0.013 -1.3137  0.0717 -0.4101
 1799SOL     OW16858   1.144   4.263   2.499 -0.2232  0.1661 -0.2392
 1799SOL    HW116859   1.208   4.314   2.451  1.0425 -0.7788  0.4619
 1799SOL    HW216860   1.173   4.178   2.468  0.9086  1.3823 -2.5010
 1800SOL     OW16861   3.773   4.476   6.343  0.0402  0.5551 -0.5598
 1800SOL    HW116862   3.836   4.535   6.301  1.4050  2.3596  3.9625
 1800SOL    HW216863   3.782   4.402   6.283 -0.4092  0.8779 -1.0201
 1801SOL     OW16864   4.217   3.830   8.083 -0.6147 -0.3244  0.6161
 1801SOL    HW116865   4.150   3.857   8.021  0.1477  2.0082  0.8234
 1801SOL    HW216866   4.166   3.835   8.164 -0.9517 -1.2499  0.4577
 1802SOL     OW16867   1.432   1.509  13.991  0.5742 -0.1050 -0.3903
 1802SOL    HW116868   1.496   1.497  13.921  0.7217  0.3823 -0.3379
 1802SOL    HW216869   1.476   1.447  14.048 -0.0887 -1.1150 -0.9821
 1803SOL     OW16870   0.537   3.607   1.306  0.2492 -0.2859  0.2222
 1803SOL    HW116871   0.514   3.539   1.243 -0.8811  0.1396  0.1773
 1803SOL    HW216872   0.632   3.617   1.297  0.2794  0.4231  1.3262
 1804SOL     OW16873   1.134   1.220   6.750 -0.2274 -0.6521  0.0711
 1804SOL    HW116874   1.101   1.272   6.823 -1.3683 -2.6718  0.9763
 1804SOL    HW216875   1.217   1.183   6.780 -0.5008 -0.5239  0.9847
 1805SOL     OW16876   4.424   3.361   5.708 -0.1268  0.0068  0.4451
 1805SOL    HW116877   4.497   3.417   5.735  0.0392 -0.0824  0.1885
 1805SOL    HW216878   4.449   3.271   5.731 -1.4062 -0.2991  0.6438
 1806SOL     OW16879   3.864   4.011   7.016 -0.1071 -0.5866  0.5453
 1806SOL    HW116880   3.830   4.088   6.971 -1.5042 -1.5516 -0.0752
 1806SOL    HW216881   3.955   4.030   7.040  0.2680 -1.1803 -0.3781
 1807SOL     OW16882   0.935   4.078   8.629  0.1133 -0.1130 -0.0584
 1807SOL    HW116883   0.959   4.141   8.697  0.9541 -0.5351  0.0413
 1807SOL    HW216884   0.881   4.139   8.579 -0.0151 -0.3092 -0.1584
 1808SOL     OW16885   1.855   1.771   1.925 -0.0784 -0.1723 -0.1136
 1808SOL    HW116886   1.900   1.745   2.005 -0.4562 -0.4622  0.0064
 1808SOL    HW216887   1.855   1.690   1.874 -1.0831 -0.1805 -0.1131
 1809SOL     OW16888   2.604   3.271  11.278 -0.3362 -0.4405 -0.0525
 1809SOL    HW116889   2.513   3.246  11.294 -0.0910  0.1173  2.2488
 1809SOL    HW216890   2.641   3.188  11.250 -1.2091 -0.4887 -1.0654
 1810SOL     OW16891   2.972   3.928  14.526 -0.7706  0.0830 -0.7300
 1810SOL    HW116892   2.907   3.901  14.461 -1.3991 -3.0138  1.1901
 1810SOL    HW216893   3.001   3.840  14.551  1.1779  0.6124 -1.1112
 1811SOL     OW16894   2.443   2.567   2.865  0.1497 -0.4299  0.8975
 1811SOL    HW116895   2.491   2.487   2.887 -0.3496 -1.0177 -0.1341
 1811SOL    HW216896   2.477   2.591   2.779  1.4995 -0.6494  1.3711
 1812SOL     OW16897   3.083   2.226   8.582  0.2390 -0.1481 -0.1887
 1812SOL    HW116898   3.178   2.235   8.585  0.1604  0.9488 -0.9286
 1812SOL    HW216899   3.056   2.318   8.577  0.1513 -0.1673 -0.0482
 1813SOL     OW16900   2.970   1.375   5.147 -0.4741 -0.2034 -0.1009
 1813SOL    HW116901   2.985   1.386   5.053 -1.8443  0.4536 -0.2499
 1813SOL    HW216902   2.907   1.303   5.156 -1.7798  0.8240 -1.0966
 1814SOL     OW16903   1.165   4.451  14.700 -0.2772 -0.4823  0.0880
 1814SOL    HW116904   1.075   4.451  14.667  0.7718 -1.7684 -2.7215
 1814SOL    HW216905   1.211   4.412  14.626  0.4109  0.4670  0.0185
 1815SOL     OW16906   4.334   3.813  16.850 -0.0428  0.7819  0.2506
 1815SOL    HW116907   4.265   3.828  16.915 -1.2216 -1.2271 -0.5424
 1815SOL    HW216908   4.345   3.718  16.851 -0.7991  0.7073  1.4918
 1816SOL     OW16909   2.212   1.504   5.192  0.6073  0.7340  0.4759
 1816SOL    HW116910   2.227   1.514   5.286  0.0397  2.6141  0.3623
 1816SOL    HW216911   2.297   1.476   5.158  1.1007  1.7639  0.8483
 1817SOL     OW16912   2.697   1.825   6.316 -0.4655 -0.5373  0.5172
 1817SOL    HW116913   2.635   1.792   6.251 -0.7526  0.2002  0.4167
 1817SOL    HW216914   2.768   1.762   6.313  1.1881  1.4124 -0.6843
 1818SOL     OW16915   0.959   4.145  15.576  0.0565 -0.0391 -0.4701
 1818SOL    HW116916   0.928   4.062  15.611  1.1510 -0.8585 -1.4436
 1818SOL    HW216917   1.049   4.145  15.607  0.3037 -1.6048 -1.2301
 1819SOL     OW16918   3.791   4.048   8.618 -0.4084  0.1451 -0.8765
 1819SOL    HW116919   3.731   4.097   8.560  0.3862  3.8185  1.4127
 1819SOL    HW216920   3.853   4.014   8.554  2.1524 -0.2154  1.8165
 1820SOL     OW16921   2.569   4.503   8.508  0.1535 -0.0789 -0.0673
 1820SOL    HW116922   2.649   4.450   8.514  0.0028 -0.5612 -2.5198
 1820SOL    HW216923   2.519   4.463   8.438  0.0589  1.3805 -0.8281
 1821SOL     OW16924   0.225   1.857  10.702 -0.7260 -0.1102 -0.1555
 1821SOL    HW116925   0.171   1.780  10.723  1.6917 -2.1618 -1.3729
 1821SOL    HW216926   0.201   1.921  10.769 -1.4511 -1.9902  1.3945
 1822SOL     OW16927   3.799   2.132  12.823 -0.0484 -0.6509  0.5476
 1822SOL    HW116928   3.745   2.204  12.855  2.0485 -0.2069  3.1169
 1822SOL    HW216929   3.795   2.164  12.732  1.4401 -0.2216  0.6274
 1823SOL     OW16930   1.337   1.991   0.857 -0.1564  0.1019 -0.2535
 1823SOL    HW116931   1.289   1.915   0.889  1.3764 -0.7800 -0.0375
 1823SOL    HW216932   1.326   1.964   0.766  0.5208  0.8073 -0.5446
 1824SOL     OW16933   3.471   3.352   6.392 -0.0136 -0.1472 -0.4973
 1824SOL    HW116934   3.520   3.410   6.451 -0.3694  0.5870 -0.9228
 1824SOL    HW216935   3.536   3.303   6.341 -1.1578 -0.0173 -2.0718
 1825SOL     OW16936   3.394   4.524   8.918 -0.2117  0.5229 -0.0871
 1825SOL    HW116937   3.314   4.476   8.940 -0.4779  0.7865 -0.4821
 1825SOL    HW216938   3.380   4.611   8.957  2.2701 -0.0189  2.0269
 1826SOL     OW16939   2.230   2.933   4.546 -0.4525 -0.4801 -0.3544
 1826SOL    HW116940   2.150   2.962   4.503 -1.3850  0.6043  2.0685
 1826SOL    HW216941   2.298   2.990   4.512 -0.8054  0.2237  0.1117
 1827SOL     OW16942   0.591   1.940   5.750 -0.5050  0.1923  0.4351
 1827SOL    HW116943   0.619   1.851   5.771  0.2851  0.9556  2.5958
 1827SOL    HW216944   0.662   1.978   5.698 -0.9467 -1.4832 -1.3711
 1828SOL     OW16945   3.580   3.635   5.006  0.1142 -0.1258 -0.0730
 1828SOL    HW116946   3.532   3.638   5.089 -1.0508  3.6077 -0.8734
 1828SOL    HW216947   3.559   3.548   4.974  1.2790 -1.9782  4.2426
 1829SOL     OW16948   3.433   2.268   2.934 -0.1121 -0.5125  0.5647
 1829SOL    HW116949   3.342   2.245   2.919 -0.6363  0.6637  1.8755
 1829SOL    HW216950   3.419   2.324   3.011 -0.0896  0.8831 -0.4456
 1830SOL     OW16951   2.752   3.754   2.470 -0.4109  0.6897  0.4453
 1830SOL    HW116952   2.709   3.813   2.408  2.0925  0.5983 -1.4009
 1830SOL    HW216953   2.825   3.814   2.487  0.2032  0.4055 -1.2367
 1831SOL     OW16954   2.526   3.277   1.281 -0.5693 -0.2866 -0.2021
 1831SOL    HW116955   2.576   3.199   1.258 -0.5994  0.2495 -2.0678
 1831SOL    HW216956   2.437   3.255   1.256 -1.1415  3.9100 -1.8038
 1832SOL     OW16957   3.805   1.553   3.628 -0.2412  0.0092 -0.3319
 1832SOL    HW116958   3.888   1.538   3.673  0.1674  3.0964 -0.0315
 1832SOL    HW216959   3.824   1.513   3.544  3.0907 -0.8170  0.8285
 1833SOL     OW16960   0.993   0.319   6.586  0.3838 -0.2695 -0.2821
 1833SOL    HW116961   0.970   0.232   6.620  1.2930 -0.9448 -1.4052
 1833SOL    HW216962   0.979   0.300   6.493  1.5864  1.4611 -0.8150
 1834SOL     OW16963   2.382   2.129   8.275 -0.2043 -0.2044 -1.2832
 1834SOL    HW116964   2.430   2.205   8.243 -1.5044  0.6335 -1.2745
 1834SOL    HW216965   2.305   2.118   8.219  0.4163  1.4229 -2.4451
 1835SOL     OW16966   0.198   2.978   8.372  0.2953  0.0680  0.0632
 1835SOL    HW116967   0.233   2.907   8.425  1.2819 -0.5344 -1.3976
 1835SOL    HW216968   0.232   2.956   8.285  0.1813 -0.5466  0.1746
 1836SOL     OW16969   2.698   1.267   3.217 -0.5519 -0.0359  0.5164
 1836SOL    HW116970   2.724   1.321   3.292  0.3192 -0.4870  0.5374
 1836SOL    HW216971   2.737   1.180   3.225  0.4423  0.1738 -1.9815
 1837SOL     OW16972   3.484   3.789   6.048 -0.0143 -0.4123  0.5538
 1837SOL    HW116973   3.392   3.798   6.074  0.5765  0.2650  2.3737
 1837SOL    HW216974   3.475   3.694   6.040 -0.8108 -0.1482 -1.7149
 1838SOL     OW16975   4.240   1.092  11.243  0.3804  0.4284 -0.0610
 1838SOL    HW116976   4.312   1.112  11.182 -0.5749  1.2560 -0.9103
 1838SOL    HW216977   4.167   1.137  11.201 -0.3578 -1.6689 -0.9805
 1839SOL     OW16978   1.193   0.791  13.423  0.4664  0.2630 -0.5618
 1839SOL    HW116979   1.280   0.822  13.401  0.7498 -0.6047 -0.6538
 1839SOL    HW216980   1.193   0.817  13.515 -0.1147  0.4188 -0.6045
 1840SOL     OW16981   2.787   3.798   7.367 -0.0904 -0.2918  0.5166
 1840SOL    HW116982   2.701   3.839   7.366 -0.9241 -2.0630  0.2793
 1840SOL    HW216983   2.784   3.810   7.272  1.7208 -0.6105  0.4044
 1841SOL     OW16984   0.272   4.268   0.177  0.6597 -0.2391 -0.2285
 1841SOL    HW116985   0.339   4.205   0.201  1.4222 -0.0497 -1.9004
 1841SOL    HW216986   0.324   4.342   0.146  0.0325  1.0047  1.6436
 1842SOL     OW16987   1.857   4.163   5.014  0.3794  0.2871  0.5484
 1842SOL    HW116988   1.790   4.136   5.076 -0.1854  1.1811  0.3347
 1842SOL    HW216989   1.923   4.096   5.030  2.1159  2.1033  0.9320
 1843SOL     OW16990   3.980   0.727   3.517 -0.0522  0.0449 -0.1622
 1843SOL    HW116991   4.013   0.656   3.461 -0.9287 -0.1842 -0.3923
 1843SOL    HW216992   3.969   0.693   3.606  0.3519 -1.9218 -0.8523
 1844SOL     OW16993   1.760   2.238  13.787  0.0245 -0.0367  0.7763
 1844SOL    HW116994   1.790   2.150  13.811 -1.0478 -1.0704 -1.5706
 1844SOL    HW216995   1.771   2.285  13.869 -1.4129  2.6369 -0.5485
 1845SOL     OW16996   0.032   3.926   8.005  0.3080 -0.3082  0.4394
 1845SOL    HW116997   4.663   3.954   8.000  0.1034 -1.1576 -0.5926
 1845SOL    HW216998   0.023   3.831   8.008  2.3425 -0.5971 -2.9677
 1846SOL     OW16999   1.957   2.704   1.618  0.1384 -0.0160 -0.2132
 1846SOL    HW117000   1.883   2.647   1.601  0.5783 -0.5587 -0.2946
 1846SOL    HW217001   2.018   2.688   1.546 -0.1264 -1.5260 -0.0931
 1847SOL     OW17002   3.865   0.141   5.375 -0.0431  0.2905  0.1587
 1847SOL    HW117003   3.943   0.112   5.329  0.6093 -0.8679  2.0098
 1847SOL    HW217004   3.824   0.060   5.404  0.0189  0.0128 -0.5341
 1848SOL     OW17005   4.218   2.608   6.550 -0.1398  0.0619  0.2362
 1848SOL    HW117006   4.200   2.514   6.537 -1.6738  0.4972 -0.7447
 1848SOL    HW217007   4.283   2.611   6.620  1.2519  2.2833 -1.1525
 1849SOL     OW17008   0.358   0.688   4.428  0.1334  0.4184 -0.2104
 1849SOL    HW117009   0.300   0.642   4.489 -1.3404  2.3371 -0.1755
 1849SOL    HW217010   0.347   0.774   4.468  1.3920 -0.1096  1.2675
 1850SOL     OW17011   3.196   2.860   8.510 -0.0418 -0.1977 -0.3492
 1850SOL    HW117012   3.214   2.954   8.505  0.1576 -0.4467 -4.5595
 1850SOL    HW217013   3.101   2.850   8.514 -0.3018  1.6484 -1.9508
 1851SOL     OW17014   0.457   2.225   6.389 -0.4272 -0.0727  0.2793
 1851SOL    HW117015   0.457   2.304   6.443 -0.2190 -0.2002  0.4668
 1851SOL    HW217016   0.550   2.229   6.365 -0.9338 -3.2703 -2.2095
 1852SOL     OW17017   0.412   3.988   2.319 -0.6065 -0.0785 -0.2898
 1852SOL    HW117018   0.341   4.002   2.257 -1.9422 -0.0946  1.2617
 1852SOL    HW217019   0.427   3.895   2.302 -0.7539 -0.6688  2.7973
 1853SOL     OW17020   3.035   3.120   2.507 -0.0343 -0.6744  0.7899
 1853SOL    HW117021   3.077   3.117   2.422  0.0647 -2.0917  0.8855
 1853SOL    HW217022   2.949   3.155   2.483  1.8851  2.4731 -1.5014
 1854SOL     OW17023   2.804   1.730  11.113  0.0151  0.2083  0.0561
 1854SOL    HW117024   2.746   1.656  11.130  1.2457 -0.9216 -0.6024
 1854SOL    HW217025   2.889   1.690  11.095 -0.7797 -0.5732 -2.0187
 1855SOL     OW17026   1.772   0.007   3.250  0.2623 -0.0194 -0.2671
 1855SOL    HW117027   1.736   0.068   3.184 -0.1136  2.5806  2.3479
 1855SOL    HW217028   1.861   0.039   3.261  0.4284 -1.0958  1.4106
 1856SOL     OW17029   1.468   1.014   6.114 -0.8287  0.6234  0.1023
 1856SOL    HW117030   1.550   1.021   6.066 -1.5896  0.7755 -1.1844
 1856SOL    HW217031   1.460   0.919   6.128  1.3951  0.0462 -2.6188
 1857SOL     OW17032   0.024   3.877  10.593  0.2714 -0.3953 -0.2270
 1857SOL    HW117033   0.064   3.907  10.674 -1.5876 -2.2220  1.3528
 1857SOL    HW217034   0.051   3.785  10.596 -0.8174 -0.6577  1.2114
 1858SOL     OW17035   3.189   0.831   3.103 -0.7401  0.0504  0.6464
 1858SOL    HW117036   3.138   0.876   3.035 -1.1953  0.7124  1.4174
 1858SOL    HW217037   3.230   0.774   3.038  0.6633  2.8577 -0.9276
 1859SOL     OW17038   3.751   0.656  16.416  0.0718  0.1014 -0.2781
 1859SOL    HW117039   3.816   0.683  16.481 -2.0904  1.7316  1.2416
 1859SOL    HW217040   3.795   0.687  16.337  0.1709  0.4661 -0.0784
 1860SOL     OW17041   0.013   3.753   4.042  0.5759  0.1935 -0.1366
 1860SOL    HW117042   4.661   3.742   4.102  0.6345  0.9584  0.0720
 1860SOL    HW217043   0.030   3.846   4.057  0.7741  0.4478 -1.9236
 1861SOL     OW17044   4.450   0.128   6.806 -0.0814  0.0777  0.2883
 1861SOL    HW117045   4.415   0.152   6.892 -1.6419  1.3515 -0.6988
 1861SOL    HW217046   4.475   0.036   6.815 -0.2706 -0.2074 -2.0289
 1862SOL     OW17047   4.538   1.435   5.580 -0.0463 -0.3787 -0.1750
 1862SOL    HW117048   4.501   1.446   5.493 -0.3337  0.3723  0.0423
 1862SOL    HW217049   4.597   1.510   5.589 -2.2327  1.1601  1.4347
 1863SOL     OW17050   3.176   4.117   7.812  0.2489  0.6107  0.0895
 1863SOL    HW117051   3.165   4.172   7.890 -0.1065  0.7048 -0.0287
 1863SOL    HW217052   3.097   4.063   7.816  0.3026  0.4967 -0.4563
 1864SOL     OW17053   3.511   2.167   1.001  0.1021  0.4675 -0.2232
 1864SOL    HW117054   3.587   2.141   0.948 -0.9646 -1.7433 -0.7048
 1864SOL    HW217055   3.500   2.083   1.047  0.3322 -0.7533 -2.3887
 1865SOL     OW17056   0.465   2.864   0.178 -0.2696  0.9328 -0.2713
 1865SOL    HW117057   0.463   2.899   0.267 -0.4731  0.0200  0.0938
 1865SOL    HW217058   0.545   2.904   0.144 -0.3804 -0.5211 -2.2497
 1866SOL     OW17059   1.279   3.652   8.704  0.2994 -0.4779  0.0547
 1866SOL    HW117060   1.188   3.666   8.732 -0.5386 -3.1537 -1.3864
 1866SOL    HW217061   1.267   3.571   8.654 -0.5844  0.6651 -1.5865
 1867SOL     OW17062   1.200   4.078   7.550  0.2641  0.7617 -0.0751
 1867SOL    HW117063   1.142   4.066   7.475 -2.5047 -0.5249  2.2485
 1867SOL    HW217064   1.268   4.133   7.512  1.0545 -0.2645 -0.1371
 1868SOL     OW17065   0.345   3.682   7.518 -0.1117  0.1121  0.4917
 1868SOL    HW117066   0.320   3.772   7.501 -0.9990 -0.2620 -0.1810
 1868SOL    HW217067   0.284   3.661   7.588 -1.0225 -0.0297 -0.3427
 1869SOL     OW17068   1.086   3.362   2.893 -0.2465  0.2009 -0.0829
 1869SOL    HW117069   1.159   3.393   2.839  1.5411  0.0663  2.2718
 1869SOL    HW217070   1.112   3.271   2.910  1.5647  1.2273  2.6196
 1870SOL     OW17071   0.579   1.116   4.374  0.1517 -0.5669  0.0332
 1870SOL    HW117072   0.602   1.023   4.377  0.2624 -0.5200  0.6484
 1870SOL    HW217073   0.485   1.116   4.392  0.0988 -2.6936 -0.2518
 1871SOL     OW17074   2.521   1.047  14.948 -0.0025  0.1155  0.2289
 1871SOL    HW117075   2.433   1.011  14.957 -0.5568  1.3772 -0.0610
 1871SOL    HW217076   2.545   0.984  14.881  3.3343  0.9130  0.6848
 1872SOL     OW17077   2.588   2.775   1.902 -0.2128  0.0494  0.3419
 1872SOL    HW117078   2.541   2.827   1.836  0.6897  1.9376  1.2167
 1872SOL    HW217079   2.674   2.808   1.877 -0.1949  0.3818  0.8506
 1873SOL     OW17080   3.788   1.692  11.254  0.0989 -0.0139  0.6763
 1873SOL    HW117081   3.764   1.616  11.202 -0.5822  1.5115 -1.2293
 1873SOL    HW217082   3.726   1.750  11.210  0.1039 -1.2850 -0.9913
 1874SOL     OW17083   1.472   4.234   5.331  0.3525  0.0730 -0.0160
 1874SOL    HW117084   1.509   4.323   5.327 -1.9304  1.0263  0.1858
 1874SOL    HW217085   1.500   4.203   5.418 -0.2647  1.7879  0.7930
 1875SOL     OW17086   4.137   3.844  17.057  0.7717  1.0198  0.9541
 1875SOL    HW117087   4.059   3.844  17.000  1.7550  2.7271 -0.3851
 1875SOL    HW217088   4.126   3.921  17.112  1.8484  0.2260  2.2605
 1876SOL     OW17089   0.542   2.258  15.918 -0.5939  0.4227 -0.0010
 1876SOL    HW117090   0.612   2.203  15.884 -2.5044 -2.0000 -0.0136
 1876SOL    HW217091   0.588   2.342  15.922  3.1038 -1.6241  0.7200
 1877SOL     OW17092   4.034   1.413  13.700 -0.0527  0.1459  0.0498
 1877SOL    HW117093   3.969   1.481  13.680 -0.4132 -0.7697 -1.9036
 1877SOL    HW217094   4.088   1.415  13.621 -0.5867 -0.5478 -0.3305
 1878SOL     OW17095   4.154   4.536  11.887  0.1247  0.1493  0.1325
 1878SOL    HW117096   4.139   4.594  11.962  0.8789 -0.1950  0.5477
 1878SOL    HW217097   4.080   4.477  11.895 -0.2399  0.3218 -2.0129
 1879SOL     OW17098   2.297   4.575   4.172 -0.0463  0.7213  0.4957
 1879SOL    HW117099   2.375   4.595   4.223 -0.0299 -1.6588  1.3631
 1879SOL    HW217100   2.320   4.619   4.089  0.8967  1.9356  1.3940
 1880SOL     OW17101   2.568   0.655   7.310  0.3882 -0.1271 -0.1383
 1880SOL    HW117102   2.579   0.706   7.230  2.0291 -1.9204 -1.0808
 1880SOL    HW217103   2.659   0.625   7.314  0.5209  0.3919  0.6091
 1881SOL     OW17104   0.674   2.270  11.997  0.2632 -0.0053  0.1835
 1881SOL    HW117105   0.748   2.219  11.963  0.0345  0.6796 -1.3824
 1881SOL    HW217106   0.633   2.210  12.059 -0.4759  1.3630  1.0247
 1882SOL     OW17107   3.495   0.885  15.818  0.9378 -0.1117  0.9926
 1882SOL    HW117108   3.551   0.889  15.741 -0.4139 -0.5911 -0.0060
 1882SOL    HW217109   3.430   0.820  15.793 -1.1072  2.4469 -0.4159
 1883SOL     OW17110   0.785   4.669   6.461  0.2127  0.1267 -0.5373
 1883SOL    HW117111   0.770   0.014   6.528  0.1428  0.3090 -0.7344
 1883SOL    HW217112   0.848   4.714   6.404 -0.7654  0.2474 -1.5079
 1884SOL     OW17113   2.388   4.481   2.251  0.5342  0.7123 -0.1591
 1884SOL    HW117114   2.399   4.531   2.171 -1.0159  3.4201  1.3371
 1884SOL    HW217115   2.311   4.431   2.225  0.4709  0.1691  1.0540
 1885SOL     OW17116   0.063   4.448   9.351  0.4659 -0.0564  0.4906
 1885SOL    HW117117   0.145   4.475   9.309 -0.1665  0.3733 -0.4785
 1885SOL    HW217118   0.066   4.502   9.430  1.8383  1.4583 -0.5859
 1886SOL     OW17119   0.260   1.316   5.003 -0.6549 -0.4840 -0.6585
 1886SOL    HW117120   0.275   1.390   4.945 -4.4182 -1.3166 -2.6802
 1886SOL    HW217121   0.261   1.343   5.095  1.6059 -3.7743  0.3202
 1887SOL     OW17122   0.780   0.295   2.990  0.0628 -0.0837 -0.2024
 1887SOL    HW117123   0.831   0.246   3.055 -1.2023  1.9732  2.3724
 1887SOL    HW217124   0.788   0.239   2.913  0.6970 -1.3392  0.7906
 1888SOL     OW17125   0.941   2.705   1.289 -0.0836 -0.9808  0.2185
 1888SOL    HW117126   0.888   2.680   1.365  0.0397  0.2861  0.7237
 1888SOL    HW217127   0.914   2.638   1.227  1.5172  0.4928 -2.0608
 1889SOL     OW17128   0.026   1.671   8.247  0.0809 -0.3282 -0.0446
 1889SOL    HW117129   0.005   1.762   8.228  0.8833  0.1385  1.3835
 1889SOL    HW217130   4.676   1.652   8.308 -1.1992  1.2165 -1.0679
 1890SOL     OW17131   4.378   1.357   1.718 -0.4767  0.5328  0.4141
 1890SOL    HW117132   4.371   1.274   1.670 -2.3532  0.5094  0.7199
 1890SOL    HW217133   4.344   1.425   1.659  1.9459  2.1163  0.8714
 1891SOL     OW17134   0.640   4.114  15.693 -0.9713 -0.8307  0.4158
 1891SOL    HW117135   0.713   4.171  15.718 -1.4318 -0.6216  1.2836
 1891SOL    HW217136   0.621   4.078  15.780 -0.7031 -2.2309 -0.1071
 1892SOL     OW17137   4.524   0.249  10.650  0.5082 -0.3984  0.3386
 1892SOL    HW117138   4.489   0.295  10.726  2.7993 -0.7055  1.5818
 1892SOL    HW217139   4.522   0.158  10.682 -1.0838 -0.9018 -1.1794
 1893SOL     OW17140   2.321   1.241   0.725  0.0972 -0.0669  0.7566
 1893SOL    HW117141   2.299   1.149   0.710 -1.3363  0.2422  0.9615
 1893SOL    HW217142   2.349   1.224   0.815 -0.1395 -0.8800  0.6779
 1894SOL     OW17143   2.272   1.685   7.567 -0.0636 -0.1519  0.0407
 1894SOL    HW117144   2.192   1.723   7.532 -0.4418 -0.3609  0.6897
 1894SOL    HW217145   2.268   1.601   7.522 -2.2480  0.8633 -1.6066
 1895SOL     OW17146   3.372   4.466   3.230  0.5468  0.4818  0.0650
 1895SOL    HW117147   3.363   4.408   3.155 -1.3925  0.0976  0.5937
 1895SOL    HW217148   3.439   4.426   3.285 -0.9266 -0.9256  0.8506
 1896SOL     OW17149   4.558   0.779  11.544  0.5101 -0.1297 -0.0419
 1896SOL    HW117150   4.515   0.805  11.626  1.2687  0.2112  0.2491
 1896SOL    HW217151   4.601   0.863  11.528  0.7196 -0.1100  0.6357
 1897SOL     OW17152   3.235   0.888   0.687 -0.4299  0.1106  0.4125
 1897SOL    HW117153   3.164   0.947   0.713 -0.4493 -0.7619  2.3459
 1897SOL    HW217154   3.198   0.852   0.606  0.0557  1.2540 -0.3128
 1898SOL     OW17155   1.113   3.369   4.203 -0.1738 -1.1025 -0.4729
 1898SOL    HW117156   1.024   3.342   4.180 -0.5189  1.2711 -1.9499
 1898SOL    HW217157   1.094   3.460   4.224  2.3398 -1.1410  1.9142
 1899SOL     OW17158   2.453   1.405   3.280 -0.3994  0.0116  0.5610
 1899SOL    HW117159   2.468   1.477   3.219 -1.0311  0.6609  1.1781
 1899SOL    HW217160   2.501   1.341   3.228 -3.2051 -2.1990  0.7063
 1900SOL     OW17161   2.881   1.306  16.068 -0.1811  0.4199  0.2666
 1900SOL    HW117162   2.972   1.319  16.095 -1.4900  2.9100  3.4424
 1900SOL    HW217163   2.872   1.380  16.007  2.0903  0.6981  0.2429
 1901SOL     OW17164   0.691   0.956  14.860  0.1027 -0.3056 -0.2926
 1901SOL    HW117165   0.746   0.959  14.939 -1.7082  1.1243  0.9111
 1901SOL    HW217166   0.645   0.874  14.878  0.9096 -0.8781 -0.8708
 1902SOL     OW17167   0.930   1.018   5.192  0.9515  0.0229 -0.0953
 1902SOL    HW117168   0.880   1.065   5.259  0.3576 -2.2035  1.0370
 1902SOL    HW217169   0.882   1.029   5.110 -1.9201 -1.2899  1.3781
 1903SOL     OW17170   1.161   0.031  17.628 -0.1764 -0.0416 -0.7056
 1903SOL    HW117171   1.225   4.685  17.606 -0.6907 -0.6570 -0.3135
 1903SOL    HW217172   1.095   4.691  17.661  0.9687 -1.5922 -1.2575
 1904SOL     OW17173   2.969   4.476  14.355 -0.1753  0.3202 -0.1269
 1904SOL    HW117174   2.879   4.474  14.321 -0.5998 -0.0134  1.0172
 1904SOL    HW217175   3.002   4.392  14.323  0.0529  0.5016 -0.3689
 1905SOL     OW17176   0.953   3.545  10.831  0.1491  0.3893 -0.4990
 1905SOL    HW117177   0.867   3.543  10.789 -0.5355  0.5500  0.8906
 1905SOL    HW217178   1.007   3.591  10.766  0.9639  0.8132  0.4791
 1906SOL     OW17179   3.129   1.179  16.775  0.3076  0.0374  0.2334
 1906SOL    HW117180   3.183   1.211  16.848  2.2412 -0.9354 -0.7735
 1906SOL    HW217181   3.039   1.199  16.801  0.1684 -0.9852  0.5086
 1907SOL     OW17182   0.366   3.070   2.450  0.9832  1.1885  0.0298
 1907SOL    HW117183   0.447   3.115   2.474  1.1055  0.3217  1.2672
 1907SOL    HW217184   0.400   3.011   2.382  0.6986 -2.3790  2.9839
 1908SOL     OW17185   0.510   2.917   9.505  0.4903 -0.3315 -0.4275
 1908SOL    HW117186   0.449   2.844   9.505  1.6498 -1.3084 -1.5146
 1908SOL    HW217187   0.546   2.920   9.594  2.1822  0.5569 -1.1385
 1909SOL     OW17188   4.308   2.105   3.226  0.9134 -0.4461 -0.4990
 1909SOL    HW117189   4.285   2.114   3.318 -0.4418  0.9618 -0.9681
 1909SOL    HW217190   4.368   2.177   3.206 -1.8054  2.6805  2.5423
 1910SOL     OW17191   0.823   0.797  12.321  0.1567 -0.1661  0.8691
 1910SOL    HW117192   0.810   0.852  12.243 -1.5472 -0.8207  0.6958
 1910SOL    HW217193   0.738   0.802  12.363 -0.5961 -2.3374 -0.3669
 1911SOL     OW17194   4.052   3.305   6.171 -0.3540  0.1476  0.3637
 1911SOL    HW117195   3.991   3.244   6.213 -1.5054  1.0977  0.0364
 1911SOL    HW217196   4.032   3.297   6.078 -0.9809  3.5704  0.2273
 1912SOL     OW17197   2.050   2.160  13.902  0.5171 -0.1684  0.5090
 1912SOL    HW117198   1.980   2.188  13.961  1.1530  0.0639  1.1659
 1912SOL    HW217199   2.115   2.182  13.969 -0.4301 -0.2055  1.4429
 1913SOL     OW17200   0.093   4.054   4.680  0.2327  0.9313  0.3129
 1913SOL    HW117201   0.006   4.087   4.700  0.3010  2.1589 -1.4827
 1913SOL    HW217202   0.094   4.068   4.586 -1.3274  0.6617  0.2633
 1914SOL     OW17203   1.651   2.293   2.913 -0.1809  0.4813  0.2525
 1914SOL    HW117204   1.622   2.369   2.862 -0.0246  1.3172  1.4179
 1914SOL    HW217205   1.733   2.280   2.865  0.7990  0.3390  1.9587
 1915SOL     OW17206   4.395   2.498  10.800 -0.1904 -0.8880 -0.6734
 1915SOL    HW117207   4.299   2.496  10.798 -0.1898 -1.8345  0.5249
 1915SOL    HW217208   4.405   2.477  10.707 -0.2277 -0.0466 -0.8740
 1916SOL     OW17209   4.122   3.532  14.104 -0.0163 -0.2732 -0.5573
 1916SOL    HW117210   4.098   3.464  14.167  2.5461 -0.5152  0.1615
 1916SOL    HW217211   4.121   3.488  14.019  1.6555 -0.5735 -0.4247
 1917SOL     OW17212   4.002   0.205  17.616 -0.1695 -0.4251  0.1885
 1917SOL    HW117213   3.982   0.139  17.550  0.4600 -2.2972  1.8905
 1917SOL    HW217214   3.919   0.253  17.606  0.9220  1.2300 -1.0211
 1918SOL     OW17215   4.191   1.429   1.156 -0.3077 -0.0908 -0.5746
 1918SOL    HW117216   4.278   1.466   1.140  0.2054 -0.8545  0.4182
 1918SOL    HW217217   4.141   1.507   1.180 -1.9634 -1.8850  1.7799
 1919SOL     OW17218   1.223   2.465   6.172  0.0764  0.4633 -0.9544
 1919SOL    HW117219   1.201   2.422   6.090 -1.0587  1.0288 -0.9537
 1919SOL    HW217220   1.207   2.556   6.147 -2.5475  0.6483  1.3033
 1920SOL     OW17221   0.527   2.148   4.016  0.6608  0.0467  0.4645
 1920SOL    HW117222   0.495   2.083   3.954 -0.2668  1.9400 -1.0733
 1920SOL    HW217223   0.454   2.139   4.077  0.5372  0.6052  0.4038
 1921SOL     OW17224   4.133   2.828   1.479 -0.5987 -0.1829  0.3012
 1921SOL    HW117225   4.148   2.899   1.542 -0.5960 -2.2997  2.7105
 1921SOL    HW217226   4.037   2.834   1.484 -0.6294 -0.7685  0.4942
 1922SOL     OW17227   3.321   1.943   6.981 -0.1644 -0.5672  0.0399
 1922SOL    HW117228   3.357   1.888   7.050 -1.7176  0.3950  1.6153
 1922SOL    HW217229   3.341   2.024   7.027  0.0158 -0.6058  0.0311
 1923SOL     OW17230   0.612   1.295   8.528 -0.3729 -0.5256 -0.3591
 1923SOL    HW117231   0.577   1.322   8.444 -0.4979  0.2102 -0.0704
 1923SOL    HW217232   0.678   1.229   8.506  0.9144  0.8431 -0.5307
 1924SOL     OW17233   1.213   3.519  16.265 -0.8593  0.8381  0.1082
 1924SOL    HW117234   1.239   3.537  16.175 -1.0211 -0.0403 -0.1064
 1924SOL    HW217235   1.229   3.604  16.307 -1.4040  0.3256  1.3521
 1925SOL     OW17236   2.107   2.836   0.237 -0.0363  0.2613  0.2454
 1925SOL    HW117237   2.151   2.851   0.153 -0.8593 -2.0170 -0.6094
 1925SOL    HW217238   2.143   2.911   0.284 -0.7957  0.5661  0.3265
 1926SOL     OW17239   3.637   1.889   5.851 -0.1802  0.2415  0.0022
 1926SOL    HW117240   3.594   1.847   5.777 -0.0290  1.3649 -0.7235
 1926SOL    HW217241   3.564   1.948   5.869  0.8218  0.5133  3.1219
 1927SOL     OW17242   3.487   4.526   8.034  0.0993 -0.3038  0.0091
 1927SOL    HW117243   3.521   4.599   7.981  1.2946 -0.6646  0.2664
 1927SOL    HW217244   3.455   4.557   8.118  2.0592  1.3605  0.1463
 1928SOL     OW17245   2.054   1.178  15.243 -0.3884 -0.1799 -0.2340
 1928SOL    HW117246   2.081   1.203  15.154 -0.8559 -0.6945 -0.5206
 1928SOL    HW217247   2.027   1.087  15.236  2.0544 -0.9951  1.1895
 1929SOL     OW17248   2.210   3.168  12.913 -0.4028  0.3486 -0.4817
 1929SOL    HW117249   2.150   3.095  12.928 -0.1974  0.1698 -0.5208
 1929SOL    HW217250   2.292   3.121  12.932 -0.0689  0.9565 -0.4160
 1930SOL     OW17251   1.694   1.137   8.098 -0.0869  0.1785  0.4104
 1930SOL    HW117252   1.764   1.161   8.037 -0.4353 -1.5209 -0.6657
 1930SOL    HW217253   1.726   1.054   8.133 -0.1799  0.5649  1.4230
 1931SOL     OW17254   2.261   4.078  17.341 -0.2655  0.7801  0.1990
 1931SOL    HW117255   2.281   3.989  17.370  0.8226  1.0172  0.1950
 1931SOL    HW217256   2.300   4.134  17.407  0.8741 -0.6978  0.7721
 1932SOL     OW17257   2.005   2.741   7.174 -0.3993 -0.4792 -0.5221
 1932SOL    HW117258   2.097   2.727   7.153 -0.2657 -0.1676 -0.1543
 1932SOL    HW217259   2.012   2.769   7.266  0.0529 -0.9103 -0.4232
 1933SOL     OW17260   1.902   3.367   5.884 -0.0431  0.1679 -0.0735
 1933SOL    HW117261   1.873   3.314   5.959 -1.5350 -0.3791 -1.0412
 1933SOL    HW217262   1.991   3.393   5.907 -0.7792  0.5888  2.2799
 1934SOL     OW17263   1.088   2.940  11.690 -0.4784 -0.2933 -0.2514
 1934SOL    HW117264   1.046   2.880  11.628 -0.8984  0.1478 -0.3936
 1934SOL    HW217265   1.064   2.891  11.768 -2.4245 -0.0739 -0.6911
 1935SOL     OW17266   1.806   1.224   6.696 -0.3097  0.0522 -0.0487
 1935SOL    HW117267   1.888   1.190   6.658 -0.0160  1.6758 -0.8848
 1935SOL    HW217268   1.797   1.309   6.653  1.0361  1.4133  2.4035
 1936SOL     OW17269   3.447   0.853   0.864 -0.4509 -0.0740 -0.0042
 1936SOL    HW117270   3.497   0.935   0.863  0.7325 -0.8252 -1.3513
 1936SOL    HW217271   3.368   0.870   0.811 -1.1844 -1.4143  0.6783
 1937SOL     OW17272   0.437   4.660   8.919 -0.2725  0.1162  0.4455
 1937SOL    HW117273   0.487   4.625   8.993  2.2970  0.4499 -1.1554
 1937SOL    HW217274   0.406   0.028   8.930 -0.8337 -0.1860  1.3304
 1938SOL     OW17275   0.573   2.278   3.301 -0.3544  0.1679  0.2218
 1938SOL    HW117276   0.628   2.239   3.233 -2.0568 -1.2396 -0.3513
 1938SOL    HW217277   0.616   2.252   3.382 -0.4602 -2.3395 -0.5469
 1939SOL     OW17278   0.688   2.570   7.021 -0.1674 -0.4594  1.0035
 1939SOL    HW117279   0.751   2.505   7.052  1.4868  0.2044 -0.9238
 1939SOL    HW217280   0.614   2.540   7.073  0.1319  1.0669  2.3172
 1940SOL     OW17281   4.043   2.579   1.671 -0.2993 -0.6494 -0.1989
 1940SOL    HW117282   4.079   2.583   1.760  1.8528  2.3042 -1.1844
 1940SOL    HW217283   4.098   2.509   1.637  0.2888 -0.6248  0.7077
 1941SOL     OW17284   4.219   2.091   8.603 -0.1723  0.8477  0.0880
 1941SOL    HW117285   4.254   2.171   8.644  2.0758 -0.4225  0.6611
 1941SOL    HW217286   4.127   2.108   8.583  0.6541  3.3958 -1.6167
 1942SOL     OW17287   1.740   4.582   7.533  0.8049  0.4257  0.0922
 1942SOL    HW117288   1.722   4.654   7.594  1.5325  0.6315  0.0657
 1942SOL    HW217289   1.734   4.514   7.601 -1.6856  0.0952 -0.4456
 1943SOL     OW17290   2.229   1.336  15.994 -0.1553  0.3172  0.4298
 1943SOL    HW117291   2.312   1.378  15.972 -0.7236  0.6787 -1.0432
 1943SOL    HW217292   2.183   1.335  15.910  0.7851  0.1324 -0.0828
 1944SOL     OW17293   2.665   2.967   0.939  0.1449 -0.0494  0.0591
 1944SOL    HW117294   2.682   2.959   0.845 -1.8514 -2.8096 -0.0819
 1944SOL    HW217295   2.570   2.952   0.947  0.3684 -1.4795  0.0022
 1945SOL     OW17296   2.755   2.529  12.562 -0.6382  0.1008  0.2824
 1945SOL    HW117297   2.751   2.444  12.519 -1.1772  0.6034 -0.6517
 1945SOL    HW217298   2.715   2.516  12.648 -0.5024  2.2625  0.6715
 1946SOL     OW17299   1.203   4.422   2.887 -0.2210  0.3924  0.0497
 1946SOL    HW117300   1.268   4.486   2.860  0.0021  0.1079 -0.0784
 1946SOL    HW217301   1.115   4.460   2.894 -0.6548 -0.2332 -2.0405
 1947SOL     OW17302   2.038   3.990   7.110  0.1307  0.1677  0.8294
 1947SOL    HW117303   1.967   3.979   7.174 -1.6113 -0.1423 -1.1739
 1947SOL    HW217304   2.027   4.080   7.081  1.4912 -0.7856 -2.6659
 1948SOL     OW17305   0.574   1.184   5.592  0.1677  0.5353  0.1525
 1948SOL    HW117306   0.534   1.192   5.679  0.3809  0.7419  0.2308
 1948SOL    HW217307   0.496   1.171   5.538  0.8344 -2.0464 -0.2108
 1949SOL     OW17308   4.098   1.821   4.282 -0.5561  0.0509  0.0028
 1949SOL    HW117309   4.017   1.870   4.290 -1.1375 -0.5196 -2.6625
 1949SOL    HW217310   4.131   1.840   4.194 -1.2086  2.3823  0.2725
 1950SOL     OW17311   2.737   0.476  13.410 -0.2204 -0.7557 -0.3070
 1950SOL    HW117312   2.792   0.430  13.347 -0.7425 -0.2785 -1.1030
 1950SOL    HW217313   2.702   0.541  13.349  2.0238  0.8448  0.1064
 1951SOL     OW17314   3.463   0.631   3.583  0.7565  0.1666  0.0823
 1951SOL    HW117315   3.433   0.694   3.517 -0.2863 -0.7032 -0.2618
 1951SOL    HW217316   3.419   0.653   3.665  0.2288 -1.8852  0.3258
 1952SOL     OW17317   2.240   0.705   6.644  0.4691 -0.0910 -0.2972
 1952SOL    HW117318   2.306   0.671   6.584 -1.1744  0.2631 -2.2959
 1952SOL    HW217319   2.273   0.654   6.718 -0.3634  2.3010  1.7370
 1953SOL     OW17320   1.327   1.374   4.381 -0.5035  0.0884  0.2957
 1953SOL    HW117321   1.238   1.409   4.389 -0.3471  0.7137 -0.7103
 1953SOL    HW217322   1.316   1.333   4.296 -2.2044 -0.4297  0.7747
 1954SOL     OW17323   3.487   3.942   8.958 -0.4678 -0.7416 -0.6097
 1954SOL    HW117324   3.571   3.950   8.912 -1.1904 -0.9537 -1.9781
 1954SOL    HW217325   3.423   3.989   8.904  1.1256  0.5421 -1.4034
 1955SOL     OW17326   3.399   0.935   7.027 -0.1170  0.4947  0.2652
 1955SOL    HW117327   3.362   1.010   6.979  0.1759  0.6679  0.3132
 1955SOL    HW217328   3.359   0.943   7.113  0.8899 -1.2811  0.8952
 1956SOL     OW17329   3.874   2.104   7.260 -0.0518  0.0004  0.1135
 1956SOL    HW117330   3.829   2.185   7.285  0.7707  0.3857  0.3539
 1956SOL    HW217331   3.804   2.060   7.213  1.0642 -1.8356  0.1908
 1957SOL     OW17332   3.040   2.719   6.398  0.6459 -0.0192 -0.6211
 1957SOL    HW117333   3.130   2.699   6.423  0.9787  1.8370 -0.3610
 1957SOL    HW217334   3.026   2.646   6.338  0.3034 -0.6953  0.2756
 1958SOL     OW17335   4.044   0.418   0.918 -0.0900 -0.3147 -0.6292
 1958SOL    HW117336   4.048   0.322   0.914 -1.0450 -0.3584 -0.4500
 1958SOL    HW217337   3.994   0.450   0.843 -0.8760 -1.3456 -0.5464
 1959SOL     OW17338   3.573   4.193   4.761 -0.1500  0.0291 -0.0196
 1959SOL    HW117339   3.662   4.214   4.730 -0.5796  2.1637  0.1883
 1959SOL    HW217340   3.588   4.102   4.785  0.3856 -0.6724 -2.9818
 1960SOL     OW17341   1.567   2.334  13.624 -0.5553 -0.6531  0.4859
 1960SOL    HW117342   1.507   2.264  13.648 -0.1581 -0.4775  2.0095
 1960SOL    HW217343   1.652   2.313  13.662 -0.1722  1.6062  0.9263
 1961SOL     OW17344   1.287   0.478   7.393  0.0167 -0.4279  0.4449
 1961SOL    HW117345   1.361   0.539   7.396 -0.1896 -0.2360  1.6796
 1961SOL    HW217346   1.274   0.455   7.301  1.3500 -0.5955  0.3042
 1962SOL     OW17347   3.806   4.708   2.625 -0.1767 -0.1431 -0.0262
 1962SOL    HW117348   3.893   0.020   2.647 -0.0993  0.6277 -1.5426
 1962SOL    HW217349   3.753   0.065   2.631  1.3111  1.1092 -3.1319
 1963SOL     OW17350   4.019   0.862  11.227  0.5606 -0.2203  0.6490
 1963SOL    HW117351   4.061   0.788  11.183  1.7209  1.0679 -0.4153
 1963SOL    HW217352   4.052   0.933  11.172  2.0745  0.1447  2.0223
 1964SOL     OW17353   3.054   4.391  10.051  0.0119  0.8449 -0.1351
 1964SOL    HW117354   2.991   4.407   9.980  0.1915 -1.2488 -0.7408
 1964SOL    HW217355   3.073   4.299  10.036  0.9195  1.0498 -0.2534
 1965SOL     OW17356   1.321   2.431   5.754  0.0765  0.1498 -0.4314
 1965SOL    HW117357   1.318   2.502   5.691  2.3857  1.5011  0.9742
 1965SOL    HW217358   1.405   2.458   5.790  0.9816 -1.8535 -1.0698
 1966SOL     OW17359   4.452   0.800   4.279  0.0534 -0.5067 -0.9670
 1966SOL    HW117360   4.533   0.750   4.265 -0.4862 -1.9709  1.1308
 1966SOL    HW217361   4.470   0.857   4.354  3.4300  0.8024 -2.7612
 1967SOL     OW17362   0.538   0.357   7.079  0.0856  0.2569 -0.1789
 1967SOL    HW117363   0.602   0.424   7.103  0.1138  0.0071  0.4522
 1967SOL    HW217364   0.468   0.410   7.041 -0.5284 -0.2566  0.2382
 1968SOL     OW17365   3.150   3.483   4.984 -0.9404  0.0430 -0.0433
 1968SOL    HW117366   3.184   3.566   4.952 -0.8464 -0.0866 -0.2824
 1968SOL    HW217367   3.187   3.422   4.921  0.4888  0.6251  0.2462
 1969SOL     OW17368   2.938   3.357   3.983  0.3056  0.3261  0.3688
 1969SOL    HW117369   2.919   3.334   3.892 -1.2778  0.1122  0.7566
 1969SOL    HW217370   2.850   3.353   4.021 -0.7358 -2.7828 -2.3742
 1970SOL     OW17371   4.548   4.178   3.535  0.1289  0.1186  0.3375
 1970SOL    HW117372   4.469   4.126   3.539 -0.4346  1.0322  1.2250
 1970SOL    HW217373   4.626   4.124   3.547 -1.0125 -1.4293  0.7539
 1971SOL     OW17374   4.657   0.089   0.905 -0.4318 -0.0113 -0.0452
 1971SOL    HW117375   4.643   0.147   0.830 -0.2280 -0.9387 -0.8040
 1971SOL    HW217376   4.611   0.130   0.978 -1.3940  0.7937 -1.0995
 1972SOL     OW17377   2.876   0.243   4.825 -0.4654 -0.0476  0.1558
 1972SOL    HW117378   2.843   0.320   4.872  0.2728  0.6496 -0.4745
 1972SOL    HW217379   2.841   0.168   4.873  0.2665  0.0604  0.8764
 1973SOL     OW17380   3.264   2.361   5.589  0.3381  1.0351  0.1617
 1973SOL    HW117381   3.251   2.269   5.567  1.1440  0.5605  1.6862
 1973SOL    HW217382   3.351   2.375   5.552  1.3221 -1.4102  1.5479
 1974SOL     OW17383   2.737   2.114   7.814 -0.3458 -0.0513 -0.3882
 1974SOL    HW117384   2.656   2.069   7.789 -0.4754 -0.0710  0.0666
 1974SOL    HW217385   2.792   2.037   7.805  0.2925  0.4845 -1.0711
 1975SOL     OW17386   1.089   1.141  13.456 -0.3223 -0.4424  0.1578
 1975SOL    HW117387   1.135   1.179  13.381  1.4354  0.0026  1.4648
 1975SOL    HW217388   1.116   1.189  13.534  1.3657 -2.9465  1.1288
 1976SOL     OW17389   3.877   1.782  17.535  0.4304 -0.2207 -0.3231
 1976SOL    HW117390   3.904   1.741  17.618  0.4839 -0.1012 -0.2811
 1976SOL    HW217391   3.796   1.823  17.566  1.6771  2.3315 -0.4529
 1977SOL     OW17392   3.334   3.970   5.376  1.1209  0.1419 -0.6255
 1977SOL    HW117393   3.301   3.955   5.287  1.0468 -0.3904 -0.5075
 1977SOL    HW217394   3.299   3.893   5.421  0.2988  0.3861 -0.8432
 1978SOL     OW17395   1.663   0.258   4.673  0.1084  0.3340  0.1146
 1978SOL    HW117396   1.695   0.190   4.614  1.5060 -0.5029  1.8814
 1978SOL    HW217397   1.576   0.268   4.633 -0.6609  1.8628  2.1651
 1979SOL     OW17398   4.235   2.977   6.083 -0.3095  0.2384  0.2361
 1979SOL    HW117399   4.266   2.891   6.056 -1.5830 -0.0421 -0.3247
 1979SOL    HW217400   4.248   2.982   6.178  2.6531 -0.5539 -0.1289
 1980SOL     OW17401   3.759   1.234   6.518 -0.0192 -0.0658  0.4654
 1980SOL    HW117402   3.821   1.167   6.490  1.1127  1.3849 -0.4674
 1980SOL    HW217403   3.737   1.272   6.433  1.1441 -2.5630 -0.9427
 1981SOL     OW17404   2.767   3.346   6.436  0.7837  0.4425  0.1207
 1981SOL    HW117405   2.671   3.346   6.426  0.7022 -2.3745  0.8870
 1981SOL    HW217406   2.792   3.279   6.372  0.4961  0.6947 -0.2586
 1982SOL     OW17407   3.704   0.910   8.123 -0.3551  0.4102 -0.1168
 1982SOL    HW117408   3.676   0.997   8.094  0.1486  0.7893  0.5438
 1982SOL    HW217409   3.778   0.931   8.180  0.4443  1.4265 -1.5180
 1983SOL     OW17410   4.329   0.290   8.947 -0.1772  0.7197  0.7888
 1983SOL    HW117411   4.294   0.374   8.917 -1.3875  0.0030  0.2262
 1983SOL    HW217412   4.318   0.236   8.869 -1.6254  2.2591 -0.0765
 1984SOL     OW17413   4.161   3.539   2.675 -0.1924 -0.1572 -0.2193
 1984SOL    HW117414   4.118   3.584   2.747 -2.5464  0.2606 -1.8748
 1984SOL    HW217415   4.093   3.477   2.649  0.5666 -0.4347 -1.5484
 1985SOL     OW17416   0.817   3.581   6.915  0.3343 -0.5447 -0.0746
 1985SOL    HW117417   0.912   3.569   6.921  0.0886 -2.0507  0.6287
 1985SOL    HW217418   0.784   3.494   6.895  0.8191 -1.4307  3.0079
 1986SOL     OW17419   3.562   2.940   8.120 -0.0577 -0.1169 -0.2627
 1986SOL    HW117420   3.607   2.974   8.043  1.4679 -0.9426  0.2733
 1986SOL    HW217421   3.470   2.956   8.098 -0.0244 -0.1426 -0.4158
 1987SOL     OW17422   0.840   3.267   1.706  0.2709 -0.1026 -0.0337
 1987SOL    HW117423   0.827   3.331   1.777  0.2883  1.7420 -1.6779
 1987SOL    HW217424   0.906   3.206   1.738  1.2298  0.3348 -1.1630
 1988SOL     OW17425   1.762   3.223   5.700  0.2653 -0.1623  0.1123
 1988SOL    HW117426   1.794   3.285   5.766 -0.2313  0.9843 -0.7163
 1988SOL    HW217427   1.759   3.281   5.623  2.2750 -1.8197 -1.2312
 1989SOL     OW17428   2.751   1.438  17.416  0.1245  0.5079 -0.0941
 1989SOL    HW117429   2.689   1.475  17.353 -1.1360 -3.1390 -1.0063
 1989SOL    HW217430   2.787   1.512  17.465  0.7645 -0.2473  0.5666
 1990SOL     OW17431   0.038   2.872   7.231 -0.2052 -0.2982  0.2192
 1990SOL    HW117432   0.039   2.894   7.324  1.0553  0.5239  0.0076
 1990SOL    HW217433   0.045   2.776   7.233 -0.0259 -0.4202 -4.2925
 1991SOL     OW17434   2.373   1.695   3.439 -0.5101  0.3472 -0.1825
 1991SOL    HW117435   2.406   1.605   3.435 -0.3195  0.2678  2.9461
 1991SOL    HW217436   2.362   1.700   3.534  0.7511 -1.3362  0.0450
 1992SOL     OW17437   0.772   1.115   4.181 -0.3679  0.1250  0.4741
 1992SOL    HW117438   0.683   1.103   4.215 -1.0134  1.3966 -0.7492
 1992SOL    HW217439   0.759   1.098   4.087 -0.7838  1.6597  0.2621
 1993SOL     OW17440   1.372   4.600   2.751  0.1009  0.6537 -0.2948
 1993SOL    HW117441   1.430   4.599   2.675 -0.3420  0.1323 -0.6291
 1993SOL    HW217442   1.388   4.691   2.777  0.7909  0.9646 -1.8104
 1994SOL     OW17443   3.900   4.610   7.787 -0.1438  0.6432  0.1914
 1994SOL    HW117444   3.866   4.692   7.750  1.8698  1.0752 -0.7261
 1994SOL    HW217445   3.995   4.624   7.788  0.0553 -0.7252 -0.3269
 1995SOL     OW17446   1.020   2.984   4.826  0.1984  0.3589 -0.1405
 1995SOL    HW117447   0.971   2.992   4.908  0.7972  1.1699  0.1377
 1995SOL    HW217448   0.968   2.915   4.787 -2.1076  1.2060  1.4698
 1996SOL     OW17449   1.144   0.607  17.604 -0.1484  0.0839  0.0963
 1996SOL    HW117450   1.165   0.555  17.527 -3.7026  1.0049 -1.5014
 1996SOL    HW217451   1.179   0.694  17.586  1.6509 -0.5492  0.5457
 1997SOL     OW17452   2.500   3.320  13.102  0.5218  0.1575  0.2199
 1997SOL    HW117453   2.572   3.286  13.156  0.6955  1.5910  0.8852
 1997SOL    HW217454   2.555   3.365  13.039 -0.0873 -1.4500 -1.4493
 1998SOL     OW17455   3.129   1.181   7.804  0.6932 -0.3427  0.0042
 1998SOL    HW117456   3.140   1.225   7.888  1.0850 -0.4138 -0.0088
 1998SOL    HW217457   3.077   1.245   7.756 -0.8429  0.2825  2.5222
 1999SOL     OW17458   1.937   1.050  17.582 -0.7871 -0.7777 -0.4359
 1999SOL    HW117459   2.008   1.080  17.525 -1.0805 -2.3252 -1.6165
 1999SOL    HW217460   1.882   1.016  17.511 -1.1444  1.1717 -1.0970
 2000SOL     OW17461   0.057   1.279   2.577  0.1420 -0.0564  0.4658
 2000SOL    HW117462   0.010   1.286   2.494  1.6572  1.4338 -0.2499
 2000SOL    HW217463   0.072   1.185   2.591 -1.9570  0.1234  3.9108
 2001SOL     OW17464   2.161   4.385  11.961 -0.0282 -0.4967  0.0599
 2001SOL    HW117465   2.229   4.429  11.909  0.8329 -1.4519  0.3763
 2001SOL    HW217466   2.207   4.303  11.981  0.4683 -0.4645 -0.9466
 2002SOL     OW17467   1.667   3.493  12.634  0.5233 -0.1356 -0.2504
 2002SOL    HW117468   1.630   3.579  12.652 -1.2394 -1.0234  0.3509
 2002SOL    HW217469   1.747   3.514  12.586  0.9300  1.0045  0.9351
 2003SOL     OW17470   0.487   4.673   7.572  0.2985  0.0145 -0.1810
 2003SOL    HW117471   0.412   4.677   7.513  1.5501 -0.3470 -1.8203
 2003SOL    HW217472   0.539   4.613   7.518 -1.2169 -0.2245 -1.3726
 2004SOL     OW17473   2.435   2.701  10.512 -0.1023  0.7504  0.1226
 2004SOL    HW117474   2.414   2.641  10.583  0.6360 -0.7361 -0.9331
 2004SOL    HW217475   2.369   2.670  10.450  0.9098  2.0685 -1.6168
 2005SOL     OW17476   0.922   3.287  15.989 -0.4125  0.5296  0.4185
 2005SOL    HW117477   0.964   3.373  15.995 -0.2630  0.5589 -0.9574
 2005SOL    HW217478   0.941   3.254  16.077 -0.6583  0.3106  0.3893
 2006SOL     OW17479   0.891   3.234   4.142  0.0940  0.3854 -0.5996
 2006SOL    HW117480   0.804   3.273   4.146 -0.3115 -0.2182 -3.6184
 2006SOL    HW217481   0.885   3.190   4.227 -1.0843  0.0260 -0.8636
 2007SOL     OW17482   1.691   4.456   9.721 -0.1655  0.1473 -0.3792
 2007SOL    HW117483   1.622   4.392   9.705 -1.0544  1.7457 -2.8384
 2007SOL    HW217484   1.767   4.408   9.754 -0.8347  0.4973  1.6453
 2008SOL     OW17485   2.700   3.479   9.145 -0.3787  0.8489  0.0453
 2008SOL    HW117486   2.762   3.530   9.197 -0.2387 -0.5217  1.2452
 2008SOL    HW217487   2.626   3.514   9.195  0.7381  1.1549  1.5236
 2009SOL     OW17488   3.669   1.917   0.013 -0.3976 -0.5815 -0.3754
 2009SOL    HW117489   3.732   1.961   0.070  2.5312 -0.7678 -3.5024
 2009SOL    HW217490   3.594   1.942   0.069 -1.3319  2.4973 -2.9860
 2010SOL     OW17491   0.480   4.529   3.061 -0.1234 -0.1843 -0.2483
 2010SOL    HW117492   0.463   4.472   3.136  1.3209 -1.8158 -1.1689
 2010SOL    HW217493   0.459   4.620   3.083  3.1319  0.6683 -0.7114
 2011SOL     OW17494   0.040   2.519   1.022  0.4453 -0.4915 -0.3262
 2011SOL    HW117495   0.004   2.605   1.044  0.0772  0.1013 -3.2267
 2011SOL    HW217496   0.002   2.500   0.936 -0.2284 -0.5198 -0.0201
 2012SOL     OW17497   3.015   2.175   4.525 -0.1556  0.5670 -0.0956
 2012SOL    HW117498   3.012   2.241   4.456  0.6598  0.6573 -0.0529
 2012SOL    HW217499   2.954   2.106   4.499 -0.5182  0.3682  1.2632
 2013SOL     OW17500   0.044   0.850   8.771  0.7099  0.2793 -0.2844
 2013SOL    HW117501   0.084   0.793   8.706  1.9407 -0.9398  1.5550
 2013SOL    HW217502   4.672   0.832   8.772  0.2715  2.6273  1.8364
 2014SOL     OW17503   2.237   2.042   0.680 -0.1820 -0.4277  0.0878
 2014SOL    HW117504   2.173   2.009   0.616 -0.5679  2.0551 -0.7847
 2014SOL    HW217505   2.222   1.984   0.756 -2.5369 -0.8598 -0.6921
 2015SOL     OW17506   1.745   2.686   5.065  0.1840  0.2473 -0.3456
 2015SOL    HW117507   1.833   2.710   5.036  0.2262  2.6489  1.8146
 2015SOL    HW217508   1.761   2.611   5.122 -1.5870  0.2831  0.1924
 2016SOL     OW17509   2.881   1.665  11.751  0.1246 -0.4655 -0.2500
 2016SOL    HW117510   2.963   1.616  11.750  0.7264  0.5323  0.3287
 2016SOL    HW217511   2.867   1.703  11.665 -0.0363 -1.3470 -0.6138
 2017SOL     OW17512   0.003   3.137  10.819  0.3936  0.0981  0.2010
 2017SOL    HW117513   0.067   3.150  10.889  1.8209  0.1027 -1.0992
 2017SOL    HW217514   4.656   3.193  10.855  0.3472 -0.3885  0.8721
 2018SOL     OW17515   2.553   1.701   6.104  0.6044  0.4879 -0.7337
 2018SOL    HW117516   2.594   1.740   6.027  0.6095 -0.2166 -1.0810
 2018SOL    HW217517   2.581   1.612   6.085 -1.1787  0.0068 -1.1319
 2019SOL     OW17518   4.459   3.180  16.496  0.2914  0.4577 -0.0079
 2019SOL    HW117519   4.548   3.158  16.471  0.5610  1.0535  0.4187
 2019SOL    HW217520   4.417   3.166  16.411 -0.6840 -1.0970  0.7432
 2020SOL     OW17521   1.425   2.401  15.313 -0.0975 -0.1129  0.1467
 2020SOL    HW117522   1.450   2.358  15.231 -0.6111 -0.8443  0.3771
 2020SOL    HW217523   1.471   2.485  15.310  0.5904 -0.4986  0.0449
 2021SOL     OW17524   3.983   0.595   9.583 -0.7569  0.2488  0.3113
 2021SOL    HW117525   4.033   0.607   9.502 -1.8653  1.1613 -0.2413
 2021SOL    HW217526   3.968   0.688   9.599  2.3856  0.9870 -1.1432
 2022SOL     OW17527   3.918   3.325   2.075  0.0874 -0.0448  0.1869
 2022SOL    HW117528   3.976   3.399   2.097 -1.1256  1.1442 -0.5964
 2022SOL    HW217529   3.955   3.262   2.136  3.5233  0.6290 -1.1833
 2023SOL     OW17530   1.170   1.304  10.768 -0.3682 -0.4307 -0.4640
 2023SOL    HW117531   1.264   1.292  10.783 -0.6459 -1.0715  0.7191
 2023SOL    HW217532   1.152   1.219  10.728  0.6895  0.2179 -2.3109
 2024SOL     OW17533   1.197   2.451   3.043 -0.0096  0.1271  0.0076
 2024SOL    HW117534   1.254   2.488   2.976  2.9940 -2.8503  0.9154
 2024SOL    HW217535   1.246   2.380   3.084  0.3375 -1.1962 -2.7264
 2025SOL     OW17536   3.810   1.643   9.749 -0.3112 -0.0603  0.2177
 2025SOL    HW117537   3.807   1.566   9.693  0.8895 -0.1003  0.2125
 2025SOL    HW217538   3.740   1.689   9.704  0.4600  1.1767  0.2750
 2026SOL     OW17539   4.097   1.018   0.892  0.0679  0.0257  0.1300
 2026SOL    HW117540   4.074   1.072   0.968  0.8521 -1.9908  1.8058
 2026SOL    HW217541   4.114   1.087   0.828 -1.3430  1.3487  1.1844
 2027SOL     OW17542   0.598   3.765   4.126  0.0730  0.3385 -0.4850
 2027SOL    HW117543   0.559   3.698   4.069 -0.8711  0.2114  0.3217
 2027SOL    HW217544   0.521   3.791   4.175  2.9140  3.0240  2.5123
 2028SOL     OW17545   4.137   1.831   5.707  0.2461  0.2351  0.0139
 2028SOL    HW117546   4.228   1.824   5.678  0.3601  1.1576  0.1653
 2028SOL    HW217547   4.117   1.738   5.722 -1.1777  0.0795 -2.8922
 2029SOL     OW17548   2.264   3.805  17.675 -0.1085  0.6046  0.0509
 2029SOL    HW117549   2.310   3.825  17.593 -1.1625  1.1426 -0.4087
 2029SOL    HW217550   2.204   3.879  17.677 -0.0267  0.7503 -2.5400
 2030SOL     OW17551   4.640   2.060   5.833  0.5356 -0.3915 -0.3578
 2030SOL    HW117552   4.616   1.968   5.817 -3.1987  0.1603  2.0209
 2030SOL    HW217553   4.649   2.101   5.748 -0.8051 -0.2123 -0.4091
 2031SOL     OW17554   1.408   2.907   2.061 -0.7380  0.2240 -0.1118
 2031SOL    HW117555   1.484   2.941   2.014 -0.1858  1.3272  1.5500
 2031SOL    HW217556   1.433   2.817   2.082  0.5182  0.8560  1.1378
 2032SOL     OW17557   3.121   0.778  11.430 -0.3265 -0.9898  0.2260
 2032SOL    HW117558   3.039   0.796  11.475 -0.5128  2.2599 -1.4106
 2032SOL    HW217559   3.178   0.762  11.506 -0.3839 -2.1654  0.0140
 2033SOL     OW17560   1.884   3.307  14.958 -0.4092 -0.1965  0.9194
 2033SOL    HW117561   1.892   3.246  15.031 -1.6414 -0.0829  1.1477
 2033SOL    HW217562   1.789   3.306  14.942  0.0011 -0.3060 -1.5244
 2034SOL     OW17563   4.348   2.145   9.470 -0.8956 -0.2269  0.4189
 2034SOL    HW117564   4.390   2.167   9.387 -1.6126 -0.9272 -0.1262
 2034SOL    HW217565   4.264   2.190   9.461 -0.2761  0.1371 -3.3712
 2035SOL     OW17566   0.827   1.140   8.485  0.0784 -0.5612 -0.3834
 2035SOL    HW117567   0.882   1.217   8.500  0.8951 -1.0101 -1.0611
 2035SOL    HW217568   0.836   1.103   8.573  0.4284  3.4196  1.2600
 2036SOL     OW17569   1.835   0.182  13.285  0.0425  0.3173 -0.0618
 2036SOL    HW117570   1.775   0.246  13.323  0.6206  1.9823 -1.9679
 2036SOL    HW217571   1.914   0.211  13.330 -0.5572  0.9928  0.5423
 2037SOL     OW17572   3.619   4.668   4.935 -0.0842  0.0192 -0.2847
 2037SOL    HW117573   3.535   4.686   4.893  0.8246  1.6792 -1.3789
 2037SOL    HW217574   3.644   4.581   4.905 -2.0707 -1.1676  1.5271
 2038SOL     OW17575   1.191   2.160   7.195  0.0937  0.5504 -0.1971
 2038SOL    HW117576   1.192   2.254   7.177  0.1244  0.1340 -2.3140
 2038SOL    HW217577   1.130   2.156   7.269  1.9244 -0.2624  1.2595
 2039SOL     OW17578   1.788   2.512   0.147  0.0541  0.3013  0.3281
 2039SOL    HW117579   1.702   2.490   0.111 -0.7080  3.0347  0.4686
 2039SOL    HW217580   1.845   2.522   0.071 -2.8065  2.3553 -1.5373
 2040SOL     OW17581   3.279   1.190  10.143 -0.3254 -0.0939  0.7525
 2040SOL    HW117582   3.296   1.248  10.217  1.5535 -1.7676  1.6559
 2040SOL    HW217583   3.203   1.236  10.107  0.1180 -1.0489 -1.4073
 2041SOL     OW17584   3.152   3.976   9.172 -0.0332  0.3248  0.4417
 2041SOL    HW117585   3.078   3.944   9.121  0.7973 -0.8065 -0.0646
 2041SOL    HW217586   3.188   3.892   9.201  2.1898  1.6205  1.4447
 2042SOL     OW17587   1.757   3.179   3.200 -0.4243  0.0364  0.3343
 2042SOL    HW117588   1.748   3.103   3.143  0.8247 -0.1675  0.4089
 2042SOL    HW217589   1.816   3.224   3.139 -0.1812 -1.0358 -0.2173
 2043SOL     OW17590   3.861   4.613   3.886 -0.1203  0.1982  0.0826
 2043SOL    HW117591   3.782   4.658   3.856 -1.3236  0.1352  3.1627
 2043SOL    HW217592   3.920   4.686   3.902  2.4877 -1.4638 -1.8926
 2044SOL     OW17593   3.704   2.290   0.145 -0.2938  0.2330 -0.3633
 2044SOL    HW117594   3.731   2.204   0.177 -0.3562  0.6707  0.8877
 2044SOL    HW217595   3.657   2.271   0.064 -1.0029  0.9264 -0.1151
 2045SOL     OW17596   0.073   0.281   3.314  0.2184  0.3468  0.4684
 2045SOL    HW117597   0.024   0.200   3.329  0.0928 -0.0793 -2.3303
 2045SOL    HW217598   0.008   0.339   3.276 -0.7133 -0.7435  0.3841
 2046SOL     OW17599   0.210   3.111  14.198  0.2531  0.2124 -0.1986
 2046SOL    HW117600   0.202   3.025  14.238  0.8077 -0.9521 -2.5925
 2046SOL    HW217601   0.306   3.113  14.203  0.2151 -2.1017  1.3181
 2047SOL     OW17602   0.465   2.327   1.395 -0.1750  0.3761 -0.1402
 2047SOL    HW117603   0.531   2.316   1.327  1.1231 -0.4701  1.2625
 2047SOL    HW217604   0.483   2.418   1.420 -2.3883  0.4032  1.3388
 2048SOL     OW17605   1.640   0.547   6.955  0.1375 -0.3139  0.0632
 2048SOL    HW117606   1.613   0.639   6.952  0.2743 -0.2998 -0.9435
 2048SOL    HW217607   1.703   0.536   6.883  0.5301 -1.6076  0.5922
 2049SOL     OW17608   1.650   3.501   0.513  0.2491  0.3833  0.2609
 2049SOL    HW117609   1.745   3.498   0.526  0.7667  0.4360 -3.5042
 2049SOL    HW217610   1.633   3.593   0.533  0.1401  0.7140 -1.3248
 2050SOL     OW17611   2.152   4.209   1.573  0.5934 -0.0835  0.0838
 2050SOL    HW117612   2.196   4.287   1.608 -1.4232  0.3494  1.6245
 2050SOL    HW217613   2.232   4.163   1.548  0.9986  0.1459  0.9392
 2051SOL     OW17614   3.389   4.309   7.778  0.1649 -0.1052  0.6903
 2051SOL    HW117615   3.336   4.230   7.769 -0.0346  0.2432 -1.3436
 2051SOL    HW217616   3.473   4.265   7.764  0.9330  1.2293  1.1357
 2052SOL     OW17617   0.507   1.221  13.581 -0.4211 -0.1038 -0.5057
 2052SOL    HW117618   0.561   1.170  13.521  0.9982  1.3100 -0.4484
 2052SOL    HW217619   0.534   1.184  13.665  0.1387 -0.8176 -1.0020
 2053SOL     OW17620   1.957   4.035   3.444  0.0299  0.2839 -0.0560
 2053SOL    HW117621   1.901   3.987   3.504 -0.7084 -0.0227 -0.9849
 2053SOL    HW217622   1.904   4.107   3.411 -0.2018 -0.1217 -0.5697
 2054SOL     OW17623   3.956   4.436   1.981  0.5068 -0.2729 -0.1190
 2054SOL    HW117624   3.926   4.527   1.974  1.1367 -0.2555 -2.5168
 2054SOL    HW217625   3.902   4.409   2.055  0.8656 -0.0420  0.2226
 2055SOL     OW17626   3.534   4.048   7.561  0.0126 -0.1574  0.5770
 2055SOL    HW117627   3.476   3.994   7.615 -0.6521  3.6092  3.5318
 2055SOL    HW217628   3.568   4.112   7.623  1.1347  0.0573 -0.2426
 2056SOL     OW17629   2.640   4.167   6.418 -0.5552  0.1347 -0.5658
 2056SOL    HW117630   2.707   4.113   6.460 -0.8497 -1.6923 -2.4436
 2056SOL    HW217631   2.666   4.174   6.326 -0.0283  2.8057 -0.2241
 2057SOL     OW17632   4.529   2.617   0.306 -0.0995 -0.0896  0.8814
 2057SOL    HW117633   4.556   2.628   0.214 -0.1855  0.7816  0.9622
 2057SOL    HW217634   4.613   2.634   0.349 -0.2952  0.6316  0.9735
 2058SOL     OW17635   3.316   4.328   2.356  0.4935  0.3922  0.3237
 2058SOL    HW117636   3.393   4.280   2.386 -0.2929 -0.1293  1.5437
 2058SOL    HW217637   3.243   4.280   2.396 -0.3524  0.5510 -1.0325
 2059SOL     OW17638   3.845   0.292   6.544 -0.6089  0.5176 -0.2160
 2059SOL    HW117639   3.903   0.366   6.527 -0.1535 -0.0404 -1.1090
 2059SOL    HW217640   3.909   0.223   6.564 -0.5192  1.2406  1.9346
 2060SOL     OW17641   1.721   2.195  11.189  0.3520  0.6049  0.1524
 2060SOL    HW117642   1.633   2.202  11.152 -0.0352 -0.2495  0.9023
 2060SOL    HW217643   1.696   2.158  11.274  1.5141 -0.9763 -0.1758
 2061SOL     OW17644   4.575   0.923   6.397  0.6504 -0.5143  0.2930
 2061SOL    HW117645   4.634   0.973   6.341  0.5081  0.8611  1.3833
 2061SOL    HW217646   4.545   0.854   6.337  2.6489  0.3677 -1.7369
 2062SOL     OW17647   2.967   4.289   6.444  0.0441 -0.3839 -0.7923
 2062SOL    HW117648   2.962   4.210   6.498  1.3376  0.3316  0.3734
 2062SOL    HW217649   2.954   4.355   6.511 -1.6467 -0.4057 -1.1087
 2063SOL     OW17650   3.913   1.521   6.129  0.6803 -0.3642 -0.6300
 2063SOL    HW117651   3.985   1.550   6.184 -0.0057  0.3994 -0.1283
 2063SOL    HW217652   3.884   1.606   6.096  1.1160  1.1979  2.9554
 2064SOL     OW17653   3.054   2.688  16.820 -0.4790  0.3785  0.1187
 2064SOL    HW117654   2.975   2.707  16.770 -1.5276 -0.1793  1.5931
 2064SOL    HW217655   3.019   2.698  16.908  0.0712 -1.1035  0.5179
 2065SOL     OW17656   1.363   4.220   7.401 -0.2914  0.0021  0.3179
 2065SOL    HW117657   1.316   4.205   7.319 -3.5652 -0.3432  2.2968
 2065SOL    HW217658   1.367   4.316   7.402 -0.7331 -0.0164  2.7259
 2066SOL     OW17659   3.256   4.654   2.962 -0.6166 -0.0158 -0.8013
 2066SOL    HW117660   3.230   4.567   2.932 -1.8593  0.6257 -1.6046
 2066SOL    HW217661   3.170   4.696   2.961 -0.3859  0.4794  0.0046
 2067SOL     OW17662   0.763   2.070   8.708 -0.1630 -0.0418  0.3315
 2067SOL    HW117663   0.736   2.051   8.798  0.0363  0.3648  0.4794
 2067SOL    HW217664   0.835   2.007   8.715  1.2061  1.4437 -0.3918
 2068SOL     OW17665   3.558   1.569  15.334  0.5834 -1.0548  0.3531
 2068SOL    HW117666   3.611   1.639  15.371  0.2838 -0.2251 -0.7872
 2068SOL    HW217667   3.607   1.497  15.374 -0.3726 -1.8705  0.0752
 2069SOL     OW17668   2.132   2.475   4.329 -0.1435 -0.0548  0.3070
 2069SOL    HW117669   2.173   2.531   4.396  0.8051  0.7340 -0.9120
 2069SOL    HW217670   2.082   2.546   4.289  0.0699  1.0461  1.9777
 2070SOL     OW17671   0.637   2.861   7.023  0.3500 -0.2141 -0.6928
 2070SOL    HW117672   0.660   2.769   7.024 -0.3917 -0.4015 -0.2206
 2070SOL    HW217673   0.618   2.870   6.930 -1.7925  1.3123 -0.1242
 2071SOL     OW17674   2.429   0.596   7.970  0.2042  0.0471 -0.4487
 2071SOL    HW117675   2.382   0.671   8.006 -0.1587  0.3188 -1.4767
 2071SOL    HW217676   2.471   0.568   8.051 -0.3953  2.9659  0.8979
 2072SOL     OW17677   3.080   1.020   6.283 -0.3763 -0.6705  0.5632
 2072SOL    HW117678   3.029   0.983   6.211 -1.1947 -0.5468  1.0766
 2072SOL    HW217679   3.167   0.992   6.253 -1.6823 -1.6622 -2.2121
 2073SOL     OW17680   4.364   4.034   4.729  0.1541  0.4833  0.2777
 2073SOL    HW117681   4.452   4.073   4.729  0.6152 -0.5439  1.7821
 2073SOL    HW217682   4.367   3.966   4.662 -1.2072  0.1556  0.5567
 2074SOL     OW17683   1.639   4.520   8.123  0.1475 -0.7223 -0.2176
 2074SOL    HW117684   1.665   4.430   8.103  0.1041 -0.8831  0.4425
 2074SOL    HW217685   1.670   4.534   8.212 -0.5710 -1.2417  0.1098
 2075SOL     OW17686   2.355   1.361   6.750 -0.0817  0.1318  0.1282
 2075SOL    HW117687   2.273   1.410   6.757 -0.4591 -0.5667  0.6528
 2075SOL    HW217688   2.408   1.429   6.710 -0.4772  0.9324  0.9668
 2076SOL     OW17689   4.638   0.574   9.534 -0.1281 -0.2482  0.4449
 2076SOL    HW117690   4.555   0.580   9.580  0.0891 -2.5127  1.1460
 2076SOL    HW217691   4.649   0.482   9.509  1.0442 -0.6226  2.2599
 2077SOL     OW17692   0.449   3.374   5.620 -0.6818 -0.0763  0.1145
 2077SOL    HW117693   0.516   3.419   5.671 -0.6341  3.1006 -2.7264
 2077SOL    HW217694   0.375   3.389   5.680 -1.0645  1.3651 -0.7303
 2078SOL     OW17695   3.271   3.080   4.621 -0.1490 -0.4710  0.6148
 2078SOL    HW117696   3.325   3.026   4.678  1.1325 -0.7063 -0.8108
 2078SOL    HW217697   3.316   3.068   4.537  0.0254  2.6901  0.2424
 2079SOL     OW17698   4.491   1.193   3.018 -0.0624  0.0076 -0.3855
 2079SOL    HW117699   4.523   1.220   2.932  2.3671  0.2513  0.6010
 2079SOL    HW217700   4.528   1.106   3.032 -1.0191 -0.3357  0.0157
 2080SOL     OW17701   4.248   0.115  10.023 -0.0756  0.0907  0.2640
 2080SOL    HW117702   4.259   0.121  10.118  2.5619 -0.6161  0.0092
 2080SOL    HW217703   4.205   0.196   9.996  0.9976  0.5192 -0.1403
 2081SOL     OW17704   0.822   3.789   2.707 -0.1235  0.0470 -0.0586
 2081SOL    HW117705   0.842   3.695   2.706  1.3263  0.3600 -0.7695
 2081SOL    HW217706   0.740   3.799   2.660  1.1621  0.7492 -2.1797
 2082SOL     OW17707   0.652   3.625   1.989 -0.1359 -0.1666 -0.3624
 2082SOL    HW117708   0.614   3.712   1.984 -2.1114 -0.9690  0.8670
 2082SOL    HW217709   0.591   3.568   2.036 -1.5815  0.7780 -1.0917
 2083SOL     OW17710   3.867   1.922  11.352 -0.2957  0.5432 -0.2518
 2083SOL    HW117711   3.959   1.912  11.327 -0.4222 -0.0807 -0.4721
 2083SOL    HW217712   3.838   1.834  11.329 -1.6652  0.6465  1.0792
 2084SOL     OW17713   0.683   0.418   4.328  0.0935  0.4383 -0.2929
 2084SOL    HW117714   0.596   0.434   4.290 -0.3907 -1.6175 -0.0788
 2084SOL    HW217715   0.713   0.361   4.257 -2.9344 -1.9879  0.3511
 2085SOL     OW17716   1.222   1.280   2.425  0.0763  0.5389 -0.1935
 2085SOL    HW117717   1.192   1.283   2.334  0.3734 -1.3327 -0.3484
 2085SOL    HW217718   1.182   1.201   2.461  0.3924  1.6826  2.6220
 2086SOL     OW17719   4.421   1.505  12.970  0.5818  0.2257 -0.2006
 2086SOL    HW117720   4.491   1.440  12.963 -1.7168 -2.4290  1.2983
 2086SOL    HW217721   4.445   1.562  12.897 -0.3459  1.7228  0.6705
 2087SOL     OW17722   3.511   0.758   7.632  0.0771 -0.2906  0.6082
 2087SOL    HW117723   3.470   0.845   7.634 -1.9742 -1.2521  1.0397
 2087SOL    HW217724   3.433   0.703   7.620 -0.6100  0.7077  0.4419
 2088SOL     OW17725   4.629   4.053  10.782  0.5353  0.8221  0.5324
 2088SOL    HW117726   4.711   4.012  10.808 -0.8518 -2.3586 -0.0114
 2088SOL    HW217727   4.634   4.040  10.687  0.1523 -1.7666  0.8725
 2089SOL     OW17728   3.063   2.038   1.780 -0.1581  0.6056  0.2749
 2089SOL    HW117729   3.030   1.970   1.838 -0.2914 -0.4081 -0.9783
 2089SOL    HW217730   3.146   2.001   1.749  0.0087  1.5425 -0.4026
 2090SOL     OW17731   0.816   2.038   2.855 -0.0936  0.6949 -0.4436
 2090SOL    HW117732   0.858   2.105   2.802 -0.2253  0.3067 -1.0291
 2090SOL    HW217733   0.791   2.091   2.931 -0.3274 -0.3245  0.1874
 2091SOL     OW17734   2.236   4.076  16.824  1.1166  0.2995 -0.0454
 2091SOL    HW117735   2.227   4.054  16.917  1.8758  0.1629 -0.0050
 2091SOL    HW217736   2.265   3.989  16.797 -1.1498 -0.2105 -0.7591
 2092SOL     OW17737   1.882   1.183   5.105  0.2555  0.6884  0.5535
 2092SOL    HW117738   1.864   1.192   5.198 -2.7101  0.7252 -0.0289
 2092SOL    HW217739   1.900   1.275   5.084 -1.0733  1.1754  1.6118
 2093SOL     OW17740   2.523   3.405   5.532  0.8844  0.2310 -0.0608
 2093SOL    HW117741   2.462   3.445   5.470 -0.1906 -1.6751 -0.2636
 2093SOL    HW217742   2.475   3.323   5.546  0.1536  0.3193 -1.9965
 2094SOL     OW17743   3.096   2.922   4.314  0.1647  0.4036 -0.3030
 2094SOL    HW117744   3.091   3.013   4.285 -1.3507  0.0539 -1.1860
 2094SOL    HW217745   3.010   2.885   4.294 -0.3519  0.3048  2.0355
 2095SOL     OW17746   3.712   4.434  12.402  0.1985 -0.3239 -0.2702
 2095SOL    HW117747   3.733   4.344  12.375  0.1245 -0.3996 -0.0739
 2095SOL    HW217748   3.703   4.421  12.496  0.0566  0.7433 -0.1370
 2096SOL     OW17749   0.435   0.373  13.762  0.4929 -0.4675  0.2036
 2096SOL    HW117750   0.481   0.304  13.811  1.7485 -0.6632 -1.2461
 2096SOL    HW217751   0.487   0.452  13.775  1.0274 -0.6801 -0.6508
 2097SOL     OW17752   2.782   1.106  12.030  0.4909 -0.5676  0.2392
 2097SOL    HW117753   2.696   1.144  12.011  0.2601 -1.0665  0.2708
 2097SOL    HW217754   2.818   1.082  11.945  1.4821  1.5039  0.0861
 2098SOL     OW17755   3.099   2.008   1.119  0.7071 -0.2776 -0.2224
 2098SOL    HW117756   3.104   2.090   1.071  1.8700 -0.4806 -0.4353
 2098SOL    HW217757   3.059   2.027   1.204  0.7791 -0.3753 -0.1668
 2099SOL     OW17758   1.916   3.507  15.274 -0.2968 -0.5206  0.1733
 2099SOL    HW117759   1.867   3.429  15.249  0.9040 -1.2858  0.2260
 2099SOL    HW217760   1.998   3.472  15.309 -0.7546  0.4010  2.1170
 2100SOL     OW17761   3.238   3.189   7.063 -0.6305 -0.5351  0.1137
 2100SOL    HW117762   3.295   3.208   6.989 -1.2875 -0.5364 -0.3943
 2100SOL    HW217763   3.199   3.108   7.032 -0.2420 -1.5979  2.3871
 2101SOL     OW17764   3.691   0.792   3.330  0.1737  0.3742  0.3410
 2101SOL    HW117765   3.685   0.828   3.418  2.5761 -0.5212  0.8761
 2101SOL    HW217766   3.600   0.764   3.319  0.1671  0.1902  0.8684
 2102SOL     OW17767   3.791   3.818   3.794  0.3370 -0.3315  0.3772
 2102SOL    HW117768   3.879   3.784   3.778  0.2776 -0.3360  0.0688
 2102SOL    HW217769   3.743   3.749   3.750 -0.1054 -0.3370  0.8568
 2103SOL     OW17770   3.297   3.013   6.594  0.2010  0.0857  0.0531
 2103SOL    HW117771   3.251   3.090   6.562 -0.5836 -0.9163 -1.2169
 2103SOL    HW217772   3.353   2.998   6.518 -1.4690 -0.2157 -1.0995
 2104SOL     OW17773   2.034   3.330   3.579  0.3696  0.0514  0.5483
 2104SOL    HW117774   2.002   3.268   3.514 -1.3966  2.4992 -0.9284
 2104SOL    HW217775   1.973   3.404   3.573  1.4885  0.7608 -2.5666
 2105SOL     OW17776   3.956   0.404  14.966  0.6451  0.3071  0.3093
 2105SOL    HW117777   3.955   0.464  15.040 -0.1038 -0.6095  1.0426
 2105SOL    HW217778   3.991   0.326  15.009  2.7969  0.9171 -0.3586
 2106SOL     OW17779   3.984   0.882   3.274  0.2215  0.0760  0.1917
 2106SOL    HW117780   3.988   0.791   3.305  2.2413 -0.1033 -0.6233
 2106SOL    HW217781   3.890   0.894   3.286  0.0765 -1.7723  0.9554
 2107SOL     OW17782   3.721   4.028  12.067 -0.8446  0.2173  0.2528
 2107SOL    HW117783   3.703   3.939  12.035 -1.1949  0.7491 -1.0157
 2107SOL    HW217784   3.795   4.057  12.014 -1.1517  0.5111 -0.0179
 2108SOL     OW17785   1.048   3.688  17.525  1.0567 -0.3990 -0.2221
 2108SOL    HW117786   1.031   3.694  17.431  2.6718 -0.1470 -0.4920
 2108SOL    HW217787   0.988   3.758  17.550  0.0181 -0.6141 -2.1321
 2109SOL     OW17788   0.102   3.867   4.362 -0.2230  0.4045  0.1018
 2109SOL    HW117789   0.053   3.948   4.370 -0.7194  0.2201 -1.1004
 2109SOL    HW217790   0.144   3.884   4.278  0.8808  0.1307  0.5916
 2110SOL     OW17791   2.520   1.890   7.988  0.6008 -0.0194 -0.2568
 2110SOL    HW117792   2.467   1.966   8.012  1.1471  0.3638 -0.2703
 2110SOL    HW217793   2.478   1.816   8.032  0.7124  0.2003  0.2217
 2111SOL     OW17794   3.764   1.951   7.923  0.4284  0.7063 -0.3028
 2111SOL    HW117795   3.766   2.045   7.942  3.1233  0.3122  1.3090
 2111SOL    HW217796   3.853   1.919   7.938  0.5371  1.1041 -0.1070
 2112SOL     OW17797   4.139   0.978  11.465 -0.0765 -0.2122 -0.0869
 2112SOL    HW117798   4.186   1.029  11.530 -1.5584  0.9260  0.0823
 2112SOL    HW217799   4.184   1.017  11.390 -1.6758 -2.1276 -2.0460
 2113SOL     OW17800   4.591   4.191   4.711  0.3975 -0.3889 -1.0635
 2113SOL    HW117801   4.615   4.269   4.762  2.1713 -1.9609  0.5333
 2113SOL    HW217802   4.583   4.233   4.626 -0.0189  0.5498 -0.5554
 2114SOL     OW17803   1.283   1.112   0.513  0.2909  0.2949  0.3055
 2114SOL    HW117804   1.301   1.032   0.464  0.7320  0.2687  0.5128
 2114SOL    HW217805   1.366   1.158   0.516  0.9113 -0.8604  1.2805
 2115SOL     OW17806   0.154   3.501   0.586 -0.2861 -0.1865 -0.4494
 2115SOL    HW117807   0.233   3.505   0.639 -0.7986  1.0254  0.2344
 2115SOL    HW217808   0.145   3.409   0.561  0.3716  0.1088 -1.8117
 2116SOL     OW17809   0.729   3.455  16.294  0.4264  0.2966 -0.0653
 2116SOL    HW117810   0.703   3.374  16.250 -2.1564  0.8130  0.5362
 2116SOL    HW217811   0.763   3.430  16.380 -2.6431 -3.3619  0.1050
 2117SOL     OW17812   4.261   3.085   1.111 -0.2234 -0.1128  0.3605
 2117SOL    HW117813   4.281   3.175   1.088 -1.1654  0.3697  1.4322
 2117SOL    HW217814   4.188   3.059   1.055  0.4833  0.0307 -0.6337
 2118SOL     OW17815   1.806   4.683   5.109  0.5372 -0.7446  0.2960
 2118SOL    HW117816   1.868   4.617   5.140  0.3345 -1.2962 -0.4881
 2118SOL    HW217817   1.844   0.042   5.144 -0.9226  0.6352 -1.3118
 2119SOL     OW17818   4.254   0.583  10.848 -0.4277  0.6170  0.3079
 2119SOL    HW117819   4.262   0.625  10.762  1.7014 -1.2564 -0.4068
 2119SOL    HW217820   4.212   0.500  10.824 -0.0282  0.5837 -0.2881
 2120SOL     OW17821   2.194   2.932  10.563 -0.5709  0.9748 -0.2182
 2120SOL    HW117822   2.175   2.968  10.477  0.9920 -0.3035 -1.0894
 2120SOL    HW217823   2.113   2.964  10.604 -0.8300  0.2687 -0.1843
 2121SOL     OW17824   1.601   2.088   0.913  0.4252  0.0723 -0.2334
 2121SOL    HW117825   1.655   2.015   0.884  1.1575  1.3685 -2.1225
 2121SOL    HW217826   1.513   2.056   0.889 -0.4437  2.4208 -0.1871
 2122SOL     OW17827   4.174   3.518  10.878  0.5647 -0.3026  0.5565
 2122SOL    HW117828   4.092   3.487  10.915 -0.6094 -0.0691 -1.8336
 2122SOL    HW217829   4.168   3.476  10.792 -0.9082 -0.5418  0.7758
 2123SOL     OW17830   2.751   1.209   4.839  0.3782  0.0418  0.2559
 2123SOL    HW117831   2.813   1.282   4.844  0.3298  0.0890  0.1576
 2123SOL    HW217832   2.745   1.197   4.934  1.4477 -1.0475  0.1874
 2124SOL     OW17833   1.265   3.999  12.275 -0.1351  0.0668 -0.3086
 2124SOL    HW117834   1.209   3.944  12.330  1.1818  0.1045  1.0684
 2124SOL    HW217835   1.335   3.934  12.270 -0.7813 -0.5956 -0.7425
 2125SOL     OW17836   1.985   4.552   2.277 -0.0659 -0.0989  0.1137
 2125SOL    HW117837   1.902   4.512   2.303 -1.0768  1.5458 -0.5656
 2125SOL    HW217838   1.939   4.628   2.241 -1.1533 -0.9419 -0.2656
 2126SOL     OW17839   0.962   1.206  12.139  0.1150 -0.0537 -0.1185
 2126SOL    HW117840   1.014   1.176  12.214  0.5494  3.4000  0.9392
 2126SOL    HW217841   0.928   1.287  12.176  0.1020  1.0005 -2.4592
 2127SOL     OW17842   0.803   0.178  13.687 -0.1810 -0.3318  0.0677
 2127SOL    HW117843   0.824   0.224  13.606 -0.3780  0.2081  0.3254
 2127SOL    HW217844   0.775   0.091  13.657 -0.7249  0.0753 -0.5837
 2128SOL     OW17845   1.582   1.438  13.748  0.2423  0.1827  0.0560
 2128SOL    HW117846   1.501   1.395  13.719 -0.7562  0.7068  2.0947
 2128SOL    HW217847   1.638   1.423  13.672 -1.1588 -1.2265 -0.7003
 2129SOL     OW17848   0.506   0.093  14.821 -0.2783  0.7889 -0.1022
 2129SOL    HW117849   0.565   0.026  14.855 -0.6804  0.8406  0.6747
 2129SOL    HW217850   0.435   0.050  14.773  0.3900 -0.0368 -0.3477
 2130SOL     OW17851   3.115   2.289   0.960  0.0943  0.1366  0.6701
 2130SOL    HW117852   3.106   2.312   1.052 -0.2751 -1.6364  1.0809
 2130SOL    HW217853   3.030   2.300   0.918  0.0035 -2.4628  0.1383
 2131SOL     OW17854   0.124   1.222   0.551 -0.4980  0.2849  0.0283
 2131SOL    HW117855   0.090   1.171   0.624 -0.3272 -1.2877 -1.0059
 2131SOL    HW217856   0.213   1.244   0.578  0.3076 -0.5355 -1.9938
 2132SOL     OW17857   4.587   1.733  10.646  0.0896 -0.4291  0.1728
 2132SOL    HW117858   4.612   1.821  10.674 -0.8808 -0.4203  1.0405
 2132SOL    HW217859   4.628   1.724  10.560  0.0361  1.6468 -0.0588
 2133SOL     OW17860   4.528   2.729   3.274  0.5880  0.7429 -0.0300
 2133SOL    HW117861   4.597   2.774   3.226  0.7058  1.6826  1.0161
 2133SOL    HW217862   4.568   2.747   3.360  0.6378  3.5610 -0.6437
 2134SOL     OW17863   0.187   4.414   1.988 -0.6461 -0.3660  0.4317
 2134SOL    HW117864   0.124   4.356   2.030 -2.6862 -0.6323 -2.9626
 2134SOL    HW217865   0.203   4.476   2.059 -1.6986  1.5466 -0.9994
 2135SOL     OW17866   1.526   1.148   8.470 -0.7921 -0.2746  0.0150
 2135SOL    HW117867   1.509   1.159   8.564 -1.2219 -1.4728  0.0741
 2135SOL    HW217868   1.590   1.077   8.467  1.8928  2.1662 -0.5791
 2136SOL     OW17869   3.068   4.364   0.411 -0.3926  0.2920 -0.1529
 2136SOL    HW117870   3.033   4.317   0.486 -0.0162 -1.0621 -0.8167
 2136SOL    HW217871   3.127   4.423   0.458 -2.7519  1.4044  1.4181
 2137SOL     OW17872   4.016   1.135  14.622 -0.6616  0.1902 -0.3804
 2137SOL    HW117873   4.097   1.094  14.651 -1.4460 -0.0015  1.5119
 2137SOL    HW217874   4.042   1.201  14.557 -0.4287 -0.8780 -1.3858
 2138SOL     OW17875   3.527   3.110   1.298 -0.0971 -0.3102 -0.3054
 2138SOL    HW117876   3.619   3.134   1.288 -0.3155 -0.1020 -1.7258
 2138SOL    HW217877   3.525   3.064   1.215 -1.4662 -1.5130  0.3907
 2139SOL     OW17878   3.754   1.252   8.169  0.0460 -0.1673  0.7502
 2139SOL    HW117879   3.732   1.215   8.255 -1.2846 -1.3658 -0.0971
 2139SOL    HW217880   3.849   1.240   8.167 -0.1740 -1.7096 -1.2049
 2140SOL     OW17881   2.370   4.664  11.468  0.2235  0.2062  0.0270
 2140SOL    HW117882   2.431   4.674  11.395 -0.2056  0.0006 -0.3601
 2140SOL    HW217883   2.367   0.032  11.500  0.9879  0.6129 -1.0336
 2141SOL     OW17884   1.021   3.356   2.207 -0.2147 -0.4451 -0.0049
 2141SOL    HW117885   0.933   3.357   2.245 -1.2838 -0.1733 -2.4962
 2141SOL    HW217886   1.038   3.263   2.221 -0.3769 -0.7401 -1.8434
 2142SOL     OW17887   3.300   1.942  14.934  0.0348  0.1932 -0.3767
 2142SOL    HW117888   3.250   1.965  14.856 -0.0337  0.6238 -0.2067
 2142SOL    HW217889   3.245   1.981  15.002  0.3426 -1.1137  0.6295
 2143SOL     OW17890   0.857   3.278  15.269  0.6265  0.2381  0.6738
 2143SOL    HW117891   0.778   3.292  15.321 -0.3450  1.0758 -1.0353
 2143SOL    HW217892   0.818   3.228  15.197  1.7831 -0.0473  0.2321
 2144SOL     OW17893   2.572   3.972   8.596 -0.4426  0.0031  0.2097
 2144SOL    HW117894   2.495   3.929   8.634 -0.7638 -0.2014 -0.6696
 2144SOL    HW217895   2.644   3.971   8.659 -0.2914 -0.7858  0.0175
 2145SOL     OW17896   0.806   4.127   4.151 -0.3523  0.4020  0.1717
 2145SOL    HW117897   0.781   4.214   4.118 -1.7660  0.6483  1.8692
 2145SOL    HW217898   0.848   4.091   4.073 -0.0364 -0.4316  0.7313
 2146SOL     OW17899   0.864   2.940  15.709  0.3613  0.1487  0.4722
 2146SOL    HW117900   0.871   2.901  15.622  1.9739  2.6673 -0.5269
 2146SOL    HW217901   0.916   3.020  15.709 -0.3734  0.6130 -1.4263
 2147SOL     OW17902   0.450   3.264   0.451 -0.1533  0.2666  0.2488
 2147SOL    HW117903   0.464   3.245   0.359  0.9598  1.1084  0.2458
 2147SOL    HW217904   0.484   3.353   0.462 -2.5445  1.3035 -0.6611
 2148SOL     OW17905   0.677   4.688   0.428 -0.2701 -0.2900 -0.2723
 2148SOL    HW117906   0.753   0.001   0.382 -0.8911  0.2491 -0.8895
 2148SOL    HW217907   0.712   4.677   0.516 -0.1225  1.3529 -0.1288
 2149SOL     OW17908   4.641   1.352  12.947  0.1619  0.3545 -0.4149
 2149SOL    HW117909   4.589   1.295  12.890  2.4901 -2.4168  0.2272
 2149SOL    HW217910   4.690   1.413  12.892 -1.8474 -1.3332 -4.0574
 2150SOL     OW17911   2.345   0.283   3.259 -0.4831 -0.3619  0.0665
 2150SOL    HW117912   2.385   0.276   3.172 -0.6631 -4.3604  0.2908
 2150SOL    HW217913   2.276   0.345   3.236  1.8604  1.9722 -0.6794
 2151SOL     OW17914   2.287   2.389  15.897  0.8122  0.0101  0.1755
 2151SOL    HW117915   2.307   2.342  15.816  0.2857 -0.5995  0.3991
 2151SOL    HW217916   2.374   2.428  15.911  0.1847  1.3891  0.2622
 2152SOL     OW17917   4.569   2.034   7.684  0.3435  0.5627  0.0284
 2152SOL    HW117918   4.633   2.075   7.625  0.2864 -0.4190 -0.7230
 2152SOL    HW217919   4.622   1.961   7.716 -0.6365  0.0759  0.5453
 2153SOL     OW17920   2.245   2.562   3.073  0.4240 -0.1662 -0.5028
 2153SOL    HW117921   2.178   2.529   3.014 -0.2138  1.1209 -0.5097
 2153SOL    HW217922   2.327   2.566   3.024  1.7584 -0.1816  1.7042
 2154SOL     OW17923   2.073   0.164   8.982  0.0316  0.4446  0.1684
 2154SOL    HW117924   2.040   0.091   9.035  1.1957 -0.0491  0.2169
 2154SOL    HW217925   2.095   0.231   9.047  0.3972  0.2831  0.2084
 2155SOL     OW17926   2.896   2.912  17.659 -0.3185 -0.7523  0.2304
 2155SOL    HW117927   2.912   2.872   0.056  1.9871 -0.5671 -0.1029
 2155SOL    HW217928   2.884   3.004  17.683  0.8234 -0.1638 -1.4264
 2156SOL     OW17929   2.717   4.302  15.836 -0.2956  0.0260 -0.1026
 2156SOL    HW117930   2.741   4.277  15.747  1.7731  0.8622  0.2029
 2156SOL    HW217931   2.674   4.387  15.834 -1.0750 -0.2998  2.1095
 2157SOL     OW17932   2.697   3.467   6.952 -0.6468 -0.3730  0.2760
 2157SOL    HW117933   2.729   3.556   6.938  0.2602 -0.8014 -0.3967
 2157SOL    HW217934   2.741   3.420   6.881  0.6992 -0.7175  1.3602
 2158SOL     OW17935   1.142   2.247   2.461 -0.6938 -0.2170 -0.4701
 2158SOL    HW117936   1.180   2.327   2.427 -1.0902  1.0411  2.0522
 2158SOL    HW217937   1.204   2.175   2.445  2.2594  2.2222  0.1018
 2159SOL     OW17938   0.135   0.175   4.807 -0.2622  0.3553 -0.4057
 2159SOL    HW117939   0.103   0.124   4.733  1.4244 -0.4349 -0.5964
 2159SOL    HW217940   0.063   0.236   4.818 -1.7736 -1.8237  1.5171
 2160SOL     OW17941   2.269   4.319   6.438 -0.5204 -0.1062 -0.0945
 2160SOL    HW117942   2.297   4.233   6.406  1.3273  0.0849  1.0244
 2160SOL    HW217943   2.189   4.343   6.390 -0.1861  1.1952  0.0053
 2161SOL     OW17944   2.952   4.509   5.700  0.5956 -0.4033  0.6099
 2161SOL    HW117945   2.961   4.567   5.775  1.2541 -0.3214  0.4737
 2161SOL    HW217946   2.947   4.423   5.742 -0.4199 -0.4988  0.2786
 2162SOL     OW17947   3.979   1.000   4.932  0.7542  0.7896 -0.2916
 2162SOL    HW117948   3.942   0.949   4.859  1.5899 -0.4764  0.1695
 2162SOL    HW217949   3.945   1.083   4.898  1.1709  1.1815  0.2697
 2163SOL     OW17950   0.043   2.466  15.102 -0.1314 -0.0906  0.6935
 2163SOL    HW117951   0.106   2.452  15.173 -0.4730  1.7307  1.3567
 2163SOL    HW217952   4.684   2.446  15.151 -1.0607  0.6739 -0.5393
 2164SOL     OW17953   3.070   0.737  11.168  0.2391  0.2535  0.0996
 2164SOL    HW117954   3.045   0.645  11.158 -2.8025  1.2867 -1.8286
 2164SOL    HW217955   3.072   0.741  11.264 -3.4346  1.4732  0.1347
 2165SOL     OW17956   0.509   3.913   3.353 -0.2836  0.3044 -0.4825
 2165SOL    HW117957   0.531   3.837   3.299 -1.7501  0.3644 -1.1568
 2165SOL    HW217958   0.596   3.947   3.375 -0.1412 -0.3759  0.0064
 2166SOL     OW17959   1.927   0.033  12.848  0.0218  0.2991 -0.8144
 2166SOL    HW117960   1.869   0.006  12.919  1.5631  0.5389  0.5455
 2166SOL    HW217961   1.907   0.127  12.845  1.1434  0.5752  0.0358
 2167SOL     OW17962   1.666   1.902   8.675 -0.2107 -0.2356 -0.2174
 2167SOL    HW117963   1.758   1.884   8.692  0.7779  3.6063 -1.5423
 2167SOL    HW217964   1.625   1.856   8.748 -0.2378 -0.5604 -0.4335
 2168SOL     OW17965   2.329   3.214   6.873 -0.3040  0.2948 -0.6055
 2168SOL    HW117966   2.403   3.163   6.841 -0.6266  0.2128 -1.2108
 2168SOL    HW217967   2.274   3.147   6.914  0.2717 -0.0582 -0.4009
 2169SOL     OW17968   0.939   0.756  10.316 -0.3968 -0.0786  0.1722
 2169SOL    HW117969   0.993   0.686  10.352  1.3964  1.9172  1.3954
 2169SOL    HW217970   0.879   0.714  10.254  0.5946 -0.8434 -0.2589
 2170SOL     OW17971   2.424   0.248   0.555 -0.5797 -0.0231 -0.6151
 2170SOL    HW117972   2.390   0.337   0.546 -2.7981 -0.7639  0.3865
 2170SOL    HW217973   2.367   0.209   0.622  0.9785 -0.5897  0.3876
 2171SOL     OW17974   2.996   1.113   5.646  0.1431  0.0146  0.0076
 2171SOL    HW117975   2.986   1.158   5.562  1.0692 -0.8669 -0.5738
 2171SOL    HW217976   3.090   1.102   5.638  0.0802 -0.1075 -0.5616
 2172SOL     OW17977   1.027   3.539  12.558  0.2182  0.0180 -0.3281
 2172SOL    HW117978   0.931   3.537  12.568  0.2141 -1.2525 -0.5420
 2172SOL    HW217979   1.030   3.470  12.492  1.4246  0.0597 -0.3105
 2173SOL     OW17980   2.767   2.091   6.213  0.0825  0.1334  0.7335
 2173SOL    HW117981   2.672   2.102   6.209  0.1201 -0.7458 -2.6776
 2173SOL    HW217982   2.767   2.011   6.266 -1.3171  0.2203  0.8638
 2174SOL     OW17983   2.628   1.623   0.485  0.0613 -0.7326 -0.0403
 2174SOL    HW117984   2.693   1.556   0.462 -0.4391 -1.0079 -0.6541
 2174SOL    HW217985   2.548   1.575   0.466 -0.2008 -1.0601  1.8675
 2175SOL     OW17986   2.443   0.654   9.462 -0.2154 -0.1064 -0.0403
 2175SOL    HW117987   2.497   0.579   9.438  0.8399  0.6598 -0.0835
 2175SOL    HW217988   2.436   0.640   9.556 -0.6273 -1.3805 -0.2649
 2176SOL     OW17989   2.013   4.392  12.785  0.4103 -0.0268 -1.1826
 2176SOL    HW117990   2.078   4.359  12.847 -0.2860 -3.4743 -2.3107
 2176SOL    HW217991   1.965   4.319  12.747  0.9811 -1.5783  1.1181
 2177SOL     OW17992   2.208   1.491   7.377  0.0089 -0.2162 -0.9829
 2177SOL    HW117993   2.237   1.400   7.371  1.4239  0.1931 -0.3298
 2177SOL    HW217994   2.223   1.527   7.290  1.1090 -1.9971 -1.5325
 2178SOL     OW17995   4.222   3.256  10.404  0.4792 -0.2685  0.3090
 2178SOL    HW117996   4.152   3.250  10.339  0.2716 -1.5750  0.6508
 2178SOL    HW217997   4.292   3.286  10.346  0.2373 -1.9938 -0.8548
 2179SOL     OW17998   3.090   3.996   2.840  0.4540  0.1334 -0.3008
 2179SOL    HW117999   3.107   4.044   2.759 -0.7196  0.7951 -0.1537
 2179SOL    HW218000   3.058   4.067   2.895  4.0837  1.6693 -0.1618
 2180SOL     OW18001   3.649   1.379   5.441 -0.4968 -0.4731 -0.1218
 2180SOL    HW118002   3.740   1.407   5.457  0.0571 -3.2954  1.6164
 2180SOL    HW218003   3.607   1.387   5.527 -0.3110  2.2689 -0.2850
 2181SOL     OW18004   3.904   1.257   4.806  0.0456 -0.0109 -0.4017
 2181SOL    HW118005   3.886   1.207   4.726  0.1561  0.3859 -0.6776
 2181SOL    HW218006   3.821   1.298   4.832  0.2468 -1.3123  2.2850
 2182SOL     OW18007   4.423   4.555   6.873  0.3503 -0.4239 -0.1899
 2182SOL    HW118008   4.418   4.552   6.968  2.1635 -0.5635 -0.0956
 2182SOL    HW218009   4.342   4.603   6.854  2.0028  1.7051 -1.9113
 2183SOL     OW18010   3.564   3.851  11.888  0.2333 -0.0458  0.2404
 2183SOL    HW118011   3.642   3.886  11.844 -0.0198  1.1011  0.6939
 2183SOL    HW218012   3.591   3.760  11.892 -0.2014 -0.0936  2.0755
 2184SOL     OW18013   3.100   1.556  10.467  0.3230 -0.5733 -0.2809
 2184SOL    HW118014   3.157   1.481  10.451  0.1042 -0.6473 -0.7237
 2184SOL    HW218015   3.102   1.594  10.379 -0.6989  0.4350  0.1416
 2185SOL     OW18016   2.279   0.809   8.070 -0.9163 -0.1661 -0.0595
 2185SOL    HW118017   2.269   0.895   8.029 -0.2547 -0.2690 -0.4367
 2185SOL    HW218018   2.312   0.835   8.156  1.7961 -0.6741 -0.9434
 2186SOL     OW18019   4.042   3.914   5.470 -0.0343  0.3075  0.1621
 2186SOL    HW118020   3.962   3.922   5.418  1.6541  0.2565 -2.4547
 2186SOL    HW218021   4.105   3.965   5.420 -0.7368 -0.3970 -1.4537
 2187SOL     OW18022   2.598   4.377   1.665  0.1158  0.0688  0.2464
 2187SOL    HW118023   2.681   4.383   1.713  0.5881  1.6344 -0.7760
 2187SOL    HW218024   2.535   4.400   1.734  1.3087 -0.1617  1.4128
 2188SOL     OW18025   2.741   0.750   4.423  0.6686  0.0431  0.1754
 2188SOL    HW118026   2.774   0.666   4.391  2.1082  0.9412 -0.7283
 2188SOL    HW218027   2.806   0.780   4.486  0.0501  0.5024  0.5965
 2189SOL     OW18028   4.097   3.413  11.451  0.1625 -0.0687  0.4040
 2189SOL    HW118029   4.136   3.380  11.370  1.3643 -0.1981  1.0349
 2189SOL    HW218030   4.116   3.348  11.519 -2.8417  0.1705  1.5084
 2190SOL     OW18031   0.799   4.484  10.165  0.4920 -0.9667 -0.2344
 2190SOL    HW118032   0.757   4.428  10.230 -1.2489 -0.6487 -1.0942
 2190SOL    HW218033   0.867   4.537  10.206  0.0167 -0.2081 -0.4127
 2191SOL     OW18034   0.865   0.871  11.186  0.0381 -0.4164 -0.2680
 2191SOL    HW118035   0.909   0.927  11.123  0.9694 -1.0418 -0.1872
 2191SOL    HW218036   0.784   0.919  11.198 -1.0215 -2.1523 -0.4891
 2192SOL     OW18037   2.529   3.410   6.706 -0.1435 -0.2210 -0.2480
 2192SOL    HW118038   2.612   3.363   6.709  0.8404  1.4822 -1.1424
 2192SOL    HW218039   2.486   3.396   6.791 -0.7038  3.2337  0.0284
 2193SOL     OW18040   4.114   3.045   9.477 -0.0465 -0.2541 -0.3248
 2193SOL    HW118041   4.195   3.093   9.458 -1.1783  1.3994 -0.8681
 2193SOL    HW218042   4.142   2.955   9.496  2.3875  0.3731 -0.9138
 2194SOL     OW18043   1.918   0.899  11.507 -0.1995 -0.5407 -0.3169
 2194SOL    HW118044   1.849   0.950  11.465 -0.0556  0.1847  0.3147
 2194SOL    HW218045   1.971   0.961  11.557 -0.7440  0.0512 -0.4708
 2195SOL     OW18046   2.477   0.617   3.591  0.4979 -0.1367 -0.2875
 2195SOL    HW118047   2.515   0.532   3.570  0.3835 -0.1437 -0.4692
 2195SOL    HW218048   2.389   0.606   3.556  0.0685 -1.8243  1.3494
 2196SOL     OW18049   0.706   0.028   5.602 -0.3679  0.0037 -0.3418
 2196SOL    HW118050   0.779   0.018   5.541 -1.1678 -1.3657 -1.0817
 2196SOL    HW218051   0.721   0.110   5.648  1.3012 -0.7828  0.5152
 2197SOL     OW18052   2.111   4.315  17.173  0.5418 -0.1890  1.0090
 2197SOL    HW118053   2.133   4.228  17.141 -1.2266 -1.3150  2.8623
 2197SOL    HW218054   2.020   4.328  17.146  1.7100  2.2162 -1.7781
 2198SOL     OW18055   3.091   3.376  15.891 -0.7300 -0.0659  0.8618
 2198SOL    HW118056   3.178   3.347  15.864 -0.8937 -1.6337  2.0142
 2198SOL    HW218057   3.088   3.462  15.849 -0.9690  0.5280  2.0667
 2199SOL     OW18058   1.309   3.368   3.660  0.1085  0.6176 -0.4251
 2199SOL    HW118059   1.372   3.323   3.604  1.4374  1.5367  0.3133
 2199SOL    HW218060   1.232   3.377   3.605  0.1739 -0.2250 -0.6561
 2200SOL     OW18061   1.162   0.291  15.734  0.4414  0.3375  0.4050
 2200SOL    HW118062   1.239   0.332  15.694 -1.0771  0.6133 -2.1859
 2200SOL    HW218063   1.101   0.307  15.663 -0.2868  1.4246  1.2720
 2201SOL     OW18064   0.023   0.163   2.763 -0.2668 -0.2257 -0.0811
 2201SOL    HW118065   0.068   0.079   2.768  2.2134  1.1583  0.7980
 2201SOL    HW218066   0.040   0.189   2.672 -1.4720 -0.2634 -0.3181
 2202SOL     OW18067   1.947   0.877   7.306  0.5022  0.0999 -0.6371
 2202SOL    HW118068   1.926   0.802   7.251 -1.1959  0.7154 -0.8502
 2202SOL    HW218069   1.965   0.842   7.394 -2.3615  0.0264 -0.0553
 2203SOL     OW18070   0.626   2.183  12.875 -0.3460 -0.3496  0.1590
 2203SOL    HW118071   0.692   2.191  12.944 -0.0408 -2.7176  0.1449
 2203SOL    HW218072   0.651   2.255  12.818 -0.3165  0.4407  1.1740
 2204SOL     OW18073   0.169   1.160   8.547 -0.5020 -0.1287  0.0790
 2204SOL    HW118074   0.199   1.189   8.461 -0.1736 -0.1921  0.1719
 2204SOL    HW218075   0.079   1.139   8.523 -0.9604  1.4132  0.4897
 2205SOL     OW18076   1.817   3.459  16.461  0.1674  0.6468 -0.1720
 2205SOL    HW118077   1.905   3.480  16.432  0.3630  1.5855  1.1121
 2205SOL    HW218078   1.763   3.461  16.382  1.4507 -0.8912 -1.0919
 2206SOL     OW18079   1.396   2.710  15.513 -0.0764 -0.0315 -0.0676
 2206SOL    HW118080   1.346   2.792  15.514 -2.1190 -1.2996 -0.0275
 2206SOL    HW218081   1.480   2.731  15.555 -1.4841 -0.8429  3.1107
 2207SOL     OW18082   1.588   3.247  14.960 -0.0756 -0.4325 -0.4261
 2207SOL    HW118083   1.626   3.160  14.949  0.6667 -0.6976  4.2179
 2207SOL    HW218084   1.493   3.240  14.970  0.0883 -0.1863  1.2723
 2208SOL     OW18085   1.800   4.609   1.411 -0.0917 -0.5854  0.4207
 2208SOL    HW118086   1.866   4.540   1.411  0.6306  0.1077  1.2632
 2208SOL    HW218087   1.842   4.693   1.395 -0.4460 -0.9619 -2.4089
 2209SOL     OW18088   0.853   1.875   3.102  0.7205 -0.2757  0.1129
 2209SOL    HW118089   0.861   1.891   3.008 -0.9839 -0.7486 -0.1223
 2209SOL    HW218090   0.930   1.825   3.127 -1.5250 -2.6533  2.3057
 2210SOL     OW18091   3.949   1.151   2.325  0.3861 -0.4174  0.5717
 2210SOL    HW118092   3.892   1.215   2.282  1.0243  0.6689  1.3450
 2210SOL    HW218093   4.012   1.126   2.258 -0.2565 -0.8066  0.1047
 2211SOL     OW18094   1.392   3.613   6.793  0.2374 -0.0529 -0.4788
 2211SOL    HW118095   1.367   3.652   6.877  1.2852  0.0133 -0.1924
 2211SOL    HW218096   1.451   3.543   6.818  0.9939  0.8485  0.2775
 2212SOL     OW18097   1.876   0.899   5.066  0.1636 -0.0095 -0.0627
 2212SOL    HW118098   1.871   0.994   5.057  1.4698  0.0456 -0.2450
 2212SOL    HW218099   1.926   0.875   4.988  0.3901  1.0486 -0.2404
 2213SOL     OW18100   3.161   0.880   6.779  0.0958 -0.0271  0.2721
 2213SOL    HW118101   3.118   0.947   6.832  0.1414 -0.2148  0.5498
 2213SOL    HW218102   3.110   0.899   6.701 -3.1205  1.1403  2.6541
 2214SOL     OW18103   2.395   0.236   6.811  0.1353 -0.1450  0.2656
 2214SOL    HW118104   2.374   0.239   6.904  1.4872  2.5685  0.4691
 2214SOL    HW218105   2.441   0.152   6.805  1.4375  0.5505  0.5349
 2215SOL     OW18106   1.058   1.376   6.090 -0.2425  0.1624 -0.2401
 2215SOL    HW118107   1.074   1.449   6.150  0.6341 -0.8417  0.7658
 2215SOL    HW218108   1.076   1.302   6.148 -0.3559 -0.1632 -0.6230
 2216SOL     OW18109   0.604   3.893   7.925  0.1559  0.5969  0.2185
 2216SOL    HW118110   0.615   3.798   7.932  1.9432  0.8771  1.2254
 2216SOL    HW218111   0.696   3.917   7.941  0.8599 -1.8591 -0.1535
 2217SOL     OW18112   4.525   4.509   4.870 -0.0623 -0.4236 -0.0070
 2217SOL    HW118113   4.468   4.490   4.795  1.3965 -0.2389 -1.1627
 2217SOL    HW218114   4.611   4.500   4.829 -0.8129 -0.7577 -1.5362
 2218SOL     OW18115   4.252   2.230   6.595  0.2226  0.4288  0.6292
 2218SOL    HW118116   4.207   2.247   6.512  0.7567 -2.5209 -0.2817
 2218SOL    HW218117   4.205   2.153   6.628 -0.9808  0.6397 -0.5864
 2219SOL     OW18118   0.349   1.094  12.023 -0.3577 -0.2388  0.1011
 2219SOL    HW118119   0.428   1.045  12.048  1.2868  0.9568 -2.7373
 2219SOL    HW218120   0.278   1.032  12.039 -0.0808 -0.7976 -0.7840
 2220SOL     OW18121   2.206   3.259  16.550 -0.0658 -0.5125  0.5402
 2220SOL    HW118122   2.134   3.315  16.579 -0.3955 -0.3100 -0.6580
 2220SOL    HW218123   2.184   3.174  16.588 -1.1140 -0.0909  0.8661
 2221SOL     OW18124   2.334   4.455   4.548 -0.1368 -0.1559 -0.0061
 2221SOL    HW118125   2.244   4.440   4.520 -0.2883 -0.2910  0.5722
 2221SOL    HW218126   2.352   4.546   4.522 -1.4863  0.0722 -0.1245
 2222SOL     OW18127   1.578   3.976  15.184 -0.5780  0.4579 -0.8910
 2222SOL    HW118128   1.579   4.025  15.102  1.6265 -0.7327 -1.5776
 2222SOL    HW218129   1.656   3.920  15.187 -1.0938 -0.2053  0.1543
 2223SOL     OW18130   4.041   4.536  15.165 -0.1657 -0.5511 -0.0817
 2223SOL    HW118131   3.998   4.463  15.120 -0.9934 -0.5097  0.6401
 2223SOL    HW218132   4.072   4.487  15.241  0.8254 -0.5393 -0.4836
 2224SOL     OW18133   0.263   1.060   9.891  0.1538 -0.1796  0.1221
 2224SOL    HW118134   0.260   1.009   9.810 -0.3158  0.7814 -0.4631
 2224SOL    HW218135   0.351   1.039   9.923 -0.2564 -1.8918  0.1232
 2225SOL     OW18136   4.032   1.502   4.695  0.5643 -0.1941 -0.1634
 2225SOL    HW118137   3.999   1.553   4.621  1.1409  0.4264  0.0043
 2225SOL    HW218138   3.956   1.446   4.712  0.2963 -0.0599 -0.9062
 2226SOL     OW18139   0.561   1.757   2.962  0.3631 -0.0292  0.0262
 2226SOL    HW118140   0.633   1.705   2.997 -0.1552  0.2239  1.4513
 2226SOL    HW218141   0.541   1.736   2.870  0.6876  3.7274 -0.9049
 2227SOL     OW18142   1.040   2.165   7.404 -0.2319 -0.0473  0.0778
 2227SOL    HW118143   0.988   2.230   7.450 -1.0720 -0.7760  0.1667
 2227SOL    HW218144   1.038   2.085   7.458 -1.2490 -0.5557 -0.7074
 2228SOL     OW18145   1.793   0.206   5.337  0.0879  0.1730 -0.1266
 2228SOL    HW118146   1.733   0.257   5.284  1.6480  2.3826  0.2295
 2228SOL    HW218147   1.870   0.198   5.280  0.1783 -0.5092  0.0795
 2229SOL     OW18148   0.064   1.875   7.816  0.5300  0.4989 -0.0342
 2229SOL    HW118149   0.075   1.921   7.899 -2.4789  1.3444 -0.0897
 2229SOL    HW218150   0.007   1.805   7.848  1.2532 -0.6239 -1.2120
 2230SOL     OW18151   3.516   1.785   1.765 -0.2605  0.2443 -0.3992
 2230SOL    HW118152   3.481   1.731   1.695 -0.0019 -0.3570 -0.0708
 2230SOL    HW218153   3.607   1.786   1.736 -0.9920  0.1676 -2.6347
 2231SOL     OW18154   2.732   4.168   0.299  0.1413  0.0330  0.3221
 2231SOL    HW118155   2.689   4.236   0.247  0.9103 -0.4641 -0.9561
 2231SOL    HW218156   2.779   4.224   0.361  0.4912 -0.1550  0.2228
 2232SOL     OW18157   2.351   3.175   6.571 -0.3013 -0.3667 -0.2063
 2232SOL    HW118158   2.259   3.202   6.566 -0.0980  0.5691  1.0474
 2232SOL    HW218159   2.379   3.204   6.658  0.3282  1.9345 -1.1840
 2233SOL     OW18160   0.627   2.464   0.632 -0.6264  0.0826  0.7212
 2233SOL    HW118161   0.575   2.545   0.639 -1.1870 -0.5292  3.5207
 2233SOL    HW218162   0.707   2.500   0.595 -0.9613  1.6231  1.5058
 2234SOL     OW18163   3.498   0.847  13.061  0.0975  0.1179  0.4358
 2234SOL    HW118164   3.535   0.761  13.083 -0.2177  0.5390  2.6238
 2234SOL    HW218165   3.440   0.823  12.989  0.4969 -1.2529  0.5670
 2235SOL     OW18166   1.280   0.664   2.809  0.0177  0.1813  0.5591
 2235SOL    HW118167   1.185   0.661   2.818  0.0351 -1.9844  0.1855
 2235SOL    HW218168   1.305   0.743   2.856  0.4324  0.5253 -0.2269
 2236SOL     OW18169   2.995   3.939   2.269 -0.2692  0.3662 -0.6305
 2236SOL    HW118170   3.076   3.918   2.223 -0.6762 -1.6161 -0.4408
 2236SOL    HW218171   2.928   3.900   2.214 -0.9296 -3.4249  2.9025
 2237SOL     OW18172   2.881   4.223  16.066  0.1619 -0.3704  0.0350
 2237SOL    HW118173   2.814   4.268  16.014  1.9781  0.5710 -1.5049
 2237SOL    HW218174   2.935   4.300  16.084 -0.9497  0.5943 -0.7747
 2238SOL     OW18175   0.267   1.875  10.128  0.3420  0.2475 -0.0971
 2238SOL    HW118176   0.307   1.951  10.085  1.2184 -0.8680 -1.2630
 2238SOL    HW218177   0.233   1.917  10.207  0.7069  1.0098 -0.3474
 2239SOL     OW18178   0.867   0.030   7.520  0.1001 -0.0927  0.0122
 2239SOL    HW118179   0.942   4.697   7.495  1.1039 -0.8279  4.7739
 2239SOL    HW218180   0.810   0.029   7.443 -1.6920 -3.3681  1.3783
 2240SOL     OW18181   3.108   1.871   6.825 -0.1932  0.5250  0.4620
 2240SOL    HW118182   3.185   1.860   6.881  0.6312 -0.0684 -0.7864
 2240SOL    HW218183   3.056   1.929   6.881 -2.5226 -0.9363 -0.1725
 2241SOL     OW18184   3.788   0.385   7.790  0.2995  0.6372  0.4319
 2241SOL    HW118185   3.791   0.478   7.768 -2.0169  0.5096 -0.3890
 2241SOL    HW218186   3.841   0.387   7.870 -1.3502 -2.9238  1.6318
 2242SOL     OW18187   2.327   1.051   4.628 -0.2297 -0.3932  0.3983
 2242SOL    HW118188   2.406   1.036   4.680  1.2282  1.1486 -1.3639
 2242SOL    HW218189   2.343   0.985   4.560  0.5067  3.3024 -3.0301
 2243SOL     OW18190   2.978   2.141  15.012 -0.1312 -0.1748  0.1265
 2243SOL    HW118191   2.986   2.047  14.995  1.9239 -0.2248  1.3046
 2243SOL    HW218192   2.897   2.150  14.962  0.4512 -0.3108 -0.8394
 2244SOL     OW18193   0.993   2.547   8.144  0.1034  0.2860  0.1766
 2244SOL    HW118194   0.989   2.460   8.104 -1.3187  0.0411  0.8617
 2244SOL    HW218195   0.902   2.551   8.174 -0.3148  0.9609 -1.1813
 2245SOL     OW18196   0.450   2.266   7.239  0.2843  0.9678  0.2075
 2245SOL    HW118197   0.393   2.196   7.271  0.5835  0.3102 -0.7079
 2245SOL    HW218198   0.442   2.245   7.146 -0.6336 -0.9821  0.7232
 2246SOL     OW18199   0.868   0.958  12.103 -0.0558  0.3344 -0.4581
 2246SOL    HW118200   0.902   1.048  12.096  0.8232  0.3478  3.5265
 2246SOL    HW218201   0.890   0.926  12.016  0.1948  2.5358 -1.1952
 2247SOL     OW18202   2.348   4.058   3.382 -0.2875  0.2361 -0.0928
 2247SOL    HW118203   2.341   4.052   3.478  0.7754  0.5259  0.0072
 2247SOL    HW218204   2.308   4.143   3.366  0.7722  1.3200  2.9165
 2248SOL     OW18205   1.256   1.031  14.502 -0.1693  0.1728 -0.2965
 2248SOL    HW118206   1.222   1.005  14.416  1.4230 -0.1933 -0.8010
 2248SOL    HW218207   1.212   0.967  14.558  1.4343 -0.4086  0.2880
 2249SOL     OW18208   0.444   3.727   6.635 -0.3127  0.0915 -0.1010
 2249SOL    HW118209   0.454   3.699   6.726 -1.4683  1.5610  0.4791
 2249SOL    HW218210   0.416   3.648   6.589  0.8149  0.7782 -1.9864
 2250SOL     OW18211   2.581   1.330   4.651  0.8390 -0.3361 -0.4470
 2250SOL    HW118212   2.556   1.271   4.580 -0.6910  0.7305 -0.8081
 2250SOL    HW218213   2.620   1.275   4.718 -0.8758  0.7808  1.4592
 2251SOL     OW18214   3.419   1.096  12.099 -0.3044 -0.2837 -0.0040
 2251SOL    HW118215   3.479   1.052  12.159 -0.8101 -0.1299  0.6070
 2251SOL    HW218216   3.333   1.054  12.100 -2.0675  3.2933 -0.5888
 2252SOL     OW18217   2.166   0.008   3.227  0.1442  0.1012  0.0432
 2252SOL    HW118218   2.148   0.102   3.225 -3.4539 -0.5918  0.3591
 2252SOL    HW218219   2.206   0.004   3.140  1.8689 -0.2252  0.8482
 2253SOL     OW18220   3.244   1.117  14.239 -0.4021  0.1216  0.1587
 2253SOL    HW118221   3.224   1.211  14.243 -1.4043 -0.0313 -1.3456
 2253SOL    HW218222   3.329   1.111  14.282 -0.8729  4.8243  1.7141
 2254SOL     OW18223   4.081   2.502   7.578  0.0063 -0.4062  0.4007
 2254SOL    HW118224   4.104   2.590   7.547 -2.7725 -0.5418 -2.1382
 2254SOL    HW218225   4.002   2.483   7.526  0.2734  1.3702 -0.6767
 2255SOL     OW18226   3.719   1.902   1.444  0.7588  0.0562 -0.3584
 2255SOL    HW118227   3.709   1.913   1.539 -2.0186 -0.6848 -0.5561
 2255SOL    HW218228   3.703   1.991   1.412  0.0569  0.1083  0.1299
 2256SOL     OW18229   1.051   0.822   6.496  0.5927 -0.1833  0.3728
 2256SOL    HW118230   0.993   0.846   6.423  0.0279  0.4188  1.0291
 2256SOL    HW218231   1.009   0.857   6.574  1.8693  2.9336 -0.3595
 2257SOL     OW18232   1.859   1.357   8.295  0.1783  0.7916  0.3796
 2257SOL    HW118233   1.767   1.353   8.324  0.4089 -0.0459  0.9943
 2257SOL    HW218234   1.894   1.318   8.375 -0.5293  0.1599  0.3805
 2258SOL     OW18235   4.261   0.734   5.094  0.1000  0.2080 -0.1900
 2258SOL    HW118236   4.212   0.674   5.150  0.0810  0.4680  0.0695
 2258SOL    HW218237   4.262   0.810   5.152  0.2455 -0.0290  0.1129
 2259SOL     OW18238   0.742   0.158   6.626  0.3677 -0.1803  0.0219
 2259SOL    HW118239   0.735   0.253   6.631  1.1344 -0.1058 -0.3037
 2259SOL    HW218240   0.705   0.134   6.711  2.6171  0.3241  1.1455
 2260SOL     OW18241   0.887   4.389   3.343  0.1947  0.4947 -0.0219
 2260SOL    HW118242   0.827   4.396   3.417  1.3711 -0.4403  1.0296
 2260SOL    HW218243   0.832   4.332   3.288 -1.3973  0.7364  1.3396
 2261SOL     OW18244   3.654   2.190   4.420  0.4299 -0.1360 -0.4766
 2261SOL    HW118245   3.564   2.163   4.438  0.7817  0.2762  1.9613
 2261SOL    HW218246   3.656   2.265   4.480  2.1300  0.0001 -0.6937
 2262SOL     OW18247   0.661   3.611   7.912 -0.4974  0.5929  0.7480
 2262SOL    HW118248   0.595   3.547   7.939  0.0988 -0.1960  0.3334
 2262SOL    HW218249   0.730   3.585   7.973 -1.5675 -0.8611  1.3304
 2263SOL     OW18250   4.090   4.493   6.167 -0.1160 -0.3591 -0.4794
 2263SOL    HW118251   4.170   4.478   6.218  0.1469  0.8838 -0.5166
 2263SOL    HW218252   4.083   4.404   6.132  1.6195 -0.9774  0.7267
 2264SOL     OW18253   4.412   4.165   3.849  0.1575  0.1692  0.0332
 2264SOL    HW118254   4.319   4.168   3.829 -0.1176 -0.9874  1.1196
 2264SOL    HW218255   4.426   4.072   3.830  0.6608  0.4374 -0.9109
 2265SOL     OW18256   4.351   0.944   4.592  0.4811 -0.1514 -0.1966
 2265SOL    HW118257   4.264   0.948   4.631  0.6315 -1.0784  0.2296
 2265SOL    HW218258   4.374   1.033   4.566  0.9267 -0.4388 -0.7909
 2266SOL     OW18259   1.565   1.516  15.032 -0.3915  0.3924  0.2558
 2266SOL    HW118260   1.533   1.428  15.054  0.1574 -0.2824 -1.6955
 2266SOL    HW218261   1.626   1.490  14.963 -1.1092 -2.5590  0.7526
 2267SOL     OW18262   0.506   3.920   0.804 -0.0712 -0.2775  0.5041
 2267SOL    HW118263   0.537   3.982   0.870  0.7145  0.4462 -0.5331
 2267SOL    HW218264   0.527   3.835   0.843  2.8367  0.5038  0.6784
 2268SOL     OW18265   3.695   4.528   4.176 -0.3852 -0.5149  1.1742
 2268SOL    HW118266   3.641   4.574   4.241 -1.1752  0.6385 -0.3122
 2268SOL    HW218267   3.628   4.513   4.110  2.6328 -3.8618 -1.1225
 2269SOL     OW18268   4.174   1.567   6.475  0.7459 -0.3164 -0.1620
 2269SOL    HW118269   4.165   1.621   6.396 -0.3047 -1.1472 -0.6046
 2269SOL    HW218270   4.085   1.566   6.508  0.7347 -1.2871 -0.2337
 2270SOL     OW18271   2.910   1.291  13.585  0.3700 -0.3955 -0.1859
 2270SOL    HW118272   2.994   1.337  13.578 -0.2269  0.5750 -0.9439
 2270SOL    HW218273   2.923   1.201  13.557 -0.5213 -1.1650  1.9249
 2271SOL     OW18274   0.321   3.089   5.843 -0.2468  0.5740 -0.3684
 2271SOL    HW118275   0.285   3.062   5.928 -0.1586 -0.4110 -0.6351
 2271SOL    HW218276   0.252   3.136   5.797 -0.5691 -0.7222 -1.2040
 2272SOL     OW18277   3.027   2.441   4.339 -0.4168 -0.0410  0.3257
 2272SOL    HW118278   2.998   2.447   4.247  2.9941 -0.5260 -0.7839
 2272SOL    HW218279   2.998   2.522   4.381 -1.3762  0.2434 -0.8545
 2273SOL     OW18280   0.490   0.503  12.998 -0.3779 -0.8057  0.5998
 2273SOL    HW118281   0.527   0.457  12.923 -1.3451 -2.1354  0.9376
 2273SOL    HW218282   0.572   0.548  13.019 -1.6082  2.5136 -1.5960
 2274SOL     OW18283   0.686   4.119   3.573  0.0227  0.5319  0.9262
 2274SOL    HW118284   0.698   4.213   3.562  1.1734  0.1258 -1.5136
 2274SOL    HW218285   0.770   4.087   3.537  0.0975  1.1132  0.5879
 2275SOL     OW18286   1.841   0.949  14.623 -0.0694  0.2415  0.1571
 2275SOL    HW118287   1.811   0.874  14.674 -1.6846  1.5780  1.1927
 2275SOL    HW218288   1.874   0.904  14.545 -0.3324  1.3985 -0.6219
 2276SOL     OW18289   0.463   1.969   3.221 -0.2980  0.2979 -0.0693
 2276SOL    HW118290   0.426   1.935   3.139 -0.4345  0.8976 -0.2560
 2276SOL    HW218291   0.503   2.052   3.196  1.7081 -0.4979  0.5612
 2277SOL     OW18292   2.451   3.336   4.238 -0.2232 -0.0613 -0.3658
 2277SOL    HW118293   2.457   3.241   4.251 -1.2542 -0.1724 -0.7556
 2277SOL    HW218294   2.368   3.348   4.193 -0.7832 -3.3713 -0.2070
 2278SOL     OW18295   0.965   1.043   3.132  0.3802 -0.0250 -0.1434
 2278SOL    HW118296   0.894   1.096   3.168 -0.8098 -1.2098 -0.7724
 2278SOL    HW218297   0.919   0.980   3.076 -1.5653  2.9947 -1.9229
 2279SOL     OW18298   1.443   0.755   2.447 -0.0800 -0.0782  0.0746
 2279SOL    HW118299   1.514   0.765   2.384 -0.0737  1.5343  0.3375
 2279SOL    HW218300   1.389   0.817   2.399 -0.0571 -1.1451 -1.3301
 2280SOL     OW18301   1.112   1.989   5.150 -0.3424 -0.0101  0.1170
 2280SOL    HW118302   1.092   1.907   5.106  1.0023 -0.6196  0.6670
 2280SOL    HW218303   1.135   1.958   5.237 -1.8203 -2.5886 -0.4102
 2281SOL     OW18304   0.068   2.798   4.118 -0.3057  0.0050  0.4747
 2281SOL    HW118305   0.036   2.714   4.153 -1.3319  0.0828 -0.2912
 2281SOL    HW218306   0.158   2.774   4.138 -0.3145 -2.6136 -2.6007
 2282SOL     OW18307   1.161   3.680   8.416 -0.7263 -0.1175 -0.3949
 2282SOL    HW118308   1.105   3.604   8.436 -2.2257  0.6960 -1.5146
 2282SOL    HW218309   1.146   3.683   8.322  0.6282  1.5147 -0.5556
 2283SOL     OW18310   0.943   2.816   2.531 -0.5448  0.4745 -0.1952
 2283SOL    HW118311   0.891   2.798   2.453 -0.0481 -1.2100 -0.1291
 2283SOL    HW218312   0.969   2.730   2.562 -0.2941  0.8149  0.5370
 2284SOL     OW18313   2.864   1.784   0.709  0.5659 -1.0483 -0.2818
 2284SOL    HW118314   2.877   1.782   0.804  4.2343  0.4457 -0.7672
 2284SOL    HW218315   2.776   1.823   0.706  1.0503  0.0279 -0.6454
 2285SOL     OW18316   2.188   4.031  17.092  1.3585 -0.5862 -0.1609
 2285SOL    HW118317   2.240   4.042  17.172 -2.2731  0.9569  1.9950
 2285SOL    HW218318   2.111   3.986  17.126  0.8269  0.1807 -0.3602
 2286SOL     OW18319   0.666   1.241  14.006 -0.7516 -0.2398 -0.4373
 2286SOL    HW118320   0.576   1.230  13.976 -1.0745  1.6841 -0.1519
 2286SOL    HW218321   0.700   1.171  13.949 -0.8993  0.7844 -1.7804
 2287SOL     OW18322   3.768   2.413   2.541  0.0811  0.5825 -0.2448
 2287SOL    HW118323   3.833   2.457   2.594 -0.0269  0.4344  0.0084
 2287SOL    HW218324   3.787   2.447   2.453  0.3208 -3.5007 -1.7873
 2288SOL     OW18325   0.449   1.924  11.030 -0.3445  0.4285 -0.5505
 2288SOL    HW118326   0.362   1.950  10.999 -0.8012 -0.8005 -0.3188
 2288SOL    HW218327   0.440   1.833  11.059  0.2094  0.8688  1.0067
 2289SOL     OW18328   1.924   4.337   1.432 -0.0105  0.4740  0.8052
 2289SOL    HW118329   1.843   4.286   1.422  0.0124  0.5223  0.3584
 2289SOL    HW218330   1.970   4.306   1.509 -0.1549 -1.4352  0.1288
 2290SOL     OW18331   2.576   0.736  11.953 -0.1191  0.2478 -0.1112
 2290SOL    HW118332   2.650   0.691  11.912  0.3217 -0.6031  1.6365
 2290SOL    HW218333   2.548   0.667  12.012  0.2058  0.7204  0.6017
 2291SOL     OW18334   3.511   4.533   4.651 -0.3750 -0.6414 -0.1826
 2291SOL    HW118335   3.459   4.574   4.721  2.2896  1.1958  0.7218
 2291SOL    HW218336   3.447   4.471   4.617 -0.2245  0.0258 -1.6883
 2292SOL     OW18337   3.415   0.404   5.345 -0.1891 -0.3671 -0.1660
 2292SOL    HW118338   3.364   0.364   5.415  1.6359 -0.0429  1.3564
 2292SOL    HW218339   3.503   0.369   5.362 -0.7422 -0.5824  2.3728
 2293SOL     OW18340   1.952   1.323  15.440  0.2562  0.2599 -0.4348
 2293SOL    HW118341   2.001   1.279  15.370 -0.7871 -0.7212 -0.5413
 2293SOL    HW218342   1.914   1.245  15.479  0.2988  0.6344  0.3441
 2294SOL     OW18343   4.443   2.994  10.347  0.0994 -0.7777  0.5436
 2294SOL    HW118344   4.536   3.013  10.337  0.4262 -2.2445  0.7907
 2294SOL    HW218345   4.434   2.914  10.294  0.1115  0.8664 -1.9337
 2295SOL     OW18346   2.572   3.661   0.350 -0.4420 -0.8964  0.1967
 2295SOL    HW118347   2.579   3.751   0.318  1.8765 -1.4269 -0.7757
 2295SOL    HW218348   2.480   3.644   0.330 -0.0667  0.1116 -2.4247
 2296SOL     OW18349   0.839   3.649   4.084  0.5724 -0.3305  0.1077
 2296SOL    HW118350   0.757   3.689   4.112  0.4727  0.9753 -2.0001
 2296SOL    HW218351   0.810   3.608   4.003  0.5218 -1.1420  0.5444
 2297SOL     OW18352   3.083   0.614  13.496 -0.4738  0.2515  0.7963
 2297SOL    HW118353   3.122   0.694  13.531  0.8270  0.5273 -1.2849
 2297SOL    HW218354   3.104   0.631  13.404 -2.4453  1.3940  0.5385
 2298SOL     OW18355   1.714   0.905   3.138  0.5261  0.1927 -0.1724
 2298SOL    HW118356   1.808   0.912   3.150  0.3569  1.1442  0.6066
 2298SOL    HW218357   1.707   0.850   3.060  2.3045  0.5362 -0.5676
 2299SOL     OW18358   3.101   3.626   9.012  0.4773  0.3936  0.7783
 2299SOL    HW118359   3.078   3.641   9.103 -0.1060 -1.4142  0.9371
 2299SOL    HW218360   3.186   3.669   9.005  0.8987 -0.6857 -0.8899
 2300SOL     OW18361   3.271   4.051   4.947  0.3491 -0.0475 -0.1937
 2300SOL    HW118362   3.321   4.112   5.000  1.3900 -2.4441  1.5969
 2300SOL    HW218363   3.188   4.058   4.993 -0.1642 -0.3343 -1.0652
 2301SOL     OW18364   3.067   4.215   7.157 -0.3409 -0.4412  0.1933
 2301SOL    HW118365   2.983   4.176   7.131  0.0530 -1.2612  0.1699
 2301SOL    HW218366   3.056   4.219   7.252  0.3584  0.3308  0.2412
 2302SOL     OW18367   3.128   2.524   6.686 -0.3019  0.1224  0.5418
 2302SOL    HW118368   3.176   2.604   6.707  0.0837 -0.3277  1.3744
 2302SOL    HW218369   3.182   2.503   6.609  0.4328 -0.6341  1.2715
 2303SOL     OW18370   0.393   4.421   6.358 -0.0466 -0.0708  0.2660
 2303SOL    HW118371   0.381   4.508   6.321  0.5454 -0.6978 -1.3848
 2303SOL    HW218372   0.487   4.414   6.372 -0.0846 -3.1820 -1.1927
 2304SOL     OW18373   1.602   2.266   6.961  0.0909 -0.6712  0.2835
 2304SOL    HW118374   1.588   2.333   7.028  0.4837  1.2038 -1.5524
 2304SOL    HW218375   1.656   2.321   6.905  0.2799  0.4921  1.6186
 2305SOL     OW18376   1.450   2.135  12.329 -0.0284 -0.2887  0.3417
 2305SOL    HW118377   1.384   2.138  12.259  0.5760  0.5218 -0.1837
 2305SOL    HW218378   1.530   2.164  12.286 -1.4859 -0.0975 -2.2731
 2306SOL     OW18379   3.760   3.328  13.678 -0.0969  0.0615 -0.1190
 2306SOL    HW118380   3.679   3.312  13.631  0.9315 -0.0613 -1.8479
 2306SOL    HW218381   3.808   3.386  13.619 -0.9533  1.4900  0.6013
 2307SOL     OW18382   2.730   0.348  12.526 -0.3701 -0.3000  0.3179
 2307SOL    HW118383   2.713   0.263  12.486 -0.1168  0.8493 -2.2592
 2307SOL    HW218384   2.818   0.343  12.564  0.4272 -0.1686 -1.5297
 2308SOL     OW18385   4.091   2.670  11.355 -0.0207 -0.0757  0.3533
 2308SOL    HW118386   4.107   2.739  11.291  0.0155 -1.4364 -1.1173
 2308SOL    HW218387   4.012   2.630  11.319  0.1873 -0.5383  0.4090
 2309SOL     OW18388   0.489   2.428   2.609 -0.2870  0.4284  1.0831
 2309SOL    HW118389   0.553   2.434   2.538  0.0478 -1.2361  1.2436
 2309SOL    HW218390   0.410   2.459   2.564  0.5665 -0.6120 -1.1284
 2310SOL     OW18391   2.698   1.020   4.162  0.1980 -0.2918  0.4502
 2310SOL    HW118392   2.730   1.069   4.086 -2.3955 -1.0949 -1.1854
 2310SOL    HW218393   2.751   1.045   4.237 -0.2435 -2.7413  1.5927
 2311SOL     OW18394   1.823   1.650   5.020  0.0044  0.2162  0.3952
 2311SOL    HW118395   1.832   1.623   5.111  2.0694 -0.6823 -0.0642
 2311SOL    HW218396   1.829   1.566   4.974  1.0083  0.3131  0.3488
 2312SOL     OW18397   1.825   3.874   6.892 -0.5153 -0.6901 -0.5013
 2312SOL    HW118398   1.893   3.901   6.830  2.0475 -4.4197  0.7005
 2312SOL    HW218399   1.746   3.907   6.850 -0.2135 -0.4416 -0.8749
 2313SOL     OW18400   0.520   0.241   3.649 -0.8440 -0.0554  0.3040
 2313SOL    HW118401   0.467   0.251   3.570  0.7429 -1.1985 -0.9162
 2313SOL    HW218402   0.470   0.295   3.710 -3.4188 -0.3321 -1.5982
 2314SOL     OW18403   1.088   2.752   8.017  0.0877 -0.1827  0.1208
 2314SOL    HW118404   1.016   2.815   8.015  2.6746  2.9065  1.9718
 2314SOL    HW218405   1.043   2.679   8.059 -0.6289 -1.0845 -2.2119
 2315SOL     OW18406   2.409   3.096   8.843  0.6223  0.0716 -0.4338
 2315SOL    HW118407   2.320   3.081   8.875  1.6279 -1.0642  1.8533
 2315SOL    HW218408   2.405   3.190   8.860  0.2751 -0.4812  2.5218
 2316SOL     OW18409   1.150   0.091   1.465 -0.4468 -0.2231  0.0830
 2316SOL    HW118410   1.063   0.095   1.425 -1.2406 -0.8117  1.7631
 2316SOL    HW218411   1.134   0.160   1.529  1.7230  0.1409  0.2462
 2317SOL     OW18412   4.720   4.223  10.304 -0.1588 -0.2317 -0.1257
 2317SOL    HW118413   0.010   4.284  10.378 -0.4830  0.5149 -0.6926
 2317SOL    HW218414   0.088   4.196  10.286 -0.2529 -0.3440 -0.4184
 2318SOL     OW18415   1.166   2.740  13.236  0.6586  0.2872  0.4346
 2318SOL    HW118416   1.170   2.816  13.177  0.8917 -2.8990 -3.6910
 2318SOL    HW218417   1.248   2.767  13.279 -0.4458  2.0077  1.4400
 2319SOL     OW18418   0.202   3.968   2.173  0.6456 -0.4257  0.3373
 2319SOL    HW118419   0.135   3.917   2.218  0.0478 -0.5880 -0.7210
 2319SOL    HW218420   0.174   3.976   2.081  0.9516  0.2301  0.2957
 2320SOL     OW18421   0.731   3.240   5.561  0.9107  0.0510 -0.0149
 2320SOL    HW118422   0.668   3.249   5.632  0.0438 -0.7783 -0.6854
 2320SOL    HW218423   0.740   3.145   5.559 -1.5803 -0.2130  2.1276
 2321SOL     OW18424   1.402   0.010  14.799 -0.2176  0.1756 -0.2494
 2321SOL    HW118425   1.313   0.015  14.766  0.2776  4.3257 -1.0156
 2321SOL    HW218426   1.384   4.645  14.836  1.5508 -0.6491 -1.3190
 2322SOL     OW18427   2.478   3.847  11.831 -0.0851 -0.0844 -0.0554
 2322SOL    HW118428   2.444   3.858  11.742 -1.1754 -1.3613  0.2144
 2322SOL    HW218429   2.534   3.925  11.838 -2.0367  1.4509 -1.3446
 2323SOL     OW18430   2.700   0.762   3.531  0.1558 -0.5814  0.5998
 2323SOL    HW118431   2.613   0.727   3.550 -0.2429 -1.1851 -2.2531
 2323SOL    HW218432   2.708   0.735   3.439 -0.7495 -0.3674  0.4551
 2324SOL     OW18433   4.072   2.062   6.742 -0.4573  0.2970  0.0789
 2324SOL    HW118434   4.121   2.053   6.824 -1.4607  0.8133  0.7362
 2324SOL    HW218435   4.079   1.974   6.706  0.2599  0.5726 -0.4680
 2325SOL     OW18436   4.042   4.061   5.743  0.5048  0.0738 -0.0947
 2325SOL    HW118437   4.098   4.120   5.691  0.0005  0.2705 -0.4177
 2325SOL    HW218438   3.998   4.138   5.780  0.5692 -0.9213  2.0163
 2326SOL     OW18439   0.226   4.604  11.853 -0.0175 -0.3127 -0.2204
 2326SOL    HW118440   0.223   4.666  11.926  0.9391 -1.2891  0.6600
 2326SOL    HW218441   0.321   4.610  11.840 -0.1613 -2.0913 -2.0673
 2327SOL     OW18442   4.600   4.014   0.639  0.3870 -0.1026  0.1891
 2327SOL    HW118443   4.623   4.106   0.646 -0.3738  0.0246  1.0581
 2327SOL    HW218444   4.507   4.020   0.664  0.5661 -1.8263  1.3326
 2328SOL     OW18445   0.463   1.925  10.565 -0.7172  0.3897 -0.5016
 2328SOL    HW118446   0.396   1.892  10.625  2.3954  0.6106  3.0548
 2328SOL    HW218447   0.408   1.955  10.492 -1.3168  1.6782  0.4917
 2329SOL     OW18448   1.992   2.074   6.205  0.4395  0.1645 -0.3619
 2329SOL    HW118449   2.040   2.024   6.139  1.0683  1.9881 -1.2818
 2329SOL    HW218450   1.952   2.145   6.156  2.0930  2.1675  1.1728
 2330SOL     OW18451   0.634   1.687  14.304 -0.0531  0.0370 -0.4077
 2330SOL    HW118452   0.638   1.601  14.261 -2.0393 -0.1324 -0.2470
 2330SOL    HW218453   0.725   1.715  14.296 -0.4457  0.7590 -2.3774
 2331SOL     OW18454   2.863   3.391   5.386 -0.5434 -0.4920  0.1387
 2331SOL    HW118455   2.897   3.339   5.313  0.3160  0.7893 -0.3813
 2331SOL    HW218456   2.910   3.474   5.374  1.5872 -1.3541  2.6138
 2332SOL     OW18457   2.790   0.197   4.575  0.8915  0.3458  0.6251
 2332SOL    HW118458   2.830   0.224   4.658 -0.9782 -1.7858  2.2251
 2332SOL    HW218459   2.825   0.108   4.577 -1.0553 -0.4156  0.8928
 2333SOL     OW18460   0.875   1.364  14.597 -0.1754 -0.0560  0.4300
 2333SOL    HW118461   0.815   1.321  14.658 -0.0208 -0.9626 -0.0671
 2333SOL    HW218462   0.926   1.293  14.560  0.0296  0.4172 -0.1904
 2334SOL     OW18463   3.110   2.027  13.556  0.0917 -0.4103  0.0576
 2334SOL    HW118464   3.078   2.003  13.643 -0.1815  0.2502  0.1425
 2334SOL    HW218465   3.204   2.017  13.568  0.0014  0.0876  1.2183
 2335SOL     OW18466   1.737   1.834   2.173  0.2921 -0.4724 -0.1026
 2335SOL    HW118467   1.704   1.750   2.204 -2.0282  0.7591  0.7622
 2335SOL    HW218468   1.739   1.820   2.078 -1.1127  1.0529 -0.3666
 2336SOL     OW18469   1.290   1.523   8.109  0.9808  0.0341 -0.5958
 2336SOL    HW118470   1.358   1.458   8.095 -0.4168 -1.6915  0.6034
 2336SOL    HW218471   1.255   1.517   8.020 -0.7959 -4.3152  0.3659
 2337SOL     OW18472   4.198   0.584   5.492 -0.0587  0.8505  0.7037
 2337SOL    HW118473   4.235   0.658   5.539  0.0586  1.2408  0.0043
 2337SOL    HW218474   4.138   0.554   5.560  1.7545  3.4026  3.3719
 2338SOL     OW18475   3.685   4.564   9.519  0.3034  0.1437 -0.0224
 2338SOL    HW118476   3.734   4.525   9.447 -0.6098  0.7563 -0.9775
 2338SOL    HW218477   3.612   4.600   9.468 -0.1965 -0.4518  0.2765
 2339SOL     OW18478   1.485   3.839  12.208  0.3429  0.4812 -0.3481
 2339SOL    HW118479   1.453   3.749  12.215 -1.6464  1.1609 -0.8404
 2339SOL    HW218480   1.507   3.838  12.114  0.1082 -0.4009 -0.3938
 2340SOL     OW18481   0.111   0.957   2.145  0.2858 -0.3497  0.1237
 2340SOL    HW118482   0.179   0.897   2.175  1.3900  0.8470  0.0031
 2340SOL    HW218483   0.170   1.032   2.151  0.5317 -0.1971 -4.3158
 2341SOL     OW18484   0.397   0.723   7.166  0.5625  0.1640  0.2423
 2341SOL    HW118485   0.328   0.672   7.123  0.9471  0.4647 -0.7223
 2341SOL    HW218486   0.460   0.651   7.168 -1.0167 -1.2372  0.0279
 2342SOL     OW18487   0.506   1.618   2.716 -0.0033  0.1231  0.3122
 2342SOL    HW118488   0.410   1.620   2.707 -0.0074  0.5064  0.4704
 2342SOL    HW218489   0.533   1.687   2.656  0.1418 -0.0373  0.1913
 2343SOL     OW18490   4.239   0.783  15.777  0.1389 -0.3269  0.1286
 2343SOL    HW118491   4.298   0.708  15.772  0.9677  0.2016  1.8158
 2343SOL    HW218492   4.295   0.854  15.745 -2.1730  0.5791 -1.8811
 2344SOL     OW18493   2.606   4.697   3.885  0.7309 -0.1570  0.3439
 2344SOL    HW118494   2.595   0.050   3.826  1.3243  0.0985  0.5577
 2344SOL    HW218495   2.525   4.697   3.936  0.7368  0.1454  0.3540
 2345SOL     OW18496   0.045   1.011   5.402  0.0899 -0.0641 -0.4212
 2345SOL    HW118497   4.720   0.954   5.341 -1.1868 -0.5824  1.0194
 2345SOL    HW218498   0.113   1.048   5.347 -1.0982  0.1504 -1.7285
 2346SOL     OW18499   3.689   1.787  15.136 -0.3317 -0.1439 -0.1151
 2346SOL    HW118500   3.608   1.792  15.187 -1.2194  1.0004 -1.6344
 2346SOL    HW218501   3.669   1.762  15.045 -0.6874  2.2987 -0.6901
 2347SOL     OW18502   2.489   3.391  10.934 -0.3376  0.0746  0.0080
 2347SOL    HW118503   2.426   3.447  10.890 -0.7164 -0.1797  0.2275
 2347SOL    HW218504   2.428   3.320  10.950  1.2637 -1.3229 -0.0838
 2348SOL     OW18505   3.409   4.595   8.293  0.5294 -0.8327  0.0599
 2348SOL    HW118506   3.492   4.606   8.338  0.8894  0.5463 -0.9669
 2348SOL    HW218507   3.366   4.522   8.339  0.0190 -0.3267  0.3883
 2349SOL     OW18508   0.527   1.053   4.032 -0.1572  0.2379 -0.1113
 2349SOL    HW118509   0.439   1.089   4.044 -0.3958 -1.0116  1.9045
 2349SOL    HW218510   0.520   0.960   4.051  2.0407  0.2749  0.9593
 2350SOL     OW18511   4.301   0.178   6.423 -0.3578  0.2645 -0.4078
 2350SOL    HW118512   4.289   0.236   6.498 -2.2779 -0.9226  0.2058
 2350SOL    HW218513   4.296   0.099   6.478 -1.3169 -2.0294 -3.8248
 2351SOL     OW18514   1.926   0.402   1.313  0.4500 -0.4872 -0.3361
 2351SOL    HW118515   1.949   0.388   1.221 -0.4018 -2.7078 -0.2117
 2351SOL    HW218516   1.843   0.449   1.301  0.2020 -0.4785  1.4645
 2352SOL     OW18517   1.741   2.169   5.646  0.1229  0.2614 -0.9119
 2352SOL    HW118518   1.655   2.168   5.688  0.5287 -3.0207 -0.1992
 2352SOL    HW218519   1.721   2.152   5.554  1.1945 -1.3436 -0.8500
 2353SOL     OW18520   2.186   2.354   0.034 -0.8601  0.6388 -0.1648
 2353SOL    HW118521   2.166   2.408   0.111  0.2853 -1.5147  1.6557
 2353SOL    HW218522   2.271   2.314   0.057  0.2025  2.2250 -1.3531
 2354SOL     OW18523   3.042   4.697   5.279  0.0625  0.2547  0.0877
 2354SOL    HW118524   3.037   4.689   5.375  1.0465 -0.3571  0.0895
 2354SOL    HW218525   2.960   0.022   5.261 -1.2936 -1.0031  2.9371
 2355SOL     OW18526   2.956   3.940   0.531 -0.3944  0.9592 -0.1051
 2355SOL    HW118527   2.950   3.857   0.578 -3.5150  1.4030  0.2603
 2355SOL    HW218528   2.987   3.910   0.445 -1.5614 -0.0448 -0.1683
 2356SOL     OW18529   0.814   3.114  16.667 -0.2593  0.4528 -0.0363
 2356SOL    HW118530   0.874   3.186  16.687  0.8088  0.0692 -1.8627
 2356SOL    HW218531   0.730   3.159  16.674 -0.8882 -0.6308 -0.5903
 2357SOL     OW18532   2.998   2.953   7.775  0.0962  0.1983  0.1282
 2357SOL    HW118533   3.078   2.961   7.827  0.3681  3.3651 -0.7936
 2357SOL    HW218534   3.017   2.877   7.718  1.3412  0.3587  0.3202
 2358SOL     OW18535   2.876   4.358   4.809 -0.1037  0.4462 -0.0383
 2358SOL    HW118536   2.835   4.373   4.724 -1.3639 -4.5006 -0.2988
 2358SOL    HW218537   2.968   4.380   4.801 -0.0679 -0.0669 -0.9560
 2359SOL     OW18538   4.618   3.020  13.077  0.2874 -0.0714  0.2486
 2359SOL    HW118539   4.540   2.969  13.053  1.6660 -1.9824 -0.1768
 2359SOL    HW218540   4.639   2.982  13.162 -0.4830 -0.9139  0.0572
 2360SOL     OW18541   3.173   0.039   5.506  0.1677 -0.2808  0.3841
 2360SOL    HW118542   3.180   0.075   5.595 -1.2860 -3.1808  1.6706
 2360SOL    HW218543   3.265   0.047   5.479 -0.5639 -0.0659 -2.0087
 2361SOL     OW18544   2.962   3.417   0.028  0.0220  0.0361  0.0074
 2361SOL    HW118545   3.025   3.453  17.653  1.8884  0.2944  1.9998
 2361SOL    HW218546   2.882   3.429  17.666  0.6128 -0.9147 -1.1502
 2362SOL     OW18547   1.391   0.978  11.120  0.2009 -0.3404 -0.9022
 2362SOL    HW118548   1.404   1.067  11.154 -3.6364 -0.7114  1.6376
 2362SOL    HW218549   1.480   0.952  11.097  0.9936  2.5653 -1.0945
 2363SOL     OW18550   0.633   2.725  17.402 -0.3485  0.1293 -0.0103
 2363SOL    HW118551   0.558   2.726  17.462 -2.4866  0.6270 -2.7222
 2363SOL    HW218552   0.652   2.814  17.374 -1.5945  0.7565  1.1263
 2364SOL     OW18553   0.445   0.220   8.823 -0.0543 -0.5807 -0.5911
 2364SOL    HW118554   0.506   0.293   8.809  0.0254 -0.7976 -1.3547
 2364SOL    HW218555   0.367   0.273   8.840  0.9406  0.9916 -0.9547
 2365SOL     OW18556   1.838   3.387   8.154  0.1569 -0.3441 -0.1549
 2365SOL    HW118557   1.769   3.328   8.185  0.6072  0.5332  2.5092
 2365SOL    HW218558   1.872   3.408   8.241  0.6868  2.0714 -0.9367
 2366SOL     OW18559   4.005   3.795  11.338 -0.7104  0.4295  0.0214
 2366SOL    HW118560   4.032   3.718  11.289  1.3219  0.3441  1.2950
 2366SOL    HW218561   3.964   3.757  11.416  0.7022  0.3225  0.7026
 2367SOL     OW18562   3.627   4.514   2.468  0.3594 -0.1152  0.2377
 2367SOL    HW118563   3.694   4.578   2.490  0.5198 -0.6428  1.2550
 2367SOL    HW218564   3.600   4.498   2.558  0.5833 -0.0772  0.3096
 2368SOL     OW18565   1.151   2.435  17.632 -0.0372  0.1439 -0.3823
 2368SOL    HW118566   1.232   2.386  17.614  1.2796  2.7645 -1.6494
 2368SOL    HW218567   1.180   2.498   0.010 -0.2411  1.6108 -1.6917
 2369SOL     OW18568   3.683   0.170   8.969 -0.3580 -0.2279  0.0027
 2369SOL    HW118569   3.656   0.199   9.056 -0.2272  0.0522 -0.0515
 2369SOL    HW218570   3.709   0.252   8.929 -0.5571 -0.7382 -1.1707
 2370SOL     OW18571   0.774   2.250   4.847 -0.5222  0.3458  0.4493
 2370SOL    HW118572   0.687   2.250   4.886 -1.5068 -2.7914 -1.7208
 2370SOL    HW218573   0.741   2.205   4.769  0.3244 -1.4515  1.1333
 2371SOL     OW18574   2.146   3.433   1.194 -0.4106 -0.3485  0.3838
 2371SOL    HW118575   2.152   3.515   1.145 -0.2073 -0.5314  0.1070
 2371SOL    HW218576   2.052   3.433   1.212 -0.2474 -2.1953  1.2241
 2372SOL     OW18577   2.163   2.844   6.015 -0.2527  0.2244 -0.6682
 2372SOL    HW118578   2.215   2.833   5.935 -0.5954 -1.9914 -0.6051
 2372SOL    HW218579   2.193   2.764   6.060  1.7737  0.1486 -2.1636
 2373SOL     OW18580   2.274   2.333   7.631  0.6501  0.0175 -0.3716
 2373SOL    HW118581   2.248   2.410   7.680  1.7885 -0.9094  1.7154
 2373SOL    HW218582   2.188   2.291   7.633 -0.3055  1.9980  0.1254
 2374SOL     OW18583   4.689   4.384   2.962  0.0048  0.4768  0.4000
 2374SOL    HW118584   4.709   4.345   3.047 -2.3818  0.1474  0.8021
 2374SOL    HW218585   4.715   4.475   2.978  2.4058 -0.3356  1.0729
 2375SOL     OW18586   1.789   4.513   7.248  0.1839  0.0475  0.0029
 2375SOL    HW118587   1.771   4.420   7.264 -2.7612  0.7891  0.8857
 2375SOL    HW218588   1.814   4.536   7.338 -1.5339 -0.4658  0.6084
 2376SOL     OW18589   1.709   0.897   5.972 -0.1897  0.6445 -0.2425
 2376SOL    HW118590   1.747   0.848   6.044  0.7372  2.7744  0.7028
 2376SOL    HW218591   1.697   0.817   5.920  1.8450  1.0848 -1.4059
 2377SOL     OW18592   2.494   4.166  12.718  0.3778 -0.4715 -0.1664
 2377SOL    HW118593   2.575   4.190  12.763  0.0615  2.2167 -1.0354
 2377SOL    HW218594   2.470   4.248  12.676 -1.4335 -1.5831 -1.2992
 2378SOL     OW18595   1.700   3.321  15.246  0.0445  0.5329  0.1920
 2378SOL    HW118596   1.634   3.294  15.310  0.0355  2.7173  1.1153
 2378SOL    HW218597   1.660   3.303  15.161  2.0947  0.4259 -0.7442
 2379SOL     OW18598   1.305   1.472   9.433  0.4065 -0.2681 -0.0240
 2379SOL    HW118599   1.284   1.382   9.459  1.8212 -0.6548 -0.1652
 2379SOL    HW218600   1.385   1.466   9.381  0.8002 -1.0919  0.6669
 2380SOL     OW18601   1.659   2.991   8.586  0.2472  0.1962 -0.6154
 2380SOL    HW118602   1.701   2.922   8.638  1.8249  0.7622 -1.1141
 2380SOL    HW218603   1.728   3.055   8.567 -0.5625  0.8473 -1.3140
 2381SOL     OW18604   0.548   1.718  16.244  0.3503 -0.1745 -0.3181
 2381SOL    HW118605   0.506   1.766  16.315  1.2054  1.1340 -0.6964
 2381SOL    HW218606   0.490   1.752  16.176  1.7448 -0.6922 -1.7606
 2382SOL     OW18607   2.973   3.518  11.010  0.0668  0.4042 -0.5104
 2382SOL    HW118608   2.881   3.521  11.037 -0.5972  1.1818 -2.8420
 2382SOL    HW218609   3.016   3.498  11.094 -1.0663  1.7978  0.4028
 2383SOL     OW18610   1.422   1.816   3.574  0.2588 -0.6721 -0.4582
 2383SOL    HW118611   1.388   1.839   3.488 -0.3923  1.9925  0.5106
 2383SOL    HW218612   1.437   1.722   3.562 -4.1655 -1.3466 -0.8057
 2384SOL     OW18613   1.688   0.303  11.979 -0.7732 -0.4130  0.0215
 2384SOL    HW118614   1.612   0.321  12.034 -1.8258  0.4037 -1.7079
 2384SOL    HW218615   1.712   0.391  11.949  0.6124 -1.0540 -0.7656
 2385SOL     OW18616   0.275   4.068   7.046  0.2930  0.3544  0.1641
 2385SOL    HW118617   0.338   3.997   7.053 -0.5884 -0.3644  0.7689
 2385SOL    HW218618   0.315   4.121   6.977 -0.6506  1.9002  0.7972
 2386SOL     OW18619   3.982   4.644  13.345 -0.2450 -0.1271  0.0157
 2386SOL    HW118620   4.003   4.646  13.439  0.9919 -0.2084 -0.2585
 2386SOL    HW218621   3.891   4.674  13.345 -0.4112 -0.6902 -2.3089
 2387SOL     OW18622   2.755   2.290   0.578 -0.1175 -0.1252 -0.1980
 2387SOL    HW118623   2.693   2.219   0.592 -2.0145  1.5880  0.0051
 2387SOL    HW218624   2.773   2.307   0.671 -1.3722  1.9507 -0.3527
 2388SOL     OW18625   0.731   3.386   4.680 -0.2968  0.1142 -0.0760
 2388SOL    HW118626   0.698   3.473   4.702  0.5631  0.2432  0.6807
 2388SOL    HW218627   0.698   3.335   4.754  3.5671  1.3015  2.4251
 2389SOL     OW18628   0.843   0.765   8.087  0.0643  0.6563 -0.0322
 2389SOL    HW118629   0.856   0.829   8.156  1.6852  0.6572 -0.3462
 2389SOL    HW218630   0.832   0.827   8.015 -3.7337  1.1487  0.9497
 2390SOL     OW18631   3.770   1.789  12.801 -0.1710  0.2440  0.0132
 2390SOL    HW118632   3.723   1.818  12.723 -1.9115  1.5001  1.5492
 2390SOL    HW218633   3.735   1.861  12.853  3.0312 -0.2450  2.8695
 2391SOL     OW18634   0.164   1.852   0.057 -0.9073 -0.3556  0.6872
 2391SOL    HW118635   0.173   1.899  17.662  0.4266 -0.9829  0.4883
 2391SOL    HW218636   0.251   1.814   0.067  0.6320  3.2471  0.9656
 2392SOL     OW18637   3.573   0.422   2.508 -0.2206 -0.5214  0.6175
 2392SOL    HW118638   3.548   0.512   2.529 -2.6031 -0.6834 -1.5865
 2392SOL    HW218639   3.487   0.383   2.496  0.2761 -0.8029 -1.8645
 2393SOL     OW18640   2.929   3.754  11.675 -0.2724 -0.2648  0.0770
 2393SOL    HW118641   2.991   3.701  11.725 -0.9133 -0.2243  0.9105
 2393SOL    HW218642   2.875   3.687  11.632  0.5458 -1.2976  0.6617
 2394SOL     OW18643   1.745   3.416  16.714  0.2092  0.2293  0.2522
 2394SOL    HW118644   1.838   3.434  16.722  0.7552 -2.6417  0.3497
 2394SOL    HW218645   1.756   3.397  16.621  0.0723  0.4398  0.1936
 2395SOL     OW18646   0.111   1.482  12.815 -0.0847  0.6675  0.9981
 2395SOL    HW118647   0.171   1.420  12.772  0.4102  0.7128  1.6257
 2395SOL    HW218648   0.162   1.562  12.823  2.5015 -0.7315 -1.0575
 2396SOL     OW18649   0.329   3.615  15.189  0.0941  0.9314 -0.6253
 2396SOL    HW118650   0.305   3.533  15.231 -3.4892  1.4954 -1.5993
 2396SOL    HW218651   0.425   3.614  15.185  0.0857  2.2260 -1.1482
 2397SOL     OW18652   0.646   0.101   9.807 -0.1479 -0.0376 -0.1521
 2397SOL    HW118653   0.563   0.114   9.853 -1.4699  2.2093 -3.1270
 2397SOL    HW218654   0.665   0.011   9.832  1.4637  0.7203  1.3849
 2398SOL     OW18655   3.691   4.023  12.970 -0.2881 -0.1608  0.0093
 2398SOL    HW118656   3.734   4.009  13.054 -1.1349  0.4755  0.5441
 2398SOL    HW218657   3.602   4.000  12.996  0.5550 -1.4469  1.7406
 2399SOL     OW18658   0.611   0.202  13.879  0.1758 -0.4886  0.0850
 2399SOL    HW118659   0.641   0.181  13.968  0.1769 -0.5956  0.0596
 2399SOL    HW218660   0.691   0.223  13.830 -1.8445  2.2949 -2.0083
 2400SOL     OW18661   1.595   1.913  12.439  0.1935 -0.9553 -0.3353
 2400SOL    HW118662   1.552   1.860  12.507 -0.8490 -1.0444 -1.0651
 2400SOL    HW218663   1.532   1.984  12.425 -1.6772 -2.4199  0.5534
 2401SOL     OW18664   1.672   3.803   0.623 -0.0924  0.2510  0.2239
 2401SOL    HW118665   1.747   3.840   0.578 -0.4275  0.8821  0.1822
 2401SOL    HW218666   1.598   3.858   0.598  0.1179 -0.4791 -1.9473
 2402SOL     OW18667   3.456   4.222  14.388  0.4429  0.4068  0.1780
 2402SOL    HW118668   3.368   4.256  14.408  1.0512  1.7461  0.5631
 2402SOL    HW218669   3.497   4.297  14.347 -0.2577  1.4552  1.3992
 2403SOL     OW18670   4.717   4.116  12.111  0.3129  0.2762 -0.5824
 2403SOL    HW118671   4.707   4.146  12.021 -1.0753 -0.8764 -0.8073
 2403SOL    HW218672   0.068   4.055  12.123  0.1914  0.2065 -0.2082
 2404SOL     OW18673   3.719   4.277   4.242 -0.2261 -0.6789 -0.6816
 2404SOL    HW118674   3.627   4.264   4.219 -0.9564 -0.5920  2.2396
 2404SOL    HW218675   3.717   4.370   4.221  1.9785 -0.0867  1.6338
 2405SOL     OW18676   2.394   3.258   5.280  0.0049 -0.2850  0.3276
 2405SOL    HW118677   2.433   3.211   5.353 -1.6861 -0.8496  0.8696
 2405SOL    HW218678   2.326   3.305   5.328  0.0425  1.3858 -1.2358
 2406SOL     OW18679   1.013   2.527  15.642  0.4991  0.1215 -0.3429
 2406SOL    HW118680   1.049   2.610  15.675  1.5528 -0.0477 -1.0460
 2406SOL    HW218681   1.079   2.505  15.577  1.3040 -2.2740  1.2559
 2407SOL     OW18682   2.549   0.345   5.840 -0.2754  0.5896  0.1710
 2407SOL    HW118683   2.640   0.329   5.817 -0.5837 -1.9656  0.7271
 2407SOL    HW218684   2.538   0.409   5.770 -0.8341  0.5128  0.1889
 2408SOL     OW18685   4.525   1.005   3.338 -0.0050  0.3611 -0.3827
 2408SOL    HW118686   4.527   1.100   3.337  0.9464  0.3426  0.1088
 2408SOL    HW218687   4.435   0.987   3.309 -0.9438  1.4241  1.8453
 2409SOL     OW18688   1.075   1.535   8.666  0.1829  0.6153 -0.2096
 2409SOL    HW118689   1.054   1.482   8.743 -1.2866  1.2383 -0.1777
 2409SOL    HW218690   1.117   1.605   8.716  0.1336  0.9446 -0.6301
 2410SOL     OW18691   3.697   4.490   8.650  0.1910 -0.2103  0.2273
 2410SOL    HW118692   3.754   4.435   8.596 -2.3074 -0.6234 -1.9437
 2410SOL    HW218693   3.742   4.478   8.734  1.6447  0.1522 -0.4957
 2411SOL     OW18694   3.056   4.269   5.402 -0.3835  0.2454  0.5158
 2411SOL    HW118695   3.044   4.306   5.314  1.9006 -1.7192 -0.6296
 2411SOL    HW218696   2.964   4.246   5.417 -0.1627  2.1202  4.7097
 2412SOL     OW18697   3.190   0.278   7.536  0.1302 -0.2470  0.2082
 2412SOL    HW118698   3.219   0.200   7.489  0.2771  1.3789 -2.3501
 2412SOL    HW218699   3.176   0.253   7.628 -2.0452 -2.4926 -0.7578
 2413SOL     OW18700   1.165   2.826   2.173  0.2120  0.4292  0.3579
 2413SOL    HW118701   1.160   2.738   2.135 -1.5422  1.3159 -1.4694
 2413SOL    HW218702   1.259   2.842   2.166 -0.0331  0.5024 -2.6630
 2414SOL     OW18703   2.857   0.496   9.005 -0.2406 -0.3014  0.2859
 2414SOL    HW118704   2.779   0.460   8.963  0.9288 -3.2112  0.5995
 2414SOL    HW218705   2.877   0.579   8.962  1.6965 -0.3057  1.1788
 2415SOL     OW18706   3.677   4.167   5.534 -0.2383  0.1557  0.1437
 2415SOL    HW118707   3.589   4.203   5.529 -0.9723 -1.7987 -1.0866
 2415SOL    HW218708   3.685   4.139   5.625 -1.6515  1.9914  0.8284
 2416SOL     OW18709   1.900   1.350   4.810 -0.3393  0.2500 -0.5147
 2416SOL    HW118710   1.957   1.375   4.883 -1.5813 -0.7097  0.7887
 2416SOL    HW218711   1.818   1.322   4.852 -0.2487 -1.0036 -1.1688
 2417SOL     OW18712   3.420   4.260   2.674 -0.0007  0.5464 -0.6324
 2417SOL    HW118713   3.499   4.221   2.636  0.0656 -1.3899  1.5005
 2417SOL    HW218714   3.452   4.346   2.702 -0.9116  0.3352  1.0527
 2418SOL     OW18715   2.216   0.783   6.001 -0.2138  0.0457  0.1564
 2418SOL    HW118716   2.305   0.768   6.031 -0.0462 -2.5204 -1.6477
 2418SOL    HW218717   2.166   0.754   6.077  0.8920  1.3924  1.3989
 2419SOL     OW18718   1.385   3.590   6.043 -0.6406  0.0705 -1.0104
 2419SOL    HW118719   1.397   3.589   5.948 -1.0055  0.4121 -1.0593
 2419SOL    HW218720   1.379   3.495   6.049  0.3307 -0.0437 -1.8583
 2420SOL     OW18721   3.730   3.033  17.481 -0.0709 -0.3713  0.2121
 2420SOL    HW118722   3.758   3.013  17.392  1.7405  3.2341  0.0014
 2420SOL    HW218723   3.793   2.984  17.533 -0.4179  0.1086  1.0831
 2421SOL     OW18724   1.108   4.631   6.818  0.8928  0.5394  0.5210
 2421SOL    HW118725   1.030   4.630   6.763  0.8983  3.8540  0.4808
 2421SOL    HW218726   1.175   4.585   6.767  0.9961  0.0860  1.0585
 2422SOL     OW18727   1.737   1.298  13.563  0.3008 -0.7319 -0.3313
 2422SOL    HW118728   1.703   1.340  13.484 -0.4457  2.0127  1.4657
 2422SOL    HW218729   1.809   1.358  13.583 -0.2123 -1.1375  2.7072
 2423SOL     OW18730   1.613   1.638   7.303  0.2014 -0.2904  0.0726
 2423SOL    HW118731   1.610   1.669   7.393  1.9646 -1.5464  0.5510
 2423SOL    HW218732   1.650   1.550   7.302 -0.9569 -0.7778 -0.5310
 2424SOL     OW18733   2.203   2.028   3.926  0.4492 -0.5055 -0.4416
 2424SOL    HW118734   2.235   1.940   3.906  0.1570 -0.0408 -2.9723
 2424SOL    HW218735   2.248   2.076   3.855 -0.9232 -1.8257 -2.2040
 2425SOL     OW18736   0.135   4.045   9.182 -0.1850 -0.1178  0.0553
 2425SOL    HW118737   0.216   4.002   9.153 -0.4987 -0.0222 -0.9467
 2425SOL    HW218738   0.165   4.117   9.237 -0.4947  0.6585 -0.8011
 2426SOL     OW18739   4.658   1.307  13.217 -0.1673 -0.4241  0.2096
 2426SOL    HW118740   4.641   1.381  13.275 -5.3812 -0.7470 -0.9513
 2426SOL    HW218741   4.653   1.328  13.124 -2.4645  0.4933  0.5541
 2427SOL     OW18742   4.385   1.985   4.626  0.1444  0.5460  0.3146
 2427SOL    HW118743   4.366   1.923   4.555 -1.5043 -1.4038  2.4818
 2427SOL    HW218744   4.472   2.020   4.607 -0.0954  0.0545 -1.7217
 2428SOL     OW18745   1.096   1.259   5.848 -0.8202 -0.3931 -0.0235
 2428SOL    HW118746   1.077   1.293   5.935  1.1705  1.3242 -0.2612
 2428SOL    HW218747   1.017   1.208   5.829 -1.0895 -0.1933  0.5622
 2429SOL     OW18748   1.971   4.337   9.471 -0.0623  0.5232 -0.0164
 2429SOL    HW118749   1.953   4.363   9.561  2.6709 -0.4344  0.8065
 2429SOL    HW218750   1.941   4.416   9.426 -0.3055  0.1766 -0.4674
 2430SOL     OW18751   0.084   2.711  11.124  0.9704  0.2453 -0.2244
 2430SOL    HW118752   0.138   2.679  11.196  0.3299  1.4348  0.7865
 2430SOL    HW218753   0.000   2.718  11.170  1.9428  1.8983  1.2823
 2431SOL     OW18754   4.278   2.998  15.464 -0.2725  0.2059 -0.1863
 2431SOL    HW118755   4.188   3.019  15.440 -0.3554 -2.1499 -1.9236
 2431SOL    HW218756   4.269   2.935  15.536 -1.7823  1.8226  1.0222
 2432SOL     OW18757   1.928   2.963   6.919 -0.3793  0.2170 -0.0061
 2432SOL    HW118758   1.937   2.869   6.935  1.3659  0.4502  0.3375
 2432SOL    HW218759   2.003   2.980   6.862  0.6474 -2.4840  0.5315
 2433SOL     OW18760   4.654   4.474  14.459 -0.2346  0.7034 -0.1414
 2433SOL    HW118761   4.602   4.399  14.489 -0.4718  0.8391 -0.2073
 2433SOL    HW218762   4.640   4.463  14.365  2.0486  0.8089 -0.4849
 2434SOL     OW18763   2.214   1.422  13.428 -0.2142  0.0440 -0.3411
 2434SOL    HW118764   2.163   1.493  13.390 -0.1657  0.7683  0.9392
 2434SOL    HW218765   2.254   1.381  13.351  0.9467  0.5836 -0.0174
 2435SOL     OW18766   3.385   2.700   8.436  0.3735 -0.3028 -0.4255
 2435SOL    HW118767   3.338   2.665   8.360  1.1880 -0.1175 -1.0176
 2435SOL    HW218768   3.314   2.760   8.458 -0.9780 -1.3509 -1.8700
 2436SOL     OW18769   0.073   0.419   7.642  0.3861  0.4224  0.3036
 2436SOL    HW118770   0.079   0.514   7.629 -0.4464  0.4804  0.3435
 2436SOL    HW218771   4.710   0.406   7.600 -0.6632  0.1045  2.5184
 2437SOL     OW18772   2.661   2.746   0.389  0.2214  0.4310  0.1320
 2437SOL    HW118773   2.606   2.681   0.432 -1.3445  1.6605 -0.0044
 2437SOL    HW218774   2.607   2.825   0.390 -0.0263  0.2616  0.2671
 2438SOL     OW18775   3.403   0.675   7.224 -0.0195 -0.6807  0.2919
 2438SOL    HW118776   3.341   0.745   7.241  0.1422 -1.0803  2.6126
 2438SOL    HW218777   3.382   0.602   7.283  1.0339 -1.2009  0.0232
 2439SOL     OW18778   4.296   3.539   0.298  0.3359 -0.4785  0.6046
 2439SOL    HW118779   4.326   3.630   0.304 -0.5882 -0.0716 -0.9994
 2439SOL    HW218780   4.211   3.534   0.254  0.1847  0.7050  0.7573
 2440SOL     OW18781   2.000   1.598   3.853 -0.0077  0.2654 -0.1203
 2440SOL    HW118782   1.999   1.692   3.834 -0.2343  0.4321  0.7372
 2440SOL    HW218783   1.906   1.582   3.865  0.0146  0.2156 -0.0141
 2441SOL     OW18784   2.218   1.344   8.028  0.2176 -0.3659  0.0709
 2441SOL    HW118785   2.123   1.354   8.037  0.3062 -1.6003  2.3903
 2441SOL    HW218786   2.234   1.433   7.996  2.5628 -0.6485  0.4327
 2442SOL     OW18787   3.720   3.961   4.035  0.3617  0.1966 -0.6294
 2442SOL    HW118788   3.655   4.021   3.997 -0.4529  0.8538  1.7954
 2442SOL    HW218789   3.721   3.895   3.966  0.4411  0.2311 -0.6616
 2443SOL     OW18790   1.117   0.214  12.267  0.5850 -0.0074 -0.0860
 2443SOL    HW118791   1.143   0.306  12.274  0.4237 -0.0327  0.7868
 2443SOL    HW218792   1.032   0.214  12.312  0.0565  1.2862 -1.0646
 2444SOL     OW18793   0.694   1.839   6.826  0.2366 -0.1144 -0.1306
 2444SOL    HW118794   0.623   1.789   6.785 -0.1290 -0.9441  1.5216
 2444SOL    HW218795   0.666   1.928   6.807 -0.0126 -0.1119  0.2525
 2445SOL     OW18796   3.424   3.891   7.771 -0.1899  0.7916 -0.2246
 2445SOL    HW118797   3.338   3.863   7.741  0.3698  0.7344 -1.7978
 2445SOL    HW218798   3.393   3.895   7.861  2.6427  0.8840  0.7545
 2446SOL     OW18799   2.515   0.755   5.624  0.0947  0.1293 -0.1264
 2446SOL    HW118800   2.521   0.659   5.618 -0.6944 -0.0144  1.3045
 2446SOL    HW218801   2.420   0.759   5.636  0.1442 -0.3701  0.4344
 2447SOL     OW18802   0.304   0.443   6.430 -0.8669 -0.2387  0.2193
 2447SOL    HW118803   0.281   0.446   6.337 -0.5453  1.3428  0.1843
 2447SOL    HW218804   0.387   0.397   6.420 -2.2907 -3.0618  1.4872
 2448SOL     OW18805   3.292   2.996   8.077 -0.3998  0.0837 -0.3951
 2448SOL    HW118806   3.209   2.951   8.062 -0.4985  0.0743  0.1643
 2448SOL    HW218807   3.299   3.052   8.000  0.7105 -2.0949 -1.8882
 2449SOL     OW18808   1.984   4.313   1.997 -0.1715  0.3536  0.1950
 2449SOL    HW118809   1.928   4.271   2.063  0.0215  0.4261  0.4041
 2449SOL    HW218810   2.066   4.283   2.034  0.8671  1.4304 -1.2506
 2450SOL     OW18811   3.973   0.082  13.061 -0.0907  0.5961 -0.1995
 2450SOL    HW118812   3.976   0.029  13.140 -0.9617 -3.2486 -2.7785
 2450SOL    HW218813   3.966   0.017  12.992 -2.6616  0.6168  0.0450
 2451SOL     OW18814   4.721   2.154  10.118  0.2429  0.1669 -0.3368
 2451SOL    HW118815   4.637   2.117  10.145  0.1670 -0.2472 -1.1339
 2451SOL    HW218816   4.717   2.236  10.167  2.0002  0.3670 -0.5347
 2452SOL     OW18817   2.091   3.376   3.863 -0.5192 -0.4879  0.2428
 2452SOL    HW118818   2.097   3.362   3.769  2.0844 -0.6905  0.4515
 2452SOL    HW218819   2.000   3.399   3.883 -0.6530 -2.5485  2.1122
 2453SOL     OW18820   0.370   3.417  13.036  0.9646 -0.0060 -0.0704
 2453SOL    HW118821   0.350   3.333  12.995 -0.4404  1.0892 -1.6244
 2453SOL    HW218822   0.416   3.462  12.966 -1.0644  0.8569 -0.8523
 2454SOL     OW18823   3.252   0.538  17.394  0.4437  0.3648  0.0682
 2454SOL    HW118824   3.186   0.607  17.389 -1.4941 -1.2125  4.0525
 2454SOL    HW218825   3.303   0.564  17.317  0.7217 -0.0936  0.0933
 2455SOL     OW18826   3.668   0.341   5.403 -0.5035  0.0951  0.0185
 2455SOL    HW118827   3.737   0.274   5.397 -1.8140 -1.3163  0.6573
 2455SOL    HW218828   3.708   0.418   5.364  0.5042  0.3485  1.5606
 2456SOL     OW18829   2.787   2.100   2.506  0.3116 -0.0989  0.1646
 2456SOL    HW118830   2.858   2.041   2.484 -0.3956 -0.8238 -0.1897
 2456SOL    HW218831   2.726   2.047   2.557 -0.5902  0.0497 -0.7464
 2457SOL     OW18832   1.175   2.853   5.689 -0.4137 -0.3890  0.1836
 2457SOL    HW118833   1.199   2.765   5.659 -0.1777 -0.5208  0.7593
 2457SOL    HW218834   1.085   2.837   5.719  0.5631 -1.4841  2.5089
 2458SOL     OW18835   4.495   0.655   2.137  0.0206  0.4667 -0.4634
 2458SOL    HW118836   4.466   0.632   2.225  0.4331 -1.2104 -0.7613
 2458SOL    HW218837   4.588   0.656   2.159 -0.1015 -0.4227  0.0779
 2459SOL     OW18838   0.853   3.248   8.624 -0.0311 -0.2790 -0.7979
 2459SOL    HW118839   0.822   3.163   8.654  1.0472 -0.7765 -1.0858
 2459SOL    HW218840   0.773   3.298   8.643  0.0136 -0.7885  0.7628
 2460SOL     OW18841   4.195   0.232  12.959  0.2635 -0.0495 -0.0940
 2460SOL    HW118842   4.221   0.282  13.037 -1.1149  3.0701 -1.6349
 2460SOL    HW218843   4.114   0.194  12.994 -0.1049  2.7952  2.1776
 2461SOL     OW18844   3.140   2.541  13.971 -0.1234 -0.2763 -0.1889
 2461SOL    HW118845   3.100   2.467  14.017 -1.1366  0.9872  0.9700
 2461SOL    HW218846   3.225   2.553  14.014 -0.9904 -0.7107  1.6336
 2462SOL     OW18847   4.188   3.295   4.629 -0.4258 -0.0946  0.2003
 2462SOL    HW118848   4.232   3.305   4.544 -3.4369  0.5840 -1.2769
 2462SOL    HW218849   4.209   3.206   4.657 -4.7713 -0.5113  2.1330
 2463SOL     OW18850   1.190   4.300  13.180  0.5494 -0.7981  0.4680
 2463SOL    HW118851   1.253   4.345  13.124  2.5222 -0.9997  2.5056
 2463SOL    HW218852   1.139   4.246  13.120  0.8035  0.1542 -0.6144
 2464SOL     OW18853   1.930   0.892   7.933 -0.2155  0.2776 -0.3255
 2464SOL    HW118854   1.970   0.978   7.925  1.5333 -0.6985 -2.1760
 2464SOL    HW218855   1.864   0.897   7.864 -0.0287  1.5891 -0.4053
 2465SOL     OW18856   0.486   2.169   4.875  0.1616 -0.4510  0.0400
 2465SOL    HW118857   0.490   2.075   4.893  1.9278 -0.0283  1.8507
 2465SOL    HW218858   0.512   2.208   4.959  1.0389 -0.7673 -0.0798
 2466SOL     OW18859   4.570   3.071   7.371 -0.0660  0.1368  0.4459
 2466SOL    HW118860   4.619   3.000   7.414 -0.4560  0.2319  1.0548
 2466SOL    HW218861   4.567   3.135   7.443  0.1587  1.1866 -0.4848
 2467SOL     OW18862   0.588   1.049   8.341  0.6607 -0.0881  0.4008
 2467SOL    HW118863   0.683   1.037   8.346  0.7742  0.9029  0.6289
 2467SOL    HW218864   0.580   1.144   8.333  0.9966 -0.0637  0.3491
 2468SOL     OW18865   2.220   3.906  14.398 -0.3425 -0.5316 -0.0211
 2468SOL    HW118866   2.213   3.844  14.325  2.8665  0.0384 -0.7935
 2468SOL    HW218867   2.272   3.864  14.466  0.2502 -1.6628 -1.1639
 2469SOL     OW18868   1.461   2.829   4.487 -0.6531  0.5940 -0.6472
 2469SOL    HW118869   1.505   2.861   4.566  0.3560 -0.6293 -0.7179
 2469SOL    HW218870   1.382   2.791   4.525 -0.2736  0.7229  0.2838
 2470SOL     OW18871   0.237   4.023  10.387 -0.1716 -0.0554  0.2153
 2470SOL    HW118872   0.276   4.109  10.374  1.8377 -0.8121  1.2236
 2470SOL    HW218873   0.253   4.005  10.480  0.1603  1.9570  0.5398
 2471SOL     OW18874   4.193   1.104   5.072 -0.1213  0.5499 -0.4793
 2471SOL    HW118875   4.128   1.175   5.068 -4.2612 -3.1271  1.5123
 2471SOL    HW218876   4.146   1.048   5.010  0.6148  1.3333 -1.7526
 2472SOL     OW18877   3.678   1.191   4.531  0.3902  0.4405 -0.3104
 2472SOL    HW118878   3.758   1.221   4.488  0.3156  0.7149 -0.2589
 2472SOL    HW218879   3.610   1.213   4.467 -1.4236 -0.1361  1.4052
 2473SOL     OW18880   4.318   4.624   5.722  0.0733  0.0840  0.1712
 2473SOL    HW118881   4.274   4.701   5.758  0.2550  0.2424  0.0558
 2473SOL    HW218882   4.409   4.655   5.721 -0.1409  0.6539 -1.5965
 2474SOL     OW18883   1.700   2.517   3.672 -0.1760 -0.8355 -0.0426
 2474SOL    HW118884   1.781   2.551   3.710 -0.1940 -0.4929 -0.3203
 2474SOL    HW218885   1.729   2.517   3.581  0.5786 -0.4175  0.2032
 2475SOL     OW18886   0.614   0.572  15.383 -0.4305 -0.2159  0.4699
 2475SOL    HW118887   0.581   0.597  15.297 -0.9531 -0.9697  0.4554
 2475SOL    HW218888   0.547   0.620  15.432 -0.0432  1.5639 -0.7162
 2476SOL     OW18889   4.229   1.520   1.510  0.6258  0.2056  0.3890
 2476SOL    HW118890   4.241   1.615   1.508 -0.7139  0.3512 -0.4003
 2476SOL    HW218891   4.159   1.510   1.446 -0.5396 -1.1937  1.8978
 2477SOL     OW18892   0.571   3.554   7.633  0.1503 -0.3544  0.0043
 2477SOL    HW118893   0.611   3.582   7.715  1.2139  0.4014 -0.7734
 2477SOL    HW218894   0.489   3.603   7.636 -0.7225 -1.9982  2.5901
 2478SOL     OW18895   4.026   2.412  12.699  0.0673  0.1977 -0.0095
 2478SOL    HW118896   4.032   2.321  12.728  0.2121  0.2631  0.1685
 2478SOL    HW218897   4.082   2.459  12.761  0.7812  1.3269 -1.5100
 2479SOL     OW18898   4.575   2.401   9.119  0.2584  0.5096  0.5968
 2479SOL    HW118899   4.537   2.476   9.072  0.8699 -0.0169 -0.7405
 2479SOL    HW218900   4.581   2.438   9.207  1.6443  0.3686  0.5556
 2480SOL     OW18901   2.369   1.099  17.645  0.1956 -0.2285  0.1839
 2480SOL    HW118902   2.375   1.106   0.051  0.0018 -2.5388  0.3515
 2480SOL    HW218903   2.366   1.004  17.639  2.2574 -0.2712 -0.3312
 2481SOL     OW18904   3.683   4.205   2.730 -0.6465 -0.3478  0.0925
 2481SOL    HW118905   3.713   4.164   2.649 -3.6658 -0.6704 -0.8321
 2481SOL    HW218906   3.762   4.192   2.784  0.8454  3.0519 -1.2690
 2482SOL     OW18907   2.287   3.561   4.978  0.1378  0.4971  0.0577
 2482SOL    HW118908   2.294   3.510   4.897  0.0526 -3.1037  2.2835
 2482SOL    HW218909   2.378   3.583   5.001 -0.1204 -0.8999  2.4073
 2483SOL     OW18910   2.001   0.793   7.580 -0.3446  0.1063 -0.5083
 2483SOL    HW118911   2.058   0.869   7.576 -0.2391  0.1212  1.2021
 2483SOL    HW218912   1.947   0.808   7.658  1.5688  0.2452  0.7906
 2484SOL     OW18913   2.497   0.079   4.680  0.2272  0.5453 -0.2282
 2484SOL    HW118914   2.555   0.004   4.667 -0.6748 -0.1512 -0.2077
 2484SOL    HW218915   2.483   0.082   4.775  1.5049  0.8112 -0.0454
 2485SOL     OW18916   1.613   1.300   2.590 -0.5398 -0.1751 -0.6430
 2485SOL    HW118917   1.590   1.286   2.682  0.3685  1.1444 -0.2086
 2485SOL    HW218918   1.609   1.213   2.551  1.4912 -1.0337  1.0293
 2486SOL     OW18919   1.260   0.403   6.009  0.5215  1.1737 -0.0457
 2486SOL    HW118920   1.179   0.352   6.016  2.0933 -1.1813  0.9771
 2486SOL    HW218921   1.301   0.345   5.945 -2.0230 -0.5020 -0.1509
 2487SOL     OW18922   1.891   0.789  15.510  0.0429 -0.2248 -0.9605
 2487SOL    HW118923   1.845   0.767  15.591  2.2455  0.3122  0.4096
 2487SOL    HW218924   1.857   0.727  15.445 -1.1154  0.1708 -0.7326
 2488SOL     OW18925   0.263   1.517   8.294 -0.0990 -0.6034  0.2740
 2488SOL    HW118926   0.173   1.550   8.283 -0.2750 -1.3792 -0.6782
 2488SOL    HW218927   0.272   1.522   8.389 -0.5555 -0.3914  0.3066
 2489SOL     OW18928   1.025   2.062   3.602  0.1738 -0.2328 -0.1072
 2489SOL    HW118929   0.933   2.084   3.614  0.2158  0.5326 -1.1210
 2489SOL    HW218930   1.042   2.148   3.562 -2.7169  0.3849  0.0320
 2490SOL     OW18931   1.327   4.419   2.385 -0.2450 -0.1884  0.4055
 2490SOL    HW118932   1.359   4.506   2.406  0.0924 -0.0252 -0.7871
 2490SOL    HW218933   1.309   4.416   2.291 -1.3073 -1.1093  0.6388
 2491SOL     OW18934   1.525   1.361  11.689 -0.6359 -0.3255  0.4066
 2491SOL    HW118935   1.558   1.356  11.779 -0.5348  0.0939  0.3921
 2491SOL    HW218936   1.468   1.438  11.689  0.3954  0.4501  1.0016
 2492SOL     OW18937   4.022   3.011   0.886 -0.2983  0.0050  0.0500
 2492SOL    HW118938   4.060   3.098   0.895  1.6033 -0.7846 -0.1808
 2492SOL    HW218939   3.943   3.020   0.939  1.3218  1.2361  2.2466
 2493SOL     OW18940   0.337   0.965   3.484  0.5811  0.2320 -0.1309
 2493SOL    HW118941   0.340   0.964   3.388 -0.3959  1.9507 -0.1780
 2493SOL    HW218942   0.356   1.058   3.497  3.4671 -0.3157 -0.4435
 2494SOL     OW18943   0.270   4.663  15.095  0.3752  0.1602  0.0380
 2494SOL    HW118944   0.317   4.600  15.150  3.4150  0.6022 -2.0437
 2494SOL    HW218945   0.181   4.633  15.112 -0.4034  1.4713 -1.7480
 2495SOL     OW18946   4.186   2.576   8.800  0.3688  0.5746  0.1908
 2495SOL    HW118947   4.237   2.651   8.832  1.5665 -0.6706  1.2241
 2495SOL    HW218948   4.185   2.590   8.705  0.0231  0.4524  0.1767
 2496SOL     OW18949   3.727   0.215   7.363  0.0626  0.1773  0.4769
 2496SOL    HW118950   3.790   0.185   7.428  0.1436  3.0550  1.7617
 2496SOL    HW218951   3.739   0.308   7.383  0.4853  0.0132  1.0031
 2497SOL     OW18952   2.840   2.363   0.325  0.0666 -0.3400  0.1277
 2497SOL    HW118953   2.918   2.415   0.341 -0.1203 -0.5916  1.8779
 2497SOL    HW218954   2.833   2.325   0.413  0.4645 -1.2678 -0.2418
 2498SOL     OW18955   3.832   3.051   8.022 -0.5515 -0.0613  0.5680
 2498SOL    HW118956   3.822   3.140   8.057 -0.6042 -0.0106  0.4264
 2498SOL    HW218957   3.899   3.016   8.081  1.9092  1.0887 -1.5165
 2499SOL     OW18958   1.729   3.548  12.083 -0.0457  0.5454  0.3672
 2499SOL    HW118959   1.820   3.527  12.059  0.4733  1.6916  1.3373
 2499SOL    HW218960   1.681   3.559  12.001  0.3001 -2.8960 -0.3100
 2500SOL     OW18961   2.651   3.900   5.298  0.1780 -0.0196 -0.3626
 2500SOL    HW118962   2.555   3.905   5.295  0.1556 -1.6159 -2.0056
 2500SOL    HW218963   2.674   3.900   5.391  1.8664  0.2670 -0.7781
 2501SOL     OW18964   0.550   1.467   0.351  0.1043 -0.1947  0.2931
 2501SOL    HW118965   0.462   1.447   0.316 -0.7689  0.0843  2.3425
 2501SOL    HW218966   0.547   1.434   0.441 -0.2375  1.2932  0.8320
 2502SOL     OW18967   1.672   0.522   7.804  0.6937 -0.6656 -0.1225
 2502SOL    HW118968   1.600   0.473   7.765  0.6533 -0.8050  0.1311
 2502SOL    HW218969   1.641   0.536   7.893 -2.7249  0.9174 -1.5464
 2503SOL     OW18970   4.265   0.270  17.634  0.3569  0.2049 -0.0844
 2503SOL    HW118971   4.290   0.256  17.543  2.8241  1.0289  0.4697
 2503SOL    HW218972   4.171   0.250  17.633  0.7019 -1.3791 -0.2288
 2504SOL     OW18973   3.388   0.708   0.183 -0.1485 -0.7456 -0.0909
 2504SOL    HW118974   3.355   0.648   0.115  1.6906 -1.6978 -0.1282
 2504SOL    HW218975   3.311   0.766   0.180 -0.3228 -0.9804 -0.1350
 2505SOL     OW18976   2.896   1.148   9.520 -0.0427  0.6245 -0.0174
 2505SOL    HW118977   2.841   1.175   9.447 -0.3868 -0.8862 -0.3104
 2505SOL    HW218978   2.920   1.072   9.466  1.0095 -0.9340  2.6669
 2506SOL     OW18979   3.039   3.794   5.903 -0.2819  0.2806 -0.5180
 2506SOL    HW118980   3.057   3.888   5.904  0.9171  0.0430 -0.2221
 2506SOL    HW218981   2.978   3.782   5.975 -0.6118  0.5692 -0.7457
 2507SOL     OW18982   3.954   4.377   2.845 -0.0606 -0.1099  0.2300
 2507SOL    HW118983   4.002   4.327   2.912  1.4554  2.6898  1.2454
 2507SOL    HW218984   3.991   4.350   2.761 -2.2476  0.3515 -0.8926
 2508SOL     OW18985   2.357   1.400  11.945 -0.6020  0.0523 -0.2964
 2508SOL    HW118986   2.420   1.426  12.012 -0.6310 -0.3156 -0.1244
 2508SOL    HW218987   2.324   1.485  11.917 -1.5517 -0.9098 -2.0306
 2509SOL     OW18988   3.124   3.663  16.810  0.2002 -0.1552  0.1802
 2509SOL    HW118989   3.034   3.640  16.788  0.9909 -0.0259 -3.3139
 2509SOL    HW218990   3.184   3.615  16.753 -0.0006  0.1612 -0.3058
 2510SOL     OW18991   0.514   2.713   2.908 -0.4852  0.2217 -0.6326
 2510SOL    HW118992   0.607   2.693   2.915 -0.4023  0.5087 -0.9183
 2510SOL    HW218993   0.497   2.791   2.961 -2.0370 -0.1660 -0.5529
 2511SOL     OW18994   1.396   0.591   7.153 -0.6927  0.8959 -0.4804
 2511SOL    HW118995   1.438   0.629   7.230 -1.5166  0.0486  0.3840
 2511SOL    HW218996   1.463   0.585   7.085  1.6223  0.5651  1.8247
 2512SOL     OW18997   1.365   0.347  12.109 -0.0217 -0.1358  0.2522
 2512SOL    HW118998   1.313   0.365  12.187  0.9256  0.7490  0.6755
 2512SOL    HW218999   1.362   0.431  12.063 -2.2324 -0.7984 -0.8546
 2513SOL     OW19000   1.792   2.440   6.283  0.1536 -0.8642 -0.3507
 2513SOL    HW119001   1.833   2.513   6.237 -0.6912  0.7151  1.4246
 2513SOL    HW219002   1.708   2.438   6.237  0.2321 -0.8904 -0.4914
 2514SOL     OW19003   1.382   3.968   4.621 -0.0611 -0.2163 -0.0761
 2514SOL    HW119004   1.404   4.056   4.652  0.2760  0.5565 -2.5143
 2514SOL    HW219005   1.300   3.952   4.667 -1.4990 -2.4368 -3.4094
 2515SOL     OW19006   3.675   0.351   5.657  0.8078 -0.0390 -0.3455
 2515SOL    HW119007   3.605   0.286   5.656 -0.0738  0.8751  1.6756
 2515SOL    HW219008   3.693   0.366   5.564 -0.6953  1.4496 -0.3910
 2516SOL     OW19009   2.943   3.653   5.360  0.4981  0.2004 -0.0122
 2516SOL    HW119010   2.914   3.686   5.445  0.5522  2.2640 -0.8062
 2516SOL    HW219011   3.034   3.631   5.383  0.4412  1.3690  1.3061
 2517SOL     OW19012   0.099   2.095   7.573  0.6542  0.0816  0.7417
 2517SOL    HW119013   0.128   2.111   7.663 -0.4843 -1.5227  1.3942
 2517SOL    HW219014   0.181   2.062   7.534 -0.1527 -2.2640  1.0062
 2518SOL     OW19015   4.446   2.407   1.957 -0.3347 -0.3089  0.1749
 2518SOL    HW119016   4.414   2.479   1.903  1.2329  0.9857  0.9737
 2518SOL    HW219017   4.427   2.434   2.047 -0.6637  1.3644 -0.3947
 2519SOL     OW19018   1.231   3.794   6.962 -0.6296  0.2397  0.1309
 2519SOL    HW119019   1.189   3.837   7.037  0.6984  1.1903  0.3480
 2519SOL    HW219020   1.303   3.857   6.958 -0.4833  0.1589  1.3939
 2520SOL     OW19021   3.651   0.566   5.823  0.7142 -0.5099  0.3325
 2520SOL    HW119022   3.657   0.509   5.747 -0.8666 -0.6122  0.2806
 2520SOL    HW219023   3.645   0.514   5.903 -2.6079  0.3672  0.6669
 2521SOL     OW19024   3.754   2.542   2.301  0.1083 -0.4424 -0.0716
 2521SOL    HW119025   3.755   2.627   2.257  0.6425  0.6961  2.1058
 2521SOL    HW219026   3.751   2.477   2.231 -0.7059  0.8495 -1.2134
 2522SOL     OW19027   4.647   1.503   2.922  0.3974 -0.9197  0.4218
 2522SOL    HW119028   4.692   1.571   2.973  0.6506 -0.9856  0.2857
 2522SOL    HW219029   4.564   1.551   2.929  0.6115 -0.8092  2.2665
 2523SOL     OW19030   4.019   3.354   1.142  0.0842 -0.0635 -0.1537
 2523SOL    HW119031   3.938   3.308   1.164 -0.2084  0.5712  0.1009
 2523SOL    HW219032   4.028   3.409   1.220  1.2855 -0.1105 -0.2528
 2524SOL     OW19033   3.513   0.882   0.526 -0.1851  0.6599  0.4752
 2524SOL    HW119034   3.418   0.885   0.523 -0.2991 -0.3066  2.8588
 2524SOL    HW219035   3.536   0.817   0.460 -0.5360 -0.7653  1.7520
 2525SOL     OW19036   4.507   2.435   4.854  0.2411 -0.4098  0.1623
 2525SOL    HW119037   4.466   2.401   4.775  0.9699 -3.1117  0.9397
 2525SOL    HW219038   4.564   2.358   4.863  0.3699 -0.5040 -1.4296
 2526SOL     OW19039   0.814   2.439  13.273 -0.4274 -0.1310  0.0286
 2526SOL    HW119040   0.735   2.490  13.293 -0.1484  0.9846 -1.6816
 2526SOL    HW219041   0.878   2.480  13.332  1.9213 -2.1103 -1.1847
 2527SOL     OW19042   3.897   0.241   5.795  0.0828 -0.3796  0.1681
 2527SOL    HW119043   3.860   0.163   5.836  1.2769  0.1600  2.2732
 2527SOL    HW219044   3.822   0.297   5.771  1.0449  1.1378  0.7075
 2528SOL     OW19045   4.488   3.350  10.342  0.6209  0.2064 -0.2436
 2528SOL    HW119046   4.574   3.328  10.306  1.9360  1.5518  2.0971
 2528SOL    HW219047   4.490   3.321  10.433  0.5632  1.2692  0.0941
 2529SOL     OW19048   0.935   3.146   6.723 -0.3473 -0.4583  0.0303
 2529SOL    HW119049   0.989   3.069   6.738 -1.6635 -0.9663  2.1083
 2529SOL    HW219050   1.006   3.210   6.724  0.3505 -1.2331 -0.7055
 2530SOL     OW19051   4.708   0.760   4.368 -0.2830  0.0833  0.2796
 2530SOL    HW119052   0.001   0.671   4.336  1.8940  1.1181 -1.6032
 2530SOL    HW219053   4.656   0.746   4.447 -1.8922 -2.7120 -1.2580
 2531SOL     OW19054   1.203   2.709   9.061  0.1206 -0.0814  0.2153
 2531SOL    HW119055   1.123   2.667   9.028 -0.2247  1.4955 -0.9689
 2531SOL    HW219056   1.182   2.705   9.154 -2.8277  0.2592 -0.4328
 2532SOL     OW19057   3.485   0.558   0.511 -0.0048 -0.9420 -0.0171
 2532SOL    HW119058   3.545   0.538   0.583 -0.2548 -0.3961  0.3413
 2532SOL    HW219059   3.536   0.613   0.452  0.5997 -0.5680  0.8567
 2533SOL     OW19060   1.298   0.707  15.506 -0.7793  0.4769  0.1945
 2533SOL    HW119061   1.216   0.705  15.556 -1.0543  0.2616 -0.2707
 2533SOL    HW219062   1.329   0.617  15.515  4.1071  2.2004  0.6880
 2534SOL     OW19063   2.381   2.114  15.112 -0.5374 -0.1096  0.4089
 2534SOL    HW119064   2.360   2.034  15.064  0.1031 -0.9094  1.4642
 2534SOL    HW219065   2.413   2.069  15.190 -0.1909 -2.3325 -1.0349
 2535SOL     OW19066   3.440   2.051   5.909  0.3786 -0.2714 -0.3396
 2535SOL    HW119067   3.492   2.101   5.972 -2.4767  0.1903  1.6768
 2535SOL    HW219068   3.374   2.118   5.892  1.8888  0.6436 -2.4928
 2536SOL     OW19069   0.680   0.380  16.949  0.1776 -0.0689  0.5356
 2536SOL    HW119070   0.615   0.311  16.963  0.3726 -0.1552  1.0204
 2536SOL    HW219071   0.713   0.345  16.866  1.4411 -2.0137  1.8359
 2537SOL     OW19072   2.106   1.509  14.338 -0.4744 -0.1678 -0.1136
 2537SOL    HW119073   2.015   1.531  14.319 -0.4970  1.4481  1.8470
 2537SOL    HW219074   2.138   1.494  14.249 -0.2149  1.5649 -0.3071
 2538SOL     OW19075   3.020   3.380   7.523  0.4548 -0.0849  0.2384
 2538SOL    HW119076   2.957   3.452   7.523  0.7177  0.1492 -0.5172
 2538SOL    HW219077   3.031   3.358   7.430  3.3580 -0.2465  0.6304
 2539SOL     OW19078   3.328   2.564   8.807  0.6040 -0.0126  0.5017
 2539SOL    HW119079   3.257   2.616   8.770  1.0506  2.1458  2.6723
 2539SOL    HW219080   3.303   2.573   8.899 -0.7249  0.4877  0.0932
 2540SOL     OW19081   2.789   0.064   9.399  0.5346  0.2433 -0.2495
 2540SOL    HW119082   2.759   4.705   9.441 -1.2542  1.6728  1.1850
 2540SOL    HW219083   2.748   0.124   9.461 -0.8043 -0.9974  0.0656
 2541SOL     OW19084   3.554   3.610   7.159 -0.1283 -0.0765  0.3326
 2541SOL    HW119085   3.560   3.515   7.168  3.0990  0.0039 -1.1016
 2541SOL    HW219086   3.509   3.603   7.075  1.7137  1.4998 -0.7784
 2542SOL     OW19087   1.452   2.682  13.307 -0.1771  0.3431 -0.2726
 2542SOL    HW119088   1.473   2.700  13.399 -0.7600  0.6235 -0.1920
 2542SOL    HW219089   1.413   2.595  13.315  0.2857  0.2319  0.7524
 2543SOL     OW19090   2.189   0.110  12.878  0.1953 -0.3634  0.0384
 2543SOL    HW119091   2.174   0.116  12.972 -0.9501 -0.1401 -0.1590
 2543SOL    HW219092   2.104   0.069  12.858  0.0359 -0.4990  1.0022
 2544SOL     OW19093   0.598   1.372   5.274  0.6384 -1.0314 -0.0156
 2544SOL    HW119094   0.559   1.350   5.189 -0.4706  0.5096  0.0893
 2544SOL    HW219095   0.519   1.376   5.328  0.2724  1.7704 -0.7312
 2545SOL     OW19096   2.522   1.166  11.969 -0.0694 -0.1840 -0.5413
 2545SOL    HW119097   2.466   1.243  11.958 -0.1422 -0.2987 -0.9847
 2545SOL    HW219098   2.459   1.099  11.996  0.6271 -0.8952 -0.6868
 2546SOL     OW19099   0.254   3.338  11.228  0.4367  0.1175  0.1791
 2546SOL    HW119100   0.291   3.403  11.168 -0.3040 -0.2062 -0.6416
 2546SOL    HW219101   0.200   3.396  11.282 -1.4873 -0.6985 -0.8370
 2547SOL     OW19102   0.115   3.152   2.353  0.5639  0.4050 -0.1937
 2547SOL    HW119103   0.187   3.091   2.369 -1.5869 -1.5842  1.8495
 2547SOL    HW219104   0.103   3.135   2.260  1.2215  0.9141 -0.3683
 2548SOL     OW19105   2.297   2.633   4.073  0.5135  0.0499  0.8123
 2548SOL    HW119106   2.211   2.642   4.114  0.9481  3.8729  0.8621
 2548SOL    HW219107   2.358   2.679   4.130  2.7795 -2.2815  0.2771
 2549SOL     OW19108   4.250   4.714   7.260 -0.3028  0.4245 -0.0717
 2549SOL    HW119109   4.164   0.024   7.233 -0.6572 -1.5570 -1.2725
 2549SOL    HW219110   4.243   4.701   7.355 -2.0860 -1.3427 -0.4374
 2550SOL     OW19111   0.286   2.344   4.416 -0.6666 -0.2956 -0.4289
 2550SOL    HW119112   0.365   2.398   4.423  0.3171 -1.5415 -1.8019
 2550SOL    HW219113   0.292   2.348   4.320  0.6511 -1.1636 -0.3855
 2551SOL     OW19114   1.871   0.525   3.881 -0.1886  0.2728 -0.3229
 2551SOL    HW119115   1.940   0.590   3.893  0.2706 -0.3186  0.2553
 2551SOL    HW219116   1.845   0.507   3.971  3.3770 -1.7163  0.3264
 2552SOL     OW19117   2.143   2.596   8.921 -0.3119  0.1687  0.2466
 2552SOL    HW119118   2.119   2.504   8.929  0.4369 -0.1577 -1.4033
 2552SOL    HW219119   2.229   2.607   8.963  0.8221  2.7819 -2.7732
 2553SOL     OW19120   4.573   3.750   4.516  0.4075  0.0106 -0.2443
 2553SOL    HW119121   4.605   3.787   4.434 -0.1172  0.2034 -0.3609
 2553SOL    HW219122   4.656   3.707   4.535  0.2033 -0.0877  0.4570
 2554SOL     OW19123   3.134   4.463   4.744  0.2431  0.2781 -0.6048
 2554SOL    HW119124   3.168   4.531   4.686  0.6146  2.2392  1.9052
 2554SOL    HW219125   3.205   4.400   4.734  1.0868  1.2823 -1.0217
 2555SOL     OW19126   0.239   2.776   2.796  0.6550  0.3275  0.3158
 2555SOL    HW119127   0.246   2.870   2.812  0.7317  0.1761  1.1449
 2555SOL    HW219128   0.327   2.740   2.804  1.5705  1.9488 -2.3863
 2556SOL     OW19129   3.517   1.094   6.028  0.1567 -0.7165 -0.5639
 2556SOL    HW119130   3.503   1.148   6.106 -1.4041 -1.2932 -0.4459
 2556SOL    HW219131   3.559   1.018   6.069  1.6400  1.0488  1.2314
 2557SOL     OW19132   2.335   3.988  12.856 -0.6426 -0.8352 -0.5255
 2557SOL    HW119133   2.386   3.910  12.834 -1.1534 -0.6863 -2.2032
 2557SOL    HW219134   2.391   4.055  12.817  0.2315  0.4241  2.8728
 2558SOL     OW19135   2.580   3.746   3.588  0.2671 -0.3298 -0.4002
 2558SOL    HW119136   2.667   3.787   3.583 -0.3862  1.1337  0.2243
 2558SOL    HW219137   2.570   3.712   3.499  1.4379 -0.1797 -0.5885
 2559SOL     OW19138   3.701   1.492  11.106  0.1311 -0.4892  0.3580
 2559SOL    HW119139   3.713   1.482  11.012 -0.5389 -0.4350  0.2708
 2559SOL    HW219140   3.627   1.432  11.117 -0.0226 -0.3513  0.0713
 2560SOL     OW19141   2.074   1.268   9.312  0.1435 -0.0812 -0.6488
 2560SOL    HW119142   2.151   1.214   9.293 -0.3274 -0.4436 -1.5406
 2560SOL    HW219143   2.104   1.348   9.270 -1.4093 -0.0069 -1.6155
 2561SOL     OW19144   1.018   2.725   1.735  0.1852 -0.6078 -0.4548
 2561SOL    HW119145   1.080   2.792   1.763  1.2621 -0.5522 -2.9858
 2561SOL    HW219146   1.061   2.713   1.651  2.6773  0.1526  0.7140
 2562SOL     OW19147   1.672   1.465   4.222 -0.2083  0.2910  0.2137
 2562SOL    HW119148   1.697   1.549   4.260  1.3114 -0.5737  1.1436
 2562SOL    HW219149   1.595   1.497   4.175  0.1596  0.9535  0.0647
 2563SOL     OW19150   4.271   0.403  16.347  0.0733 -0.5756  0.4172
 2563SOL    HW119151   4.304   0.415  16.258 -0.0761 -0.6299  0.3533
 2563SOL    HW219152   4.188   0.450  16.345 -0.6306 -1.7798  0.9937
 2564SOL     OW19153   0.593   0.350  11.639 -0.0862 -0.0692  0.3865
 2564SOL    HW119154   0.552   0.282  11.585 -0.0218  0.4370 -0.2874
 2564SOL    HW219155   0.638   0.285  11.693 -0.2638 -0.1362  0.4548
 2565SOL     OW19156   4.019   3.732   1.528  0.0149 -0.2145 -0.4447
 2565SOL    HW119157   4.097   3.750   1.476  0.2630  0.5647  0.1936
 2565SOL    HW219158   4.053   3.740   1.617  1.1958 -1.1755 -0.8193
 2566SOL     OW19159   1.996   3.566  14.720 -0.4575  0.2036  0.1843
 2566SOL    HW119160   1.987   3.632  14.788  2.2750  2.8031 -1.9948
 2566SOL    HW219161   1.905   3.544  14.700 -0.4797  1.2552 -0.8306
 2567SOL     OW19162   4.196   4.585  10.254 -0.1199 -0.3952  0.1384
 2567SOL    HW119163   4.271   4.532  10.281 -1.0326 -1.2846  0.9565
 2567SOL    HW219164   4.187   4.649  10.325  1.0089 -0.2955  0.1905
 2568SOL     OW19165   3.605   0.376  16.170  0.5554  0.4762 -0.5002
 2568SOL    HW119166   3.693   0.379  16.133  0.3388 -0.5207 -1.1071
 2568SOL    HW219167   3.577   0.465  16.149  1.1828 -0.0769 -3.7547
 2569SOL     OW19168   2.527   0.209  12.205 -0.5791  0.5456 -0.1320
 2569SOL    HW119169   2.598   0.145  12.196 -1.7065 -0.3554 -2.6056
 2569SOL    HW219170   2.452   0.152  12.221  1.5214 -1.7606  1.3893
 2570SOL     OW19171   1.020   3.053   2.182 -0.1382 -0.9015 -0.2717
 2570SOL    HW119172   1.075   2.975   2.181  1.9972  0.5783  0.0573
 2570SOL    HW219173   0.941   3.026   2.135 -0.8996  0.6236  0.1372
 2571SOL     OW19174   3.281   0.731  14.459 -0.4299 -0.2726  0.3543
 2571SOL    HW119175   3.278   0.636  14.472  3.7050 -0.4472 -0.0474
 2571SOL    HW219176   3.295   0.766  14.547  0.3459 -0.7774  0.4258
 2572SOL     OW19177   1.206   3.107   7.345  0.0255 -0.7364  0.2275
 2572SOL    HW119178   1.141   3.175   7.329  2.5412  1.4658 -0.6168
 2572SOL    HW219179   1.255   3.117   7.427 -0.0839  0.6396  0.1142
 2573SOL     OW19180   0.308   1.658   2.254  0.4439  0.4276 -0.5921
 2573SOL    HW119181   0.302   1.580   2.308 -1.2203 -1.8192 -4.0814
 2573SOL    HW219182   0.277   1.608   2.179  1.6032  1.3599 -1.7008
 2574SOL     OW19183   2.931   0.361   6.448  0.1644 -0.2571  0.3864
 2574SOL    HW119184   2.868   0.297   6.481  0.4470 -0.7880 -0.1088
 2574SOL    HW219185   2.880   0.441   6.431  0.8816  0.8014  3.1967
 2575SOL     OW19186   4.031   2.386   5.090  0.1147 -0.0146  0.6265
 2575SOL    HW119187   3.976   2.318   5.128 -2.7994  1.4920 -0.9195
 2575SOL    HW219188   3.970   2.421   5.025  0.8068  0.4442  0.2143
 2576SOL     OW19189   1.414   2.329   6.428  0.0648  0.4258  0.3058
 2576SOL    HW119190   1.375   2.415   6.445  1.4754  1.1904 -0.3288
 2576SOL    HW219191   1.474   2.319   6.502  0.5340  1.2426  0.0359
 2577SOL     OW19192   1.075   3.658  13.647 -0.1098  0.2830  0.2441
 2577SOL    HW119193   1.094   3.730  13.707  1.9676 -0.5491  0.5850
 2577SOL    HW219194   1.016   3.701  13.584 -1.7522 -2.7276 -0.3086
 2578SOL     OW19195   0.994   4.636   3.295  0.1914  0.0980 -0.0403
 2578SOL    HW119196   1.068   4.609   3.348 -0.0897  1.3773  1.0242
 2578SOL    HW219197   0.938   4.564   3.323 -0.0430  0.0256 -0.7090
 2579SOL     OW19198   0.283   3.680   3.591 -0.2378 -0.1679 -0.2053
 2579SOL    HW119199   0.263   3.747   3.526 -0.0751 -1.8856 -2.0123
 2579SOL    HW219200   0.370   3.718   3.606 -0.2515 -0.0113 -0.5244
 2580SOL     OW19201   2.393   1.651  16.767  0.3881 -0.3615  0.1325
 2580SOL    HW119202   2.474   1.617  16.729  1.9370  1.6334  1.6979
 2580SOL    HW219203   2.323   1.586  16.753  1.2010 -1.1712 -0.1463
 2581SOL     OW19204   3.087   0.111   4.197  0.2310  0.3225 -0.5087
 2581SOL    HW119205   3.013   0.127   4.256  0.7342 -0.4591  0.3177
 2581SOL    HW219206   3.069   0.020   4.175  1.2545 -0.6382  2.7734
 2582SOL     OW19207   3.532   4.287   5.998 -0.2778  0.3904  0.6886
 2582SOL    HW119208   3.463   4.337   6.042 -1.2738  1.1373 -1.7470
 2582SOL    HW219209   3.602   4.277   6.063 -0.9457  3.0031  1.8056
 2583SOL     OW19210   1.486   1.334   2.348  0.0985  0.2183 -0.1519
 2583SOL    HW119211   1.523   1.366   2.429  1.0203  2.2499 -1.3837
 2583SOL    HW219212   1.397   1.308   2.371  0.5746  0.2553  1.7316
 2584SOL     OW19213   1.588   1.264   1.537 -0.1457  0.1275  0.1554
 2584SOL    HW119214   1.581   1.350   1.496 -2.8463 -0.0237  0.2565
 2584SOL    HW219215   1.629   1.286   1.620  4.2005 -1.7021 -1.4951
 2585SOL     OW19216   2.999   0.068   2.630 -0.4210 -0.0478  0.0392
 2585SOL    HW119217   2.976   0.098   2.718 -1.6304  0.2364 -0.3721
 2585SOL    HW219218   2.932   0.004   2.606 -1.6202  1.2022  0.0306
 2586SOL     OW19219   3.428   3.473   4.661  0.1584  0.2573  0.3800
 2586SOL    HW119220   3.365   3.518   4.604 -0.9431  0.1530  1.4978
 2586SOL    HW219221   3.453   3.399   4.606  1.4867  0.1411  1.1647
 2587SOL     OW19222   0.107   2.838   4.706 -0.5203  0.1463 -0.0983
 2587SOL    HW119223   0.067   2.767   4.756  0.4206 -1.8238 -2.1492
 2587SOL    HW219224   0.032   2.889   4.677 -0.1187  0.4857 -0.5378
 2588SOL     OW19225   0.838   3.619   7.441  0.2723 -0.0262 -0.7276
 2588SOL    HW119226   0.818   3.660   7.357 -1.0450 -0.0413 -0.4288
 2588SOL    HW219227   0.818   3.528   7.419 -1.4429  0.7760 -2.4428
 2589SOL     OW19228   2.964   3.224   4.544 -0.5587  0.7741 -0.0360
 2589SOL    HW119229   2.983   3.318   4.554  3.3044 -0.1373  1.1466
 2589SOL    HW219230   2.996   3.203   4.456  0.5933 -1.4548  0.9336
 2590SOL     OW19231   1.704   3.017   6.751  0.5044 -0.4938 -0.9883
 2590SOL    HW119232   1.764   2.998   6.822 -1.8081 -2.3517  0.4456
 2590SOL    HW219233   1.690   2.937   6.700 -0.2691 -1.2832  0.4534
 2591SOL     OW19234   4.050   2.029   7.903  0.2269  0.1152  0.0607
 2591SOL    HW119235   4.134   2.075   7.908  0.8971 -1.2698  1.4117
 2591SOL    HW219236   3.987   2.097   7.879 -0.6463 -0.6821  0.1222
 2592SOL     OW19237   4.348   3.053  15.164  0.1202 -0.3087  0.0543
 2592SOL    HW119238   4.363   3.114  15.092 -2.9110  1.2042  0.7119
 2592SOL    HW219239   4.340   2.971  15.115 -0.1852  0.7459 -1.6568
 2593SOL     OW19240   3.267   2.332   3.821 -0.2184  0.1467  0.4092
 2593SOL    HW119241   3.183   2.307   3.782  1.1589 -1.6661 -1.4415
 2593SOL    HW219242   3.312   2.247   3.826  0.9075  0.7399  0.3007
 2594SOL     OW19243   0.534   0.228   6.422 -0.2128 -0.3531  0.0721
 2594SOL    HW119244   0.577   0.195   6.501 -0.0154 -2.4257 -0.8934
 2594SOL    HW219245   0.597   0.201   6.356 -0.3710 -1.3560  0.3201
 2595SOL     OW19246   3.346   2.461   4.565 -0.3197 -0.3661  0.1886
 2595SOL    HW119247   3.292   2.531   4.528  1.7385  0.1221 -1.9265
 2595SOL    HW219248   3.350   2.408   4.485  1.6686 -1.0692  0.7401
 2596SOL     OW19249   4.657   2.722   5.417 -0.5825 -0.2979 -0.5809
 2596SOL    HW119250   4.579   2.697   5.368 -0.7958 -0.7030 -0.0292
 2596SOL    HW219251   4.666   2.818   5.420  0.4323 -0.3546 -1.7725
 2597SOL     OW19252   3.490   1.594   6.330  0.3097 -0.2785  0.2737
 2597SOL    HW119253   3.454   1.640   6.254  2.1216 -0.7937 -0.8859
 2597SOL    HW219254   3.561   1.653   6.354  0.4177 -1.4424  2.8013
 2598SOL     OW19255   1.655   0.748   5.366 -0.4725 -0.1697  0.1831
 2598SOL    HW119256   1.583   0.690   5.389 -0.6231  0.1767  0.5893
 2598SOL    HW219257   1.723   0.686   5.338 -0.4245 -0.4441  0.8884
 2599SOL     OW19258   0.534   0.812   0.900 -0.6368  0.5474  0.5071
 2599SOL    HW119259   0.578   0.730   0.921 -1.2958  0.1569  0.3492
 2599SOL    HW219260   0.522   0.849   0.988  1.1345  0.8369  0.6196
 2600SOL     OW19261   0.195   0.527   7.902 -0.5565 -0.2499  0.1202
 2600SOL    HW119262   0.153   0.587   7.964 -2.4333 -0.7560 -0.6560
 2600SOL    HW219263   0.137   0.539   7.826  0.6460 -0.8877 -0.8960
 2601SOL     OW19264   0.068   3.738   8.330 -0.0881  0.2488 -0.2112
 2601SOL    HW119265   0.050   3.672   8.263 -2.0037  1.4219 -0.8724
 2601SOL    HW219266   0.160   3.721   8.351  0.1846  1.8399 -0.0695
 2602SOL     OW19267   2.775   0.330  16.984  0.3210 -0.0355 -0.3307
 2602SOL    HW119268   2.708   0.263  16.989  1.0977 -0.8695 -1.0909
 2602SOL    HW219269   2.757   0.355  16.893 -0.7752  0.3582  0.0005
 2603SOL     OW19270   4.390   3.987  10.249 -0.2442 -0.5421  0.3243
 2603SOL    HW119271   4.408   3.897  10.276  1.6453 -0.3951 -0.4458
 2603SOL    HW219272   4.398   4.034  10.332  0.6478 -0.9321  0.4595
 2604SOL     OW19273   3.727   3.443  10.123 -0.4004 -0.7518 -0.1318
 2604SOL    HW119274   3.764   3.450  10.035  0.2533  0.2259  0.2166
 2604SOL    HW219275   3.772   3.367  10.162 -1.0900 -0.8921  0.4005
 2605SOL     OW19276   2.126   1.640  13.636  0.0572 -0.3323 -0.4599
 2605SOL    HW119277   2.039   1.673  13.658  1.2664  2.3811  0.2322
 2605SOL    HW219278   2.100   1.565  13.583  1.7186 -0.5602 -0.9470
 2606SOL     OW19279   0.824   1.707  10.246 -0.2210 -0.1859  0.1824
 2606SOL    HW119280   0.768   1.716  10.323 -0.4337  0.2755 -0.0296
 2606SOL    HW219281   0.771   1.650  10.191  1.3508 -0.9841 -0.5044
 2607SOL     OW19282   4.613   0.354   3.907 -0.3794  0.2437  0.3754
 2607SOL    HW119283   4.605   0.443   3.872 -0.8216 -0.1324 -0.4661
 2607SOL    HW219284   4.539   0.359   3.967  0.1044 -2.3759  1.1947
 2608SOL     OW19285   3.989   3.142   5.274  0.3818  0.2915 -0.1417
 2608SOL    HW119286   3.986   3.226   5.320  0.4728 -0.9162  2.0559
 2608SOL    HW219287   4.084   3.140   5.258  0.4044  0.4288 -0.0252
 2609SOL     OW19288   0.223   4.459   1.328  0.3827  0.9132 -0.0999
 2609SOL    HW119289   0.257   4.444   1.416 -1.9507 -1.9496  0.2939
 2609SOL    HW219290   0.152   4.523   1.335 -0.2739  0.0316  1.1871
 2610SOL     OW19291   3.571   3.697   5.306 -0.6260  0.6580 -0.1942
 2610SOL    HW119292   3.571   3.793   5.296  1.0260  0.4510 -2.2701
 2610SOL    HW219293   3.489   3.689   5.354  0.0950 -0.9180  0.7774
 2611SOL     OW19294   1.041   0.413   0.786 -0.7455 -0.1318 -0.2702
 2611SOL    HW119295   1.121   0.413   0.839 -1.7356 -2.1982  1.1870
 2611SOL    HW219296   0.993   0.485   0.827  0.7775  1.0013 -0.4699
 2612SOL     OW19297   2.540   0.369   3.428 -0.7367  0.1226  0.6457
 2612SOL    HW119298   2.608   0.327   3.375 -0.2570 -1.0864  2.2192
 2612SOL    HW219299   2.460   0.323   3.402  0.9927 -1.2107 -2.2773
 2613SOL     OW19300   2.629   2.074  12.952  0.4183  0.1590  0.4291
 2613SOL    HW119301   2.697   2.108  13.011  0.9129 -1.7375  0.9605
 2613SOL    HW219302   2.676   1.993  12.934 -1.6890 -1.0502  0.3365
 2614SOL     OW19303   2.248   1.259   4.455  0.0978 -0.0050  0.1816
 2614SOL    HW119304   2.270   1.197   4.525 -0.8819 -1.7049 -1.0111
 2614SOL    HW219305   2.180   1.215   4.404  0.7554 -2.8231  1.6954
 2615SOL     OW19306   4.342   2.595   6.827 -0.0050  0.1256  0.7204
 2615SOL    HW119307   4.363   2.567   6.916  1.5264 -1.4293 -0.1364
 2615SOL    HW219308   4.342   2.506   6.792 -0.0873  0.2733  0.3368
 2616SOL     OW19309   0.006   2.423   6.471 -0.6348  0.4137  0.5942
 2616SOL    HW119310   4.671   2.463   6.405  0.4558  0.1447 -0.5155
 2616SOL    HW219311   4.688   2.458   6.550 -1.0604 -1.0075  1.0027
 2617SOL     OW19312   4.224   3.407   4.872 -0.4694  0.0495  0.5839
 2617SOL    HW119313   4.206   3.340   4.806  0.8935  0.3074 -0.0534
 2617SOL    HW219314   4.219   3.494   4.833  0.6075  0.1619  0.7064
 2618SOL     OW19315   4.374   4.336   7.625  0.4652 -0.2180 -0.3706
 2618SOL    HW119316   4.433   4.376   7.690 -1.0161 -2.3785  2.2586
 2618SOL    HW219317   4.294   4.332   7.677  2.2968  0.0196  2.4345
 2619SOL     OW19318   0.071   3.729   0.814  0.1127 -0.0583 -0.0997
 2619SOL    HW119319   0.041   3.638   0.808 -2.1927  0.6894 -0.1343
 2619SOL    HW219320   0.012   3.754   0.886  0.9231  0.2056  0.4717
 2620SOL     OW19321   0.045   2.089   3.954 -0.4442  0.1756 -0.3060
 2620SOL    HW119322   0.002   2.163   3.997 -2.5297 -1.8400  1.0982
 2620SOL    HW219323   0.131   2.085   3.996 -1.5142 -1.5126  1.7167
 2621SOL     OW19324   1.171   2.747  15.734 -0.2275 -0.2336  0.8131
 2621SOL    HW119325   1.135   2.783  15.815  1.2402  0.0879  1.3229
 2621SOL    HW219326   1.263   2.741  15.760  0.1270  0.2875 -0.2987
 2622SOL     OW19327   4.500   3.957  11.424  0.3816 -0.3754  0.3815
 2622SOL    HW119328   4.470   3.921  11.508 -2.5159 -0.2949 -0.6146
 2622SOL    HW219329   4.425   4.012  11.401 -0.2441 -1.3727  0.0515
 2623SOL     OW19330   4.209   1.656   4.831  0.2167 -0.3251 -0.9458
 2623SOL    HW119331   4.154   1.587   4.795  0.2584 -0.5519 -0.5763
 2623SOL    HW219332   4.141   1.706   4.876  2.8287  1.5704  0.8940
 2624SOL     OW19333   1.911   1.352   0.131  1.0260 -0.5595 -0.2727
 2624SOL    HW119334   1.845   1.376   0.196  3.3035  0.4879  1.6815
 2624SOL    HW219335   1.953   1.290   0.192  1.5266  1.1456  1.1150
 2625SOL     OW19336   4.211   0.699  11.094 -0.3269  0.1541 -0.2126
 2625SOL    HW119337   4.216   0.684  10.999 -2.5752  1.5630 -0.5715
 2625SOL    HW219338   4.290   0.650  11.113  0.4820  1.9725  1.1201
 2626SOL     OW19339   0.482   3.157   2.746 -0.0666  0.2243 -0.1248
 2626SOL    HW119340   0.501   3.249   2.765  2.6738 -0.2840 -0.3307
 2626SOL    HW219341   0.570   3.124   2.727  0.2853  0.7383  0.6128
 2627SOL     OW19342   3.311   0.745   2.889 -0.0309 -0.2772  0.3796
 2627SOL    HW119343   3.370   0.681   2.849  1.5345  1.7826 -0.5545
 2627SOL    HW219344   3.333   0.827   2.845 -0.0602 -1.3024 -1.5464
 2628SOL     OW19345   3.082   1.617   1.723 -0.1322  0.6511  0.8863
 2628SOL    HW119346   2.990   1.642   1.721 -0.5686 -0.8646  1.8518
 2628SOL    HW219347   3.110   1.658   1.804  1.2387  3.4708 -1.0064
 2629SOL     OW19348   3.335   4.385   8.455 -0.5711 -0.4257  0.7462
 2629SOL    HW119349   3.242   4.404   8.470 -0.4237  0.8206  0.1036
 2629SOL    HW219350   3.365   4.363   8.543 -0.9955  0.7598  1.1907
 2630SOL     OW19351   0.163   0.541   4.553  0.1059  0.1828  0.7198
 2630SOL    HW119352   0.127   0.529   4.641 -1.6093  2.0346  0.2581
 2630SOL    HW219353   0.130   0.461   4.513 -1.2128  1.8221 -1.4468
 2631SOL     OW19354   2.423   4.238   9.178 -0.4297 -0.3645 -0.0696
 2631SOL    HW119355   2.485   4.281   9.237  0.2198 -0.4930 -0.6600
 2631SOL    HW219356   2.344   4.291   9.173  0.6983  1.2520 -0.5930
 2632SOL     OW19357   2.273   3.354  15.130 -0.1772 -0.1138 -0.2278
 2632SOL    HW119358   2.252   3.395  15.046 -0.3946  0.4426  0.1049
 2632SOL    HW219359   2.300   3.420  15.193  1.5454  1.0216 -2.1580
 2633SOL     OW19360   0.644   0.548   5.109 -0.2768 -0.0789  0.7704
 2633SOL    HW119361   0.592   0.481   5.065  0.8265 -0.8965  0.6941
 2633SOL    HW219362   0.725   0.499   5.124 -0.6980 -0.7181  0.9819
 2634SOL     OW19363   3.651   0.373   4.212 -0.0463  0.1496  0.5915
 2634SOL    HW119364   3.715   0.380   4.283  0.8700  1.7925 -0.3877
 2634SOL    HW219365   3.655   0.278   4.198 -0.9355  0.6600 -3.1238
 2635SOL     OW19366   0.455   4.473  10.077  0.0908 -0.0298  0.5141
 2635SOL    HW119367   0.486   4.552  10.121  0.6410 -0.1007  0.2578
 2635SOL    HW219368   0.511   4.414  10.128  0.2387 -0.4948 -0.1861
 2636SOL     OW19369   2.261   4.334   6.712 -0.3468  0.2951  0.1442
 2636SOL    HW119370   2.274   4.321   6.618 -0.0163 -3.4672  0.7087
 2636SOL    HW219371   2.184   4.391   6.713 -2.1689 -2.1615  1.1298
 2637SOL     OW19372   1.363   2.130   6.826 -0.0001 -0.3275 -0.0349
 2637SOL    HW119373   1.379   2.180   6.746 -1.2435 -1.4031 -0.9500
 2637SOL    HW219374   1.429   2.172   6.882 -0.2377 -0.8896  0.6657
 2638SOL     OW19375   0.779   3.166   2.727  0.0547  0.3834  0.3825
 2638SOL    HW119376   0.807   3.090   2.778 -0.5824  0.5124  0.9160
 2638SOL    HW219377   0.816   3.146   2.641 -1.4621 -0.5290 -0.0488
 2639SOL     OW19378   1.158   4.103   4.320  0.2553  0.4596  0.3635
 2639SOL    HW119379   1.185   4.021   4.361 -1.6896 -0.6590 -0.5999
 2639SOL    HW219380   1.155   4.166   4.393 -1.9636  2.0484 -1.0839
 2640SOL     OW19381   1.363   3.085   3.094 -0.1510  0.5164 -0.0577
 2640SOL    HW119382   1.345   3.107   3.003 -0.6078  0.5580  0.0410
 2640SOL    HW219383   1.454   3.110   3.112 -0.3300 -0.5632  2.3078
 2641SOL     OW19384   0.056   4.232  12.586  0.1829  0.4180  0.1583
 2641SOL    HW119385   0.008   4.302  12.632 -0.1885  0.8760 -0.9212
 2641SOL    HW219386   4.711   4.223  12.518 -0.9511  1.7632  1.0748
 2642SOL     OW19387   2.373   4.360   4.826  0.3523  0.3330  0.2882
 2642SOL    HW119388   2.333   4.418   4.891 -0.1172 -0.2054  0.4813
 2642SOL    HW219389   2.354   4.403   4.742  0.8147 -0.7692 -0.3910
 2643SOL     OW19390   1.192   2.862   3.156 -0.3094  0.6725 -0.3289
 2643SOL    HW119391   1.268   2.917   3.137  1.6479 -1.1659  2.3047
 2643SOL    HW219392   1.134   2.926   3.197  2.5576  1.7786  1.9564
 2644SOL     OW19393   1.767   4.358  16.007  0.1844 -0.5827  0.3317
 2644SOL    HW119394   1.721   4.441  15.995 -0.8823 -1.3994 -1.2088
 2644SOL    HW219395   1.707   4.290  15.980  1.4969 -2.1014  1.2356
 2645SOL     OW19396   4.197   3.353   0.557  0.3306 -0.5957  0.5676
 2645SOL    HW119397   4.180   3.433   0.507 -0.6128  0.3169  2.4004
 2645SOL    HW219398   4.121   3.296   0.545 -1.2814  1.4812  0.9089
 2646SOL     OW19399   4.532   4.071   7.228 -0.2962 -0.0145 -0.7768
 2646SOL    HW119400   4.617   4.114   7.238 -1.0198  1.0676  0.7060
 2646SOL    HW219401   4.486   4.134   7.172 -0.5356  0.7265  0.2611
 2647SOL     OW19402   1.755   3.249   6.114 -0.0092 -0.1757 -0.2409
 2647SOL    HW119403   1.752   3.156   6.091 -3.0424 -0.4817  1.3116
 2647SOL    HW219404   1.793   3.253   6.202 -2.4151 -1.1567  0.8578
 2648SOL     OW19405   3.065   3.402  13.922  0.3043 -0.2280 -0.3549
 2648SOL    HW119406   3.023   3.364  13.845 -0.0826 -0.2097 -0.1502
 2648SOL    HW219407   3.156   3.393  13.894  0.4751 -1.0636  0.4749
 2649SOL     OW19408   2.927   2.037   8.722 -0.0407 -0.5173 -0.0478
 2649SOL    HW119409   3.003   2.001   8.767  1.6061  0.1489 -2.3543
 2649SOL    HW219410   2.963   2.119   8.691  4.4343 -1.9610  1.3600
 2650SOL     OW19411   0.095   1.810   2.610  0.5430  0.7560 -0.5498
 2650SOL    HW119412   0.142   1.734   2.645  2.3173  1.8122 -0.6521
 2650SOL    HW219413   0.012   1.781   2.648  0.4465  0.1239 -1.2342
 2651SOL     OW19414   0.765   2.899   1.556 -0.0293 -0.1705  0.7789
 2651SOL    HW119415   0.686   2.951   1.564 -0.0752 -0.0039 -0.7588
 2651SOL    HW219416   0.736   2.821   1.604  2.2932 -1.6682 -0.2150
 2652SOL     OW19417   1.494   4.354   4.326 -0.4008  0.0548 -0.1737
 2652SOL    HW119418   1.400   4.357   4.309 -0.7463 -0.4888  1.5719
 2652SOL    HW219419   1.506   4.422   4.392  0.2293 -1.3552  1.1702
 2653SOL     OW19420   4.411   2.574   7.405  0.1505 -0.3297 -0.5354
 2653SOL    HW119421   4.366   2.654   7.379  0.3478  0.2983  1.0807
 2653SOL    HW219422   4.486   2.603   7.457 -0.9606 -1.3581  1.6554
 2654SOL     OW19423   4.183   4.720   3.298 -0.2422  0.3621  0.0114
 2654SOL    HW119424   4.187   4.681   3.211 -0.5273  0.7707 -0.1885
 2654SOL    HW219425   4.233   0.075   3.267  0.1230  1.3904  3.1810
 2655SOL     OW19426   3.790   4.325   3.628 -0.3850 -0.6084 -0.1277
 2655SOL    HW119427   3.793   4.229   3.635 -1.8804 -0.5233  1.9248
 2655SOL    HW219428   3.829   4.347   3.544  2.2397  0.0574  1.2754
 2656SOL     OW19429   1.709   1.377   6.114  0.4522  0.5923 -0.5680
 2656SOL    HW119430   1.618   1.365   6.139  0.1940 -0.0408 -1.8381
 2656SOL    HW219431   1.712   1.329   6.031 -1.6994 -1.8874  0.7900
 2657SOL     OW19432   2.756   1.670   8.205 -0.7089  0.0369 -0.1214
 2657SOL    HW119433   2.693   1.687   8.135  1.2843  0.5190 -1.7968
 2657SOL    HW219434   2.808   1.604   8.159 -2.6150 -0.2054 -1.9364
 2658SOL     OW19435   2.276   1.865  12.876 -0.0242 -0.0370 -0.2471
 2658SOL    HW119436   2.211   1.923  12.835 -0.2965  1.1291  1.8017
 2658SOL    HW219437   2.353   1.871  12.820  0.5248 -1.4315  0.3529
 2659SOL     OW19438   0.926   0.898   5.654 -0.5600  0.5217 -0.1980
 2659SOL    HW119439   0.866   0.902   5.580  0.7943  0.0276 -1.3318
 2659SOL    HW219440   0.983   0.827   5.623 -0.3992 -0.8539  3.2644
 2660SOL     OW19441   4.638   0.027   4.974 -0.4223  0.0270 -0.2521
 2660SOL    HW119442   4.626   0.087   4.901 -0.9053 -1.0109 -1.0292
 2660SOL    HW219443   4.601   4.665   4.945 -0.5780  0.2229 -0.6058
 2661SOL     OW19444   1.308   3.472   3.914 -0.1634  0.3045 -0.0381
 2661SOL    HW119445   1.337   3.389   3.951  0.0657  0.5821  0.4062
 2661SOL    HW219446   1.280   3.449   3.825  1.0613  0.5935 -0.5123
 2662SOL     OW19447   2.304   1.760   3.880  0.0944 -0.1598  0.0306
 2662SOL    HW119448   2.335   1.712   3.804 -0.9023 -3.8511  1.9368
 2662SOL    HW219449   2.303   1.684   3.939 -0.3192  1.6346  2.3658
 2663SOL     OW19450   3.684   3.839   7.260 -0.0115 -0.2361  0.1418
 2663SOL    HW119451   3.713   3.875   7.176  1.0525 -0.0756  0.5801
 2663SOL    HW219452   3.644   3.759   7.225  3.5287 -1.1552 -1.8181
 2664SOL     OW19453   0.927   2.750   5.233  0.7022  0.9223 -0.1447
 2664SOL    HW119454   0.837   2.774   5.256  0.0051 -1.1199 -0.7291
 2664SOL    HW219455   0.921   2.719   5.143  1.3031  3.2177 -0.9820
 2665SOL     OW19456   0.322   2.525  10.287 -0.2123 -0.1958  0.2942
 2665SOL    HW119457   0.372   2.572  10.353  0.3406  0.2019 -0.4091
 2665SOL    HW219458   0.280   2.599  10.243 -1.4940 -0.7879  0.5176
 2666SOL     OW19459   2.067   4.176   6.079 -0.1510 -0.1064 -0.0475
 2666SOL    HW119460   2.131   4.214   6.140  2.3193  0.3247 -2.9087
 2666SOL    HW219461   2.116   4.099   6.048 -2.9487 -2.8171  2.2102
 2667SOL     OW19462   2.448   2.002   3.522  0.1502 -0.2255  0.0308
 2667SOL    HW119463   2.385   2.034   3.586  1.1167  0.3303  0.6799
 2667SOL    HW219464   2.498   2.079   3.497 -1.9845  0.6753 -1.5186
 2668SOL     OW19465   1.999   2.621   4.780  0.5094 -0.1645  0.1313
 2668SOL    HW119466   2.086   2.598   4.812  1.2638  0.1013 -1.6922
 2668SOL    HW219467   1.966   2.540   4.742  2.8991 -0.7440 -0.7396
 2669SOL     OW19468   4.012   3.957  13.267 -0.1046 -0.0049 -0.0732
 2669SOL    HW119469   4.059   3.880  13.236 -0.7368 -0.2318 -0.4715
 2669SOL    HW219470   3.921   3.934  13.244 -0.5280 -0.8733  2.5505
 2670SOL     OW19471   3.363   4.695  13.864 -0.2416 -0.3108 -0.4858
 2670SOL    HW119472   3.268   4.707  13.870 -0.0291  1.4603 -0.4098
 2670SOL    HW219473   3.372   4.643  13.785  1.6894 -1.0217  0.1888
 2671SOL     OW19474   0.911   1.390   8.480  0.2554  0.0753  0.2940
 2671SOL    HW119475   0.982   1.399   8.416 -0.3765 -1.1069 -0.5657
 2671SOL    HW219476   0.958   1.408   8.562  1.0962  0.4246 -0.2691
 2672SOL     OW19477   3.795   2.618   1.328 -0.1334  0.0142 -0.5281
 2672SOL    HW119478   3.700   2.615   1.331 -0.0245  0.0658  2.8974
 2672SOL    HW219479   3.807   2.664   1.411 -0.4897 -2.4033  0.8596
 2673SOL     OW19480   1.736   3.536   4.674 -0.0067  0.3736  0.3400
 2673SOL    HW119481   1.737   3.604   4.742  0.1918  0.4632  0.2473
 2673SOL    HW219482   1.650   3.556   4.637  1.1432  0.4824 -2.3142
 2674SOL     OW19483   2.283   3.199   1.171  0.1828  0.2381 -0.2545
 2674SOL    HW119484   2.258   3.290   1.152  2.1227  0.7263 -0.4966
 2674SOL    HW219485   2.240   3.201   1.257 -1.2324  0.8374 -0.9815
 2675SOL     OW19486   0.994   1.828   4.333 -0.2183  0.5146 -0.3552
 2675SOL    HW119487   0.952   1.754   4.288  1.9144 -0.3217 -1.0066
 2675SOL    HW219488   0.913   1.872   4.358 -0.6465 -0.6900  0.4055
 2676SOL     OW19489   4.126   1.587   4.048 -0.5207  0.6931  0.1257
 2676SOL    HW119490   4.164   1.639   3.978 -2.6610  0.3688 -1.2764
 2676SOL    HW219491   4.183   1.598   4.125  0.7656  1.2317 -0.9064
 2677SOL     OW19492   0.033   0.627   2.284  0.0186 -0.0247 -0.1450
 2677SOL    HW119493   0.047   0.547   2.334  3.3572  1.6730  1.6136
 2677SOL    HW219494   0.117   0.672   2.286 -1.6990  2.9992  3.5866
 2678SOL     OW19495   1.080   3.729  15.715 -0.5169  0.2381  0.0330
 2678SOL    HW119496   1.095   3.806  15.661 -0.7193 -0.5226 -1.1056
 2678SOL    HW219497   1.026   3.663  15.671 -1.1967 -0.5051  1.9539
 2679SOL     OW19498   2.013   1.519   6.350  0.0617  0.1200  0.7465
 2679SOL    HW119499   1.961   1.568   6.286  0.8582 -2.1828 -1.6669
 2679SOL    HW219500   1.970   1.434   6.348 -1.0812  0.6956  1.3906
 2680SOL     OW19501   2.452   4.048  17.591  0.1961  0.5130 -0.4630
 2680SOL    HW119502   2.434   3.967  17.543 -0.9038  0.8263 -0.5901
 2680SOL    HW219503   2.405   4.115  17.540 -1.2956  0.5346  0.9362
 2681SOL     OW19504   1.321   3.015   6.565 -0.1527 -0.3258 -0.5377
 2681SOL    HW119505   1.265   3.077   6.519  0.7261 -0.4061 -1.7186
 2681SOL    HW219506   1.385   3.077   6.601 -0.7526 -1.1419  1.9078
 2682SOL     OW19507   0.489   3.518  10.506 -0.3114  0.0219  0.5152
 2682SOL    HW119508   0.425   3.582  10.538  0.5088 -0.0069  2.2248
 2682SOL    HW219509   0.458   3.521  10.416  0.3106  1.8921  0.3534
 2683SOL     OW19510   0.675   1.894  11.365 -0.0757  0.9028 -0.4931
 2683SOL    HW119511   0.685   1.962  11.431 -1.3929 -1.0914  1.7496
 2683SOL    HW219512   0.587   1.920  11.338 -0.1549  1.3522  0.2016
 2684SOL     OW19513   3.011   2.357  16.691  0.1468  0.4474 -0.6442
 2684SOL    HW119514   3.065   2.304  16.750 -0.1327 -2.3253 -2.8538
 2684SOL    HW219515   2.938   2.374  16.750  2.3349  0.5084  2.0106
 2685SOL     OW19516   0.060   2.961   7.509  0.3085 -0.5902 -0.1005
 2685SOL    HW119517   0.081   3.053   7.496 -1.5696  0.0421  1.3155
 2685SOL    HW219518   0.103   2.950   7.594 -1.7504  0.2324  1.0441
 2686SOL     OW19519   4.024   2.089  15.165 -0.6768  0.1804  0.2898
 2686SOL    HW119520   3.938   2.081  15.124  0.5557 -1.4250 -2.0216
 2686SOL    HW219521   4.040   1.995  15.180 -2.1414 -0.1279 -0.0797
 2687SOL     OW19522   2.410   4.380  13.135 -0.5497  0.1055  0.2080
 2687SOL    HW119523   2.379   4.290  13.137  0.2087 -0.1862 -1.6592
 2687SOL    HW219524   2.471   4.371  13.208  1.4106 -0.9409 -1.5702
 2688SOL     OW19525   4.360   3.385   8.624 -0.0906  0.5448  0.1425
 2688SOL    HW119526   4.410   3.393   8.543 -2.3879  1.5561 -1.1783
 2688SOL    HW219527   4.300   3.459   8.622  0.2642  0.9279  3.5536
 2689SOL     OW19528   3.706   1.701   4.924  0.2502 -0.3612 -0.2019
 2689SOL    HW119529   3.648   1.716   4.849 -2.1400  1.2568  1.9947
 2689SOL    HW219530   3.645   1.716   4.996 -0.0660 -1.6020 -0.2038
 2690SOL     OW19531   2.371   2.205  10.630  0.1561 -0.8415  0.0542
 2690SOL    HW119532   2.373   2.193  10.725  2.3106  0.7776  0.1951
 2690SOL    HW219533   2.388   2.119  10.592  3.1835  0.3383 -1.2164
 2691SOL     OW19534   4.515   3.294   6.560  0.2902  0.4069 -0.3469
 2691SOL    HW119535   4.465   3.244   6.495  1.5041  2.0189 -2.5054
 2691SOL    HW219536   4.480   3.383   6.558 -0.7426 -0.0216 -1.3286
 2692SOL     OW19537   1.876   3.511  12.464 -0.3092 -0.1986  0.1574
 2692SOL    HW119538   1.933   3.587  12.470  0.4991 -0.6373 -1.9961
 2692SOL    HW219539   1.922   3.458  12.399 -0.7374 -0.1870 -0.1553
 2693SOL     OW19540   1.123   2.316   6.382  0.1968  0.7668  0.4791
 2693SOL    HW119541   1.131   2.368   6.302  6.0374 -0.5904  0.1702
 2693SOL    HW219542   1.075   2.378   6.436 -0.8414  0.1256  0.3014
 2694SOL     OW19543   3.502   3.367   4.966 -0.0947 -0.6183  0.7988
 2694SOL    HW119544   3.558   3.290   4.954  0.7097  0.5766 -3.3280
 2694SOL    HW219545   3.455   3.347   4.885  2.0871 -1.0385 -0.3678
 2695SOL     OW19546   3.175   2.052   3.732  0.1369 -0.4607 -0.6223
 2695SOL    HW119547   3.140   2.077   3.817 -1.2822 -1.2358 -0.9756
 2695SOL    HW219548   3.109   2.064   3.663  0.0595 -0.3223 -0.5235
 2696SOL     OW19549   2.712   2.138  11.966 -0.3624 -0.2123 -0.3966
 2696SOL    HW119550   2.681   2.220  12.006  1.1981  1.2572 -2.1638
 2696SOL    HW219551   2.635   2.107  11.920  0.0164  1.5605 -2.2364
 2697SOL     OW19552   0.212   0.175  10.441  0.8363  0.3723  0.4450
 2697SOL    HW119553   0.231   0.174  10.347 -0.5016  0.3187  0.1775
 2697SOL    HW219554   0.119   0.194  10.429  0.9982 -0.2511 -1.9491
 2698SOL     OW19555   0.998   0.558   9.339  0.1193 -0.4024  0.0673
 2698SOL    HW119556   1.068   0.532   9.279 -0.0332  0.4613 -0.4916
 2698SOL    HW219557   0.960   0.631   9.290  0.0171  0.1599  0.9640
 2699SOL     OW19558   0.597   4.651   3.896  0.4868 -0.0149 -0.1691
 2699SOL    HW119559   0.673   4.626   3.949  1.0652  0.0078 -0.9976
 2699SOL    HW219560   0.551   4.572   3.869  1.3718 -0.9884  1.1820
 2700SOL     OW19561   0.736   4.299   7.227  0.0507  0.4858  0.1468
 2700SOL    HW119562   0.746   4.264   7.138  1.3048  3.8098 -0.9869
 2700SOL    HW219563   0.817   4.349   7.228 -0.6473  1.6589 -2.8295
 2701SOL     OW19564   1.748   2.433   5.837 -0.1532 -0.1206 -0.3038
 2701SOL    HW119565   1.676   2.495   5.829  0.6638  0.7785 -0.5707
 2701SOL    HW219566   1.827   2.487   5.826  0.4250 -0.4316  2.3374
 2702SOL     OW19567   2.318   4.603  13.820 -0.0466 -0.2324  0.7287
 2702SOL    HW119568   2.236   4.582  13.865 -1.7439  0.0047 -2.2065
 2702SOL    HW219569   2.349   4.513  13.821  1.0924  0.1421 -1.6002
 2703SOL     OW19570   3.236   1.436   1.560  0.0973 -0.1135 -0.3702
 2703SOL    HW119571   3.310   1.382   1.588 -0.3957  0.3317  1.7435
 2703SOL    HW219572   3.211   1.482   1.640 -1.0350  1.4278 -1.5895
 2704SOL     OW19573   1.317   3.796   7.289  0.1666 -0.7051 -0.3866
 2704SOL    HW119574   1.404   3.837   7.289 -0.5533  0.8055 -0.3275
 2704SOL    HW219575   1.304   3.797   7.384  0.3075 -1.6423 -0.3635
 2705SOL     OW19576   1.040   1.262  17.231 -0.8030  0.4962  0.0974
 2705SOL    HW119577   0.995   1.232  17.153 -0.0134  0.3854 -0.3187
 2705SOL    HW219578   1.104   1.323  17.193 -1.8145  0.5233 -1.5660
 2706SOL     OW19579   1.318   4.708   5.418 -1.0454 -0.1710 -0.6555
 2706SOL    HW119580   1.381   0.000   5.348 -0.4541  2.9156  0.4609
 2706SOL    HW219581   1.258   0.060   5.402 -1.4540 -0.7799 -1.9130
 2707SOL     OW19582   0.693   4.174  16.888  0.7212 -0.1622 -0.6869
 2707SOL    HW119583   0.669   4.085  16.862 -0.8889 -0.5392  2.1315
 2707SOL    HW219584   0.768   4.192  16.831  0.2645 -0.9922 -1.5536
 2708SOL     OW19585   1.551   3.025  12.970  0.3625  0.3493 -0.3577
 2708SOL    HW119586   1.484   3.093  12.977  0.0579 -0.1825  1.9331
 2708SOL    HW219587   1.616   3.074  12.919  0.9435 -1.2041 -1.1169
 2709SOL     OW19588   4.443   0.768   7.734 -0.4207  0.4373 -0.2184
 2709SOL    HW119589   4.493   0.836   7.780 -0.9162  0.5140  0.1995
 2709SOL    HW219590   4.379   0.817   7.683 -3.2540 -2.4123  0.6421
 2710SOL     OW19591   0.199   3.538   2.020  0.1588 -0.8954  0.2749
 2710SOL    HW119592   0.110   3.569   2.035  1.5741  3.4648 -0.5011
 2710SOL    HW219593   0.188   3.443   2.012 -0.2864 -0.8780  0.7099
 2711SOL     OW19594   3.067   3.051   5.663  0.6055 -0.2435 -0.2471
 2711SOL    HW119595   3.097   3.102   5.739  1.9120 -1.2656 -0.0693
 2711SOL    HW219596   3.144   3.025   5.613  1.0013  1.8662 -0.7281
 2712SOL     OW19597   4.037   2.336   4.425 -0.0090 -0.1823 -0.2477
 2712SOL    HW119598   4.121   2.357   4.383  0.0336 -1.3802 -0.7554
 2712SOL    HW219599   4.076   2.294   4.502  0.8222  2.2631  0.6635
 2713SOL     OW19600   1.209   1.753   5.007  0.4099 -0.0325 -0.0855
 2713SOL    HW119601   1.294   1.715   4.984  0.0964 -0.8055  0.0241
 2713SOL    HW219602   1.183   1.710   5.088 -1.2086 -0.1533 -0.6542
 2714SOL     OW19603   4.364   2.398   3.622  0.0206 -0.0044 -0.4274
 2714SOL    HW119604   4.271   2.409   3.642  0.0691 -0.8606  0.2374
 2714SOL    HW219605   4.371   2.446   3.539 -0.0439 -0.3770 -0.6487
 2715SOL     OW19606   0.561   4.397  14.915 -0.5176 -0.2568  0.6389
 2715SOL    HW119607   0.524   4.424  14.831  0.3432  0.1440  0.3890
 2715SOL    HW219608   0.603   4.479  14.943  2.2335 -1.1012 -0.9543
 2716SOL     OW19609   2.865   2.957  16.782  0.0014 -0.7917  0.0860
 2716SOL    HW119610   2.959   2.972  16.792  0.1920 -1.1272 -1.1794
 2716SOL    HW219611   2.864   2.947  16.686  0.8864 -0.4216  0.0400
 2717SOL     OW19612   1.632   1.245  14.864 -0.5267  0.1143 -0.2604
 2717SOL    HW119613   1.652   1.237  14.770  1.3760  0.4120  0.1301
 2717SOL    HW219614   1.695   1.310  14.893 -1.3839 -0.5454  3.0164
 2718SOL     OW19615   1.571   0.877   5.131 -0.3071 -0.0434 -0.2013
 2718SOL    HW119616   1.595   0.815   5.062  2.2342 -0.9430  1.4974
 2718SOL    HW219617   1.602   0.832   5.210  1.2574 -0.3570 -0.9821
 2719SOL     OW19618   4.318   2.870   2.702  0.2026 -0.2516  0.6809
 2719SOL    HW119619   4.397   2.816   2.710  0.2828 -0.5311 -2.2538
 2719SOL    HW219620   4.270   2.800   2.657  2.0004  0.2859 -2.0890
 2720SOL     OW19621   1.941   1.796   8.555  0.4067  0.3366  0.8579
 2720SOL    HW119622   1.987   1.807   8.638  1.1569  1.5958  0.2711
 2720SOL    HW219623   1.998   1.727   8.521  0.4317  0.7612  0.0373
 2721SOL     OW19624   1.880   1.795   3.557 -0.4845  0.0097 -0.4293
 2721SOL    HW119625   1.922   1.809   3.641 -1.4852  0.9955 -0.1056
 2721SOL    HW219626   1.942   1.750   3.499  0.6834 -0.6776  1.3611
 2722SOL     OW19627   4.540   2.133   4.358 -0.3986  0.0657  0.7804
 2722SOL    HW119628   4.601   2.073   4.317 -1.6528 -0.7595  0.1368
 2722SOL    HW219629   4.586   2.147   4.441 -1.5646  0.3608  1.3783
 2723SOL     OW19630   0.712   3.918  14.785  0.4641  0.2567 -0.1318
 2723SOL    HW119631   0.698   3.989  14.848  3.9995 -0.4119  1.4111
 2723SOL    HW219632   0.666   3.962  14.713  2.0416 -1.1361 -2.0028
 2724SOL     OW19633   2.764   3.341   4.942 -0.1614  0.2640  0.0790
 2724SOL    HW119634   2.712   3.333   5.021 -1.2277 -0.4971 -0.6984
 2724SOL    HW219635   2.789   3.433   4.948  0.3243  0.1216  0.2512
 2725SOL     OW19636   3.998   1.669  13.578  0.2807 -0.0763 -0.5799
 2725SOL    HW119637   4.057   1.742  13.560 -0.3478  0.4734 -0.3802
 2725SOL    HW219638   3.932   1.712  13.632  0.3558  1.2111 -1.5064
 2726SOL     OW19639   2.810   3.583  10.602  0.4435 -0.5822 -0.0419
 2726SOL    HW119640   2.844   3.493  10.599  1.3125 -0.2170 -0.7170
 2726SOL    HW219641   2.867   3.614  10.672 -0.5162 -0.8944  0.8910
 2727SOL     OW19642   4.406   1.188  13.616  0.2377 -0.3187 -0.3578
 2727SOL    HW119643   4.402   1.118  13.551 -0.4876 -0.7218  0.1248
 2727SOL    HW219644   4.314   1.215  13.622  0.4967  0.2668  0.9527
 2728SOL     OW19645   1.545   0.884   3.376 -0.1794  0.1955 -0.5270
 2728SOL    HW119646   1.533   0.789   3.380  0.0121  0.0023 -4.2866
 2728SOL    HW219647   1.640   0.893   3.386 -0.4992  0.2633  2.5634
 2729SOL     OW19648   4.683   4.607  13.967  0.1828  0.0093 -0.5784
 2729SOL    HW119649   4.653   4.631  13.880  2.5510 -1.2371 -1.7343
 2729SOL    HW219650   4.664   4.687  14.017  0.3861 -0.2357 -0.1114
 2730SOL     OW19651   2.948   2.630  14.924 -0.0576  0.0613 -0.1265
 2730SOL    HW119652   2.876   2.667  14.976  1.3550  1.3574  0.9195
 2730SOL    HW219653   2.962   2.549  14.973  1.0268 -0.5493 -1.4857
 2731SOL     OW19654   1.072   0.539   4.837  0.0132 -0.4986 -0.2132
 2731SOL    HW119655   1.070   0.455   4.883 -2.2662  0.3492  1.2353
 2731SOL    HW219656   1.006   0.591   4.883  0.7731  0.8172 -0.6047
 2732SOL     OW19657   2.291   3.274   3.616 -0.4863  0.3654  0.4202
 2732SOL    HW119658   2.293   3.178   3.625 -1.6784  0.2094 -0.8780
 2732SOL    HW219659   2.198   3.297   3.626 -0.8962 -0.7672 -0.6910
 2733SOL     OW19660   1.422   0.232   4.449 -0.3950 -0.2623  0.1535
 2733SOL    HW119661   1.454   0.245   4.359  2.1714 -0.5270  1.0176
 2733SOL    HW219662   1.347   0.174   4.435  0.2840 -1.1606  0.1965
 2734SOL     OW19663   4.128   1.558  12.708 -0.3370  0.0963  0.5082
 2734SOL    HW119664   4.213   1.532  12.673  0.6092  1.2574  1.9772
 2734SOL    HW219665   4.072   1.518  12.641 -0.6206  0.0544  0.7708
 2735SOL     OW19666   2.109   3.929  12.705 -0.1661 -0.2344 -0.3548
 2735SOL    HW119667   2.168   3.932  12.630  0.0359  3.0853 -0.0386
 2735SOL    HW219668   2.170   3.954  12.774 -1.8205  0.1593  0.9653
 2736SOL     OW19669   0.806   1.974   7.021  0.9143 -0.7330  0.0054
 2736SOL    HW119670   0.760   1.918   6.958  0.1057  2.8393 -2.5962
 2736SOL    HW219671   0.769   1.935   7.100 -1.3779  1.0940 -0.1782
 2737SOL     OW19672   2.288   0.783   0.445  0.2852  0.3219  0.3412
 2737SOL    HW119673   2.365   0.731   0.420 -0.1989 -1.2348  2.0821
 2737SOL    HW219674   2.216   0.734   0.406 -1.1231  2.1259  0.7227
 2738SOL     OW19675   4.646   2.596   7.588  0.0940 -0.3771  0.1480
 2738SOL    HW119676   4.626   2.511   7.627 -1.8448 -0.6239 -1.3690
 2738SOL    HW219677   0.011   2.589   7.549  0.3994  1.4331  0.5065
 2739SOL     OW19678   1.050   2.091  17.684 -0.1028  0.0631 -0.1359
 2739SOL    HW119679   1.138   2.126   0.007 -1.5780  3.6453  0.2435
 2739SOL    HW219680   1.051   2.030   0.068  1.5274 -0.0169 -0.2284
 2740SOL     OW19681   4.267   4.338  17.222 -0.8109 -0.7624  1.0312
 2740SOL    HW119682   4.293   4.246  17.224  0.6296 -0.4314 -2.7509
 2740SOL    HW219683   4.171   4.333  17.222 -0.7459 -1.9325  0.2066
 2741SOL     OW19684   2.011   0.617   3.633  0.7802 -0.2383  0.3761
 2741SOL    HW119685   2.028   0.573   3.716  0.9943 -0.2427  0.3316
 2741SOL    HW219686   1.968   0.696   3.666 -1.4161 -0.4200 -2.0887
 2742SOL     OW19687   1.596   4.055   7.378 -0.1509 -0.1914 -0.0087
 2742SOL    HW119688   1.609   4.033   7.470 -0.0053 -2.0772 -0.4658
 2742SOL    HW219689   1.520   4.112   7.380 -0.5560 -0.6498 -1.9159
 2743SOL     OW19690   1.846   1.969   8.057 -0.0383  0.2199  0.2073
 2743SOL    HW119691   1.761   1.947   8.094 -0.6785  0.4912 -1.1241
 2743SOL    HW219692   1.842   2.060   8.028  2.5889  0.1628 -0.3826
 2744SOL     OW19693   3.546   2.101  14.977 -0.0198 -0.1597 -0.0399
 2744SOL    HW119694   3.465   2.049  14.976 -0.3356  0.3448 -1.3060
 2744SOL    HW219695   3.505   2.181  14.946 -0.2317 -0.3439 -0.2407
 2745SOL     OW19696   0.218   2.629   5.357 -0.4966  0.4390 -0.1025
 2745SOL    HW119697   0.184   2.590   5.277 -0.9501 -0.9585  0.7729
 2745SOL    HW219698   0.145   2.619   5.417 -0.0045  1.0415  0.5973
 2746SOL     OW19699   4.364   3.657   3.602 -0.6287 -0.0287 -0.0974
 2746SOL    HW119700   4.388   3.603   3.678 -0.9156 -0.4265 -0.2890
 2746SOL    HW219701   4.351   3.596   3.529  0.4431 -2.8908  2.0694
 2747SOL     OW19702   0.464   4.402   3.752  0.1352  0.1717 -0.4060
 2747SOL    HW119703   0.430   4.318   3.721  0.5377 -0.6379  1.3056
 2747SOL    HW219704   0.397   4.460   3.716  0.2280  0.4706 -0.1000
 2748SOL     OW19705   0.908   0.813  13.498  0.1121  0.0997 -0.1169
 2748SOL    HW119706   0.947   0.838  13.581 -0.1105 -0.2103  0.0807
 2748SOL    HW219707   0.834   0.874  13.495  0.5335  0.6392  0.6805
 2749SOL     OW19708   1.770   3.864   2.260  0.2220 -0.3740  0.1429
 2749SOL    HW119709   1.733   3.810   2.330 -2.9072 -1.5369 -2.4190
 2749SOL    HW219710   1.849   3.812   2.248 -0.9754 -1.6922 -1.9611
 2750SOL     OW19711   3.386   0.152   4.572 -0.1258  0.2056  0.0629
 2750SOL    HW119712   3.410   0.192   4.655 -0.3428  0.7910 -0.1504
 2750SOL    HW219713   3.361   0.234   4.530 -1.2956 -0.5362 -0.6919
 2751SOL     OW19714   1.294   4.399   8.389 -0.1090  0.4213  0.6608
 2751SOL    HW119715   1.277   4.480   8.342  0.6330  0.8714  1.1712
 2751SOL    HW219716   1.309   4.441   8.474  3.9033  0.8425 -0.2510
 2752SOL     OW19717   0.439   2.425  11.604  0.1259  0.0230 -0.6423
 2752SOL    HW119718   0.507   2.412  11.670  0.1589  2.3204 -0.2161
 2752SOL    HW219719   0.475   2.386  11.524 -2.0796  1.2709 -2.2615
 2753SOL     OW19720   3.401   0.580  10.357  0.0187  0.0962  0.0961
 2753SOL    HW119721   3.426   0.668  10.330  0.2611  0.4844  1.5894
 2753SOL    HW219722   3.482   0.531  10.342  1.7721  2.2369  2.5441
 2754SOL     OW19723   0.270   4.482   6.616  0.0915 -0.3394  0.1912
 2754SOL    HW119724   0.284   4.513   6.526 -1.5736 -1.3957 -0.4311
 2754SOL    HW219725   0.194   4.426   6.609  0.6263 -1.2894  2.1634
 2755SOL     OW19726   3.708   0.193  13.045 -0.2113  0.6864  0.0411
 2755SOL    HW119727   3.697   0.250  12.969 -1.4320  0.0915 -0.2211
 2755SOL    HW219728   3.791   0.150  13.024  0.1703  0.3708  2.1147
 2756SOL     OW19729   2.151   2.251   2.702  0.4148  0.2104 -0.5832
 2756SOL    HW119730   2.151   2.191   2.627  2.2458  1.1348 -1.3081
 2756SOL    HW219731   2.192   2.331   2.672 -0.4336  0.5245 -0.9159
 2757SOL     OW19732   3.829   2.242   5.321  0.0526  0.6115 -0.0264
 2757SOL    HW119733   3.796   2.313   5.376 -0.5004 -0.5540  1.1666
 2757SOL    HW219734   3.768   2.222   5.250 -1.7133 -0.5412  1.7920
 2758SOL     OW19735   3.233   3.764   4.968  0.0657 -0.8659  0.2085
 2758SOL    HW119736   3.258   3.854   4.948 -1.4044 -0.5259 -0.0981
 2758SOL    HW219737   3.183   3.784   5.048  1.0252 -2.4676  1.2078
 2759SOL     OW19738   2.367   0.473   9.205 -0.2787  0.3266  0.1521
 2759SOL    HW119739   2.458   0.445   9.215 -0.9212 -1.6819  0.4966
 2759SOL    HW219740   2.366   0.563   9.237 -1.0391  0.4194 -0.1512
 2760SOL     OW19741   3.602   0.034   6.561 -0.8087 -0.2564  0.3477
 2760SOL    HW119742   3.584   0.108   6.503  1.6834  0.4271  0.4362
 2760SOL    HW219743   3.523   4.702   6.558 -1.1975  0.4508 -1.9123
 2761SOL     OW19744   3.605   1.955  13.752  0.1096 -0.8102 -0.3442
 2761SOL    HW119745   3.587   1.956  13.846  1.4552  0.2096 -0.0912
 2761SOL    HW219746   3.527   2.004  13.729 -0.5885 -1.6978  0.1166
 2762SOL     OW19747   2.083   3.772   7.667  0.4838 -0.1065  0.0966
 2762SOL    HW119748   2.056   3.681   7.652  0.8154 -0.3958  1.2163
 2762SOL    HW219749   2.033   3.806   7.741 -1.8118 -0.0322 -1.4823
 2763SOL     OW19750   3.995   2.472   2.848 -0.0213 -0.0550 -0.3971
 2763SOL    HW119751   3.977   2.513   2.764 -2.6633  0.2238  0.3268
 2763SOL    HW219752   4.088   2.497   2.849 -0.3144  1.0069  0.7907
 2764SOL     OW19753   1.339   2.725  11.175 -0.1400 -0.1694 -0.4199
 2764SOL    HW119754   1.354   2.646  11.123  0.6893 -1.2160  1.4165
 2764SOL    HW219755   1.395   2.717  11.252 -1.4608 -1.9200  0.3470
 2765SOL     OW19756   1.851   3.457   3.920  0.3513  0.2589  0.4247
 2765SOL    HW119757   1.760   3.474   3.944 -0.4974 -1.9585 -1.1446
 2765SOL    HW219758   1.878   3.541   3.883  1.8149 -0.2653  0.3052
 2766SOL     OW19759   3.665   4.435   5.664 -0.5671  0.4226 -0.2734
 2766SOL    HW119760   3.577   4.458   5.635 -0.1792  0.8609 -1.0949
 2766SOL    HW219761   3.678   4.354   5.614  0.8564  0.5006 -0.0343
 2767SOL     OW19762   0.433   2.030   5.978 -0.3195  0.3922 -0.9399
 2767SOL    HW119763   0.492   1.974   5.927 -0.7591 -0.2797 -0.7150
 2767SOL    HW219764   0.474   2.116   5.972 -2.2322  1.3639 -0.1800
 2768SOL     OW19765   4.713   2.765   6.058  0.4596 -0.3536 -0.2461
 2768SOL    HW119766   4.676   2.845   6.023 -0.8735 -0.3936  1.0658
 2768SOL    HW219767   4.649   2.747   6.127 -0.7451 -1.0790 -1.5435
 2769SOL     OW19768   0.569   4.462   7.945 -0.2879  0.2949 -0.2720
 2769SOL    HW119769   0.625   4.500   7.878  1.0408 -1.6948 -0.2935
 2769SOL    HW219770   0.603   4.497   8.028  2.0096  0.6214 -1.3627
 2770SOL     OW19771   3.703   4.640   5.400 -0.0188 -0.4048  0.6299
 2770SOL    HW119772   3.642   4.614   5.469 -1.6018 -1.9901 -1.3656
 2770SOL    HW219773   3.648   4.686   5.336  1.3466 -0.4722 -0.5939
 2771SOL     OW19774   4.299   4.354   5.301 -0.4600  0.1181 -0.2410
 2771SOL    HW119775   4.261   4.397   5.224  1.3387 -1.5022 -2.0353
 2771SOL    HW219776   4.270   4.418   5.367 -1.9522  0.5630 -1.3063
 2772SOL     OW19777   3.128   0.034   3.836  0.2710 -0.0218 -0.4256
 2772SOL    HW119778   3.147   0.125   3.858  0.4981 -0.0324 -0.5736
 2772SOL    HW219779   3.036   0.032   3.809 -0.2477  2.3264  1.1384
 2773SOL     OW19780   4.507   0.542  15.483 -0.2289 -0.2850 -0.6631
 2773SOL    HW119781   4.556   0.606  15.536  1.9074 -1.2226 -1.5156
 2773SOL    HW219782   4.427   0.526  15.534  0.2858 -1.2700 -0.1813
 2774SOL     OW19783   1.618   2.566   1.788  0.3979  0.0229 -0.4461
 2774SOL    HW119784   1.603   2.659   1.804  0.9662 -0.4645  2.9012
 2774SOL    HW219785   1.687   2.569   1.722 -1.2506 -1.3587 -2.2377
 2775SOL     OW19786   0.995   4.630   7.091 -0.4761  0.3773 -0.4817
 2775SOL    HW119787   0.904   4.627   7.059 -0.4791 -1.3671 -0.2801
 2775SOL    HW219788   1.033   4.639   7.004 -1.6372  1.3949 -0.8857
 2776SOL     OW19789   1.840   4.428  10.087  0.0243 -0.6648  0.0448
 2776SOL    HW119790   1.754   4.396  10.058 -0.4128 -2.0930  2.8695
 2776SOL    HW219791   1.890   4.347  10.099 -1.7183 -1.7788 -0.2387
 2777SOL     OW19792   2.246   2.702   0.531  0.0354  0.2538  0.6180
 2777SOL    HW119793   2.151   2.707   0.519  0.1535  1.2375  0.0856
 2777SOL    HW219794   2.267   2.794   0.542  0.8528  0.0751  0.5165
 2778SOL     OW19795   1.075   0.273   9.693 -0.1865  0.5089  0.3470
 2778SOL    HW119796   1.092   0.283   9.787 -0.3139  1.5448  0.2588
 2778SOL    HW219797   0.982   0.250   9.686  0.5214 -1.9500 -1.0457
 2779SOL     OW19798   2.131   2.566   0.247  0.4888 -0.2920 -0.8320
 2779SOL    HW119799   2.112   2.548   0.339 -0.1777  0.8593 -0.7459
 2779SOL    HW219800   2.140   2.661   0.245 -0.2456 -0.1813  1.4120
 2780SOL     OW19801   3.548   2.751   5.350  0.6319 -0.5523  0.0816
 2780SOL    HW119802   3.468   2.747   5.296  0.8737  0.0563 -0.3257
 2780SOL    HW219803   3.604   2.813   5.303  1.3620 -0.4028  1.1475
 2781SOL     OW19804   3.406   1.555   2.822 -0.5373 -0.1792  0.5729
 2781SOL    HW119805   3.424   1.491   2.752 -1.0079 -1.0668  1.2574
 2781SOL    HW219806   3.487   1.571   2.871 -0.9050  0.5355  0.9427
 2782SOL     OW19807   2.185   0.944   7.196 -0.4760 -0.6511  0.4469
 2782SOL    HW119808   2.093   0.929   7.218 -1.1561  1.4047 -1.0153
 2782SOL    HW219809   2.221   0.858   7.218  2.5827  0.3396 -0.6709
 2783SOL     OW19810   3.870   4.702  13.921 -0.0749 -0.0666 -0.3333
 2783SOL    HW119811   3.951   4.673  13.964  0.8705  0.0602 -2.0184
 2783SOL    HW219812   3.883   4.643  13.847 -0.8714 -0.0657 -0.4649
 2784SOL     OW19813   4.067   4.140  11.664 -0.1277  0.2148  0.1925
 2784SOL    HW119814   4.047   4.232  11.646 -0.9064 -0.0968 -0.5442
 2784SOL    HW219815   4.001   4.091  11.615 -0.0180  0.7634 -0.5235
 2785SOL     OW19816   1.513   1.480   4.559  0.4530  0.3272 -0.0876
 2785SOL    HW119817   1.525   1.567   4.521  0.2959  0.6423  0.5851
 2785SOL    HW219818   1.483   1.431   4.483 -2.6604  1.1905  0.5928
 2786SOL     OW19819   2.353   3.589   6.297 -0.0931  0.6790 -0.2616
 2786SOL    HW119820   2.292   3.541   6.352  0.5153 -0.5534 -0.6670
 2786SOL    HW219821   2.415   3.606   6.368 -0.0731  0.0562 -0.1283
 2787SOL     OW19822   2.394   1.033  15.552 -0.2311  0.2185  0.0187
 2787SOL    HW119823   2.387   1.023  15.457  2.7847  0.4648 -0.2200
 2787SOL    HW219824   2.460   0.966  15.571 -1.5191 -0.8770  0.5946
 2788SOL     OW19825   2.311   2.803   5.072  0.4439 -1.2980 -0.3148
 2788SOL    HW119826   2.319   2.738   5.142  1.0381 -2.4116 -1.4212
 2788SOL    HW219827   2.385   2.861   5.094  0.6730 -0.9074 -2.1459
 2789SOL     OW19828   4.694   0.387   3.647  0.0080 -0.6690 -0.1692
 2789SOL    HW119829   4.603   0.365   3.667 -0.8233  0.9135 -2.2323
 2789SOL    HW219830   0.006   0.311   3.694 -0.5141 -1.6348 -1.3480
 2790SOL     OW19831   0.383   2.893   3.159 -0.4630 -0.2683  0.1721
 2790SOL    HW119832   0.392   2.988   3.168  0.4584 -0.1435 -1.9801
 2790SOL    HW219833   0.292   2.883   3.188  0.1204 -0.9540  1.7963
 2791SOL     OW19834   2.817   2.314   8.062 -0.1437 -0.6054 -0.0227
 2791SOL    HW119835   2.868   2.263   8.125  0.4313  0.8860  0.7120
 2791SOL    HW219836   2.765   2.248   8.016  1.0325 -1.3838 -0.2238
 2792SOL     OW19837   3.535   4.587   6.296 -0.1148  0.0682  0.2450
 2792SOL    HW119838   3.616   4.541   6.315  0.5608  0.9739 -0.3975
 2792SOL    HW219839   3.568   4.670   6.260  0.0663 -0.5771 -1.0867
 2793SOL     OW19840   4.513   0.730  14.986  0.2315 -0.4513  0.5528
 2793SOL    HW119841   4.487   0.687  15.068  0.7987 -1.9342 -0.0395
 2793SOL    HW219842   4.447   0.685  14.933 -0.0999  1.3581 -0.5752
 2794SOL     OW19843   2.013   1.805   7.493 -0.1308 -0.2984 -0.7012
 2794SOL    HW119844   1.998   1.868   7.563 -0.0250 -0.2432 -0.7284
 2794SOL    HW219845   1.964   1.847   7.421  1.5137 -0.2000 -1.7667
 2795SOL     OW19846   2.444   4.131   0.193  0.7042  0.4140 -0.1797
 2795SOL    HW119847   2.468   4.180   0.115  1.6646  1.4982  0.7960
 2795SOL    HW219848   2.357   4.100   0.169  0.3110  1.8347 -0.5839
 2796SOL     OW19849   4.285   1.487   2.099 -0.1236 -0.4138 -0.5821
 2796SOL    HW119850   4.367   1.515   2.058 -1.3793 -1.0974 -3.5013
 2796SOL    HW219851   4.285   1.539   2.179  0.5410 -0.2730 -0.6702
 2797SOL     OW19852   4.593   1.812   5.388 -0.0260 -0.4876 -0.1152
 2797SOL    HW119853   4.552   1.729   5.362 -0.1844 -0.0520 -1.2781
 2797SOL    HW219854   4.685   1.790   5.370  0.1217  0.4611 -0.5408
 2798SOL     OW19855   1.702   2.797   3.889  0.4669  0.1190  0.2354
 2798SOL    HW119856   1.611   2.780   3.868  0.1232 -0.4623  2.1419
 2798SOL    HW219857   1.702   2.763   3.979  0.4539  1.1448  0.6236
 2799SOL     OW19858   2.164   1.414   3.755 -0.4042 -0.0341 -0.3567
 2799SOL    HW119859   2.092   1.458   3.800 -0.7460 -1.3107  0.3641
 2799SOL    HW219860   2.166   1.331   3.803 -1.3708 -0.7372 -1.5201
 2800SOL     OW19861   4.064   2.074  15.590 -0.0243 -0.5899 -0.1455
 2800SOL    HW119862   4.091   2.160  15.556 -0.7788 -0.5992 -0.7474
 2800SOL    HW219863   4.064   2.092  15.684  2.3976 -1.9112  0.0957
 2801SOL     OW19864   4.552   3.122   0.068  0.0808 -0.1521  0.3347
 2801SOL    HW119865   4.594   3.078  17.682  1.8451  0.8562  0.7479
 2801SOL    HW219866   4.515   3.044   0.110  0.4537  0.0064  0.9547
 2802SOL     OW19867   3.335   0.076   7.978 -0.1159 -0.3941 -0.2280
 2802SOL    HW119868   3.348   0.005   7.916 -0.9793 -0.0337 -0.8283
 2802SOL    HW219869   3.425   0.103   7.995 -0.9798  0.3584  3.1150
 2803SOL     OW19870   0.519   4.298  17.060 -0.3161 -0.4458 -0.3335
 2803SOL    HW119871   0.583   4.253  17.005 -1.6706 -1.4223 -1.1134
 2803SOL    HW219872   0.541   4.388  17.039  1.5825 -0.6378  0.7262
 2804SOL     OW19873   2.562   1.153   5.506  0.3010 -0.3558 -0.5058
 2804SOL    HW119874   2.492   1.101   5.467  1.1583 -0.8475 -1.4062
 2804SOL    HW219875   2.559   1.128   5.598 -1.2647  1.6977 -0.0054
 2805SOL     OW19876   4.539   0.568   9.837 -0.1881  0.2649  0.2510
 2805SOL    HW119877   4.467   0.559   9.775 -0.6909 -0.8060  0.9873
 2805SOL    HW219878   4.520   0.647   9.888  0.2344 -0.4655  1.5402
 2806SOL     OW19879   4.262   0.396   9.384 -0.1753  0.4001  0.0861
 2806SOL    HW119880   4.309   0.343   9.320 -0.5151  0.5154 -0.2588
 2806SOL    HW219881   4.195   0.436   9.329  0.0481  1.2419  0.4259
 2807SOL     OW19882   3.044   3.350   7.132  0.2207  0.3809  0.0574
 2807SOL    HW119883   3.080   3.421   7.185 -0.8112  0.5458  0.5335
 2807SOL    HW219884   3.124   3.303   7.108  0.0389  1.4321 -2.6783
 2808SOL     OW19885   1.050   0.718  16.583  0.1170 -0.6721 -0.4744
 2808SOL    HW119886   1.124   0.756  16.536 -0.5634 -0.0078 -0.9985
 2808SOL    HW219887   0.987   0.789  16.577 -1.7619 -2.2771  0.2825
 2809SOL     OW19888   3.015   4.178  14.369  0.7841 -0.7189  0.3484
 2809SOL    HW119889   2.975   4.197  14.284 -0.6023  0.4281  1.2594
 2809SOL    HW219890   2.981   4.091  14.389  1.5504 -0.8981  0.8817
 2810SOL     OW19891   4.549   4.453   6.414 -0.3494  0.2244  0.3184
 2810SOL    HW119892   4.606   4.449   6.337  2.1979  0.6262  2.1892
 2810SOL    HW219893   4.484   4.388   6.386 -0.7828  0.2552  1.2550
 2811SOL     OW19894   2.920   0.853   4.158  0.0618  0.1525  0.3325
 2811SOL    HW119895   2.861   0.821   4.090 -2.0030  0.3101  2.0659
 2811SOL    HW219896   2.855   0.905   4.206 -2.3168 -1.0335 -1.6330
 2812SOL     OW19897   3.723   0.635   1.937  0.1086  0.2051  0.2603
 2812SOL    HW119898   3.680   0.553   1.917  0.4112  0.0485  0.2443
 2812SOL    HW219899   3.794   0.598   1.990 -0.0156 -1.3957 -0.7041
 2813SOL     OW19900   3.574   0.896   4.313 -0.4552 -0.3260  0.2956
 2813SOL    HW119901   3.508   0.951   4.270  0.8095 -0.3170 -1.6119
 2813SOL    HW219902   3.644   0.962   4.313  1.4867 -2.3875  0.4891
 2814SOL     OW19903   3.165   2.034   5.233 -0.2657 -0.0818 -0.3214
 2814SOL    HW119904   3.132   2.097   5.297  3.5734  0.6777  0.9057
 2814SOL    HW219905   3.113   2.070   5.162 -2.7331 -1.2874  0.8896
 2815SOL     OW19906   1.631   4.241   9.548  0.1411 -0.3311  0.7160
 2815SOL    HW119907   1.687   4.173   9.585 -0.4812  0.5890  3.2797
 2815SOL    HW219908   1.549   4.192   9.549 -0.8982  1.3564 -0.6444
 2816SOL     OW19909   2.077   3.680  12.557 -0.4468  0.3218  0.5353
 2816SOL    HW119910   2.048   3.751  12.615  1.2582  1.3234  0.1634
 2816SOL    HW219911   2.166   3.658  12.583 -0.9465 -2.0578  0.1764
 2817SOL     OW19912   2.840   1.357  10.054 -0.2982  0.7024  0.8595
 2817SOL    HW119913   2.825   1.340  10.147 -1.1225  2.7899  1.1071
 2817SOL    HW219914   2.754   1.346  10.014 -1.0572  1.1878  2.3743
 2818SOL     OW19915   3.358   2.938   9.373 -0.5306 -0.1509  0.2549
 2818SOL    HW119916   3.287   2.952   9.310 -0.6353  0.2122  0.4495
 2818SOL    HW219917   3.358   3.030   9.399  0.6067  0.1986 -1.0165
 2819SOL     OW19918   0.734   4.317   5.867 -0.4616  0.0805  0.4926
 2819SOL    HW119919   0.761   4.257   5.796 -1.4369 -3.0509  2.7803
 2819SOL    HW219920   0.692   4.387   5.817 -0.6877 -0.1110  0.4173
 2820SOL     OW19921   3.660   4.718   7.974 -0.4120 -0.0432  0.3161
 2820SOL    HW119922   3.727   0.059   8.001  0.7708 -1.0242 -0.3517
 2820SOL    HW219923   3.687   4.703   7.884  0.7737 -0.4411  0.7405
 2821SOL     OW19924   0.659   2.014  10.849  0.5747 -0.0427  0.9143
 2821SOL    HW119925   0.673   1.919  10.845 -1.0491 -0.1129 -2.9430
 2821SOL    HW219926   0.587   2.011  10.912  0.3313  0.2737  0.6438
 2822SOL     OW19927   4.054   1.941   5.963  0.1374 -0.6715 -0.1906
 2822SOL    HW119928   4.042   1.896   5.879  0.3953  0.8686 -1.0489
 2822SOL    HW219929   4.148   1.931   5.978  0.4492  4.0074  0.9599
 2823SOL     OW19930   0.079   0.551   5.748  0.4920  0.5769  0.4863
 2823SOL    HW119931   0.044   0.517   5.666  0.8609  0.5268  0.3498
 2823SOL    HW219932   0.058   0.644   5.740  0.6503  0.5314 -0.4283
 2824SOL     OW19933   4.312   0.359   1.225 -0.2137  0.1198 -0.2390
 2824SOL    HW119934   4.299   0.336   1.317  2.2585  1.2681  0.3988
 2824SOL    HW219935   4.403   0.389   1.223 -0.4955  1.1668  1.9074
 2825SOL     OW19936   2.522   0.408   1.583 -0.1540  0.3488 -0.1545
 2825SOL    HW119937   2.580   0.406   1.659 -0.2934  0.8880 -0.0347
 2825SOL    HW219938   2.506   0.314   1.579 -0.5131  0.4793 -2.2320
 2826SOL     OW19939   3.349   3.637   8.229 -0.6824 -0.1310  0.4023
 2826SOL    HW119940   3.393   3.712   8.269 -1.0770  1.1013 -1.4980
 2826SOL    HW219941   3.265   3.639   8.275 -0.5810 -0.4860  0.6019
 2827SOL     OW19942   2.367   3.166   1.856  0.1548 -0.7644  0.0793
 2827SOL    HW119943   2.406   3.189   1.940  0.0029 -0.1073 -0.0343
 2827SOL    HW219944   2.432   3.196   1.793  1.3934 -3.2635  0.1747
 2828SOL     OW19945   4.212   0.066   6.107  0.3076  0.0632  0.3051
 2828SOL    HW119946   4.185   4.701   6.137  1.3766  0.1270  1.4744
 2828SOL    HW219947   4.143   0.120   6.145  0.4990 -0.8025  1.9024
 2829SOL     OW19948   3.449   2.055   9.166 -0.3936  0.2587  0.0863
 2829SOL    HW119949   3.438   2.147   9.191  0.3222  0.0751  1.1121
 2829SOL    HW219950   3.518   2.019   9.222  0.2375  3.7177  1.5210
 2830SOL     OW19951   3.134   0.345   4.034 -0.2409  0.7520  0.0016
 2830SOL    HW119952   3.227   0.327   4.020 -0.2709  1.1868 -0.7660
 2830SOL    HW219953   3.099   0.272   4.085 -0.4710 -0.1971 -1.4994
 2831SOL     OW19954   1.395   2.790   3.934 -0.3390 -0.1820 -0.0763
 2831SOL    HW119955   1.378   2.859   3.869 -1.1750 -0.0944  0.2418
 2831SOL    HW219956   1.368   2.839   4.012 -0.1477  0.2946 -0.3061
 2832SOL     OW19957   1.570   4.310  13.414  0.2386 -0.3024  0.1308
 2832SOL    HW119958   1.546   4.403  13.423 -1.5089 -0.7049 -0.2674
 2832SOL    HW219959   1.663   4.318  13.432  0.1426  0.7891  0.1400
 2833SOL     OW19960   3.559   0.524  17.446  0.1063  0.1333 -0.3663
 2833SOL    HW119961   3.492   0.464  17.412 -2.7593  2.3707  1.3270
 2833SOL    HW219962   3.517   0.598  17.403 -0.5602  0.6767  1.2608
 2834SOL     OW19963   0.188   2.169   7.809 -0.0815  0.3584  0.4608
 2834SOL    HW119964   0.115   2.166   7.871 -0.0851  1.2231  0.5010
 2834SOL    HW219965   0.258   2.198   7.867  0.3000 -2.8420  1.5786
 2835SOL     OW19966   2.325   1.616  14.505 -0.5642  0.1591  0.1301
 2835SOL    HW119967   2.280   1.566  14.573 -1.4542 -1.7492 -1.8629
 2835SOL    HW219968   2.247   1.634  14.452  0.7173  2.7875 -0.8577
 2836SOL     OW19969   3.121   0.803  17.347 -0.5468 -0.0803  0.3715
 2836SOL    HW119970   3.047   0.854  17.314  0.2269  1.7404  1.4191
 2836SOL    HW219971   3.183   0.822  17.276  0.1976  0.8652  1.2619
 2837SOL     OW19972   1.178   3.958   6.608  0.1431  0.1895 -0.0606
 2837SOL    HW119973   1.170   3.863   6.617 -0.1116  0.1296 -0.8879
 2837SOL    HW219974   1.099   3.993   6.650  0.7535 -0.0891  1.3255
 2838SOL     OW19975   1.478   0.525   5.399  0.6189 -0.2085 -0.2735
 2838SOL    HW119976   1.439   0.509   5.484  0.2440  1.7279 -0.0765
 2838SOL    HW219977   1.403   0.566   5.354  1.0386 -0.5173 -1.2612
 2839SOL     OW19978   3.471   2.827   1.677  0.6526  0.7220 -0.7758
 2839SOL    HW119979   3.539   2.760   1.689 -2.2636 -1.5234  3.2375
 2839SOL    HW219980   3.528   2.893   1.638 -3.0690  3.8211 -0.9074
 2840SOL     OW19981   0.318   4.299  12.571  0.0370 -0.4325  0.2555
 2840SOL    HW119982   0.359   4.245  12.638  0.1575  0.7704  1.1475
 2840SOL    HW219983   0.227   4.269  12.574  0.8745 -2.7769  2.0148
 2841SOL     OW19984   4.368   0.637   3.306 -0.3075 -0.2938  0.2396
 2841SOL    HW119985   4.414   0.703   3.357  0.6661  1.4402 -2.8729
 2841SOL    HW219986   4.401   0.560   3.352 -0.8756 -1.4191 -1.2410
 2842SOL     OW19987   3.487   0.363   6.619  0.0649  0.5685 -0.0959
 2842SOL    HW119988   3.506   0.331   6.530 -1.2966 -0.1220 -0.1414
 2842SOL    HW219989   3.393   0.371   6.606 -0.0067 -2.2586 -1.4343
 2843SOL     OW19990   0.938   1.667   4.570 -0.0553 -0.3054 -0.6035
 2843SOL    HW119991   0.940   1.763   4.571 -0.0444 -0.3002 -1.2064
 2843SOL    HW219992   0.854   1.654   4.613  0.4744 -0.2516  0.4704
 2844SOL     OW19993   2.280   1.091   3.116  0.5693  0.4738  0.5753
 2844SOL    HW119994   2.335   1.155   3.070 -0.5000 -0.7783 -2.4255
 2844SOL    HW219995   2.344   1.036   3.161  0.0213 -0.8227 -0.2528
 2845SOL     OW19996   2.832   4.645   8.168  0.2339  0.2397 -0.0992
 2845SOL    HW119997   2.871   4.568   8.209 -1.0330 -0.5636 -0.4210
 2845SOL    HW219998   2.919   4.675   8.141  0.2886  2.0816  2.0390
 2846SOL     OW19999   2.521   2.992   0.380 -0.7023 -0.3012 -0.0674
 2846SOL    HW120000   2.511   3.006   0.474  1.0828 -0.7410  0.1863
 2846SOL    HW220001   2.575   3.060   0.341  0.2532 -1.0478 -0.0397
 2847SOL     OW20002   1.897   4.719  10.755 -0.7375  0.3187 -0.2687
 2847SOL    HW120003   1.837   4.644  10.760  1.0193 -1.0947 -0.6170
 2847SOL    HW220004   1.878   0.041  10.838 -2.2164 -1.0188  0.1137
 2848SOL     OW20005   4.643   0.285   5.800 -0.3366  0.2585  0.0917
 2848SOL    HW120006   4.632   0.288   5.705  0.0861  3.6881  0.1462
 2848SOL    HW220007   4.678   0.373   5.813 -0.6203  0.3985 -0.0796
 2849SOL     OW20008   0.302   3.677   0.965 -0.2679  0.0063  0.8504
 2849SOL    HW120009   0.319   3.762   1.005 -2.3085  0.5467  0.5681
 2849SOL    HW220010   0.225   3.699   0.912 -0.0767  0.2176  0.6635
 2850SOL     OW20011   4.487   0.731  10.260 -0.0059  0.6419  0.0165
 2850SOL    HW120012   4.575   0.760  10.282  0.4565 -0.9913  0.3242
 2850SOL    HW220013   4.433   0.767  10.330  2.1049 -0.3557  2.1593
 2851SOL     OW20014   4.092   4.716   9.194  0.7982  0.0701  0.4926
 2851SOL    HW120015   4.069   0.003   9.287 -1.6818 -0.8266 -0.0450
 2851SOL    HW220016   4.057   0.074   9.154  0.0066  0.1548  1.3406
 2852SOL     OW20017   1.214   2.681  16.889 -0.1314  0.6575 -0.2660
 2852SOL    HW120018   1.255   2.679  16.803 -0.9463  0.8810 -0.6606
 2852SOL    HW220019   1.288   2.649  16.941 -1.9823  0.4844  2.2658
 2853SOL     OW20020   0.141   4.048   0.820  0.5214 -0.0697 -0.2020
 2853SOL    HW120021   0.123   4.050   0.915 -1.1593  1.9889 -0.5559
 2853SOL    HW220022   0.206   4.116   0.806  1.4930 -0.6860  1.3180
 2854SOL     OW20023   3.287   0.905  11.885 -0.5468  0.1478 -0.0013
 2854SOL    HW120024   3.252   0.988  11.916 -0.5859  0.0406  0.2428
 2854SOL    HW220025   3.382   0.920  11.890 -0.2601 -1.3548 -1.0859
 2855SOL     OW20026   1.651   1.116  16.693  0.1655 -0.6881 -0.0472
 2855SOL    HW120027   1.614   1.156  16.614 -0.7311 -3.9220 -1.3158
 2855SOL    HW220028   1.646   1.024  16.667  0.4847 -0.5548 -0.5902
 2856SOL     OW20029   2.352   2.657  12.790  0.3921  0.1901 -0.3474
 2856SOL    HW120030   2.364   2.611  12.707 -0.3340 -0.0772 -0.3009
 2856SOL    HW220031   2.299   2.592  12.837 -2.2628  2.4471 -0.2467
 2857SOL     OW20032   2.775   2.566   8.329  0.2323  0.1562 -0.0798
 2857SOL    HW120033   2.867   2.544   8.316  0.4116  1.2959 -0.7918
 2857SOL    HW220034   2.780   2.660   8.348  1.8990  0.3606 -1.5278
 2858SOL     OW20035   1.084   2.572  14.982 -0.7052  0.2101  0.4533
 2858SOL    HW120036   1.023   2.639  15.012 -0.6190  0.0135  1.0661
 2858SOL    HW220037   1.165   2.621  14.996  0.3405 -1.0110 -1.2979
 2859SOL     OW20038   0.549   2.941   5.793 -0.0474 -0.3128  0.7976
 2859SOL    HW120039   0.460   2.966   5.818  0.0985  2.2799 -1.3181
 2859SOL    HW220040   0.565   2.849   5.815 -2.9557 -0.9731  0.0896
 2860SOL     OW20041   1.719   2.798   1.042  0.0139 -0.5985 -0.4156
 2860SOL    HW120042   1.750   2.832   1.125 -0.1366  2.1629 -1.4889
 2860SOL    HW220043   1.793   2.746   1.013 -1.4335 -2.8859 -0.0470
 2861SOL     OW20044   2.502   0.287   5.389 -0.4173  0.1579 -0.4717
 2861SOL    HW120045   2.511   0.216   5.325  0.8631 -0.3320  0.2546
 2861SOL    HW220046   2.469   0.365   5.345  1.7123  2.6234  2.2643
 2862SOL     OW20047   4.070   3.653   8.815 -0.3371 -0.2554 -0.1933
 2862SOL    HW120048   4.072   3.747   8.832 -1.7153 -0.4925  1.1967
 2862SOL    HW220049   4.124   3.639   8.737  1.2967  0.6719  0.7784
 2863SOL     OW20050   0.467   3.685   1.644 -0.9530  0.3282  0.2044
 2863SOL    HW120051   0.436   3.693   1.554  1.4879 -1.3498 -0.7954
 2863SOL    HW220052   0.506   3.597   1.640 -0.7767  0.3888  0.6120
 2864SOL     OW20053   4.380   0.516   3.683 -0.2862  0.5799 -0.1243
 2864SOL    HW120054   4.311   0.580   3.702 -1.8814 -0.3426 -2.9063
 2864SOL    HW220055   4.369   0.499   3.590  0.0287 -2.1937  0.3529
 2865SOL     OW20056   1.489   3.471   5.553 -0.0450 -0.2034  0.0447
 2865SOL    HW120057   1.584   3.464   5.563 -0.0510 -0.1253  0.1502
 2865SOL    HW220058   1.484   3.428   5.468  0.4107  0.4720 -0.3160
 2866SOL     OW20059   0.332   4.021  10.651 -0.8390 -0.5878  0.3074
 2866SOL    HW120060   0.374   4.090  10.703 -2.6196  1.7203 -1.3579
 2866SOL    HW220061   0.287   3.975  10.722 -1.3297  0.9606  1.0010
 2867SOL     OW20062   0.366   3.155  13.827  0.2374 -0.0644  0.2204
 2867SOL    HW120063   0.284   3.121  13.863  0.3119 -0.6459 -0.1513
 2867SOL    HW220064   0.340   3.246  13.841 -2.1201 -0.8932  1.2743
 2868SOL     OW20065   3.866   3.172   1.831 -0.2425 -0.1573 -0.0193
 2868SOL    HW120066   3.930   3.204   1.766 -1.6131  0.7233 -0.9404
 2868SOL    HW220067   3.868   3.240   1.899 -0.5539  0.2482 -0.4137
 2869SOL     OW20068   4.192   1.436  16.638 -0.5588 -0.2102  0.3293
 2869SOL    HW120069   4.149   1.469  16.717  2.4923  1.2141  1.3837
 2869SOL    HW220070   4.167   1.344  16.649  0.6784 -0.6583 -0.6379
 2870SOL     OW20071   2.210   3.290   8.503  0.1942 -0.4071 -0.1137
 2870SOL    HW120072   2.230   3.382   8.518  0.0666 -0.2172 -1.0980
 2870SOL    HW220073   2.291   3.247   8.529  0.0173  0.9008  2.5373
 2871SOL     OW20074   2.411   0.092  14.741  0.5420 -0.5819 -0.2214
 2871SOL    HW120075   2.498   0.052  14.731  0.1706 -1.2777 -0.5839
 2871SOL    HW220076   2.367   0.040  14.808  0.5559 -0.0280  0.2161
 2872SOL     OW20077   1.239   2.810  13.567 -0.2684 -0.0891 -0.0724
 2872SOL    HW120078   1.144   2.805  13.572 -0.2231  0.9365  1.7802
 2872SOL    HW220079   1.255   2.898  13.533  2.6849 -0.7182 -0.3021
 2873SOL     OW20080   3.346   0.470   3.227 -0.1801 -0.3771  0.4085
 2873SOL    HW120081   3.269   0.450   3.173 -0.6471 -1.1509  1.3416
 2873SOL    HW220082   3.415   0.461   3.162  1.6493 -3.2170  2.7629
 2874SOL     OW20083   3.319   1.039   2.856 -0.4936 -0.2046  0.3243
 2874SOL    HW120084   3.292   1.006   2.770  2.5091 -1.2300 -0.2202
 2874SOL    HW220085   3.272   1.122   2.868 -1.0333 -0.1707 -2.1081
 2875SOL     OW20086   2.956   4.598  13.114  0.3964  0.2451 -0.1057
 2875SOL    HW120087   2.984   4.548  13.191  0.5567  1.6074  0.7417
 2875SOL    HW220088   2.865   4.569  13.113  0.4725  0.0376 -0.5981
 2876SOL     OW20089   4.402   4.193   0.355 -0.0722  0.4427  0.4352
 2876SOL    HW120090   4.379   4.167   0.266  2.5348  1.4838 -0.5266
 2876SOL    HW220091   4.376   4.117   0.406 -2.1884  1.1471  0.4114
 2877SOL     OW20092   0.281   2.148   9.686 -0.1804 -0.1690  1.0053
 2877SOL    HW120093   0.269   2.056   9.661 -0.7812  0.4056 -0.8374
 2877SOL    HW220094   0.326   2.182   9.608  1.5545  0.5786  2.3193
 2878SOL     OW20095   2.401   1.470   4.003  0.2123  0.1788  0.3608
 2878SOL    HW120096   2.306   1.476   4.007  0.1341 -2.0002  1.7846
 2878SOL    HW220097   2.412   1.416   4.081 -0.0762 -3.3089 -2.0073
 2879SOL     OW20098   4.582   2.700  10.802  0.5437 -0.3367  0.7948
 2879SOL    HW120099   4.648   2.690  10.733 -0.4490  2.5862 -0.5909
 2879SOL    HW220100   4.513   2.634  10.798  0.7321 -0.5371  0.8037
 2880SOL     OW20101   1.532   1.535  16.619 -0.2801 -0.2150 -0.3580
 2880SOL    HW120102   1.518   1.448  16.658 -0.1635 -0.5033 -0.9547
 2880SOL    HW220103   1.588   1.561  16.692  0.4660 -2.3172 -0.1809
 2881SOL     OW20104   4.147   3.995   6.027  0.1406 -0.2916  0.6165
 2881SOL    HW120105   4.075   3.953   5.980  0.3407  0.0343  0.0184
 2881SOL    HW220106   4.184   4.043   5.953  0.3492  0.7391  1.3947
 2882SOL     OW20107   1.755   3.661   0.830  0.4665  0.0198 -0.2895
 2882SOL    HW120108   1.727   3.722   0.898  1.7478 -0.0336  0.2914
 2882SOL    HW220109   1.725   3.710   0.753  0.2260  3.1420  1.7672
 2883SOL     OW20110   3.147   4.402   2.871 -0.2689 -0.4770  0.1080
 2883SOL    HW120111   3.088   4.341   2.916 -0.2295  0.4236  1.3944
 2883SOL    HW220112   3.101   4.409   2.788  0.2335  0.6452 -0.0838
 2884SOL     OW20113   1.403   4.180  12.095  0.5654  0.2114 -0.7063
 2884SOL    HW120114   1.365   4.140  12.173  1.7171  1.1728  0.3331
 2884SOL    HW220115   1.497   4.166  12.109  0.9680 -0.3723 -4.0379
 2885SOL     OW20116   1.370   3.861   1.749 -0.2465  0.0971 -0.9305
 2885SOL    HW120117   1.392   3.904   1.832  0.7470 -2.4545  0.1231
 2885SOL    HW220118   1.305   3.795   1.774  0.7222  0.1482  1.7298
 2886SOL     OW20119   4.074   2.485  16.983  0.0524 -0.3269 -0.3806
 2886SOL    HW120120   3.984   2.516  16.990  0.3111  0.3746 -0.1991
 2886SOL    HW220121   4.116   2.569  17.000 -0.1739 -0.0746 -1.0473
 2887SOL     OW20122   1.946   4.339   2.818 -0.3578 -0.5746 -0.1716
 2887SOL    HW120123   1.942   4.350   2.913 -0.2484  0.0573 -0.2422
 2887SOL    HW220124   1.860   4.297   2.814 -1.4734  1.7686 -1.0968
 2888SOL     OW20125   3.830   1.646   8.604 -0.0059  0.0858 -0.3302
 2888SOL    HW120126   3.907   1.683   8.559 -1.3756  1.6018 -1.4146
 2888SOL    HW220127   3.789   1.600   8.531  1.0881 -2.1777  0.4651
 2889SOL     OW20128   3.257   0.087   7.385 -0.1185  0.7683 -0.7108
 2889SOL    HW120129   3.235   4.716   7.391  1.5006  0.3370 -1.2393
 2889SOL    HW220130   3.319   0.091   7.312  0.0344 -2.4191 -0.7875
 2890SOL     OW20131   2.485   1.613   3.125  0.1118 -0.5944 -0.1298
 2890SOL    HW120132   2.457   1.568   3.045  1.4749  1.4129 -1.7484
 2890SOL    HW220133   2.432   1.693   3.118  1.8250  0.4606 -1.1380
 2891SOL     OW20134   3.767   1.173   2.030 -0.0449  0.5854 -0.2445
 2891SOL    HW120135   3.680   1.173   1.989 -0.5758 -0.8698  0.8830
 2891SOL    HW220136   3.792   1.264   2.014  1.1310  0.5040  1.2190
 2892SOL     OW20137   4.265   2.207  11.635  0.2768  0.5742  0.5009
 2892SOL    HW120138   4.227   2.295  11.632 -0.8568  0.1614  2.5367
 2892SOL    HW220139   4.289   2.210  11.728 -0.9382  1.4824  0.7928
 2893SOL     OW20140   4.064   1.814  15.258  0.0896  0.2334 -0.4645
 2893SOL    HW120141   3.997   1.796  15.192  0.5542 -0.2886 -0.7936
 2893SOL    HW220142   4.104   1.728  15.266 -0.4890  0.2686  2.4358
 2894SOL     OW20143   3.573   3.891  11.154  0.9496  0.4306  0.5929
 2894SOL    HW120144   3.658   3.935  11.148  0.2207  1.5493 -1.5506
 2894SOL    HW220145   3.523   3.943  11.091  1.8923 -0.5339 -0.9373
 2895SOL     OW20146   4.709   0.921   7.809 -0.3550  0.7335 -0.4857
 2895SOL    HW120147   0.071   0.961   7.783  0.4725 -0.9107 -0.4263
 2895SOL    HW220148   4.695   0.966   7.892  1.2770  0.0637  0.1611
 2896SOL     OW20149   0.064   1.379  13.526 -0.1566  0.1498  0.6185
 2896SOL    HW120150   0.044   1.292  13.490 -4.1894  0.3593  2.2865
 2896SOL    HW220151   0.132   1.408  13.466 -1.5014  2.4096  0.1891
 2897SOL     OW20152   0.116   4.467   7.448 -0.4457 -0.4482 -0.2012
 2897SOL    HW120153   0.068   4.451   7.366 -0.0141  1.9806 -0.9384
 2897SOL    HW220154   0.114   4.383   7.494 -3.0273  0.3031  1.1165
 2898SOL     OW20155   3.664   4.673  17.395 -0.3561 -0.2235 -0.4490
 2898SOL    HW120156   3.675   4.716  17.311  2.1130 -2.2539 -1.1629
 2898SOL    HW220157   3.614   0.021  17.437  0.4745  0.6784 -0.9789
 2899SOL     OW20158   2.014   1.673   2.105 -0.2660 -0.1366  0.0865
 2899SOL    HW120159   2.100   1.650   2.072  0.1215 -0.6231  1.4408
 2899SOL    HW220160   1.989   1.605   2.168  1.1767  0.7339  1.5966
 2900SOL     OW20161   2.780   3.713   5.133 -0.2542 -0.5816 -0.2242
 2900SOL    HW120162   2.759   3.800   5.166  0.7876 -1.1706  2.0235
 2900SOL    HW220163   2.825   3.669   5.206 -0.6567  0.5635  0.7189
 2901SOL     OW20164   0.867   3.729   5.420 -0.3176  0.9128 -0.5170
 2901SOL    HW120165   0.794   3.676   5.453  0.2291  1.0605  0.8788
 2901SOL    HW220166   0.843   3.731   5.327 -2.4446  1.0257  0.0259
 2902SOL     OW20167   2.255   4.359   3.829  0.3805  0.7453 -0.2282
 2902SOL    HW120168   2.255   4.302   3.752  0.5044 -0.0316  0.3442
 2902SOL    HW220169   2.233   4.444   3.791  0.5153  0.8793 -0.0049
 2903SOL     OW20170   0.978   1.632   1.212 -0.4172  0.3523 -0.4304
 2903SOL    HW120171   1.022   1.644   1.297 -1.8521 -0.8346  0.4884
 2903SOL    HW220172   1.001   1.541   1.194  0.7932  0.7761 -1.0293
 2904SOL     OW20173   4.552   3.864  12.070  0.3940 -0.0207 -0.0309
 2904SOL    HW120174   4.551   3.903  11.982 -4.2010  2.1052  0.9437
 2904SOL    HW220175   4.550   3.946  12.120  1.9915  1.5596 -2.5506
 2905SOL     OW20176   1.295   1.942   8.793 -0.0320 -0.2254 -0.1473
 2905SOL    HW120177   1.277   2.002   8.865 -0.2000 -0.0709 -0.3171
 2905SOL    HW220178   1.387   1.918   8.806  0.0585 -0.7420 -1.7111
 2906SOL     OW20179   4.308   3.152   2.682 -0.5726 -0.1623  0.3158
 2906SOL    HW120180   4.347   3.191   2.603 -1.4699 -1.3927 -0.7496
 2906SOL    HW220181   4.339   3.062   2.689 -1.2232 -0.4053  0.0961
 2907SOL     OW20182   4.409   0.102   3.126  0.5521 -0.2795  0.0213
 2907SOL    HW120183   4.446   0.115   3.039 -1.0844  0.8506 -0.5122
 2907SOL    HW220184   4.386   0.009   3.121  2.0979 -0.7142  1.0730
 2908SOL     OW20185   2.705   1.795   2.878  0.5243 -0.1430  0.2700
 2908SOL    HW120186   2.747   1.753   2.803 -0.2045  2.4981 -1.6362
 2908SOL    HW220187   2.770   1.780   2.946  0.9670 -0.1799 -0.1627
 2909SOL     OW20188   4.686   1.177   4.450 -0.2842 -0.1734  0.3207
 2909SOL    HW120189   4.615   1.241   4.455  0.4085  0.6856 -0.6788
 2909SOL    HW220190   4.684   1.138   4.537 -0.3428  0.4396  0.5940
 2910SOL     OW20191   4.601   2.550   5.682  0.5798 -0.1681  0.0503
 2910SOL    HW120192   4.652   2.610   5.627 -2.6716  3.2159  0.7718
 2910SOL    HW220193   4.654   2.555   5.761  1.6735 -1.5111 -0.5809
 2911SOL     OW20194   3.505   2.675   6.534  0.5370 -0.0957 -0.9067
 2911SOL    HW120195   3.439   2.681   6.603  0.9563  0.0071 -0.5129
 2911SOL    HW220196   3.577   2.648   6.592 -0.3441  0.3177  0.3771
 2912SOL     OW20197   1.089   3.166  10.107 -0.5136 -0.3518 -0.1556
 2912SOL    HW120198   1.070   3.235  10.044  1.3456  0.1120 -0.2242
 2912SOL    HW220199   1.025   3.102  10.077 -0.4186 -0.4761 -0.0944
 2913SOL     OW20200   3.434   3.900   9.769  0.6469  0.9003 -0.1945
 2913SOL    HW120201   3.465   3.941   9.850 -0.1469  1.4182 -0.1559
 2913SOL    HW220202   3.491   3.938   9.703  0.6600  1.4226  0.1138
 2914SOL     OW20203   1.812   2.388   6.790  0.0730  0.4456 -0.5032
 2914SOL    HW120204   1.851   2.442   6.859  1.4280  0.7992 -1.5327
 2914SOL    HW220205   1.833   2.441   6.713 -0.3452  0.8556 -0.3306
 2915SOL     OW20206   0.592   0.490   2.849 -0.1654  0.3370  0.3815
 2915SOL    HW120207   0.623   0.400   2.863 -0.1309  0.4692  1.1866
 2915SOL    HW220208   0.499   0.474   2.832 -0.4396  2.8229 -0.3623
 2916SOL     OW20209   3.880   2.988   5.725 -0.6250  0.3119 -0.5111
 2916SOL    HW120210   3.938   3.031   5.788  1.7869 -0.3817 -2.2122
 2916SOL    HW220211   3.894   2.900   5.759 -0.9743 -0.6564 -2.8599
 2917SOL     OW20212   0.087   0.955   7.145  0.0457  0.4395 -0.3621
 2917SOL    HW120213   0.140   1.016   7.095 -0.3443  1.6145  0.6627
 2917SOL    HW220214   0.052   0.899   7.075  0.1987 -0.7692  0.5175
 2918SOL     OW20215   0.542   2.243  13.397 -0.0977  0.2095 -0.6645
 2918SOL    HW120216   0.570   2.333  13.380  0.6621 -0.1647 -1.3624
 2918SOL    HW220217   0.614   2.209  13.451 -2.2155 -1.3582  1.1591
 2919SOL     OW20218   0.727   0.842  10.013  0.2906  0.2615 -0.0888
 2919SOL    HW120219   0.704   0.773  10.076  0.7000 -0.3957 -0.6591
 2919SOL    HW220220   0.788   0.794   9.958 -1.9327 -2.3531 -0.2805
 2920SOL     OW20221   2.608   3.915  17.171  0.1610  0.3547  0.2018
 2920SOL    HW120222   2.592   3.821  17.184  1.7891 -0.1597 -1.5794
 2920SOL    HW220223   2.575   3.916  17.081 -0.7082 -1.2422  0.4892
 2921SOL     OW20224   4.602   0.600   7.888 -0.3879  0.0819  0.4496
 2921SOL    HW120225   4.579   0.516   7.848 -3.5929  1.1146  0.0556
 2921SOL    HW220226   4.566   0.661   7.822 -0.3345  1.8110  2.0075
 2922SOL     OW20227   3.303   4.629  13.588  0.9692 -0.1627  0.2893
 2922SOL    HW120228   3.335   4.719  13.583 -0.1606  0.0856 -2.8135
 2922SOL    HW220229   3.209   4.641  13.589  0.9150 -0.2202 -2.4870
 2923SOL     OW20230   0.250   2.878  10.969  0.1293  0.2586 -0.3367
 2923SOL    HW120231   0.326   2.827  10.997  1.5741  1.8191 -1.3900
 2923SOL    HW220232   0.185   2.823  11.012  0.6231 -0.5104 -0.5831
 2924SOL     OW20233   4.135   2.127   2.793 -0.0515  0.4030 -0.0564
 2924SOL    HW120234   4.212   2.176   2.766 -0.3368  0.3101 -1.0300
 2924SOL    HW220235   4.103   2.091   2.711  1.5307 -0.8570 -0.1072
 2925SOL     OW20236   1.665   0.455   8.984  0.2449 -0.0455 -0.3309
 2925SOL    HW120237   1.615   0.536   8.991  1.5118  0.8900 -1.9216
 2925SOL    HW220238   1.606   0.394   8.940 -2.3068  0.8446  1.8899
 2926SOL     OW20239   1.671   0.566   6.345 -0.0117  0.0427 -0.0013
 2926SOL    HW120240   1.645   0.616   6.422 -0.0703  1.0995 -0.7206
 2926SOL    HW220241   1.582   0.534   6.332 -0.8249  1.7793  1.4623
 2927SOL     OW20242   2.289   2.029  11.010  0.5950 -0.0162  0.4516
 2927SOL    HW120243   2.224   2.099  11.002 -0.6244 -0.9733  1.8176
 2927SOL    HW220244   2.374   2.058  10.979  0.5175  1.9079  2.0693
 2928SOL     OW20245   0.378   0.117   4.908 -0.2866  0.5963  0.2225
 2928SOL    HW120246   0.288   0.133   4.882 -0.1848 -0.6141 -0.8394
 2928SOL    HW220247   0.392   0.038   4.857 -0.3045  1.0136 -0.4251
 2929SOL     OW20248   3.599   1.270   2.848  0.1120  0.2006  0.3592
 2929SOL    HW120249   3.611   1.328   2.924 -0.7132  0.4978  0.2605
 2929SOL    HW220250   3.667   1.211   2.880  1.6218  1.7487  0.0194
 2930SOL     OW20251   1.998   1.277   8.531 -0.1313 -0.5675 -0.0262
 2930SOL    HW120252   2.062   1.331   8.484 -0.5614 -1.1390 -1.2830
 2930SOL    HW220253   1.994   1.309   8.621 -1.6786 -1.3894  0.2006
 2931SOL     OW20254   2.821   0.814   5.541 -0.1722  0.1772 -0.2364
 2931SOL    HW120255   2.746   0.756   5.556  0.1198 -0.1653 -0.0831
 2931SOL    HW220256   2.829   0.859   5.625 -0.2135  2.0724 -1.2496
 2932SOL     OW20257   1.696   4.616  15.997  0.2516 -0.2191 -0.0371
 2932SOL    HW120258   1.690   4.590  15.906  0.2924  2.1407 -0.7117
 2932SOL    HW220259   1.692   4.711  15.986 -1.4245  0.1085  3.2799
 2933SOL     OW20260   4.576   0.878   5.943  0.2551  0.0931  0.2150
 2933SOL    HW120261   4.669   0.895   5.957 -0.6604  2.7215  3.0715
 2933SOL    HW220262   4.580   0.782   5.934 -1.3569  0.2566 -2.3178
 2934SOL     OW20263   2.963   0.963   7.236  0.7671 -0.6811  0.4073
 2934SOL    HW120264   2.890   0.971   7.296  1.8365  2.0013  1.3621
 2934SOL    HW220265   2.938   1.020   7.163 -0.3787 -0.2840  1.1228
 2935SOL     OW20266   1.111   3.947   7.179  0.5334  0.4625  0.1724
 2935SOL    HW120267   1.047   3.913   7.242  1.6666 -1.4739  0.2649
 2935SOL    HW220268   1.196   3.926   7.216  0.7341  0.6805 -0.1719
 2936SOL     OW20269   2.582   1.241  10.044 -0.7693 -0.3184  0.1832
 2936SOL    HW120270   2.583   1.145  10.048  0.5357 -0.3521 -0.8532
 2936SOL    HW220271   2.518   1.249   9.973 -0.2383  0.7455 -0.1861
 2937SOL     OW20272   2.612   3.537   4.240  0.0846 -0.5370  0.0724
 2937SOL    HW120273   2.643   3.505   4.325 -0.8696  1.2360  1.0826
 2937SOL    HW220274   2.541   3.473   4.231  0.2730 -0.6663 -0.4444
 2938SOL     OW20275   2.323   0.357   8.520  0.0354  0.3910 -0.4156
 2938SOL    HW120276   2.380   0.317   8.585 -0.5399 -1.9157 -1.3260
 2938SOL    HW220277   2.239   0.360   8.566  0.1111  0.4599 -0.2825
 2939SOL     OW20278   4.424   0.059   7.707 -0.3228  0.1388 -0.2047
 2939SOL    HW120279   4.470   0.027   7.784 -0.5179  0.1497 -0.0837
 2939SOL    HW220280   4.340   0.021   7.733 -0.2728 -1.1929 -2.0346
 2940SOL     OW20281   4.123   4.013   3.822 -0.2948 -0.2910  0.8418
 2940SOL    HW120282   4.096   3.996   3.732  3.3094  2.1079 -0.6958
 2940SOL    HW220283   4.071   4.090   3.845 -2.4651 -1.6971  0.6818
 2941SOL     OW20284   1.071   0.549  13.785 -0.6632 -0.1528 -0.0466
 2941SOL    HW120285   1.151   0.600  13.800 -1.2104  1.4553 -2.6848
 2941SOL    HW220286   1.027   0.579  13.865  1.3151  1.9756  0.2564
 2942SOL     OW20287   1.234   1.720   6.506 -0.4289 -0.7033  0.4472
 2942SOL    HW120288   1.157   1.746   6.455 -0.7746  0.0659  1.3545
 2942SOL    HW220289   1.192   1.720   6.592  0.9799  0.1264  1.1347
 2943SOL     OW20290   0.318   2.252   5.745 -0.0234 -0.3332 -0.1558
 2943SOL    HW120291   0.368   2.179   5.710 -0.8781 -1.8356  1.7402
 2943SOL    HW220292   0.376   2.290   5.811 -3.4184  1.4538  1.7977
 2944SOL     OW20293   4.266   2.598   4.004  0.1624 -0.1063  0.9424
 2944SOL    HW120294   4.192   2.538   4.017 -1.5125  1.7441  0.0198
 2944SOL    HW220295   4.257   2.655   4.080  0.2355  1.9479 -0.5530
 2945SOL     OW20296   0.320   1.805   8.180 -1.0714 -0.2676 -0.3259
 2945SOL    HW120297   0.245   1.796   8.239 -0.9200  0.1210 -0.0726
 2945SOL    HW220298   0.387   1.809   8.248  0.3467 -2.7978 -1.5878
 2946SOL     OW20299   0.923   3.945  17.533  0.1826 -0.1225 -0.5309
 2946SOL    HW120300   0.828   3.951  17.546  0.5951  0.8407  2.1530
 2946SOL    HW220301   0.935   4.025  17.482 -4.1847  2.0518  1.7730
 2947SOL     OW20302   2.482   3.818   3.339 -0.1223  0.9906 -0.3481
 2947SOL    HW120303   2.439   3.904   3.340  1.2720  1.6900 -0.4586
 2947SOL    HW220304   2.421   3.773   3.280  0.5226 -0.5382  0.1622
 2948SOL     OW20305   2.903   3.993   7.803 -0.6952  0.2548  0.2364
 2948SOL    HW120306   2.828   3.940   7.777 -1.9246  2.9387 -1.6902
 2948SOL    HW220307   2.924   4.005   7.711  3.1324 -2.4058  0.7941
 2949SOL     OW20308   2.385   3.002   4.025 -0.1574 -0.7262 -0.1896
 2949SOL    HW120309   2.307   3.047   4.054  1.3047 -0.1424  2.7971
 2949SOL    HW220310   2.443   3.074   4.000 -3.0404  2.3616  2.0305
 2950SOL     OW20311   4.679   0.859  17.467 -0.0070 -0.5539  0.1129
 2950SOL    HW120312   4.621   0.832  17.538 -0.4997 -1.0176 -0.4681
 2950SOL    HW220313   0.028   0.903  17.514  0.1808 -0.2446 -0.4596
 2951SOL     OW20314   1.471   1.353  16.841  0.4605 -0.0209  0.0633
 2951SOL    HW120315   1.394   1.306  16.811  0.4935  1.8982 -3.0796
 2951SOL    HW220316   1.517   1.288  16.894 -0.4731  0.7864  1.8406
 2952SOL     OW20317   3.387   1.682  15.032 -0.4477  0.2992 -0.2694
 2952SOL    HW120318   3.374   1.762  14.982  1.0745 -0.4385 -1.8188
 2952SOL    HW220319   3.417   1.617  14.969  1.2357 -0.2701  1.1196
 2953SOL     OW20320   2.654   0.012   5.941 -0.3356  0.0968 -0.5355
 2953SOL    HW120321   2.663   4.646   5.902 -2.4489 -0.8723  1.1084
 2953SOL    HW220322   2.562   0.031   5.921 -0.2751  0.2854 -0.6308
 2954SOL     OW20323   4.279   3.748   2.579 -0.1616 -0.0819  0.3610
 2954SOL    HW120324   4.344   3.688   2.541 -0.5458  0.1616 -0.6911
 2954SOL    HW220325   4.207   3.691   2.604 -0.1398 -1.0148 -1.6696
 2955SOL     OW20326   3.812   0.711   2.245 -0.0020 -0.3238 -0.0602
 2955SOL    HW120327   3.817   0.794   2.196  1.9880 -0.1583  0.4088
 2955SOL    HW220328   3.826   0.648   2.174 -0.1870  0.0586 -0.4399
 2956SOL     OW20329   2.648   1.073  17.124 -0.4842  0.0604  0.3460
 2956SOL    HW120330   2.692   1.135  17.182 -0.9104  0.0543  0.6751
 2956SOL    HW220331   2.562   1.061  17.165 -1.3799  0.3684 -1.4252
 2957SOL     OW20332   0.239   2.639   2.048  0.1972  0.5306 -0.5833
 2957SOL    HW120333   0.227   2.723   2.094  0.7620 -0.6817  1.8111
 2957SOL    HW220334   0.316   2.652   1.993 -0.6180  1.2913 -1.5259
 2958SOL     OW20335   3.652   3.813  14.581  0.6824 -0.3448  0.5603
 2958SOL    HW120336   3.658   3.855  14.667  0.4038  1.5047 -0.3163
 2958SOL    HW220337   3.637   3.719  14.591  0.3779 -0.4490 -0.8571
 2959SOL     OW20338   0.709   0.160   7.952  0.2386 -0.3577  0.0942
 2959SOL    HW120339   0.737   0.252   7.947  0.1906 -0.3324  0.2758
 2959SOL    HW220340   0.669   0.145   7.867 -1.9023 -0.9440  1.2002
 2960SOL     OW20341   4.062   3.919  12.077 -0.5390 -0.0056 -0.1242
 2960SOL    HW120342   4.028   4.005  12.102  1.6555  0.3804  1.4993
 2960SOL    HW220343   4.146   3.939  12.036  0.1613 -0.7327  0.9614
 2961SOL     OW20344   4.406   0.518   2.719  0.0211  0.3140  0.2836
 2961SOL    HW120345   4.387   0.487   2.807  3.2149 -0.1218  0.8033
 2961SOL    HW220346   4.445   0.605   2.727 -1.4925  1.0810 -0.7321
 2962SOL     OW20347   1.538   0.548   8.351  0.1413 -0.7397  0.2262
 2962SOL    HW120348   1.627   0.574   8.373  0.3174 -1.0389 -0.1427
 2962SOL    HW220349   1.494   0.627   8.383 -0.0594 -0.4071 -0.8757
 2963SOL     OW20350   1.159   0.741   7.192  0.3716 -0.0783  0.6293
 2963SOL    HW120351   1.152   0.798   7.115 -0.3845 -0.0381  0.7252
 2963SOL    HW220352   1.236   0.691   7.167  0.3397 -0.3320  1.0501
 2964SOL     OW20353   4.089   0.647   3.840  0.2364  0.0125 -0.0564
 2964SOL    HW120354   4.022   0.604   3.787 -0.6855  0.6258  0.6223
 2964SOL    HW220355   4.036   0.649   3.919  1.1113 -0.4789  0.5452
 2965SOL     OW20356   2.082   0.286   0.467  0.2214  0.0841 -0.1507
 2965SOL    HW120357   1.997   0.255   0.435 -0.3012  0.2041  1.1202
 2965SOL    HW220358   2.099   0.363   0.414 -1.9735  1.3369  0.9303
 2966SOL     OW20359   0.909   4.685  16.514  0.0551 -0.0615  0.4612
 2966SOL    HW120360   0.998   4.672  16.481 -0.0370  1.1337 -0.2459
 2966SOL    HW220361   0.915   0.052  16.549 -2.8919 -0.0258  0.8625
 2967SOL     OW20362   0.802   1.680   3.677 -0.1767  0.2811  0.2055
 2967SOL    HW120363   0.750   1.756   3.703 -0.1724  0.3137  0.1214
 2967SOL    HW220364   0.855   1.721   3.608 -1.8381  1.4047 -0.4126
 2968SOL     OW20365   0.459   2.564   8.088 -0.1349  0.3717 -0.6117
 2968SOL    HW120366   0.390   2.567   8.154 -2.7356  0.1842 -3.3287
 2968SOL    HW220367   0.412   2.614   8.021 -0.6906  1.9084  0.9489
 2969SOL     OW20368   2.367   3.226   9.462  0.2203  0.3482 -0.2366
 2969SOL    HW120369   2.409   3.297   9.512 -1.9893  0.4573  1.4654
 2969SOL    HW220370   2.439   3.163   9.453 -0.6568 -0.5532 -0.8249
 2970SOL     OW20371   3.872   4.361   8.509 -0.2839  0.2343  0.5512
 2970SOL    HW120372   3.819   4.325   8.438  0.5809  0.9800 -0.4705
 2970SOL    HW220373   3.942   4.296   8.508  1.8692  2.5180  2.9421
 2971SOL     OW20374   1.776   3.113   3.645 -0.2599 -0.0213 -0.3410
 2971SOL    HW120375   1.752   3.184   3.586 -2.6664  0.5918  1.3776
 2971SOL    HW220376   1.770   3.034   3.591 -0.9241 -0.8483  0.9476
 2972SOL     OW20377   0.974   4.497   6.569 -0.0843  0.1920 -0.0770
 2972SOL    HW120378   1.030   4.573   6.551 -0.6777  0.3108 -1.4465
 2972SOL    HW220379   0.895   4.545   6.543  1.3346  2.0845 -0.9060
 2973SOL     OW20380   3.277   1.872   7.953  0.0094 -0.1668  0.2963
 2973SOL    HW120381   3.372   1.872   7.968  0.1659  0.9901 -0.7042
 2973SOL    HW220382   3.245   1.836   8.036 -4.0110  2.6379 -0.0299
 2974SOL     OW20383   3.134   2.657  14.707  0.6125 -0.6525  0.2811
 2974SOL    HW120384   3.080   2.646  14.785  0.4955 -1.7677  0.0432
 2974SOL    HW220385   3.084   2.678  14.629  1.4860  2.6227  0.6089
 2975SOL     OW20386   0.638   4.233   2.890  0.9237  0.0227 -0.0883
 2975SOL    HW120387   0.631   4.166   2.959  0.0546  0.6401  0.4345
 2975SOL    HW220388   0.584   4.193   2.822  0.8129 -1.9471  1.1599
 2976SOL     OW20389   4.704   1.535   5.159 -0.7957 -0.1404 -0.6500
 2976SOL    HW120390   4.619   1.527   5.201 -1.5654  0.3482 -2.1289
 2976SOL    HW220391   4.720   1.442   5.149 -2.0191 -0.6306  1.9723
 2977SOL     OW20392   3.338   2.159   9.876  0.0761  0.3651 -0.3083
 2977SOL    HW120393   3.414   2.119   9.834  2.3342  1.1207  3.0477
 2977SOL    HW220394   3.381   2.207   9.947  0.1300  0.7625 -0.6128
 2978SOL     OW20395   3.714   1.982   3.171 -0.4663 -0.1318  0.4473
 2978SOL    HW120396   3.650   1.955   3.105  0.9319 -1.0881 -0.5249
 2978SOL    HW220397   3.664   1.992   3.252 -0.7706  0.4407  0.1895
 2979SOL     OW20398   4.497   0.066   1.358 -0.0990 -0.0348  0.2792
 2979SOL    HW120399   4.407   0.044   1.383 -0.1564 -1.1558 -0.8938
 2979SOL    HW220400   4.516   0.122   1.433 -0.4102 -0.4627  0.6759
 2980SOL     OW20401   3.577   1.184   0.557  0.5872 -0.0151  0.6668
 2980SOL    HW120402   3.499   1.236   0.536  0.7276 -0.2729 -0.4927
 2980SOL    HW220403   3.540   1.096   0.560  2.4297 -0.7749  0.7982
 2981SOL     OW20404   1.178   0.988  10.963 -0.2870 -0.3595  0.2069
 2981SOL    HW120405   1.246   0.967  11.027 -1.7664  0.6803  2.1356
 2981SOL    HW220406   1.122   1.031  11.028 -0.0428 -1.7744  1.3643
 2982SOL     OW20407   0.046   4.641   7.792 -0.4796  0.2310 -0.1470
 2982SOL    HW120408   0.139   4.619   7.801 -0.1912  0.7516 -1.6386
 2982SOL    HW220409   0.054   0.015   7.780 -0.6523  0.2497 -0.1068
 2983SOL     OW20410   1.859   0.555  13.833 -0.0083 -0.1226  0.2047
 2983SOL    HW120411   1.813   0.638  13.820  0.6917 -0.1853 -2.6549
 2983SOL    HW220412   1.908   0.554  13.751 -2.2199  0.9438 -1.1377
 2984SOL     OW20413   0.064   4.066   1.125  0.0298 -0.5735  0.2544
 2984SOL    HW120414   4.716   4.005   1.149 -0.6472 -0.8480 -2.4362
 2984SOL    HW220415   0.142   4.012   1.137  1.3571  0.7497 -2.3953
 2985SOL     OW20416   3.243   3.587   5.376 -0.7482  0.2928 -0.2865
 2985SOL    HW120417   3.271   3.583   5.467 -0.5132  0.6552 -0.3418
 2985SOL    HW220418   3.302   3.537   5.319  0.5804  2.7294 -1.0623
 2986SOL     OW20419   4.404   4.096   6.421  0.2806 -0.1219  0.3392
 2986SOL    HW120420   4.404   4.079   6.515  2.5624 -3.0789 -0.2322
 2986SOL    HW220421   4.462   4.027   6.393  1.4605  0.2242  1.9277
 2987SOL     OW20422   2.916   0.912  12.165  0.9105 -0.6461  0.3455
 2987SOL    HW120423   2.850   0.981  12.157  0.9266 -1.0163 -2.8487
 2987SOL    HW220424   2.934   0.881  12.076 -1.5449  0.4913 -0.5491
 2988SOL     OW20425   3.148   1.090  11.595 -0.3586 -0.2241 -0.1998
 2988SOL    HW120426   3.161   1.103  11.501  1.2953  0.5325  0.1245
 2988SOL    HW220427   3.160   1.181  11.623  0.9263 -1.2577  2.5706
 2989SOL     OW20428   1.459   1.752   4.386 -0.2638 -0.2756 -0.4136
 2989SOL    HW120429   1.387   1.733   4.446 -0.0980 -1.0491 -0.4531
 2989SOL    HW220430   1.423   1.722   4.303 -0.4761 -0.8041 -0.1295
 2990SOL     OW20431   1.768   0.566  16.224  0.6269  0.3020 -0.5363
 2990SOL    HW120432   1.682   0.538  16.254  0.3620 -0.2062 -1.7668
 2990SOL    HW220433   1.819   0.536  16.299 -3.8396 -0.8808  1.9969
 2991SOL     OW20434   2.297   3.929   0.406  0.6281 -0.9193 -0.4891
 2991SOL    HW120435   2.265   3.845   0.372 -2.1137  0.6572 -1.8358
 2991SOL    HW220436   2.315   3.896   0.494 -1.5494 -3.4431 -0.9876
 2992SOL     OW20437   4.377   0.347   7.352 -0.2564 -0.0129 -0.7857
 2992SOL    HW120438   4.420   0.298   7.422 -0.4799 -0.5567 -1.0376
 2992SOL    HW220439   4.392   0.436   7.386 -0.8000  0.3059 -1.3823
 2993SOL     OW20440   1.486   1.768  16.120 -0.3433  0.3115 -0.7250
 2993SOL    HW120441   1.445   1.686  16.090  0.1949 -0.5292  0.8595
 2993SOL    HW220442   1.481   1.752  16.214 -1.2655 -0.1872 -0.8589
 2994SOL     OW20443   3.000   0.333   9.184 -0.8758  0.3311 -0.3059
 2994SOL    HW120444   3.056   0.391   9.236  1.3397 -0.4865 -1.7857
 2994SOL    HW220445   2.974   0.390   9.112 -1.8565 -1.0868 -1.0853
 2995SOL     OW20446   3.987   1.271   5.761 -0.2549 -0.0775 -0.0058
 2995SOL    HW120447   3.979   1.276   5.857 -0.9883  2.2355 -0.1881
 2995SOL    HW220448   3.924   1.200   5.746 -1.9172  0.5006  4.0329
 2996SOL     OW20449   2.259   4.266  14.088 -0.1979 -0.3217  0.3887
 2996SOL    HW120450   2.230   4.237  14.174 -0.2851  0.7620  0.7326
 2996SOL    HW220451   2.351   4.241  14.100 -0.0517  1.2638  2.6980
 2997SOL     OW20452   2.489   2.715   0.815 -0.3101  0.1205 -0.3303
 2997SOL    HW120453   2.515   2.638   0.764 -1.5288 -0.9495  0.6353
 2997SOL    HW220454   2.425   2.673   0.874 -0.4804  1.9830  0.8031
 2998SOL     OW20455   1.155   3.014  12.474 -0.0436  0.3837  0.2463
 2998SOL    HW120456   1.097   3.091  12.481 -0.4403  0.2089 -1.1795
 2998SOL    HW220457   1.235   3.053  12.439 -1.5417  0.8445 -2.6411
 2999SOL     OW20458   3.781   0.572   1.510 -0.0292  0.1074  0.6443
 2999SOL    HW120459   3.875   0.588   1.517  0.6330 -4.1153  1.3240
 2999SOL    HW220460   3.759   0.627   1.435  0.4863  0.8327  1.0256
 3000SOL     OW20461   1.258   1.806  10.589 -0.5078  0.1433  0.0536
 3000SOL    HW120462   1.306   1.749  10.650  0.5238 -0.2415 -1.1356
 3000SOL    HW220463   1.184   1.745  10.580  0.2256 -0.6373 -0.6115
 3001SOL     OW20464   2.779   3.363   3.762 -0.5721 -0.0259  0.8173
 3001SOL    HW120465   2.804   3.275   3.733 -1.1198 -0.1776  0.8089
 3001SOL    HW220466   2.690   3.366   3.729  0.4131 -0.4095 -1.8987
 3002SOL     OW20467   2.643   3.422  12.367 -0.0632  0.2321 -0.8025
 3002SOL    HW120468   2.557   3.391  12.393  0.7607 -1.2037  0.1816
 3002SOL    HW220469   2.660   3.355  12.301  1.3292 -0.2044  0.0091
 3003SOL     OW20470   2.561   1.287   9.078 -0.0131 -0.0903  0.3756
 3003SOL    HW120471   2.505   1.298   9.001  1.1191 -0.4024 -0.4900
 3003SOL    HW220472   2.645   1.292   9.032 -0.3971 -1.6764 -0.4994
 3004SOL     OW20473   1.581   1.467  13.415 -0.5952 -0.3925 -0.3779
 3004SOL    HW120474   1.595   1.523  13.339  2.7174 -0.0748  0.4858
 3004SOL    HW220475   1.497   1.497  13.451  0.3542  1.0481  0.6332
 3005SOL     OW20476   0.593   3.160   3.384  0.3195 -0.6538  0.0793
 3005SOL    HW120477   0.568   3.205   3.303 -1.2544 -2.1330 -0.2430
 3005SOL    HW220478   0.509   3.119   3.406  0.5419 -2.4906 -2.4507
 3006SOL     OW20479   2.588   1.291   0.504  0.0124  0.0096 -0.1386
 3006SOL    HW120480   2.642   1.284   0.583  0.0983 -0.1469 -0.2110
 3006SOL    HW220481   2.517   1.231   0.531  0.6499 -0.3900  0.6294
 3007SOL     OW20482   2.458   4.205   6.919 -0.1858 -0.4549 -0.4645
 3007SOL    HW120483   2.542   4.157   6.923  0.5683  0.8766 -0.3739
 3007SOL    HW220484   2.398   4.135   6.896  0.3150 -1.9690  2.7412
 3008SOL     OW20485   3.204   1.581   2.252 -0.1482 -0.5425 -0.0992
 3008SOL    HW120486   3.258   1.615   2.323  1.8763 -3.7839 -0.0777
 3008SOL    HW220487   3.230   1.489   2.254 -0.2836 -0.6062 -1.5017
 3009SOL     OW20488   1.062   1.197   0.894  0.4382  0.1874 -0.5135
 3009SOL    HW120489   1.098   1.111   0.914  1.2896  1.0738  1.8168
 3009SOL    HW220490   1.101   1.221   0.811 -0.2224 -0.3576 -0.9794
 3010SOL     OW20491   2.676   4.170   5.767 -0.5341 -0.2991  0.1021
 3010SOL    HW120492   2.622   4.116   5.824 -0.3245  0.4487  1.0006
 3010SOL    HW220493   2.619   4.190   5.693  0.3183 -1.6716 -0.9330
 3011SOL     OW20494   0.030   1.786  14.855  0.3969 -0.1915 -0.1096
 3011SOL    HW120495   0.080   1.821  14.781  0.2406 -0.5922 -0.4037
 3011SOL    HW220496   0.102   1.739  14.897  2.6538  2.0279 -1.4954
 3012SOL     OW20497   4.388   1.494  12.609 -0.7553  0.4868  0.0821
 3012SOL    HW120498   4.413   1.529  12.523  2.0603 -0.5264  0.4834
 3012SOL    HW220499   4.446   1.549  12.662 -2.3168  1.6572  0.5805
 3013SOL     OW20500   0.409   1.879   4.910 -0.9127 -0.2387  0.6141
 3013SOL    HW120501   0.382   1.919   4.827  0.0917  0.1731  0.4892
 3013SOL    HW220502   0.433   1.788   4.893 -0.4740 -0.0889  0.4321
 3014SOL     OW20503   2.534   4.605   5.288 -0.1002  0.0104  0.4883
 3014SOL    HW120504   2.471   4.550   5.335 -0.7711  1.1799  0.9471
 3014SOL    HW220505   2.583   4.651   5.356 -0.6655  1.4917 -0.1062
 3015SOL     OW20506   0.177   0.141   5.529  0.1416 -0.4115  0.0040
 3015SOL    HW120507   0.196   0.117   5.439 -0.5850  0.5102 -0.3939
 3015SOL    HW220508   0.193   0.057   5.573 -0.1251 -0.5710 -0.2059
 3016SOL     OW20509   2.409   3.962   4.506  0.1336 -0.6022  0.5052
 3016SOL    HW120510   2.320   3.943   4.476  0.1187 -2.0748  1.5144
 3016SOL    HW220511   2.447   4.006   4.430 -0.5649 -1.4804 -0.3564
 3017SOL     OW20512   2.312   4.336  13.831  0.9711 -0.2159  0.1506
 3017SOL    HW120513   2.287   4.245  13.819 -1.1004  0.4485 -0.5388
 3017SOL    HW220514   2.285   4.340  13.923 -0.7606 -0.0344 -0.3822
 3018SOL     OW20515   3.087   4.539   1.903 -0.5705 -0.2766  0.0362
 3018SOL    HW120516   3.131   4.524   1.987 -2.9116 -2.1294  0.9522
 3018SOL    HW220517   3.161   4.544   1.842 -0.5047  5.6293  0.6109
 3019SOL     OW20518   4.123   0.458   6.212 -0.2423 -0.0081  0.6031
 3019SOL    HW120519   4.114   0.485   6.303  1.5195 -1.0482  1.1043
 3019SOL    HW220520   4.100   0.367   6.231 -1.6253  0.2933  0.3331
 3020SOL     OW20521   0.557   3.296   6.386 -0.1638  0.0888 -0.2161
 3020SOL    HW120522   0.463   3.294   6.400 -0.1241 -0.8661 -0.0878
 3020SOL    HW220523   0.598   3.347   6.456  0.7747 -1.8279  0.6212
 3021SOL     OW20524   3.630   0.722   7.346 -0.1259 -0.4944  0.1656
 3021SOL    HW120525   3.552   0.724   7.292  0.2683  1.9526 -0.3441
 3021SOL    HW220526   3.624   0.815   7.371 -0.3019 -0.1163 -1.3211
 3022SOL     OW20527   2.199   3.190   7.179 -0.1472  0.0534  0.1608
 3022SOL    HW120528   2.239   3.147   7.255  0.2951  1.2194  0.5842
 3022SOL    HW220529   2.268   3.256   7.174  0.0696 -0.3484 -2.0037
 3023SOL     OW20530   4.362   0.399   8.157 -0.3107  0.0896  0.1834
 3023SOL    HW120531   4.425   0.348   8.107  0.0942  2.6965 -1.9585
 3023SOL    HW220532   4.344   0.347   8.235  0.1918 -1.2558 -0.5873
 3024SOL     OW20533   3.166   0.772   9.303 -0.7153 -0.4473  0.4754
 3024SOL    HW120534   3.087   0.814   9.335 -0.2416  1.0568 -0.3387
 3024SOL    HW220535   3.209   0.846   9.259 -0.2952 -1.6270 -1.1127
 3025SOL     OW20536   0.491   1.283   6.080 -0.4319 -0.0922 -0.0493
 3025SOL    HW120537   0.579   1.300   6.114 -0.3466  1.6308 -1.1181
 3025SOL    HW220538   0.464   1.375   6.083  1.2418  0.4224 -0.3119
 3026SOL     OW20539   1.452   2.705   2.449  0.1797  0.0685  0.1813
 3026SOL    HW120540   1.497   2.781   2.486  1.6352 -0.8265  0.2514
 3026SOL    HW220541   1.385   2.690   2.516  0.8334 -0.2886  0.7598
 3027SOL     OW20542   3.885   3.390   5.393  0.1038 -0.1794  0.5932
 3027SOL    HW120543   3.940   3.357   5.464  0.7696 -0.3932 -0.0279
 3027SOL    HW220544   3.806   3.416   5.440 -1.1953 -0.7640 -1.2432
 3028SOL     OW20545   3.252   4.662   3.389 -0.0028  0.5793 -0.2199
 3028SOL    HW120546   3.314   4.670   3.462  1.4343  0.2700 -1.3918
 3028SOL    HW220547   3.293   4.592   3.337 -0.2063 -0.7570  1.3875
 3029SOL     OW20548   2.524   2.522   4.941 -0.4699  0.3009  1.1414
 3029SOL    HW120549   2.610   2.544   4.978  0.4069  1.6722 -1.6713
 3029SOL    HW220550   2.492   2.448   4.992 -1.1836 -0.0887  0.1283
 3030SOL     OW20551   2.030   2.248   7.594  0.0159  0.6488 -0.2814
 3030SOL    HW120552   2.005   2.262   7.503  0.7749  0.1949 -0.5599
 3030SOL    HW220553   1.976   2.306   7.648  0.1322  0.6333 -0.1456
 3031SOL     OW20554   2.586   1.333   9.638 -0.1890 -0.6240  0.0127
 3031SOL    HW120555   2.616   1.420   9.609 -0.2250 -0.6832 -0.2028
 3031SOL    HW220556   2.671   1.300   9.667 -1.7344 -2.3743  2.4684
 3032SOL     OW20557   1.666   2.068   1.694  0.5132 -0.3118  0.1000
 3032SOL    HW120558   1.635   2.153   1.662 -0.1463 -0.0713  1.3600
 3032SOL    HW220559   1.631   2.083   1.782 -1.4857 -0.6918 -0.6351
 3033SOL     OW20560   0.880   1.075  10.102  0.4126 -0.0245 -0.1215
 3033SOL    HW120561   0.934   1.001  10.075 -0.3567 -0.6584  0.0990
 3033SOL    HW220562   0.812   1.051  10.040 -0.2431 -0.2543  0.6816
 3034SOL     OW20563   2.168   2.759   8.673 -0.9520 -0.5242 -0.0451
 3034SOL    HW120564   2.143   2.716   8.754  0.2224 -1.0051  0.0607
 3034SOL    HW220565   2.106   2.831   8.681  0.1332  0.0827  2.6803
 3035SOL     OW20566   1.042   3.178   3.760 -0.0588  0.5551  0.3828
 3035SOL    HW120567   1.101   3.148   3.691  0.1369 -0.6565  1.0817
 3035SOL    HW220568   1.098   3.166   3.836 -0.8500 -0.2468  0.8465
 3036SOL     OW20569   1.718   3.014  14.932  0.1935 -0.4361 -0.5586
 3036SOL    HW120570   1.725   2.937  14.989 -2.3914  0.6303  1.1569
 3036SOL    HW220571   1.788   3.014  14.867 -0.0041 -1.5895 -0.7867
 3037SOL     OW20572   4.481   4.497   6.003 -0.0716 -0.0469 -0.6223
 3037SOL    HW120573   4.470   4.435   5.931 -0.2534 -1.0414  0.2558
 3037SOL    HW220574   4.507   4.574   5.953 -0.9860 -1.5318 -3.3978
 3038SOL     OW20575   3.895   0.509   2.079 -0.2866 -0.3863 -0.5419
 3038SOL    HW120576   3.872   0.424   2.116  2.3902 -0.5578  0.7489
 3038SOL    HW220577   3.968   0.481   2.024  0.4359 -1.2293  0.8596
 3039SOL     OW20578   1.724   1.007  16.950 -0.4448 -0.1016  0.2480
 3039SOL    HW120579   1.707   1.041  16.861 -0.7455  0.1819  0.4111
 3039SOL    HW220580   1.728   1.088  17.000  0.8747  0.2125 -0.3860
 3040SOL     OW20581   1.468   0.422   5.728  0.0417 -0.5187  0.2871
 3040SOL    HW120582   1.426   0.344   5.766  0.8201 -0.7143  0.7406
 3040SOL    HW220583   1.535   0.381   5.673 -0.6140  0.0829 -0.9687
 3041SOL     OW20584   3.682   0.630   6.930  0.1384 -0.1398  0.3551
 3041SOL    HW120585   3.689   0.548   6.882  2.1613 -1.4958  2.9496
 3041SOL    HW220586   3.640   0.589   7.005 -0.1858 -1.3335 -0.4947
 3042SOL     OW20587   1.349   2.897  16.223  0.7036  0.1845  0.1636
 3042SOL    HW120588   1.321   2.983  16.193 -0.4588  0.4505  1.9907
 3042SOL    HW220589   1.358   2.856  16.137  2.6088  0.3372  0.2822
 3043SOL     OW20590   3.039   1.601   3.755 -0.1827  0.5603 -0.1410
 3043SOL    HW120591   3.093   1.663   3.804 -0.8951  1.8282 -0.9873
 3043SOL    HW220592   2.979   1.557   3.815 -1.6270  4.3299  1.1424
 3044SOL     OW20593   4.206   4.517   5.493 -0.0723 -0.1761  0.1734
 3044SOL    HW120594   4.247   4.526   5.578 -2.2693  1.4960  1.0556
 3044SOL    HW220595   4.135   4.581   5.499  0.1543  0.3774 -2.7730
 3045SOL     OW20596   3.744   0.593  10.308  0.3206 -0.0056  0.0061
 3045SOL    HW120597   3.764   0.610  10.216  0.3071  0.6377  0.1212
 3045SOL    HW220598   3.708   0.505  10.301  1.2367 -0.2117 -2.1179
 3046SOL     OW20599   4.036   1.062   8.029  0.2043 -0.2016 -0.4427
 3046SOL    HW120600   4.019   1.069   7.935  1.2635  2.5109 -0.4224
 3046SOL    HW220601   4.060   0.970   8.038  0.1937 -0.2082 -0.4806
 3047SOL     OW20602   0.820   2.390   2.830 -0.7788 -0.4207 -0.0111
 3047SOL    HW120603   0.742   2.409   2.882 -0.9329 -0.8799 -0.0802
 3047SOL    HW220604   0.874   2.355   2.900 -1.8539  1.2814  1.6542
 3048SOL     OW20605   2.910   1.561   1.442 -0.0377 -0.1681 -0.0456
 3048SOL    HW120606   2.883   1.591   1.529 -0.2918 -3.2075  0.9186
 3048SOL    HW220607   2.876   1.472   1.436 -0.5510 -0.0310  0.7704
 3049SOL     OW20608   3.713   2.632   3.446  0.1872  0.5418  1.1637
 3049SOL    HW120609   3.646   2.600   3.506 -0.3071  1.1376  0.9254
 3049SOL    HW220610   3.734   2.711   3.495 -0.0357 -0.7168  3.2820
 3050SOL     OW20611   2.963   3.891  16.537  0.3125 -0.3320 -0.0205
 3050SOL    HW120612   2.907   3.846  16.600  1.9920 -0.5695  1.3023
 3050SOL    HW220613   2.960   3.828  16.465  2.5048  0.8421 -1.1215
 3051SOL     OW20614   0.206   4.114   4.923  0.4833  0.1663 -0.0887
 3051SOL    HW120615   0.182   4.107   4.831 -0.6043  0.1657  0.1932
 3051SOL    HW220616   0.224   4.208   4.926 -1.3074  0.5051  0.0512
 3052SOL     OW20617   2.705   3.092   4.557  0.1655  0.3585 -0.4910
 3052SOL    HW120618   2.797   3.117   4.565  0.1342  0.2969  0.0624
 3052SOL    HW220619   2.668   3.145   4.628 -0.7023  0.1397 -0.7757
 3053SOL     OW20620   1.445   3.614   8.414 -0.1678 -0.2426  0.2276
 3053SOL    HW120621   1.498   3.628   8.493 -0.6226  0.8721  0.3432
 3053SOL    HW220622   1.359   3.644   8.444  0.5017  2.7176 -0.7174
 3054SOL     OW20623   2.478   4.218   7.997  0.3112  0.6377 -0.0093
 3054SOL    HW120624   2.480   4.236   7.903 -0.0774  1.8116  0.2061
 3054SOL    HW220625   2.404   4.267   8.032  0.4550  1.8836 -1.4107
 3055SOL     OW20626   0.369   1.961   6.305 -0.6510 -0.3749  0.9952
 3055SOL    HW120627   0.392   2.051   6.328 -0.3403 -0.5571  1.3935
 3055SOL    HW220628   0.460   1.933   6.309 -0.6168 -0.2961  0.8100
 3056SOL     OW20629   1.715   4.562   8.398 -0.2858 -0.1216  0.6543
 3056SOL    HW120630   1.651   4.491   8.394  0.7559 -1.0690  0.8108
 3056SOL    HW220631   1.665   4.641   8.420  1.0846  0.9341 -0.0830
 3057SOL     OW20632   0.272   4.675   8.305 -0.3118  0.2881  0.5821
 3057SOL    HW120633   0.347   4.621   8.277  1.6271  3.0141  0.4963
 3057SOL    HW220634   0.216   4.661   8.229 -0.5399  0.3404  0.7415
 3058SOL     OW20635   2.045   2.341   4.756 -0.7715  0.5096 -0.1679
 3058SOL    HW120636   2.073   2.266   4.809  2.3797  2.3178  0.6820
 3058SOL    HW220637   2.125   2.338   4.705  0.1298  1.4259  1.1909
 3059SOL     OW20638   3.104   1.737   8.510 -0.1337 -0.2130 -0.8969
 3059SOL    HW120639   3.070   1.805   8.568  0.3987 -1.6241  1.0577
 3059SOL    HW220640   3.196   1.759   8.494  0.2197  1.1384  2.9388
 3060SOL     OW20641   3.264   1.341  13.026  0.2480  0.8227  0.3109
 3060SOL    HW120642   3.197   1.408  13.013  1.3700  2.2284  1.8137
 3060SOL    HW220643   3.219   1.301  13.101  1.0005  0.2808  0.4728
 3061SOL     OW20644   0.849   3.898  15.610  0.2364  0.8549 -0.4318
 3061SOL    HW120645   0.861   3.867  15.700 -1.6791  0.6356 -0.2430
 3061SOL    HW220646   0.755   3.905  15.625  0.1426 -2.5442  0.4934
 3062SOL     OW20647   3.115   1.595   6.708  0.3465  0.2408  0.4100
 3062SOL    HW120648   3.078   1.684   6.709 -1.5074 -0.5805  4.0730
 3062SOL    HW220649   3.175   1.612   6.635 -0.0953  1.9655  0.4456
 3063SOL     OW20650   0.976   1.722   9.608 -0.2643 -0.0166 -0.5971
 3063SOL    HW120651   0.924   1.795   9.643 -0.2405  0.0142 -0.6262
 3063SOL    HW220652   1.066   1.753   9.614 -0.6318  0.2025  3.2942
 3064SOL     OW20653   1.678   3.767   7.112  0.2077  0.6396  0.1793
 3064SOL    HW120654   1.757   3.795   7.066  0.1319 -2.2774 -1.7037
 3064SOL    HW220655   1.626   3.840   7.078 -2.3796 -1.8816 -1.2400
 3065SOL     OW20656   1.682   3.537  16.214  0.5617 -0.5066 -0.2046
 3065SOL    HW120657   1.743   3.497  16.152 -0.5263 -0.9406 -0.9758
 3065SOL    HW220658   1.633   3.596  16.157  0.0493 -0.4286  0.3193
 3066SOL     OW20659   3.592   2.624   4.397 -1.0050 -0.4498 -0.0442
 3066SOL    HW120660   3.556   2.660   4.316 -2.2241  0.6542  0.9845
 3066SOL    HW220661   3.605   2.536   4.362 -1.7919 -0.7391  0.4021
 3067SOL     OW20662   1.983   3.781   5.902  0.2804  0.3086  0.0427
 3067SOL    HW120663   1.908   3.743   5.949 -0.3862 -0.4055 -1.5973
 3067SOL    HW220664   2.045   3.787   5.975  1.9507  3.1994 -1.6062
 3068SOL     OW20665   2.528   2.684   2.634 -0.5171  0.1479  0.1861
 3068SOL    HW120666   2.611   2.727   2.611 -0.0248 -1.3374 -0.8506
 3068SOL    HW220667   2.541   2.618   2.566  0.9118 -1.0041  1.5938
 3069SOL     OW20668   4.395   1.587  16.198 -0.0228 -0.1917  0.1635
 3069SOL    HW120669   4.378   1.661  16.256 -1.5238 -2.9670  3.2239
 3069SOL    HW220670   4.491   1.586  16.199 -0.0402 -2.0847  0.0466
 3070SOL     OW20671   0.430   2.635   6.764  0.4581 -0.5950  0.1052
 3070SOL    HW120672   0.368   2.597   6.701  1.0637 -0.9191 -0.2935
 3070SOL    HW220673   0.466   2.554   6.800 -0.8201 -0.1821  2.3363
 3071SOL     OW20674   1.914   4.041  15.237 -0.0376 -0.1526 -0.5083
 3071SOL    HW120675   1.998   4.012  15.271 -0.4358  0.5636  1.0900
 3071SOL    HW220676   1.854   4.060  15.309  1.3243  2.7588 -0.1225
 3072SOL     OW20677   0.763   2.362   3.807  0.2368  0.6363 -0.0229
 3072SOL    HW120678   0.803   2.446   3.830  1.3900  0.6191 -1.9774
 3072SOL    HW220679   0.821   2.299   3.851 -0.2374 -2.0614 -3.2428
 3073SOL     OW20680   0.469   4.092   1.727 -0.0334  0.1164  0.0775
 3073SOL    HW120681   0.463   4.095   1.822 -0.7650 -0.1031  0.0365
 3073SOL    HW220682   0.551   4.139   1.711  1.2691 -2.3916 -0.7616
 3074SOL     OW20683   0.512   1.335   9.699  0.0622  0.2491  0.3057
 3074SOL    HW120684   0.502   1.262   9.639  1.2198  0.0604  0.3564
 3074SOL    HW220685   0.606   1.334   9.684  0.1502  2.4726  0.6936
 3075SOL     OW20686   4.029   2.059   4.973  0.3405 -0.1268  0.3051
 3075SOL    HW120687   4.116   2.098   4.964  1.6503 -3.2174 -0.3063
 3075SOL    HW220688   4.029   2.062   5.069  2.1948 -1.7841  0.3501
 3076SOL     OW20689   2.145   3.982   5.777 -0.8221 -0.4217 -0.4996
 3076SOL    HW120690   2.102   4.058   5.738  1.2394  1.3704  0.6881
 3076SOL    HW220691   2.074   3.919   5.780 -0.3554 -0.8468  1.7688
 3077SOL     OW20692   4.298   3.631   1.341 -0.4288  0.0898 -0.0316
 3077SOL    HW120693   4.220   3.644   1.286  0.1859  0.1891 -0.8919
 3077SOL    HW220694   4.337   3.557   1.293  0.2558  0.6699 -0.3656
 3078SOL     OW20695   1.164   0.269   9.399 -0.2987 -0.0740 -0.1668
 3078SOL    HW120696   1.127   0.246   9.485 -0.9707  0.4804 -0.3093
 3078SOL    HW220697   1.086   0.278   9.344 -0.8188 -0.2020  0.5393
 3079SOL     OW20698   0.143   1.849  15.993  0.2674 -0.3286 -0.1879
 3079SOL    HW120699   0.081   1.814  16.057 -1.2669  1.7977 -0.5280
 3079SOL    HW220700   0.128   1.943  16.004  0.4001 -0.4586  1.1670
 3080SOL     OW20701   3.668   3.499   7.704  0.4451  0.3312  0.3649
 3080SOL    HW120702   3.677   3.534   7.615 -1.7772  1.1637  0.4615
 3080SOL    HW220703   3.687   3.573   7.761  0.3414  1.5428 -1.1831
 3081SOL     OW20704   1.405   0.918  13.318 -0.6036  0.0593  0.2426
 3081SOL    HW120705   1.395   1.012  13.329 -1.7828  0.1755 -1.8621
 3081SOL    HW220706   1.458   0.923  13.238 -1.8238 -0.4468 -0.6084
 3082SOL     OW20707   1.627   3.834   8.422  0.3128  0.2024 -0.3477
 3082SOL    HW120708   1.587   3.891   8.488  0.5842 -1.3587  1.1415
 3082SOL    HW220709   1.552   3.804   8.372 -1.0950  0.1032  1.8442
 3083SOL     OW20710   0.418   2.540   7.651  0.5620 -0.7333  0.0870
 3083SOL    HW120711   0.475   2.513   7.579  0.1132  0.1845 -0.6111
 3083SOL    HW220712   0.330   2.532   7.614  1.1849 -1.8515 -1.1188
 3084SOL     OW20713   2.783   2.719   6.460 -0.1048 -0.2897  0.0989
 3084SOL    HW120714   2.873   2.749   6.446 -0.3483 -0.4406 -1.7898
 3084SOL    HW220715   2.797   2.679   6.545  3.9742 -0.0108 -0.3952
 3085SOL     OW20716   2.407   1.390  17.660  0.0343 -0.3656  0.2113
 3085SOL    HW120717   2.434   1.307  17.621 -0.6440  0.0753 -1.2121
 3085SOL    HW220718   2.312   1.381  17.658 -0.0978  0.6167  2.3562
 3086SOL     OW20719   3.959   3.758   4.632  0.2619  0.7753  0.2780
 3086SOL    HW120720   3.948   3.849   4.607  1.0605  1.0383  0.8883
 3086SOL    HW220721   3.872   3.720   4.620 -0.5529  2.8842 -0.4160
 3087SOL     OW20722   3.316   4.614   9.976  0.3973 -0.1631  0.4102
 3087SOL    HW120723   3.347   4.698   9.941  0.6380 -1.4881 -2.5314
 3087SOL    HW220724   3.233   4.639  10.018  0.6975  1.2254  0.1944
 3088SOL     OW20725   2.736   1.615   2.218  0.1079  0.2354  0.3897
 3088SOL    HW120726   2.767   1.596   2.129 -0.7095 -2.1588  0.5966
 3088SOL    HW220727   2.675   1.541   2.227  0.9859 -0.4023  1.1278
 3089SOL     OW20728   1.797   3.047   2.587  0.0629  0.3098  0.0711
 3089SOL    HW120729   1.891   3.052   2.602  0.0281  1.5963 -0.1065
 3089SOL    HW220730   1.757   3.112   2.645  0.9116 -0.7578  1.8463
 3090SOL     OW20731   3.809   0.662   6.206 -0.0751 -0.2003 -0.1328
 3090SOL    HW120732   3.770   0.741   6.169 -0.1257  0.1279  0.6206
 3090SOL    HW220733   3.776   0.672   6.295 -0.3562  0.8431 -0.3535
 3091SOL     OW20734   0.524   2.813   4.082 -0.4938  0.0843 -0.0743
 3091SOL    HW120735   0.540   2.768   3.999  1.8846  1.8243 -0.5543
 3091SOL    HW220736   0.613   2.809   4.116  0.4567  0.8047 -2.4395
 3092SOL     OW20737   1.592   1.139   4.794 -0.6829 -0.0261  0.3752
 3092SOL    HW120738   1.500   1.138   4.767 -0.7522  0.9240  0.5852
 3092SOL    HW220739   1.599   1.047   4.821 -0.8038 -0.8966 -2.5828
 3093SOL     OW20740   2.158   1.295   7.751 -0.3416 -0.5394 -0.6164
 3093SOL    HW120741   2.236   1.341   7.780 -1.3944  1.6972 -1.3066
 3093SOL    HW220742   2.165   1.318   7.658 -1.0217 -1.0149 -0.7886
 3094SOL     OW20743   2.404   0.673   6.254  0.3267 -0.5973  0.5584
 3094SOL    HW120744   2.395   0.593   6.203 -1.3786 -0.7721  1.1174
 3094SOL    HW220745   2.428   0.642   6.342  0.8169  2.3506  1.4535
 3095SOL     OW20746   4.436   2.195  16.382  0.4112  0.3728  0.0707
 3095SOL    HW120747   4.487   2.269  16.416  2.2775 -0.5953 -0.6831
 3095SOL    HW220748   4.433   2.218  16.289  1.9594  3.6792  0.8215
 3096SOL     OW20749   0.496   3.065   7.740  0.2202 -0.0290  0.3392
 3096SOL    HW120750   0.526   3.150   7.771 -1.7486  0.8548 -0.1952
 3096SOL    HW220751   0.536   3.012   7.809  0.8964  0.1239  0.0564
 3097SOL     OW20752   3.996   0.375   4.585  0.1219  0.2403  0.6480
 3097SOL    HW120753   3.999   0.359   4.679  4.4647 -0.7659  0.3335
 3097SOL    HW220754   4.078   0.423   4.594  0.3864  0.4430 -2.7406
 3098SOL     OW20755   2.977   4.134   3.908 -0.6766  0.0373 -0.5348
 3098SOL    HW120756   2.998   4.043   3.886  0.9683 -0.0510  1.4321
 3098SOL    HW220757   2.961   4.176   3.823 -1.5957  0.8094  0.0273
 3099SOL     OW20758   0.996   3.967   2.826 -0.4730 -0.2312  0.2679
 3099SOL    HW120759   0.915   3.922   2.804 -0.6799 -0.3023  1.1928
 3099SOL    HW220760   1.061   3.899   2.813  0.5676  0.9443 -0.7718
 3100SOL     OW20761   2.311   3.674   0.222  0.3631 -0.6558 -0.1958
 3100SOL    HW120762   2.292   3.731   0.147 -1.1656 -0.6687  0.1660
 3100SOL    HW220763   2.265   3.598   0.185 -1.5154  0.9248 -1.1517
 3101SOL     OW20764   1.557   3.217   6.666 -0.4613  0.3300  0.0429
 3101SOL    HW120765   1.572   3.213   6.571  0.6144 -0.7881  0.2716
 3101SOL    HW220766   1.621   3.154   6.699 -1.0638 -0.3327 -0.0474
 3102SOL     OW20767   0.520   0.637  15.736  0.6337 -0.0313  0.0391
 3102SOL    HW120768   0.442   0.610  15.688  1.5723 -1.1894 -0.8526
 3102SOL    HW220769   0.484   0.717  15.773 -0.0148 -0.7047  0.8489
 3103SOL     OW20770   2.017   3.759  12.097  0.2321  0.2125  0.5218
 3103SOL    HW120771   2.053   3.730  12.013 -0.0122  1.1909  0.0691
 3103SOL    HW220772   2.073   3.713  12.158 -0.4465  0.9306  1.6832
 3104SOL     OW20773   3.981   3.234   2.999  0.2700  0.0594  0.0354
 3104SOL    HW120774   4.064   3.255   2.955  0.4132  2.2359  1.3295
 3104SOL    HW220775   4.010   3.147   3.026 -1.4864 -0.1208  1.3363
 3105SOL     OW20776   2.769   2.287   4.236 -0.6323  0.2962 -0.4884
 3105SOL    HW120777   2.699   2.352   4.228 -2.0374 -0.9114  1.8057
 3105SOL    HW220778   2.831   2.313   4.168  0.7015  0.6004  0.8558
 3106SOL     OW20779   3.865   1.502  10.515 -0.5493  0.4159 -0.2855
 3106SOL    HW120780   3.921   1.504  10.593  0.9642  0.4038 -1.3657
 3106SOL    HW220781   3.928   1.549  10.460  0.4426 -0.1788  0.3358
 3107SOL     OW20782   4.713   4.541   6.847 -0.1164 -0.3782 -0.5713
 3107SOL    HW120783   4.617   4.542   6.850 -0.0798  2.5815 -1.1289
 3107SOL    HW220784   4.712   4.561   6.753 -1.8506  1.8725 -0.0524
 3108SOL     OW20785   1.225   4.441  10.530  0.0322  0.0789  0.0926
 3108SOL    HW120786   1.189   4.372  10.586  0.2794 -1.0052 -1.0973
 3108SOL    HW220787   1.145   4.490  10.515  0.4981  0.5762 -0.7669
 3109SOL     OW20788   3.779   1.275   3.462  0.1013 -0.2624  0.1688
 3109SOL    HW120789   3.861   1.227   3.450 -0.4035 -0.5908 -2.0995
 3109SOL    HW220790   3.755   1.275   3.554 -0.8305  0.7872 -0.0787
 3110SOL     OW20791   3.162   2.447  16.377  0.6288  0.0785 -0.1779
 3110SOL    HW120792   3.248   2.414  16.403  0.6437  0.7325  0.5940
 3110SOL    HW220793   3.190   2.516  16.316 -1.5000 -0.3527 -1.6437
 3111SOL     OW20794   3.656   1.355   6.772  0.5206  0.0502  0.1101
 3111SOL    HW120795   3.565   1.327   6.757  0.9950  0.0092 -2.7181
 3111SOL    HW220796   3.701   1.306   6.703  0.5190  0.5963 -0.2794
 3112SOL     OW20797   0.827   4.672   5.971  0.4681 -0.2835  0.0320
 3112SOL    HW120798   0.851   4.656   5.879 -0.8547 -0.9815 -0.2010
 3112SOL    HW220799   0.823   4.582   6.004  1.2275  0.2270  1.4766
 3113SOL     OW20800   0.463   2.929   8.131  0.5098  0.2273  0.2497
 3113SOL    HW120801   0.501   2.915   8.044  1.7908  1.2938  0.6427
 3113SOL    HW220802   0.388   2.872   8.112  2.6289 -2.2115 -0.7760
 3114SOL     OW20803   0.123   1.578   6.688  0.1464 -0.1021  0.0105
 3114SOL    HW120804   0.109   1.499   6.739  0.9121 -0.0484  0.3077
 3114SOL    HW220805   0.186   1.560   6.618  0.5888 -1.0280  0.6597
 3115SOL     OW20806   3.009   0.582  14.424 -0.3514 -0.5494  0.1242
 3115SOL    HW120807   3.070   0.523  14.468  0.2221 -0.7880 -0.9752
 3115SOL    HW220808   2.983   0.630  14.502 -2.2401  1.0477 -1.4846
 3116SOL     OW20809   0.066   0.831   6.904  0.2910  0.2662 -0.5152
 3116SOL    HW120810   4.719   0.783   6.858  0.5358 -2.6215  2.0863
 3116SOL    HW220811   0.076   0.912   6.854  1.4394  0.8080  0.5960
 3117SOL     OW20812   4.219   2.796   7.822  0.5765 -0.2574 -0.0218
 3117SOL    HW120813   4.302   2.781   7.776  0.2476 -4.7954  0.8301
 3117SOL    HW220814   4.186   2.879   7.787  2.5961  0.3513 -0.4366
 3118SOL     OW20815   2.341   1.471  15.187  0.6836 -0.0197 -0.1701
 3118SOL    HW120816   2.405   1.403  15.167  0.6465  0.1205 -0.7682
 3118SOL    HW220817   2.389   1.547  15.219 -0.5975  0.4715  0.5896
 3119SOL     OW20818   2.698   4.301   7.495 -0.3732  0.5083  0.1063
 3119SOL    HW120819   2.663   4.267   7.577  1.8617 -0.9878  0.4270
 3119SOL    HW220820   2.641   4.253   7.435 -1.2578  1.9607 -0.2197
 3120SOL     OW20821   2.732   3.118  12.711 -0.3829 -0.2241  0.5097
 3120SOL    HW120822   2.819   3.128  12.674  0.0363  0.7036  1.7483
 3120SOL    HW220823   2.695   3.204  12.693  1.5542  0.5833  0.3867
 3121SOL     OW20824   0.180   2.990   4.419  0.0787 -0.0074 -0.0001
 3121SOL    HW120825   0.158   3.013   4.509 -1.8760  1.7548 -0.9492
 3121SOL    HW220826   0.258   3.045   4.411 -1.0288  1.5450 -0.0451
 3122SOL     OW20827   3.153   3.192   2.242 -0.3268  0.0157  0.8020
 3122SOL    HW120828   3.077   3.203   2.184  0.0165 -0.2330  0.3079
 3122SOL    HW220829   3.164   3.281   2.274  1.0883 -0.5852  1.9802
 3123SOL     OW20830   1.712   4.146   8.594  0.3021 -0.3283 -0.0906
 3123SOL    HW120831   1.686   4.138   8.686 -0.3182 -2.3334 -0.4574
 3123SOL    HW220832   1.772   4.222   8.591  2.5254 -2.1342 -1.3311
 3124SOL     OW20833   0.763   2.207  14.172 -0.1730  0.1403 -0.0652
 3124SOL    HW120834   0.834   2.259  14.134  0.8917 -1.2410  0.0518
 3124SOL    HW220835   0.710   2.274  14.215  3.1686  0.4502  3.5948
 3125SOL     OW20836   0.832   3.963   5.225  0.0106  0.0462  0.0144
 3125SOL    HW120837   0.795   3.877   5.203  1.5426 -0.4920 -0.4479
 3125SOL    HW220838   0.924   3.939   5.231  0.1745 -0.1993 -3.2502
 3126SOL     OW20839   3.540   4.349   6.704  0.0535  0.8219  0.3398
 3126SOL    HW120840   3.601   4.388   6.766 -0.2106 -0.0282  1.1357
 3126SOL    HW220841   3.456   4.392   6.712 -0.6022 -0.2970 -0.4284
 3127SOL     OW20842   3.794   2.813   3.231  0.6099  0.0964 -0.4633
 3127SOL    HW120843   3.744   2.893   3.247 -0.0611 -0.5729  0.7894
 3127SOL    HW220844   3.760   2.756   3.300 -0.2596 -0.3183 -1.2370
 3128SOL     OW20845   2.470   0.330   2.484  1.2125 -0.4939  0.6702
 3128SOL    HW120846   2.413   0.289   2.419  0.5670  1.0873  0.2361
 3128SOL    HW220847   2.397   0.346   2.543  1.9378 -1.1753  1.7448
 3129SOL     OW20848   2.414   3.084  15.671  0.3110 -0.2386 -0.2326
 3129SOL    HW120849   2.397   3.174  15.643 -1.5370 -0.7262 -0.6676
 3129SOL    HW220850   2.323   3.055  15.664 -0.0940  1.0039 -0.1359
 3130SOL     OW20851   0.987   0.103   8.109 -0.3622  0.0741 -0.2545
 3130SOL    HW120852   1.029   0.089   8.024 -1.0878 -0.0909 -0.5908
 3130SOL    HW220853   0.893   0.107   8.092 -0.0761 -0.8892 -2.0967
 3131SOL     OW20854   3.444   0.486  17.079 -0.0032  0.0996  0.3004
 3131SOL    HW120855   3.398   0.440  17.149 -0.4523 -1.3351 -0.9329
 3131SOL    HW220856   3.521   0.434  17.058  0.5060  1.4196 -1.1489
 3132SOL     OW20857   2.388   0.817  17.659  0.2339  0.4271  0.4558
 3132SOL    HW120858   2.456   0.855  17.602 -1.1953  1.9508 -0.2375
 3132SOL    HW220859   2.354   0.746  17.606 -0.2824  0.9227  0.1250
 3133SOL     OW20860   3.395   3.186   6.842  0.3423 -0.0886 -0.4694
 3133SOL    HW120861   3.356   3.189   6.755 -0.4667 -0.1331 -0.1136
 3133SOL    HW220862   3.460   3.118   6.821  0.7439  0.5749 -1.3583
 3134SOL     OW20863   4.445   1.200  16.572 -0.3016 -0.4732 -0.2699
 3134SOL    HW120864   4.361   1.243  16.558  0.1812  0.3841 -0.4999
 3134SOL    HW220865   4.499   1.270  16.536 -0.3286 -1.0963 -1.5293
 3135SOL     OW20866   3.380   1.078   4.809 -0.5128  0.2415 -0.2168
 3135SOL    HW120867   3.326   1.079   4.888 -0.5326  1.4593 -0.2540
 3135SOL    HW220868   3.372   0.987   4.779 -2.6896  0.1228  0.7415
 3136SOL     OW20869   3.900   3.298  10.278 -0.1855 -0.8551 -0.1231
 3136SOL    HW120870   3.885   3.268  10.367 -0.8163  1.7226  0.6060
 3136SOL    HW220871   3.957   3.227  10.246  1.5142  0.9057 -0.9666
 3137SOL     OW20872   3.673   2.476   6.637 -0.2190  0.1355 -0.5896
 3137SOL    HW120873   3.646   2.431   6.717 -0.7284  3.1880  0.9361
 3137SOL    HW220874   3.629   2.415   6.577  1.2832 -1.4341 -0.0766
 3138SOL     OW20875   4.572   3.989  17.660 -0.0395  0.4187  0.2339
 3138SOL    HW120876   4.544   3.978   0.062  1.7028 -1.1056  0.5812
 3138SOL    HW220877   4.523   4.067  17.634 -0.3275 -1.3201 -4.2871
 3139SOL     OW20878   1.922   0.772   2.812 -0.4425  0.0684 -0.1650
 3139SOL    HW120879   1.968   0.753   2.731 -3.6035 -0.0034 -1.9421
 3139SOL    HW220880   1.991   0.823   2.855  0.0728 -0.2788 -0.5905
 3140SOL     OW20881   0.435   0.582  17.004 -0.6031  0.3855  0.3063
 3140SOL    HW120882   0.504   0.538  16.954  0.0509  1.9931 -0.2109
 3140SOL    HW220883   0.360   0.522  17.005  0.8428 -1.3950  1.5962
 3141SOL     OW20884   2.778   2.820   9.946  0.1989  0.0778  0.4955
 3141SOL    HW120885   2.689   2.788   9.963  0.6184 -1.7961 -0.9196
 3141SOL    HW220886   2.753   2.876   9.872 -0.5296 -2.6364 -1.2733
 3142SOL     OW20887   2.132   1.373   2.152  0.1482  0.1061 -0.0057
 3142SOL    HW120888   2.182   1.299   2.118 -0.6749  0.1439 -1.2859
 3142SOL    HW220889   2.190   1.445   2.127  2.6065 -1.0209  2.3046
 3143SOL     OW20890   0.873   4.692   8.436  0.0281 -0.1258  0.0145
 3143SOL    HW120891   0.925   4.682   8.515  0.9353 -0.3334 -0.6111
 3143SOL    HW220892   0.876   0.065   8.418 -0.8341 -0.1813 -0.4527
 3144SOL     OW20893   0.686   4.322   1.120 -0.1518  0.0701  0.3074
 3144SOL    HW120894   0.693   4.291   1.211 -2.3914  1.7138  1.0391
 3144SOL    HW220895   0.598   4.358   1.116 -0.4719 -0.5992  1.2877
 3145SOL     OW20896   0.789   0.413  15.540  0.4960  0.1055 -0.0644
 3145SOL    HW120897   0.725   0.343  15.551  0.5673 -0.1349 -1.1534
 3145SOL    HW220898   0.746   0.484  15.492 -0.4120 -0.2746  0.1937
 3146SOL     OW20899   2.425   2.446   3.581 -0.5485 -0.4430  0.2416
 3146SOL    HW120900   2.417   2.535   3.616  0.1318  0.4552 -1.9394
 3146SOL    HW220901   2.331   2.429   3.580 -0.7905  0.9266  0.0491
 3147SOL     OW20902   2.650   0.770   7.791 -0.4084 -0.3817 -0.6286
 3147SOL    HW120903   2.721   0.711   7.766 -0.0402 -0.3796  0.4036
 3147SOL    HW220904   2.586   0.754   7.722  1.6816  0.3523 -2.7168
 3148SOL     OW20905   1.948   3.093   1.028  0.0331 -0.8107  0.2295
 3148SOL    HW120906   1.867   3.138   1.005 -0.4427 -1.5738  0.4437
 3148SOL    HW220907   1.966   3.123   1.117 -0.2828  2.0445 -0.6513
 3149SOL     OW20908   1.920   0.742   8.915  0.1899  0.7722  0.1592
 3149SOL    HW120909   1.931   0.647   8.911  1.2136  0.9674 -1.4949
 3149SOL    HW220910   1.995   0.758   8.972  0.2018 -0.7136  0.5483
 3150SOL     OW20911   0.226   1.722  12.852  0.3534 -0.0990  0.0021
 3150SOL    HW120912   0.295   1.785  12.831  0.8950 -0.2396  1.3162
 3150SOL    HW220913   0.157   1.741  12.789  0.7247  1.8228  0.1696
 3151SOL     OW20914   4.067   2.077  16.371  0.4457 -0.5557  0.0051
 3151SOL    HW120915   4.020   1.995  16.352 -1.4844  0.7266 -0.7914
 3151SOL    HW220916   4.036   2.098  16.459  4.5505  0.2915  1.2154
 3152SOL     OW20917   0.594   0.776   5.244 -0.1783 -0.1589  0.4756
 3152SOL    HW120918   0.612   0.696   5.195 -0.9588 -0.9195  1.4422
 3152SOL    HW220919   0.624   0.759   5.333 -1.0662  0.2787  0.8625
 3153SOL     OW20920   3.119   2.215  12.013  0.2658 -0.2880 -0.4751
 3153SOL    HW120921   3.075   2.150  11.958 -1.0184  2.1379 -2.2859
 3153SOL    HW220922   3.113   2.175  12.100 -1.7719  0.4583 -0.2913
 3154SOL     OW20923   0.618   2.813  16.377  0.0961  0.0722  0.1234
 3154SOL    HW120924   0.657   2.731  16.409 -0.7964 -0.3607  0.1139
 3154SOL    HW220925   0.607   2.794  16.284  1.9545 -0.5521  0.0310
 3155SOL     OW20926   4.118   3.661   6.650  0.1118  0.6029 -0.0894
 3155SOL    HW120927   4.210   3.667   6.622  0.4945  1.1625  1.2648
 3155SOL    HW220928   4.110   3.741   6.702  1.6171  0.9545 -0.3774
 3156SOL     OW20929   2.751   1.207   9.306 -0.0441  0.4916 -0.7141
 3156SOL    HW120930   2.827   1.235   9.254 -0.3098  0.2408 -1.2248
 3156SOL    HW220931   2.688   1.197   9.236  1.2695 -2.1861 -1.4850
 3157SOL     OW20932   3.132   3.894  16.111 -0.1327  0.4290  1.0445
 3157SOL    HW120933   3.169   3.968  16.159 -1.4414  1.4300  0.4935
 3157SOL    HW220934   3.193   3.825  16.138  0.0265 -0.2489 -1.0329
 3158SOL     OW20935   2.308   1.393  14.674 -0.6162  0.9578 -0.4735
 3158SOL    HW120936   2.390   1.433  14.646 -0.3496  0.7240 -0.0319
 3158SOL    HW220937   2.310   1.421  14.766  1.1238 -2.5009  0.5459
 3159SOL     OW20938   0.430   0.988  10.932 -0.7803  0.5660 -0.2681
 3159SOL    HW120939   0.352   0.943  10.964 -0.1217  0.6136  1.4345
 3159SOL    HW220940   0.394   1.068  10.893  1.1793  0.4095 -2.4107
 3160SOL     OW20941   2.510   4.388   2.696  0.1125  0.6317 -0.2160
 3160SOL    HW120942   2.599   4.359   2.714 -0.0252 -0.8849 -1.9084
 3160SOL    HW220943   2.477   4.333   2.624 -4.3519  0.4493  2.0013
 3161SOL     OW20944   2.247   3.551   8.605 -0.5231 -0.2387  0.1826
 3161SOL    HW120945   2.163   3.538   8.649  0.0199  1.5978  1.7584
 3161SOL    HW220946   2.221   3.577   8.516  1.8131  1.7015  0.0567
 3162SOL     OW20947   4.609   3.258   2.663  0.0531  0.3733  0.3503
 3162SOL    HW120948   4.539   3.324   2.665 -0.6663 -0.3994  0.5546
 3162SOL    HW220949   4.644   3.274   2.751 -2.2652 -0.2102  1.3758
 3163SOL     OW20950   4.311   3.193   7.253 -0.0851 -0.2277 -0.0461
 3163SOL    HW120951   4.255   3.145   7.191  0.3114  0.0933 -0.6597
 3163SOL    HW220952   4.382   3.133   7.274 -0.9772 -1.1212  0.3711
 3164SOL     OW20953   4.552   1.710   8.721 -0.0182 -0.5898  0.6286
 3164SOL    HW120954   4.527   1.650   8.652  0.1519 -0.1087  0.1459
 3164SOL    HW220955   4.480   1.774   8.713 -1.1595 -1.8591  0.7958
 3165SOL     OW20956   1.186   1.346   6.510  0.2223 -0.2440 -0.5643
 3165SOL    HW120957   1.232   1.270   6.476  0.9663 -0.5496  1.1376
 3165SOL    HW220958   1.183   1.328   6.604  2.7030 -2.4803 -0.9251
 3166SOL     OW20959   0.736   3.495  10.668 -0.2770  0.0663 -0.8815
 3166SOL    HW120960   0.666   3.500  10.603  0.2447  0.1866 -1.4386
 3166SOL    HW220961   0.774   3.414  10.635  0.8032  0.6353 -1.0377
 3167SOL     OW20962   1.192   4.538  16.092 -0.2643 -0.7825  0.4277
 3167SOL    HW120963   1.213   4.526  15.999 -0.8763  0.6825  0.1130
 3167SOL    HW220964   1.216   4.628  16.112  1.3599 -1.3273  0.9780
 3168SOL     OW20965   2.687   4.068   2.698 -0.7612 -0.8235  0.2636
 3168SOL    HW120966   2.722   3.980   2.705 -2.4658 -1.5768 -0.7164
 3168SOL    HW220967   2.678   4.067   2.602  1.9717  0.2209 -0.0225
 3169SOL     OW20968   1.244   0.553   4.337  0.9020 -0.1387 -0.7138
 3169SOL    HW120969   1.227   0.606   4.259  1.9883  4.1096  1.9681
 3169SOL    HW220970   1.321   0.600   4.369  0.5385 -1.0711  1.5074
 3170SOL     OW20971   0.023   0.761  14.131  0.0064 -0.0952 -0.4361
 3170SOL    HW120972   0.030   0.669  14.155 -0.5265  0.3881  1.5727
 3170SOL    HW220973   4.652   0.781  14.146 -0.6685 -0.0184 -4.5781
 3171SOL     OW20974   4.721   3.029   3.741  0.1941 -0.2960  0.6511
 3171SOL    HW120975   0.063   2.962   3.768 -0.5315 -0.5187  1.8206
 3171SOL    HW220976   0.045   3.086   3.679  1.5100 -2.5356 -0.4418
 3172SOL     OW20977   0.171   3.681   7.722 -0.3142  0.0637 -0.0065
 3172SOL    HW120978   0.215   3.705   7.803 -2.2718  1.7211  0.5296
 3172SOL    HW220979   0.085   3.721   7.731  0.5572  2.0249 -0.5062
 3173SOL     OW20980   1.358   1.069  14.859  0.0207 -0.2058  0.3751
 3173SOL    HW120981   1.442   1.040  14.895 -0.6154 -2.7963 -0.1577
 3173SOL    HW220982   1.384   1.118  14.781  2.9500 -0.6534  1.0716
 3174SOL     OW20983   0.809   2.165   7.621  0.1140 -0.0392 -0.5621
 3174SOL    HW120984   0.822   2.077   7.655  2.3505  1.0376  1.4373
 3174SOL    HW220985   0.754   2.144   7.546  1.7672  0.4857 -1.9286
 3175SOL     OW20986   0.533   2.443   8.402 -0.4660 -0.2506  0.3864
 3175SOL    HW120987   0.607   2.437   8.463  0.8757  1.2886 -1.1167
 3175SOL    HW220988   0.539   2.536   8.381  2.4757 -0.4026  0.5284
 3176SOL     OW20989   3.666   2.967   5.989  0.6838 -1.0043  0.3576
 3176SOL    HW120990   3.722   2.901   5.947  1.4859 -0.1625  0.1129
 3176SOL    HW220991   3.638   3.001   5.904  0.3215 -0.7351  0.5848
 3177SOL     OW20992   1.544   2.287   7.871 -0.1426  0.1477 -0.4792
 3177SOL    HW120993   1.562   2.205   7.825  2.6660  0.8888 -0.7558
 3177SOL    HW220994   1.464   2.257   7.913 -0.0120  1.2213  0.5232
 3178SOL     OW20995   1.240   2.808  12.231 -0.7099  0.5141 -0.6731
 3178SOL    HW120996   1.215   2.820  12.322 -0.2544 -1.8579 -0.2404
 3178SOL    HW220997   1.293   2.887  12.218  0.2156 -0.2961 -1.9121
 3179SOL     OW20998   0.900   2.582   3.837 -0.1137  0.0517  0.6896
 3179SOL    HW120999   0.993   2.580   3.857  0.2376 -0.0906 -0.9793
 3179SOL    HW221000   0.899   2.665   3.789  1.5462 -1.4855 -1.9539
 3180SOL     OW21001   1.148   3.426  17.478  0.4915 -0.0819 -0.0362
 3180SOL    HW121002   1.144   3.515  17.513 -2.0560  0.5928 -2.0473
 3180SOL    HW221003   1.136   3.375  17.559 -0.8799  1.4071  0.7083
 3181SOL     OW21004   0.836   0.675   4.275  0.0584 -0.3517 -0.3074
 3181SOL    HW121005   0.785   0.600   4.245  0.0328 -1.2300  1.8696
 3181SOL    HW221006   0.895   0.688   4.202 -0.4246  2.0295 -0.2552
 3182SOL     OW21007   1.083   2.240   4.524  0.1666  1.0483  0.0884
 3182SOL    HW121008   1.092   2.263   4.431  1.5802 -0.7553 -0.2146
 3182SOL    HW221009   1.120   2.152   4.514 -1.2110  0.7420 -2.3559
 3183SOL     OW21010   2.655   4.251   1.413  0.1164  0.1368 -0.2700
 3183SOL    HW121011   2.686   4.341   1.422  1.5607 -0.3057 -0.8369
 3183SOL    HW221012   2.606   4.239   1.494  0.4937  0.0892 -0.0489
 3184SOL     OW21013   3.435   3.966   3.075 -0.2354 -0.0516 -0.5775
 3184SOL    HW121014   3.506   4.023   3.047 -1.4241  2.2519  1.1274
 3184SOL    HW221015   3.483   3.911   3.138 -0.5294  0.7019  0.3112
 3185SOL     OW21016   0.933   4.620  17.653 -0.3296  0.2078  0.3186
 3185SOL    HW121017   0.854   4.566  17.653 -1.3763  1.7450 -0.1870
 3185SOL    HW221018   0.911   4.697  17.601  2.8207  0.2082 -1.0187
 3186SOL     OW21019   3.392   2.182   7.135  0.3855  0.1908  0.1305
 3186SOL    HW121020   3.485   2.191   7.157  0.8504 -0.4928 -1.5213
 3186SOL    HW221021   3.363   2.260   7.182  0.2476  0.5096 -0.4892
 3187SOL     OW21022   4.702   4.259   0.586  0.4054  0.1447 -0.0000
 3187SOL    HW121023   0.004   4.266   0.493 -0.7495  1.5765 -0.1964
 3187SOL    HW221024   0.061   4.297   0.622 -0.2412 -1.4102  3.0742
 3188SOL     OW21025   0.601   4.476   4.855 -0.3718 -0.3039  0.2964
 3188SOL    HW121026   0.692   4.501   4.875 -1.1227  1.0903  2.0378
 3188SOL    HW221027   0.562   4.516   4.933 -1.5202  2.7954 -1.8464
 3189SOL     OW21028   3.190   0.846   5.243 -0.6606  0.0700 -0.4610
 3189SOL    HW121029   3.268   0.790   5.245 -0.9506 -0.2643  1.6713
 3189SOL    HW221030   3.161   0.849   5.334 -0.7698  0.6158 -0.5193
 3190SOL     OW21031   2.422   3.066   6.219  0.0807  0.3118  0.3124
 3190SOL    HW121032   2.480   3.087   6.146  1.6897 -1.5594  1.0489
 3190SOL    HW221033   2.482   3.052   6.292  1.5897  2.0844 -0.5917
 3191SOL     OW21034   3.045   1.428  11.741  0.0085  0.2731  0.1472
 3191SOL    HW121035   3.107   1.375  11.791  2.1677  2.8954  0.2559
 3191SOL    HW221036   3.096   1.481  11.680 -1.1185  2.6179  1.2444
 3192SOL     OW21037   4.112   1.045   7.105 -0.3262 -0.0994 -0.0832
 3192SOL    HW121038   4.065   1.127   7.088  1.0390  0.8990  0.8826
 3192SOL    HW221039   4.069   0.997   7.035  0.4561  0.0559 -0.6799
 3193SOL     OW21040   1.509   0.536   4.073 -0.1326  0.2027 -0.5366
 3193SOL    HW121041   1.462   0.467   4.120 -1.1154  0.5991 -0.9409
 3193SOL    HW221042   1.597   0.530   4.110 -1.7055 -1.5761  2.9097
 3194SOL     OW21043   3.842   1.103   2.921 -0.1919  0.3490  0.1898
 3194SOL    HW121044   3.816   1.151   3.000 -2.3752  2.0394 -1.5188
 3194SOL    HW221045   3.814   1.014   2.940  1.9421 -0.5302 -0.8775
 3195SOL     OW21046   0.355   0.735   4.104  0.1745 -0.0849 -0.5011
 3195SOL    HW121047   0.338   0.754   4.197  0.8883  3.5179 -1.0870
 3195SOL    HW221048   0.281   0.680   4.080  0.2979 -1.4655  2.2997
 3196SOL     OW21049   2.027   2.067   5.761  0.4977  0.0262 -0.2168
 3196SOL    HW121050   2.027   2.163   5.754 -1.4424  0.0111 -0.4888
 3196SOL    HW221051   1.974   2.055   5.840  1.0355 -0.6889  0.0331
 3197SOL     OW21052   1.276   3.728  17.131 -0.2103 -0.5005 -0.2893
 3197SOL    HW121053   1.327   3.720  17.050 -0.1466  0.0243 -0.2972
 3197SOL    HW221054   1.343   3.772  17.183 -0.1814 -0.8205 -0.0542
 3198SOL     OW21055   2.413   0.423   5.069  0.2845  0.0399 -0.0608
 3198SOL    HW121056   2.384   0.448   5.157 -0.8867 -0.7754 -0.2124
 3198SOL    HW221057   2.425   0.509   5.029 -4.8633  1.3779  1.3064
 3199SOL     OW21058   1.874   4.546   6.984 -0.0874  0.4168 -0.0506
 3199SOL    HW121059   1.792   4.577   6.944 -0.3611 -0.4923 -0.2063
 3199SOL    HW221060   1.851   4.523   7.074  1.5721  1.1343  0.5414
 3200SOL     OW21061   4.212   0.203   3.628  0.2676 -0.2500  0.0309
 3200SOL    HW121062   4.293   0.230   3.671 -0.5860 -0.9116  2.0719
 3200SOL    HW221063   4.199   0.273   3.563 -0.4653 -0.0407  0.4027
 3201SOL     OW21064   4.558   0.864   5.244 -0.0741 -0.2537 -0.3311
 3201SOL    HW121065   4.478   0.895   5.286  0.3210 -1.5043  1.3818
 3201SOL    HW221066   4.567   0.784   5.297 -2.1269 -1.1492 -1.3449
 3202SOL     OW21067   3.933   2.475   6.740  0.3191  0.0237  0.2896
 3202SOL    HW121068   3.965   2.558   6.775  0.4866 -0.2874  0.8682
 3202SOL    HW221069   3.847   2.498   6.705  1.2737  2.3608 -0.5258
 3203SOL     OW21070   2.690   0.791   7.081 -0.3543  0.5300 -0.1317
 3203SOL    HW121071   2.742   0.856   7.034 -0.3675  0.1730 -0.6506
 3203SOL    HW221072   2.746   0.750   7.147  1.1324  0.3585 -1.4848
 3204SOL     OW21073   4.430   0.419  10.433 -0.0140  0.4470  0.2244
 3204SOL    HW121074   4.508   0.364  10.435 -0.9177 -0.8288  0.3842
 3204SOL    HW221075   4.422   0.437  10.340  0.1109 -1.2518 -0.1239
 3205SOL     OW21076   3.945   0.033  17.009  0.2842 -0.5060 -0.1633
 3205SOL    HW121077   3.982   0.091  17.076  4.0899 -2.0307 -0.9475
 3205SOL    HW221078   3.888   4.706  17.069  0.8062 -1.7332 -0.6684
 3206SOL     OW21079   3.555   1.764   3.885 -0.1234  0.2843  0.3318
 3206SOL    HW121080   3.591   1.721   3.963  0.4502 -0.2754 -0.2318
 3206SOL    HW221081   3.469   1.722   3.882  0.9496 -1.9515  0.6897
 3207SOL     OW21082   3.964   3.820   5.911  0.7976  0.8200  0.3879
 3207SOL    HW121083   3.883   3.826   5.961  0.1382  2.2669 -0.8498
 3207SOL    HW221084   3.972   3.726   5.925  1.1107  0.4935 -2.0268
 3208SOL     OW21085   3.774   3.311   7.320  0.3015  0.1852  0.4984
 3208SOL    HW121086   3.847   3.254   7.297  1.3270  0.7227  2.4748
 3208SOL    HW221087   3.805   3.336   7.407  0.6449 -2.5222  1.1548
 3209SOL     OW21088   1.668   2.077  11.437 -0.1089 -0.6831  0.0539
 3209SOL    HW121089   1.741   2.019  11.412  0.9117 -0.4518  2.5130
 3209SOL    HW221090   1.654   2.057  11.530  1.6794  1.0644  0.6945
 3210SOL     OW21091   2.232   3.583   7.417  0.2689 -0.3710 -0.1263
 3210SOL    HW121092   2.316   3.546   7.390  0.1035 -1.1256  0.3912
 3210SOL    HW221093   2.227   3.548   7.506  0.0493  1.3563  0.5323
 3211SOL     OW21094   0.098   0.645   4.807 -0.2031  0.6067  0.2287
 3211SOL    HW121095   0.019   0.685   4.770 -0.4693  0.8573  1.0763
 3211SOL    HW221096   0.071   0.635   4.898  0.5000 -0.7960  0.2814
 3212SOL     OW21097   3.230   3.190   5.104 -0.0814 -0.2038  0.0043
 3212SOL    HW121098   3.255   3.206   5.013 -1.6873  1.7672 -0.0997
 3212SOL    HW221099   3.280   3.108   5.111 -1.0442 -0.7798  0.1240
 3213SOL     OW21100   4.066   1.394   6.975 -0.2233 -0.8814 -0.1678
 3213SOL    HW121101   4.098   1.365   6.889 -0.2917  1.4538 -0.9614
 3213SOL    HW221102   3.996   1.329   6.979  0.6957 -2.0137 -2.2682
 3214SOL     OW21103   1.863   2.132  15.798  0.0279  0.0243 -0.3784
 3214SOL    HW121104   1.843   2.088  15.881 -1.8874 -0.3712 -1.0386
 3214SOL    HW221105   1.850   2.059  15.736 -0.1675  0.8217 -1.2696
 3215SOL     OW21106   2.248   2.147   7.291  0.2459 -1.0485 -0.0919
 3215SOL    HW121107   2.173   2.101   7.252 -2.3718  1.4940  1.9332
 3215SOL    HW221108   2.310   2.128   7.221 -1.9666 -2.6437 -1.6345
 3216SOL     OW21109   2.440   1.393   6.306 -0.3098 -0.3097  0.2262
 3216SOL    HW121110   2.445   1.415   6.213  2.4054 -0.9943  0.2016
 3216SOL    HW221111   2.528   1.380   6.340  0.5354  0.8230 -1.5323
 3217SOL     OW21112   2.724   3.243  11.604 -0.6195  0.3354 -0.1849
 3217SOL    HW121113   2.632   3.263  11.617 -0.6703  0.5223 -0.8755
 3217SOL    HW221114   2.759   3.268  11.690 -0.5537  1.3080 -0.4963
 3218SOL     OW21115   0.955   4.227   3.892 -0.4763 -0.3967 -0.1655
 3218SOL    HW121116   1.019   4.192   3.954 -1.8476 -0.1102  1.3988
 3218SOL    HW221117   0.991   4.308   3.856 -0.9430  0.3616  1.0785
 3219SOL     OW21118   3.096   1.175   3.377 -0.2941  0.4732  0.3590
 3219SOL    HW121119   3.086   1.212   3.465  1.1597 -0.7134  1.0209
 3219SOL    HW221120   3.087   1.245   3.312 -0.5175  0.1637  0.0569
 3220SOL     OW21121   0.653   1.901   6.343  0.2906 -0.9974  0.3649
 3220SOL    HW121122   0.669   1.832   6.407 -0.3744 -1.6714 -0.2148
 3220SOL    HW221123   0.708   1.883   6.267  0.5828  2.0136 -0.1689
 3221SOL     OW21124   1.167   2.918   1.856  0.0715 -0.7676 -0.5651
 3221SOL    HW121125   1.254   2.956   1.858 -1.1892  2.1410 -0.4680
 3221SOL    HW221126   1.164   2.878   1.943  2.5110  0.8866  0.2539
 3222SOL     OW21127   3.223   0.596  15.041 -0.2767 -0.5421  0.1811
 3222SOL    HW121128   3.227   0.503  15.020  0.1040 -0.5486  0.2925
 3222SOL    HW221129   3.280   0.625  14.969 -2.4048  0.6199 -1.0434
 3223SOL     OW21130   4.158   2.069   1.448 -0.3033 -0.0473  0.0784
 3223SOL    HW121131   4.070   2.082   1.412  0.3614 -1.7181 -2.1208
 3223SOL    HW221132   4.202   2.135   1.394  0.5962 -1.5704 -1.0174
 3224SOL     OW21133   0.492   0.971  16.083  0.2121 -0.5337 -0.9002
 3224SOL    HW121134   0.568   0.914  16.099  1.6139  1.7695  0.6558
 3224SOL    HW221135   0.480   0.996  16.174 -1.6050  0.0775 -1.3235
 3225SOL     OW21136   2.439   4.394   7.111  0.1319  0.4970 -0.3520
 3225SOL    HW121137   2.483   4.334   7.171  0.3233  0.6599 -0.3313
 3225SOL    HW221138   2.431   4.333   7.038  0.1352 -1.9710  1.6981
 3226SOL     OW21139   0.994   2.662   6.938 -0.0755 -0.5899  0.6097
 3226SOL    HW121140   0.909   2.631   6.905  0.0965  0.1577 -0.5489
 3226SOL    HW221141   0.973   2.691   7.027 -0.6010 -0.7768  0.5502
 3227SOL     OW21142   3.016   3.177   6.356  0.2669  0.1826  0.2811
 3227SOL    HW121143   3.039   3.266   6.383 -1.1197  0.2638  1.1569
 3227SOL    HW221144   3.073   3.160   6.281  2.0107 -0.6436  1.8055
 3228SOL     OW21145   3.942   3.148   4.688  0.4220  0.0672  0.0047
 3228SOL    HW121146   4.024   3.194   4.672  0.1985  0.2459 -0.6257
 3228SOL    HW221147   3.880   3.192   4.629  1.3620 -0.1321 -1.1340
 3229SOL     OW21148   3.317   4.144   5.762 -0.0053 -0.7138  0.4318
 3229SOL    HW121149   3.382   4.138   5.693 -0.8016 -2.2650 -0.1747
 3229SOL    HW221150   3.368   4.159   5.842  1.7578  0.8747 -0.9884
 3230SOL     OW21151   3.602   0.527  14.844  0.4975  0.0286 -0.4367
 3230SOL    HW121152   3.619   0.561  14.932 -0.8439 -1.0852  0.2514
 3230SOL    HW221153   3.687   0.516  14.802 -0.2597  0.7325 -2.1483
 3231SOL     OW21154   1.071   0.628   8.945  0.2657 -0.5959 -0.0408
 3231SOL    HW121155   1.105   0.630   9.034  1.2130 -0.4472 -0.4038
 3231SOL    HW221156   1.017   0.550   8.956 -0.8448 -0.0877 -1.9176
 3232SOL     OW21157   2.379   0.560   5.310  0.0820 -0.3422  0.4979
 3232SOL    HW121158   2.293   0.565   5.351  0.7356  1.1353  1.6867
 3232SOL    HW221159   2.377   0.643   5.262  0.3418 -2.1978 -2.7795
 3233SOL     OW21160   3.551   4.611  12.846 -0.0633 -0.4447  0.3568
 3233SOL    HW121161   3.483   4.653  12.898  0.0812 -1.1219  1.0830
 3233SOL    HW221162   3.625   4.603  12.907 -0.5830  0.1337  1.0568
 3234SOL     OW21163   4.130   2.936   3.486 -0.2155 -0.5418  0.4444
 3234SOL    HW121164   4.220   2.913   3.508 -0.8370 -1.9914  1.4506
 3234SOL    HW221165   4.119   2.924   3.392  0.1413  0.6997  0.2321
 3235SOL     OW21166   0.183   1.981   6.513  0.4366 -0.0519 -0.2482
 3235SOL    HW121167   0.231   1.974   6.431  0.9781  4.6763 -0.2992
 3235SOL    HW221168   0.193   2.074   6.533  0.1523  0.1161 -0.8816
 3236SOL     OW21169   4.378   1.870   3.062 -0.1424  0.3297  0.1638
 3236SOL    HW121170   4.467   1.906   3.061  0.3920 -1.0073 -0.9697
 3236SOL    HW221171   4.333   1.949   3.092 -1.4327 -0.5703  0.5542
 3237SOL     OW21172   2.076   3.294   6.461 -0.1670  0.0653  0.3289
 3237SOL    HW121173   2.119   3.231   6.404 -1.2668  0.2210 -0.6974
 3237SOL    HW221174   1.987   3.263   6.444 -0.2120 -0.0138  0.7292
 3238SOL     OW21175   2.931   0.111   7.625  0.5857  0.1000  0.0506
 3238SOL    HW121176   2.869   0.149   7.687 -0.7247 -0.8294 -0.7023
 3238SOL    HW221177   3.009   0.142   7.672 -0.1319  3.5511 -1.0417
 3239SOL     OW21178   1.569   3.079   9.471  0.4275  0.4678 -0.0848
 3239SOL    HW121179   1.544   3.025   9.396  1.9870 -1.1292  0.5614
 3239SOL    HW221180   1.656   3.045   9.489 -0.2409 -2.3866 -2.1333
 3240SOL     OW21181   3.815   3.247   0.735 -0.0786 -0.0493  0.1275
 3240SOL    HW121182   3.874   3.178   0.704  0.1332 -0.2127  0.8988
 3240SOL    HW221183   3.777   3.283   0.655  0.2142 -2.4262 -1.0869
 3241SOL     OW21184   1.609   3.506   4.020 -0.5146  0.2357  0.1553
 3241SOL    HW121185   1.523   3.502   3.978 -0.6575 -0.9118  0.5383
 3241SOL    HW221186   1.604   3.482   4.112 -3.4478 -1.8559 -0.5528
 3242SOL     OW21187   1.851   3.284   5.200 -0.3280  0.1236 -0.1130
 3242SOL    HW121188   1.885   3.278   5.111  1.2460 -0.3114  0.5139
 3242SOL    HW221189   1.784   3.217   5.190 -0.6149  0.2789  0.7974
 3243SOL     OW21190   2.877   2.464   5.342  0.1524  0.7242 -0.1376
 3243SOL    HW121191   2.964   2.476   5.305  1.0586 -0.3887  1.6395
 3243SOL    HW221192   2.898   2.482   5.434 -1.1286 -0.2589  0.3502
 3244SOL     OW21193   4.490   0.412   7.764 -0.1497 -0.2960 -0.3395
 3244SOL    HW121194   4.399   0.439   7.757 -0.0689  0.3201  1.0968
 3244SOL    HW221195   4.489   0.322   7.731  0.0668 -0.9426  1.4270
 3245SOL     OW21196   3.295   0.041   0.619  0.2723  0.2321 -0.2300
 3245SOL    HW121197   3.288   4.673   0.587 -1.9670 -0.7493  3.0548
 3245SOL    HW221198   3.385   0.053   0.589  0.4735 -0.5787  0.0609
 3246SOL     OW21199   0.933   4.443   2.617 -0.4507  0.5070  0.3393
 3246SOL    HW121200   0.901   4.356   2.642  0.5230  0.5619  1.7655
 3246SOL    HW221201   1.024   4.422   2.597 -0.0156  3.1217 -0.4567
 3247SOL     OW21202   3.683   3.543   5.488 -0.1198  0.7297  0.0942
 3247SOL    HW121203   3.598   3.575   5.517  0.2179  1.3864  0.3507
 3247SOL    HW221204   3.681   3.578   5.399 -1.3443 -1.1562 -0.6209
 3248SOL     OW21205   4.223   0.742   1.337  0.0152  0.5071 -0.1181
 3248SOL    HW121206   4.205   0.834   1.322 -1.7220 -0.1468 -2.0534
 3248SOL    HW221207   4.220   0.702   1.250 -3.3451 -1.4777  0.9073
 3249SOL     OW21208   0.035   3.088   6.288  0.2505  0.4926  0.1626
 3249SOL    HW121209   4.712   3.016   6.332  1.8389 -0.3518  0.3723
 3249SOL    HW221210   0.126   3.058   6.281 -0.7264 -2.0212 -1.6802
 3250SOL     OW21211   2.042   3.318  15.535  0.4122 -0.7181  0.7035
 3250SOL    HW121212   2.094   3.397  15.518  0.2668 -1.6159 -3.7138
 3250SOL    HW221213   2.101   3.245  15.514 -0.7412 -1.6199  0.6192
 3251SOL     OW21214   2.154   0.041  13.637  0.0460 -0.3536  0.4169
 3251SOL    HW121215   2.211   4.702  13.685 -0.1856 -0.6223  0.3560
 3251SOL    HW221216   2.066   0.004  13.646 -1.0643  3.0982  3.5463
 3252SOL     OW21217   2.942   2.932   3.867 -0.1902  0.3397  0.3746
 3252SOL    HW121218   2.921   2.972   3.952  1.5352 -2.2193  1.9871
 3252SOL    HW221219   2.918   3.013   3.821 -3.1587 -0.4442  0.5734
 3253SOL     OW21220   4.231   1.431  16.048  0.1323  0.0882 -0.5824
 3253SOL    HW121221   4.296   1.464  16.111  0.4984 -2.6358  0.5043
 3253SOL    HW221222   4.191   1.363  16.103  0.8798  1.2142  1.3677
 3254SOL     OW21223   1.855   1.696   5.558  0.6809  0.0993  0.1964
 3254SOL    HW121224   1.791   1.640   5.602 -0.3165  1.6669  0.7407
 3254SOL    HW221225   1.935   1.650   5.581  0.1761 -0.3488  1.0497
 3255SOL     OW21226   1.960   1.859  16.701 -0.0616 -0.3952 -0.0366
 3255SOL    HW121227   1.986   1.833  16.613  1.1204  2.2687 -0.4948
 3255SOL    HW221228   1.946   1.953  16.690 -0.0318 -0.3189  0.5856
 3256SOL     OW21229   0.603   3.799   5.894 -0.1901 -0.3597  0.1837
 3256SOL    HW121230   0.697   3.783   5.885 -0.1800 -2.3329  3.6018
 3256SOL    HW221231   0.570   3.759   5.814  1.6634  0.8386 -1.1774
 3257SOL     OW21232   3.826   3.142   3.927 -0.3785  0.8519 -0.1947
 3257SOL    HW121233   3.769   3.109   3.857  1.0655 -2.2663  0.1258
 3257SOL    HW221234   3.881   3.065   3.935 -0.3645  0.6722 -1.9139
 3258SOL     OW21235   1.508   0.240   8.871  0.4926  0.1552 -0.0698
 3258SOL    HW121236   1.431   0.184   8.881 -0.9596  2.1551 -0.0709
 3258SOL    HW221237   1.572   0.179   8.833 -0.5055 -0.0188 -1.4688
 3259SOL     OW21238   2.419   1.993   4.156 -0.3001 -0.5862  0.5109
 3259SOL    HW121239   2.437   2.040   4.237 -2.6039  1.0263  0.0820
 3259SOL    HW221240   2.326   2.007   4.138 -0.0176 -0.2589 -0.6556
 3260SOL     OW21241   0.850   4.696   2.459  0.0649  0.1343 -0.3303
 3260SOL    HW121242   0.913   0.044   2.477  1.3334 -1.4106  1.2399
 3260SOL    HW221243   0.779   0.013   2.408 -0.8713  0.1978  0.9953
 3261SOL     OW21244   2.667   2.203   0.188 -0.0036 -0.1668 -0.3888
 3261SOL    HW121245   2.713   2.133   0.142 -0.8034 -0.5522 -0.6118
 3261SOL    HW221246   2.742   2.255   0.217 -0.9127  0.7478  0.3342
 3262SOL     OW21247   1.558   3.948   3.241  0.0221  0.8963  0.5167
 3262SOL    HW121248   1.543   4.032   3.198  1.9779  0.8572 -0.2532
 3262SOL    HW221249   1.507   3.953   3.322 -0.4306  2.3249  0.1358
 3263SOL     OW21250   3.381   2.594  13.156 -0.3697 -0.1152  0.9820
 3263SOL    HW121251   3.346   2.526  13.214 -2.5324  0.3622  0.2451
 3263SOL    HW221252   3.358   2.551  13.074  0.2322  2.4456 -0.5350
 3264SOL     OW21253   0.918   3.424   5.875 -0.4664 -0.0008  0.0816
 3264SOL    HW121254   0.963   3.454   5.954 -1.7317  0.7999  0.5143
 3264SOL    HW221255   0.945   3.482   5.804  1.8475 -2.7187 -1.2192
 3265SOL     OW21256   0.179   1.112   4.829  0.2036 -0.0553 -0.5427
 3265SOL    HW121257   0.214   1.157   4.906  0.7038 -1.5134  0.1003
 3265SOL    HW221258   0.232   1.161   4.767  1.3371  0.7736  1.0807
 3266SOL     OW21259   3.052   1.108   6.923 -0.4275 -0.6508  0.0267
 3266SOL    HW121260   3.014   1.174   6.981  1.0402 -0.5008  0.8207
 3266SOL    HW221261   3.145   1.122   6.940 -0.0095 -0.9158 -2.0086
 3267SOL     OW21262   3.049   4.217   4.190  0.8669  0.2301 -0.0176
 3267SOL    HW121263   3.029   4.308   4.215 -1.5951 -0.6456  1.2217
 3267SOL    HW221264   2.963   4.176   4.189  1.3323 -0.7564  0.6423
 3268SOL     OW21265   3.228   2.639   5.650  0.2463 -0.1803 -0.5911
 3268SOL    HW121266   3.318   2.670   5.643  0.8453 -2.3790 -2.4037
 3268SOL    HW221267   3.179   2.693   5.587  0.6112  0.4529 -0.3391
 3269SOL     OW21268   4.721   0.390   2.117  0.1371 -0.4268 -0.0226
 3269SOL    HW121269   4.634   0.374   2.080  1.0484 -1.4674 -1.7236
 3269SOL    HW221270   4.702   0.390   2.210 -0.0561  1.5552 -0.0528
 3270SOL     OW21271   0.567   4.030   3.054 -0.3293 -0.6549  0.3123
 3270SOL    HW121272   0.658   4.006   3.036 -0.5104 -0.7437 -0.4752
 3270SOL    HW221273   0.527   3.943   3.048  0.4522 -0.9823 -0.1705
 3271SOL     OW21274   1.446   1.473   6.551  0.2620  0.3324 -0.1929
 3271SOL    HW121275   1.408   1.493   6.637  0.4575 -0.1325  0.0039
 3271SOL    HW221276   1.372   1.422   6.518  0.1111  1.3865 -1.4826
 3272SOL     OW21277   0.830   3.929   3.074  0.6951 -0.0045 -0.1518
 3272SOL    HW121278   0.893   3.864   3.044  2.4727  1.1041  1.1751
 3272SOL    HW221279   0.838   3.935   3.169  1.6998 -0.1765 -0.2276
 3273SOL     OW21280   4.664   4.493  16.122 -0.4267 -0.4552  0.3267
 3273SOL    HW121281   4.573   4.475  16.142 -0.5113 -0.1817  0.1855
 3273SOL    HW221282   4.677   4.454  16.035 -0.9028  1.8867 -0.8065
 3274SOL     OW21283   0.740   0.531  14.002 -0.0937 -0.3078  0.8939
 3274SOL    HW121284   0.829   0.506  14.025 -0.2751 -2.2839 -0.4846
 3274SOL    HW221285   0.729   0.622  14.028  1.6682  0.0713  0.2565
 3275SOL     OW21286   0.710   0.028   7.292 -0.1548  0.1709 -0.3854
 3275SOL    HW121287   0.653   4.698   7.349  1.4391 -0.7369  0.3924
 3275SOL    HW221288   0.671   4.719   7.210  1.5436 -2.7138 -0.1105
 3276SOL     OW21289   0.746   3.934   4.347  0.1712 -0.1594  0.4216
 3276SOL    HW121290   0.677   3.897   4.292 -1.5051  1.0925  1.7014
 3276SOL    HW221291   0.778   4.001   4.286 -1.8097  0.0688 -0.3414
 3277SOL     OW21292   4.630   3.907   6.367 -0.0592  0.0685 -0.3143
 3277SOL    HW121293   4.682   3.905   6.447 -0.7487  2.5689  0.1753
 3277SOL    HW221294   4.613   3.814   6.351  0.4270  0.1317 -1.2377
 3278SOL     OW21295   0.245   1.371   2.313  0.0151 -0.1800  0.2119
 3278SOL    HW121296   0.159   1.330   2.316 -0.8868  1.5713 -0.9260
 3278SOL    HW221297   0.288   1.351   2.229 -0.5157 -1.7468  0.3207
 3279SOL     OW21298   2.791   1.266   3.614  0.3647 -0.3154 -0.2314
 3279SOL    HW121299   2.800   1.321   3.537  3.1494 -0.8118 -0.2477
 3279SOL    HW221300   2.756   1.185   3.577  0.6011 -0.1034 -0.9055
 3280SOL     OW21301   0.933   1.341   3.038 -0.3726  0.3554  0.1349
 3280SOL    HW121302   0.866   1.354   2.970  0.5074  2.4140 -0.3166
 3280SOL    HW221303   0.877   1.355   3.114  0.4279  1.8012  0.4510
 3281SOL     OW21304   1.813   1.890  17.045  0.3286 -0.0421 -0.8401
 3281SOL    HW121305   1.767   1.919  16.966 -1.7600  0.8707  0.7234
 3281SOL    HW221306   1.750   1.834  17.090  2.7304  0.1794  2.7647
 3282SOL     OW21307   3.456   3.880  13.040 -0.0444  0.1912  0.2556
 3282SOL    HW121308   3.484   3.836  13.120  1.9258 -1.1077 -1.1676
 3282SOL    HW221309   3.439   3.796  12.999  2.3167 -0.3876  0.4908
 3283SOL     OW21310   2.784   4.144   8.468  0.1745  0.1305 -0.4368
 3283SOL    HW121311   2.720   4.086   8.508 -1.3367  0.6873 -2.0558
 3283SOL    HW221312   2.748   4.151   8.380 -0.4059 -0.1078 -0.2206
 3284SOL     OW21313   4.587   1.766   7.282 -0.3357 -0.7411 -0.0482
 3284SOL    HW121314   4.535   1.795   7.357  0.2369  1.4296 -0.5012
 3284SOL    HW221315   4.661   1.721   7.323 -1.0093 -0.9499  0.9254
 3285SOL     OW21316   3.508   4.523   3.983 -0.3552  0.2461 -0.0075
 3285SOL    HW121317   3.440   4.589   3.973  0.7715  1.6171  1.3301
 3285SOL    HW221318   3.512   4.490   3.894 -0.3943  1.4825 -0.4750
 3286SOL     OW21319   1.015   1.915   2.692 -0.2183  0.3059 -0.6269
 3286SOL    HW121320   1.002   1.874   2.606  0.8333  1.5380 -1.3770
 3286SOL    HW221321   0.931   1.953   2.719  0.0538 -0.4672  1.3084
 3287SOL     OW21322   3.064   1.365   1.930 -0.5515 -0.5061 -0.5200
 3287SOL    HW121323   3.154   1.339   1.951 -0.8199  0.3773  1.7675
 3287SOL    HW221324   3.083   1.407   1.845  0.7934 -1.7282 -0.8241
 3288SOL     OW21325   1.416   4.551   6.225 -0.2074 -0.1374  0.6468
 3288SOL    HW121326   1.491   4.513   6.270  1.1379 -0.4911 -1.8852
 3288SOL    HW221327   1.386   4.475   6.176 -1.0338  0.7398 -0.2127
 3289SOL     OW21328   0.574   0.569   1.672  0.3428  0.2225 -0.5795
 3289SOL    HW121329   0.610   0.620   1.744  1.6411 -1.2497 -0.1658
 3289SOL    HW221330   0.559   0.639   1.609  0.4345  2.8238  2.3025
 3290SOL     OW21331   3.557   4.119  12.265  0.2521  0.3067 -0.4873
 3290SOL    HW121332   3.587   4.074  12.186 -0.4841 -0.1590 -0.5085
 3290SOL    HW221333   3.471   4.153  12.237 -0.0440  1.4537  1.7945
 3291SOL     OW21334   3.118   1.705   7.836  0.9378 -0.1702  0.2550
 3291SOL    HW121335   3.108   1.727   7.744 -2.7070  2.0283  1.2083
 3291SOL    HW221336   3.184   1.770   7.861  0.6687  1.2131 -2.6494
 3292SOL     OW21337   1.013   3.182   5.547  0.3161  0.1119  0.4730
 3292SOL    HW121338   1.021   3.107   5.488  0.1893 -0.2683  0.9374
 3292SOL    HW221339   0.919   3.187   5.565  0.4922 -2.5051  2.1802
 3293SOL     OW21340   0.546   0.526   3.255  0.2301  0.3144 -0.1115
 3293SOL    HW121341   0.472   0.512   3.314  2.5858 -1.9756  2.2545
 3293SOL    HW221342   0.584   0.441   3.233 -1.2158 -0.6742  1.2222
 3294SOL     OW21343   3.448   4.374   8.702 -0.1631 -0.5579  0.2202
 3294SOL    HW121344   3.541   4.393   8.690  0.3242 -2.6631  0.5987
 3294SOL    HW221345   3.431   4.420   8.784  2.7073  1.9021 -0.5403
 3295SOL     OW21346   1.013   3.439   5.443  0.0957  0.3385  0.0341
 3295SOL    HW121347   0.994   3.360   5.493  1.0085 -0.0024 -0.1586
 3295SOL    HW221348   0.929   3.481   5.425  1.1742  2.7698  0.6060
 3296SOL     OW21349   3.854   0.473  14.715 -0.2025 -0.5299 -0.5434
 3296SOL    HW121350   3.913   0.448  14.786 -0.1946  0.8205 -0.0649
 3296SOL    HW221351   3.914   0.451  14.645  0.0207  2.0654 -1.1479
 3297SOL     OW21352   1.205   0.213   4.824  0.2828  0.1487 -0.7859
 3297SOL    HW121353   1.269   0.147   4.851  0.3443  0.5648  0.0779
 3297SOL    HW221354   1.139   0.220   4.892  0.0858  3.4443 -1.3394
 3298SOL     OW21355   3.715   0.374   6.783  0.4668 -0.1595 -0.0468
 3298SOL    HW121356   3.763   0.353   6.703  0.8646 -0.4045  0.2554
 3298SOL    HW221357   3.626   0.378   6.748  0.9406 -1.3270 -1.3537
 3299SOL     OW21358   2.968   3.935   7.542 -0.6800  0.1465 -0.0274
 3299SOL    HW121359   3.024   3.863   7.510 -3.0058 -0.0744 -3.5692
 3299SOL    HW221360   2.885   3.915   7.499 -0.2925 -0.5402 -0.4769
 3300SOL     OW21361   0.360   1.414  17.375  0.0247  0.1833 -0.1402
 3300SOL    HW121362   0.420   1.486  17.355  0.4107 -0.0439  0.1740
 3300SOL    HW221363   0.415   1.349  17.420 -0.7636 -0.8647 -0.6957
 3301SOL     OW21364   1.439   3.674   3.744  0.2125 -0.1274 -0.4102
 3301SOL    HW121365   1.370   3.727   3.705  0.2653  0.2616  0.0249
 3301SOL    HW221366   1.421   3.588   3.708  0.8640 -0.3255 -0.2646
 3302SOL     OW21367   3.060   0.083   0.467  0.2429  0.3556  0.0555
 3302SOL    HW121368   3.082   0.071   0.559  0.0450 -0.6804 -0.0314
 3302SOL    HW221369   3.114   0.159   0.445 -1.1754  0.3015 -3.5216
 3303SOL     OW21370   3.230   1.807   3.008 -0.1469  0.1264 -0.2987
 3303SOL    HW121371   3.209   1.898   3.029  0.7458 -0.0338  1.3001
 3303SOL    HW221372   3.232   1.802   2.913  2.9916  0.4144 -0.2307
 3304SOL     OW21373   3.660   3.275   8.672 -0.3400 -0.0443 -0.2021
 3304SOL    HW121374   3.576   3.317   8.653  1.7208  2.8893 -2.8099
 3304SOL    HW221375   3.630   3.184   8.665 -0.1334 -0.3064  2.3986
 3305SOL     OW21376   1.453   1.990  15.535  0.5795  0.1695  0.0815
 3305SOL    HW121377   1.404   1.920  15.580 -0.3517 -0.2386 -1.5863
 3305SOL    HW221378   1.387   2.034  15.482 -1.6885 -1.2126  1.7383
 3306SOL     OW21379   4.396   0.453   6.105 -0.2432 -0.0218 -0.1572
 3306SOL    HW121380   4.308   0.448   6.144 -0.9317 -3.1013 -2.1072
 3306SOL    HW221381   4.420   0.363   6.128 -0.6953  0.1249  0.8817
 3307SOL     OW21382   3.880   0.939  10.583 -0.5653 -0.0296  0.3806
 3307SOL    HW121383   3.784   0.933  10.575 -0.1978 -0.8263 -3.5910
 3307SOL    HW221384   3.897   0.848  10.558 -0.6956 -0.3050  1.2883
 3308SOL     OW21385   0.345   3.978   7.477 -0.3817  0.2183  0.1415
 3308SOL    HW121386   0.340   4.050   7.540 -0.7367  0.3650 -0.0597
 3308SOL    HW221387   0.440   3.973   7.464 -0.3941  0.5017 -0.0478
 3309SOL     OW21388   3.833   2.151  16.588 -0.1578 -0.2145  0.8243
 3309SOL    HW121389   3.802   2.166  16.499 -0.3054 -1.3114  0.6882
 3309SOL    HW221390   3.790   2.069  16.612 -2.3227  1.1168  1.4868
 3310SOL     OW21391   0.069   4.355   0.345 -0.8795  0.3337 -0.4918
 3310SOL    HW121392   0.100   4.446   0.349  1.1791 -0.3101 -2.0485
 3310SOL    HW221393   0.136   4.305   0.299  0.5809  1.1009  0.8212
 3311SOL     OW21394   0.206   1.186  13.730  0.1726  0.4787  0.1496
 3311SOL    HW121395   0.174   1.164  13.643  1.3661 -2.8472  0.5439
 3311SOL    HW221396   0.124   1.186  13.779  0.6176 -1.5762  0.8929
 3312SOL     OW21397   4.125   2.009   2.555  0.1184 -0.5801 -0.5432
 3312SOL    HW121398   4.178   1.986   2.478  1.0173  1.9260 -0.6825
 3312SOL    HW221399   4.038   1.981   2.526 -0.4658 -1.8402  2.4276
 3313SOL     OW21400   2.701   3.805   6.630 -0.6155 -0.1936  0.3276
 3313SOL    HW121401   2.619   3.773   6.591  0.7922 -0.6464 -2.2609
 3313SOL    HW221402   2.676   3.895   6.649  1.1046 -0.0269  1.7849
 3314SOL     OW21403   1.206   3.801   6.148 -0.1696  0.0176  0.0614
 3314SOL    HW121404   1.144   3.753   6.204  0.7660  0.1392  1.2076
 3314SOL    HW221405   1.270   3.730   6.140  1.4782  1.6216 -0.8757
 3315SOL     OW21406   4.067   0.253  14.775 -0.5442 -0.3353  0.0327
 3315SOL    HW121407   4.026   0.316  14.834  2.5545  0.6978  1.0380
 3315SOL    HW221408   4.018   0.172  14.791  0.0179 -1.1580 -2.3439
 3316SOL     OW21409   2.162   1.180  14.971  0.0261 -0.0625  0.6108
 3316SOL    HW121410   2.219   1.103  14.976  0.5070  0.5285  4.7645
 3316SOL    HW221411   2.104   1.151  14.900  1.7341 -2.4600  0.2023
 3317SOL     OW21412   3.302   3.528  16.630 -0.9149 -0.3913 -0.1746
 3317SOL    HW121413   3.389   3.549  16.596  0.7790 -2.6052  2.7558
 3317SOL    HW221414   3.269   3.476  16.557 -0.1938 -1.8989  0.5773
 3318SOL     OW21415   2.899   0.081   2.104 -0.0137  0.0360  0.2314
 3318SOL    HW121416   2.917   0.155   2.163 -1.9438  0.4669  0.2664
 3318SOL    HW221417   2.970   0.078   2.040 -1.4019  1.3748 -1.3564
 3319SOL     OW21418   3.587   3.307  14.775  0.8904  0.0441 -0.0237
 3319SOL    HW121419   3.509   3.259  14.804  1.3434 -0.3526  0.5481
 3319SOL    HW221420   3.646   3.236  14.751  0.5277 -0.7241  1.3657
 3320SOL     OW21421   0.419   1.823   7.696  0.5663  0.4818  0.5688
 3320SOL    HW121422   0.393   1.811   7.788 -3.0825 -0.7528 -0.6483
 3320SOL    HW221423   0.414   1.731   7.669 -2.9026 -0.1229  3.3005
 3321SOL     OW21424   3.021   1.556  16.236  0.0703 -0.0073 -0.1663
 3321SOL    HW121425   3.063   1.627  16.187  0.0814  0.3425  0.3498
 3321SOL    HW221426   3.074   1.483  16.204  1.7681  1.5913 -1.0181
 3322SOL     OW21427   0.457   3.625   4.993  0.7187 -0.3355 -0.1160
 3322SOL    HW121428   0.449   3.703   4.939 -0.7682  0.5235  1.3611
 3322SOL    HW221429   0.371   3.590   4.973  0.0580  0.9276  0.5180
 3323SOL     OW21430   2.278   1.293  15.547 -0.8168 -0.5058 -0.3424
 3323SOL    HW121431   2.275   1.310  15.453  0.3828  2.4996  0.1725
 3323SOL    HW221432   2.326   1.210  15.544  1.1886  0.7111 -1.7187
 3324SOL     OW21433   0.335   0.469  14.044  0.1974 -0.0231  0.5265
 3324SOL    HW121434   0.348   0.439  14.134  1.4280 -2.8958 -0.6112
 3324SOL    HW221435   0.386   0.549  14.050  0.0216  0.0360  1.2118
 3325SOL     OW21436   1.185   3.749   1.314 -0.1108  0.9362  0.2036
 3325SOL    HW121437   1.274   3.769   1.340 -0.2307  0.7787  0.7443
 3325SOL    HW221438   1.128   3.763   1.390  1.5817  1.6610  1.3157
 3326SOL     OW21439   2.593   4.525   4.608  0.0338 -0.4963 -0.4239
 3326SOL    HW121440   2.525   4.469   4.572  0.8523 -1.7903  0.0281
 3326SOL    HW221441   2.669   4.491   4.560 -0.2558 -2.1730  0.3016
 3327SOL     OW21442   0.374   0.446   4.236  0.3509  0.0629 -0.7137
 3327SOL    HW121443   0.314   0.468   4.165 -1.3505 -0.2032  0.6458
 3327SOL    HW221444   0.363   0.526   4.288 -1.0564 -0.2418 -0.5270
 3328SOL     OW21445   0.499   4.093   0.560 -0.3340 -0.7726 -0.2849
 3328SOL    HW121446   0.574   4.133   0.602 -0.2070 -0.6583 -0.6198
 3328SOL    HW221447   0.486   4.027   0.628  1.1130  0.2049  0.9197
 3329SOL     OW21448   4.308   3.510  15.472  0.1258  0.0264  0.5340
 3329SOL    HW121449   4.379   3.546  15.525 -0.3012  2.0249 -0.2435
 3329SOL    HW221450   4.322   3.564  15.394  1.1778 -0.9243  0.0613
 3330SOL     OW21451   2.091   0.358   4.619 -0.6649 -0.3614  0.2175
 3330SOL    HW121452   2.149   0.376   4.693 -0.3077 -1.6269  0.2465
 3330SOL    HW221453   2.154   0.312   4.565  0.2916  1.5102 -0.2432
 3331SOL     OW21454   0.431   3.801   3.031  0.0873  0.5131  0.1562
 3331SOL    HW121455   0.397   3.716   3.001 -0.0363  0.6922 -0.2222
 3331SOL    HW221456   0.348   3.850   3.033  1.8961  3.5753 -0.2983
 3332SOL     OW21457   2.055   0.795   5.496  0.3812  0.3177 -0.1995
 3332SOL    HW121458   2.046   0.865   5.432 -0.7483  2.3568  2.2079
 3332SOL    HW221459   1.965   0.795   5.527  0.5268  0.5298  0.2221
 3333SOL     OW21460   2.354   3.651   3.948 -0.6350  0.0521 -0.4471
 3333SOL    HW121461   2.337   3.641   3.854 -2.1563 -1.9172  0.0409
 3333SOL    HW221462   2.309   3.574   3.983  0.7449 -0.1988  0.7639
 3334SOL     OW21463   3.687   3.731   4.618  0.5579  0.5556  0.3017
 3334SOL    HW121464   3.620   3.778   4.668  1.5122 -0.2787  2.3377
 3334SOL    HW221465   3.631   3.677   4.563  1.3485 -2.0404  2.0688
 3335SOL     OW21466   2.214   3.979   7.928  0.4211 -0.0012 -0.0153
 3335SOL    HW121467   2.132   3.930   7.930  0.8613 -0.7746 -1.2758
 3335SOL    HW221468   2.186   4.067   7.952 -0.9512 -0.4373  0.0042
 3336SOL     OW21469   2.453   0.101  13.879 -0.0571  0.4519  0.4577
 3336SOL    HW121470   2.382   0.137  13.933 -0.1933  0.7684  0.0691
 3336SOL    HW221471   2.397   0.029  13.851 -0.9220  1.3376 -0.1233
 3337SOL     OW21472   1.780   2.528  16.504 -0.8625  0.0398 -0.0236
 3337SOL    HW121473   1.738   2.502  16.585 -1.1295 -1.0075 -0.4991
 3337SOL    HW221474   1.735   2.611  16.488  2.3673  1.5390 -1.3983
 3338SOL     OW21475   1.817   3.813   7.770  0.0861  0.7183  0.3948
 3338SOL    HW121476   1.807   3.719   7.759  1.1488  0.9722 -2.9760
 3338SOL    HW221477   1.880   3.811   7.842 -0.8618 -0.6681  1.1758
 3339SOL     OW21478   2.290   2.775   7.088  0.5497  0.3112 -0.0899
 3339SOL    HW121479   2.333   2.714   7.149 -0.1883  0.8484  0.9691
 3339SOL    HW221480   2.306   2.731   7.005 -2.2674 -1.1556  0.1370
 3340SOL     OW21481   3.146   4.392  13.928 -0.5415 -0.1817  0.9133
 3340SOL    HW121482   3.188   4.329  13.870 -1.9926 -1.1993  0.9572
 3340SOL    HW221483   3.194   4.471  13.903  0.0996 -1.6356 -2.3596
 3341SOL     OW21484   3.554   2.298   5.971 -0.1740 -0.4161  0.2384
 3341SOL    HW121485   3.477   2.348   5.944 -0.2483 -1.6270 -1.7910
 3341SOL    HW221486   3.595   2.288   5.885  2.7001  0.1995  1.5187
 3342SOL     OW21487   2.249   1.122   8.441  0.1777  0.1285 -0.0833
 3342SOL    HW121488   2.199   1.119   8.523  1.0690 -0.3625  0.4343
 3342SOL    HW221489   2.325   1.178   8.454  0.4079  0.3371 -2.4088
 3343SOL     OW21490   1.147   4.698   8.302  0.3067  0.1453 -0.2324
 3343SOL    HW121491   1.128   0.017   8.218 -0.2353 -1.1513 -0.7465
 3343SOL    HW221492   1.064   4.662   8.335  1.0038  1.1646  2.5581
 3344SOL     OW21493   3.086   4.572   8.478 -0.5394 -0.0782  0.5911
 3344SOL    HW121494   3.077   4.527   8.562  0.1188  0.7660  1.1268
 3344SOL    HW221495   3.047   4.659   8.491 -0.0481  0.0754  1.0412
 3345SOL     OW21496   1.776   3.303   7.323  0.4307  0.4968  0.3501
 3345SOL    HW121497   1.812   3.236   7.264 -2.5011 -1.1090  0.3844
 3345SOL    HW221498   1.834   3.379   7.326  0.5412  0.4448 -0.6586
 3346SOL     OW21499   1.941   4.287   2.470  0.1535 -0.0695 -0.8278
 3346SOL    HW121500   1.956   4.199   2.505 -0.9745  0.7994  1.9032
 3346SOL    HW221501   1.847   4.290   2.485  0.1714  1.5755 -1.0571
 3347SOL     OW21502   4.181   1.016   1.285 -0.7864  0.3179 -0.0177
 3347SOL    HW121503   4.194   1.037   1.192  1.7459  3.6497  1.0716
 3347SOL    HW221504   4.125   1.086   1.318 -0.3203  1.4885 -1.7417
 3348SOL     OW21505   3.998   3.544   7.670 -0.0364  0.9186 -0.3297
 3348SOL    HW121506   3.953   3.627   7.657  0.5114  1.2562 -0.0935
 3348SOL    HW221507   4.057   3.556   7.596 -3.5685 -2.1207 -3.5848
 3349SOL     OW21508   0.965   2.491   6.540  0.7166 -0.0024  0.3137
 3349SOL    HW121509   0.882   2.507   6.496  0.8397  0.8506  0.3989
 3349SOL    HW221510   0.933   2.472   6.628 -0.2154 -1.0725 -0.2531
 3350SOL     OW21511   2.434   3.266   3.347 -0.3467 -0.3107  0.4436
 3350SOL    HW121512   2.410   3.244   3.438 -0.3117  1.4082  0.8591
 3350SOL    HW221513   2.432   3.176   3.314  0.6947  0.0569 -0.5901
 3351SOL     OW21514   1.723   3.123   2.240 -0.1055  0.2688  0.0455
 3351SOL    HW121515   1.761   3.086   2.320 -0.4784  2.8387  1.4169
 3351SOL    HW221516   1.788   3.094   2.176  0.2911  1.2026  0.0260
 3352SOL     OW21517   1.207   1.077   4.322  0.3898 -0.0513  0.0671
 3352SOL    HW121518   1.280   1.078   4.261  1.9837  0.7697  1.9818
 3352SOL    HW221519   1.147   1.031   4.262  1.3477  0.0888 -0.9849
 3353SOL     OW21520   1.005   4.317  13.372 -0.1748  0.5769  0.3443
 3353SOL    HW121521   0.974   4.229  13.353 -0.0445  0.5626  0.2016
 3353SOL    HW221522   1.090   4.322  13.328 -0.0367 -1.7428  0.3551
 3354SOL     OW21523   2.380   2.462   5.563 -0.1682 -0.6463  0.2370
 3354SOL    HW121524   2.380   2.558   5.563 -1.2130 -0.6437  0.2575
 3354SOL    HW221525   2.418   2.449   5.650 -0.2536 -1.6029  0.1290
 3355SOL     OW21526   1.116   0.014   6.500  0.1345 -0.1443 -0.5484
 3355SOL    HW121527   1.074   0.030   6.416  1.8328  0.6376 -1.2558
 3355SOL    HW221528   1.209   0.009   6.476  0.6937 -3.3797  2.2213
 3356SOL     OW21529   2.049   0.154   8.702 -0.1442  0.4099 -0.5746
 3356SOL    HW121530   2.048   0.138   8.796 -1.4148 -0.0058 -0.6580
 3356SOL    HW221531   2.119   0.093   8.679  0.9382  1.8153 -1.0314
 3357SOL     OW21532   3.899   3.047   7.520 -0.3542  0.0160  0.4400
 3357SOL    HW121533   3.852   3.128   7.542 -0.7034  0.3703 -1.6084
 3357SOL    HW221534   3.823   2.992   7.499  0.1279 -0.7229  0.6361
 3358SOL     OW21535   0.315   2.428   1.121 -0.0781  0.1816  0.6583
 3358SOL    HW121536   0.233   2.465   1.090 -1.3709 -0.8795  2.7818
 3358SOL    HW221537   0.367   2.430   1.041 -0.2094  0.4773  0.5781
 3359SOL     OW21538   0.660   1.451   7.392  0.2276  0.3819 -0.3864
 3359SOL    HW121539   0.724   1.515   7.424  1.4746 -0.8319 -0.4826
 3359SOL    HW221540   0.648   1.496   7.308 -0.3126 -0.5994 -0.8368
 3360SOL     OW21541   3.465   0.679   6.125 -0.0724  0.5317 -0.5415
 3360SOL    HW121542   3.421   0.629   6.194 -1.5323  0.5423 -1.4611
 3360SOL    HW221543   3.467   0.614   6.054  2.6060 -1.4822  1.3705
 3361SOL     OW21544   0.142   2.084  14.811 -0.0226  0.3196 -0.1149
 3361SOL    HW121545   0.145   2.169  14.767 -0.5485  0.0400 -0.6830
 3361SOL    HW221546   0.209   2.095  14.879 -0.3640  0.4496  0.2008
 3362SOL     OW21547   3.013   4.190   3.014  0.4149  0.4674 -0.5636
 3362SOL    HW121548   2.935   4.154   3.057  1.0057 -0.9743 -0.7182
 3362SOL    HW221549   3.078   4.146   3.068  0.4379  2.2445  0.8502
 3363SOL     OW21550   3.670   2.677   1.787 -0.2676 -0.1363  0.2271
 3363SOL    HW121551   3.707   2.593   1.761  1.3673  0.8447 -0.6551
 3363SOL    HW221552   3.613   2.653   1.859 -1.1719  0.1979 -0.3740
 3364SOL     OW21553   0.552   1.238  17.510 -0.2612 -0.6373  0.2307
 3364SOL    HW121554   0.643   1.267  17.497  0.0075 -2.1405 -1.1953
 3364SOL    HW221555   0.552   1.158  17.459 -0.4809 -0.7620  0.4285
 3365SOL     OW21556   2.089   4.589   4.738 -0.0036 -0.3999 -0.2998
 3365SOL    HW121557   2.116   4.558   4.824  1.0100 -0.8215 -0.7751
 3365SOL    HW221558   2.084   4.684   4.752 -0.1241 -0.5031  0.3584
 3366SOL     OW21559   3.038   2.925   1.360  0.1802 -0.4174  0.3922
 3366SOL    HW121560   3.095   2.893   1.429  2.0588  3.1751  0.4846
 3366SOL    HW221561   3.107   2.963   1.305  0.6111 -1.8449 -0.0547
 3367SOL     OW21562   1.196   4.353   6.469 -0.1451 -0.2336  0.0649
 3367SOL    HW121563   1.124   4.413   6.488  0.2085  0.2866 -0.2275
 3367SOL    HW221564   1.179   4.340   6.376  0.2478  1.4900 -0.2473
 3368SOL     OW21565   0.600   3.753  11.140 -0.3924 -0.0380 -0.6483
 3368SOL    HW121566   0.670   3.813  11.166 -1.1210  0.6078 -0.1818
 3368SOL    HW221567   0.655   3.675  11.132  0.5040  0.6820 -1.6540
 3369SOL     OW21568   2.309   2.923  12.700 -0.4891 -0.0317 -0.3193
 3369SOL    HW121569   2.367   2.940  12.774 -1.5177  3.0400 -0.2194
 3369SOL    HW221570   2.310   2.827  12.701 -2.5403 -0.0727 -1.2125
 3370SOL     OW21571   4.246   2.578   5.062  0.3465  0.8344 -0.1214
 3370SOL    HW121572   4.277   2.537   4.982  0.1044  0.2589  0.0775
 3370SOL    HW221573   4.150   2.575   5.063  0.3597  0.6875  2.8913
 3371SOL     OW21574   4.701   2.243   9.449 -0.4945  0.1935  0.1768
 3371SOL    HW121575   4.653   2.325   9.437  0.8757  0.7540 -1.4665
 3371SOL    HW221576   4.713   2.244   9.544  3.2022  1.7587 -0.3073
 3372SOL     OW21577   4.374   2.936   4.433  0.0282  0.3608 -0.2918
 3372SOL    HW121578   4.373   2.965   4.342 -1.1915  0.6826 -0.1749
 3372SOL    HW221579   4.283   2.910   4.450  0.7284  0.4333  3.6071
 3373SOL     OW21580   2.297   1.066   2.675  0.0900 -0.4205 -0.0890
 3373SOL    HW121581   2.246   1.060   2.595 -0.6462 -3.9299  0.6430
 3373SOL    HW221582   2.320   1.159   2.681  0.8709 -0.5534 -0.9561
 3374SOL     OW21583   2.667   0.320   1.793  0.7465  0.0736 -0.4209
 3374SOL    HW121584   2.738   0.260   1.772 -0.0987 -1.0588 -0.0470
 3374SOL    HW221585   2.629   0.284   1.873  1.2655  0.7696  0.1406
 3375SOL     OW21586   1.852   2.647  17.098 -0.0073 -0.3970 -0.8438
 3375SOL    HW121587   1.800   2.620  17.023 -0.0788  0.2014 -1.0139
 3375SOL    HW221588   1.855   2.741  17.082  0.1456 -0.4487 -1.1121
 3376SOL     OW21589   1.739   1.719   4.337 -0.0714 -0.3462 -0.5119
 3376SOL    HW121590   1.793   1.752   4.409 -2.0541  5.0271 -1.4457
 3376SOL    HW221591   1.649   1.747   4.355  0.0378 -0.5539  0.3565
 3377SOL     OW21592   4.007   4.358   0.519 -0.3784 -0.1144  0.3204
 3377SOL    HW121593   3.943   4.418   0.558 -0.9539  0.2287 -1.1066
 3377SOL    HW221594   3.960   4.308   0.452  0.1708  0.8510 -0.7828
 3378SOL     OW21595   2.011   2.241  13.016 -0.0263  0.0983 -1.4542
 3378SOL    HW121596   1.968   2.302  13.076  1.8747  0.1652 -0.1464
 3378SOL    HW221597   1.958   2.251  12.937 -1.3079 -0.2852 -0.6469
 3379SOL     OW21598   4.084   2.052   3.053  0.0445  0.2888  0.6410
 3379SOL    HW121599   4.100   2.087   2.965 -0.7389  0.8659  0.7190
 3379SOL    HW221600   4.158   2.089   3.101  2.4743 -2.6890 -0.8420
 3380SOL     OW21601   2.926   2.837   2.086 -0.2305  0.1039 -0.2554
 3380SOL    HW121602   2.989   2.863   2.019 -0.8770 -0.4933 -1.0939
 3380SOL    HW221603   2.947   2.744   2.091 -1.1186 -0.0999 -0.3467
 3381SOL     OW21604   4.689   4.612   1.354 -0.1048 -0.0350 -0.5276
 3381SOL    HW121605   4.659   4.544   1.293  0.7220 -2.7600  2.0705
 3381SOL    HW221606   4.612   4.668   1.351 -1.3109 -1.6208  0.5764
 3382SOL     OW21607   3.344   4.323   4.686 -0.2181 -0.2691  0.4655
 3382SOL    HW121608   3.423   4.298   4.733  1.3995 -0.4263 -2.3353
 3382SOL    HW221609   3.335   4.247   4.628 -0.3398  0.0351  0.0856
 3383SOL     OW21610   4.273   3.319   1.453  0.2930  0.0955 -0.4516
 3383SOL    HW121611   4.350   3.366   1.485 -0.9428  1.9957 -0.2668
 3383SOL    HW221612   4.277   3.343   1.361  1.1509  0.5059 -0.3074
 3384SOL     OW21613   3.520   3.348  16.430  0.3078 -0.4532 -0.2371
 3384SOL    HW121614   3.589   3.414  16.433 -0.2483 -0.0049  2.2564
 3384SOL    HW221615   3.540   3.301  16.511 -1.4947 -0.9850 -0.1113
 3385SOL     OW21616   0.971   2.486   2.037  0.1351 -0.3334  0.1218
 3385SOL    HW121617   1.057   2.506   1.998 -0.3758 -2.2027 -2.0152
 3385SOL    HW221618   0.907   2.538   1.989 -0.2779 -0.1747  0.8474
 3386SOL     OW21619   4.159   1.533  14.510  0.1314 -0.0107  0.0827
 3386SOL    HW121620   4.165   1.459  14.571 -1.9456  1.2190  1.8048
 3386SOL    HW221621   4.224   1.511  14.444  0.0621  2.7420 -0.9029
 3387SOL     OW21622   0.659   4.227   3.274 -0.7314 -0.2737  0.1541
 3387SOL    HW121623   0.625   4.194   3.192 -2.0014 -0.4685  0.7596
 3387SOL    HW221624   0.587   4.260   3.328 -0.7094 -0.9146  0.5804
 3388SOL     OW21625   1.366   2.208   3.415 -0.4101 -0.6878 -0.2443
 3388SOL    HW121626   1.438   2.168   3.463 -0.3981  0.0817  0.3823
 3388SOL    HW221627   1.409   2.230   3.333 -0.0263 -1.4556 -0.2458
 3389SOL     OW21628   1.399   0.331   1.523 -0.2444  0.3601 -0.2465
 3389SOL    HW121629   1.419   0.251   1.475  0.4910  0.3601  0.0583
 3389SOL    HW221630   1.458   0.326   1.599  0.8147  1.1592 -1.0040
 3390SOL     OW21631   3.207   1.660   1.962 -0.8849 -0.8821  0.2272
 3390SOL    HW121632   3.182   1.587   2.019 -1.7396 -0.6398  0.1719
 3390SOL    HW221633   3.301   1.644   1.966 -0.5915  1.1903  1.4727
 3391SOL     OW21634   2.303   0.859   4.428  0.1381 -0.3517  0.2060
 3391SOL    HW121635   2.334   0.784   4.478  2.1943  1.5943  1.8510
 3391SOL    HW221636   2.355   0.872   4.349 -0.0110 -2.1428 -0.1838
 3392SOL     OW21637   4.138   1.879   3.426 -0.5850  0.3597  0.0917
 3392SOL    HW121638   4.056   1.854   3.385 -1.0953  0.8590  0.8245
 3392SOL    HW221639   4.106   1.950   3.481 -0.1675  0.8152 -0.2460
 3393SOL     OW21640   1.154   4.105   4.061  0.4177 -0.0844 -0.1941
 3393SOL    HW121641   1.085   4.039   4.061 -1.4628  1.8876  1.7196
 3393SOL    HW221642   1.183   4.118   4.151 -0.3530  1.0994 -0.1148
 3394SOL     OW21643   0.340   4.423   0.547 -0.0095  0.2051 -0.4628
 3394SOL    HW121644   0.393   4.392   0.474  1.7989  0.6711  0.6430
 3394SOL    HW221645   0.353   4.518   0.543 -1.0431  0.3269 -0.8443
 3395SOL     OW21646   3.727   1.731   4.119 -0.5431  0.0530  0.4189
 3395SOL    HW121647   3.794   1.787   4.080  0.1057 -3.0585 -2.9350
 3395SOL    HW221648   3.774   1.656   4.156 -0.1010 -0.2952 -0.8481
 3396SOL     OW21649   1.174   1.610  12.034 -0.0414 -0.1114  0.0252
 3396SOL    HW121650   1.240   1.551  12.071  1.0517  1.3350  0.3818
 3396SOL    HW221651   1.226   1.690  12.039 -2.4126  1.6781 -3.9133
 3397SOL     OW21652   3.458   3.704   5.577  0.4895 -0.1017  0.1211
 3397SOL    HW121653   3.514   3.766   5.624 -0.7238  0.3573  0.9527
 3397SOL    HW221654   3.373   3.740   5.600 -0.0828 -1.2686 -0.1337
 3398SOL     OW21655   2.471   1.473   2.153  0.2035 -0.8859 -0.2004
 3398SOL    HW121656   2.446   1.487   2.062  0.9129 -1.7636 -0.5321
 3398SOL    HW221657   2.426   1.545   2.197  1.1051 -0.7601  0.5245
 3399SOL     OW21658   0.946   2.603   7.779  0.2098 -0.0158  0.1996
 3399SOL    HW121659   0.891   2.565   7.847 -0.5225  1.0969  0.2240
 3399SOL    HW221660   0.932   2.540   7.708  0.6266 -0.6731  0.6987
 3400SOL     OW21661   0.083   3.124   7.842  0.0359  0.3901 -0.7346
 3400SOL    HW121662   0.162   3.079   7.812  0.5091 -2.0122  4.1620
 3400SOL    HW221663   0.114   3.185   7.909  2.1678 -1.4989  0.0118
 3401SOL     OW21664   4.199   1.611   6.977 -0.0163 -0.2163  0.5239
 3401SOL    HW121665   4.275   1.584   6.925 -0.4789 -1.0851  0.2951
 3401SOL    HW221666   4.145   1.532   6.970  0.9898 -1.0453  2.1121
 3402SOL     OW21667   0.835   0.252   8.398 -0.3857  0.3316  0.5763
 3402SOL    HW121668   0.850   0.271   8.305 -1.3696  1.2492  0.6011
 3402SOL    HW221669   0.795   0.333   8.429 -2.0748 -0.5951  0.7976
 3403SOL     OW21670   3.061   3.921  13.529 -0.0096  0.4304 -0.4828
 3403SOL    HW121671   3.136   3.940  13.584  0.3736  0.1936 -0.9271
 3403SOL    HW221672   3.045   3.826  13.528 -0.3791  0.5042 -2.2721
 3404SOL     OW21673   0.118   2.530   6.067  0.0392 -0.4587 -0.2254
 3404SOL    HW121674   0.073   2.615   6.063 -0.2814 -0.5714  0.9866
 3404SOL    HW221675   0.068   2.467   6.014 -0.3747  1.0802 -1.6803
 3405SOL     OW21676   3.609   2.587  15.957  0.7662  0.0975 -0.2200
 3405SOL    HW121677   3.662   2.665  15.945  0.0214  0.4071 -1.5304
 3405SOL    HW221678   3.618   2.551  15.869 -0.1622  1.5615 -0.9089
 3406SOL     OW21679   2.733   4.436   7.095 -0.0690  0.2305 -0.0756
 3406SOL    HW121680   2.782   4.482   7.163 -0.9446  0.3172  0.4906
 3406SOL    HW221681   2.675   4.382   7.148  0.4389  0.1485  0.3957
 3407SOL     OW21682   1.434   1.613   8.556  0.5396 -0.0995 -0.4539
 3407SOL    HW121683   1.407   1.521   8.548 -0.3683 -0.0637  2.4647
 3407SOL    HW221684   1.462   1.615   8.647  1.7502  0.6152 -0.8482
 3408SOL     OW21685   2.782   0.721  17.346 -0.2737 -0.2496 -0.4248
 3408SOL    HW121686   2.717   0.660  17.311 -0.1088 -0.7202  0.0863
 3408SOL    HW221687   2.857   0.664  17.367 -1.1582 -1.7841 -1.4065
 3409SOL     OW21688   4.172   0.153   4.470  0.0430 -0.3919 -0.1527
 3409SOL    HW121689   4.134   0.238   4.447 -0.1755 -0.7353 -1.0408
 3409SOL    HW221690   4.102   0.103   4.513  0.6526 -1.2807 -0.2050
 3410SOL     OW21691   3.676   3.758   7.803 -0.0022 -0.0169  0.5475
 3410SOL    HW121692   3.717   3.770   7.717  0.5905 -0.5929  0.7442
 3410SOL    HW221693   3.592   3.803   7.794  1.1970  1.8426 -1.2539
 3411SOL     OW21694   3.055   2.791   5.133 -0.2978  0.0968  0.0981
 3411SOL    HW121695   3.058   2.866   5.192 -1.5084 -2.2928  3.1764
 3411SOL    HW221696   3.045   2.832   5.047 -0.3991 -0.6495 -0.2434
 3412SOL     OW21697   3.223   0.022   9.693 -0.1044  0.7869 -0.6331
 3412SOL    HW121698   3.249   0.050   9.605 -0.9856 -1.4520 -1.5961
 3412SOL    HW221699   3.196   0.103   9.736 -1.8029 -0.8458  1.3755
 3413SOL     OW21700   3.735   2.491   5.440  0.2558 -0.2605  0.1491
 3413SOL    HW121701   3.712   2.574   5.399  0.0964 -0.2488  0.2650
 3413SOL    HW221702   3.813   2.512   5.492 -0.1399 -2.1383  1.4686
 3414SOL     OW21703   4.069   1.784   7.810  1.1756 -0.0635  0.2744
 3414SOL    HW121704   4.056   1.874   7.839  0.4442  0.6846 -2.3544
 3414SOL    HW221705   4.104   1.795   7.721 -0.1760  2.1000  0.0064
 3415SOL     OW21706   0.136   0.481  15.688  0.2644 -0.0438  0.0680
 3415SOL    HW121707   0.198   0.410  15.707  0.5013  0.4058  0.9654
 3415SOL    HW221708   0.057   0.429  15.676 -0.5952  0.6381  2.9670
 3416SOL     OW21709   1.566   3.741   6.162  0.0096 -0.4365 -0.1016
 3416SOL    HW121710   1.573   3.679   6.235  1.0494 -1.7026 -1.2699
 3416SOL    HW221711   1.496   3.709   6.105 -1.0052  0.2178  0.7889
 3417SOL     OW21712   2.808   4.129   4.217  0.3424  1.3055  0.2070
 3417SOL    HW121713   2.808   4.038   4.247  2.2594  1.5211  0.8877
 3417SOL    HW221714   2.766   4.172   4.291  1.2239  0.3388  1.2588
 3418SOL     OW21715   0.456   1.425  15.390 -0.1721 -0.3763  0.1717
 3418SOL    HW121716   0.389   1.450  15.326 -0.7483 -2.4933 -0.0520
 3418SOL    HW221717   0.523   1.385  15.334  0.4695  1.0002 -0.0522
 3419SOL     OW21718   1.216   3.812   4.446 -0.9026 -0.9412 -0.0541
 3419SOL    HW121719   1.164   3.751   4.393 -0.0405 -2.4861  0.8598
 3419SOL    HW221720   1.169   3.815   4.530  0.1521  0.9815  0.4592
 3420SOL     OW21721   1.568   2.096   1.935  0.0507  0.3586  0.1190
 3420SOL    HW121722   1.604   2.183   1.953  1.1627 -0.1287  0.2464
 3420SOL    HW221723   1.493   2.085   1.994 -0.1587  0.6601 -0.0873
 3421SOL     OW21724   2.488   2.024  13.962  0.3129  0.4593 -0.2782
 3421SOL    HW121725   2.433   1.992  13.891 -2.2630 -1.1764  2.4501
 3421SOL    HW221726   2.569   1.976  13.948 -0.5131 -0.6388 -1.3153
 3422SOL     OW21727   2.927   0.461  12.170 -0.2991  0.1721 -0.2962
 3422SOL    HW121728   3.007   0.409  12.155  1.3654  2.4046  0.8392
 3422SOL    HW221729   2.874   0.428  12.097 -0.8001 -0.4924  0.3636
 3423SOL     OW21730   2.877   4.035   5.201 -0.0489  0.1602  0.4530
 3423SOL    HW121731   2.843   4.073   5.120 -2.3731 -0.4654  1.1206
 3423SOL    HW221732   2.799   4.011   5.252 -0.0894 -0.3669  0.1353
 3424SOL     OW21733   3.292   0.417   7.306  0.1385  0.0351 -0.4441
 3424SOL    HW121734   3.241   0.361   7.366  2.2710 -0.8423  0.5523
 3424SOL    HW221735   3.256   0.396   7.220  0.8670 -0.3146 -0.6622
 3425SOL     OW21736   2.552   2.665   2.130  0.2162  0.0269 -0.5081
 3425SOL    HW121737   2.510   2.745   2.161  1.4845 -0.0356  1.4064
 3425SOL    HW221738   2.559   2.686   2.037 -1.4691 -3.1457 -1.3406
 3426SOL     OW21739   0.358   3.522   5.849  0.1241  0.5543  0.1183
 3426SOL    HW121740   0.264   3.514   5.869 -0.1427  3.9893  0.2841
 3426SOL    HW221741   0.368   3.612   5.819 -2.0071  0.6831 -0.2225
 3427SOL     OW21742   2.462   4.559   9.181 -0.5552  0.4899  0.3611
 3427SOL    HW121743   2.385   4.580   9.234 -0.9804  2.2960 -0.9999
 3427SOL    HW221744   2.531   4.527   9.240 -1.3427 -0.1254  0.9678
 3428SOL     OW21745   2.332   1.131   3.594 -0.4719 -0.4660  0.0354
 3428SOL    HW121746   2.357   1.051   3.548 -0.0524  0.6425 -1.6535
 3428SOL    HW221747   2.239   1.119   3.613 -0.6911 -1.7360 -1.8313
 3429SOL     OW21748   2.668   3.189   7.838 -0.1817  0.1981  0.4207
 3429SOL    HW121749   2.655   3.284   7.840  3.2267  0.6837  0.0397
 3429SOL    HW221750   2.743   3.184   7.778  0.0680  0.6539  0.6963
 3430SOL     OW21751   1.979   2.551   2.665 -0.4042  0.5908  0.0561
 3430SOL    HW121752   2.018   2.530   2.580 -0.7122 -1.0658  0.3253
 3430SOL    HW221753   1.894   2.591   2.646 -0.7270  0.2108  0.7230
 3431SOL     OW21754   1.979   4.090   4.757  0.4946  0.1727  0.4924
 3431SOL    HW121755   1.943   4.115   4.842  1.8891  1.8005  0.6151
 3431SOL    HW221756   2.072   4.098   4.778  0.4176 -2.1707  1.7389
 3432SOL     OW21757   1.387   1.557   5.429  0.3317 -0.0352  0.2486
 3432SOL    HW121758   1.472   1.570   5.471  0.8818 -1.8946 -0.2757
 3432SOL    HW221759   1.405   1.473   5.387 -0.6268 -0.2766  0.3188
 3433SOL     OW21760   1.927   2.149   6.767 -0.6265 -0.2118 -0.2491
 3433SOL    HW121761   2.010   2.196   6.760 -1.4651  0.7643 -3.3395
 3433SOL    HW221762   1.879   2.231   6.769  0.5836  0.5033 -0.4561
 3434SOL     OW21763   0.807   0.213   4.820 -0.6596 -0.3202  0.2901
 3434SOL    HW121764   0.743   0.185   4.886 -0.5325 -1.8675 -0.2284
 3434SOL    HW221765   0.828   0.300   4.853  1.2340 -0.4110 -0.6773
 3435SOL     OW21766   3.076   1.995   3.143  0.3262  0.3237  0.8403
 3435SOL    HW121767   3.001   2.046   3.174 -0.2623 -0.3323  0.5103
 3435SOL    HW221768   3.104   1.977   3.233  2.0620 -0.5436  0.1302
 3436SOL     OW21769   4.083   0.561   9.266  0.2855 -0.0230  0.5656
 3436SOL    HW121770   4.105   0.644   9.223 -0.4139  0.3973  1.0166
 3436SOL    HW221771   3.987   0.560   9.258  0.1872  0.9458  1.7264
 3437SOL     OW21772   3.163   0.188   9.053 -0.3048  0.1578  0.7970
 3437SOL    HW121773   3.125   0.237   9.126  2.3295  3.3662 -0.0073
 3437SOL    HW221774   3.090   0.137   9.018  0.4632 -2.4223  2.9377
 3438SOL     OW21775   0.636   4.186   2.441 -0.5267 -0.5330 -0.6244
 3438SOL    HW121776   0.581   4.111   2.417  1.7009 -2.4733  0.3511
 3438SOL    HW221777   0.718   4.167   2.395 -1.3965 -2.5481 -1.3791
 3439SOL     OW21778   1.041   1.031   3.729 -0.3562  0.0582 -0.1216
 3439SOL    HW121779   1.121   0.990   3.695 -1.3215 -1.3605 -0.6852
 3439SOL    HW221780   1.042   1.115   3.683  1.5021  0.0346 -0.1544
 3440SOL     OW21781   3.745   0.449   9.900 -0.2012 -0.2589  0.7247
 3440SOL    HW121782   3.686   0.382   9.866  1.0683  0.0231 -2.0271
 3440SOL    HW221783   3.807   0.462   9.828  0.2653  1.2393  1.3993
 3441SOL     OW21784   1.866   0.594   8.222 -0.0654 -0.2522  0.1427
 3441SOL    HW121785   1.888   0.510   8.261 -3.0902 -1.2080 -0.2097
 3441SOL    HW221786   1.891   0.583   8.130  0.6868  1.4313  0.1377
 3442SOL     OW21787   1.129   2.150  12.649 -0.4138 -0.1490 -0.0386
 3442SOL    HW121788   1.119   2.164  12.743  0.8031 -0.0202  0.0727
 3442SOL    HW221789   1.225   2.148  12.641 -0.1131  2.4201  2.8905
 3443SOL     OW21790   1.079   0.758   2.969 -0.0854  0.3773 -0.2347
 3443SOL    HW121791   1.015   0.689   2.988 -1.9116  2.2429  0.3255
 3443SOL    HW221792   1.158   0.734   3.017  0.4695  0.3644 -1.1510
 3444SOL     OW21793   0.299   3.159   5.509  0.5017  0.4967  0.5442
 3444SOL    HW121794   0.238   3.163   5.583  0.8969  1.5551  0.8107
 3444SOL    HW221795   0.370   3.218   5.536  0.5463  0.7951 -0.2169
 3445SOL     OW21796   2.738   4.100   0.661 -0.0973  0.1075  0.2656
 3445SOL    HW121797   2.764   4.107   0.753 -0.3415  0.0508  0.3390
 3445SOL    HW221798   2.815   4.060   0.620 -0.8308 -1.2145  0.1856
 3446SOL     OW21799   0.356   2.767  16.033  0.3600 -0.2469  0.5553
 3446SOL    HW121800   0.437   2.784  16.081  0.2478 -2.3452  1.4882
 3446SOL    HW221801   0.296   2.827  16.076 -1.0608 -1.2368 -0.0343
 3447SOL     OW21802   1.238   3.739  12.705 -0.0846 -0.0945  0.2639
 3447SOL    HW121803   1.177   3.773  12.639  0.0656 -0.0012  0.1712
 3447SOL    HW221804   1.186   3.739  12.785  1.0339  1.7851  1.0064
 3448SOL     OW21805   1.546   2.729   8.740  0.1734  0.4681 -0.5420
 3448SOL    HW121806   1.636   2.721   8.707  0.2076  0.7051 -0.5055
 3448SOL    HW221807   1.491   2.700   8.667  1.0308 -1.4130 -0.4347
 3449SOL     OW21808   2.691   4.556   9.556 -0.4304 -0.4478 -0.3159
 3449SOL    HW121809   2.599   4.543   9.581 -0.1704  2.6430  2.2818
 3449SOL    HW221810   2.728   4.538   9.642 -0.5640 -2.4996 -0.6986
 3450SOL     OW21811   1.679   0.728   2.940  0.0221  0.0474 -0.3975
 3450SOL    HW121812   1.767   0.706   2.910 -0.2492 -2.0026  0.2936
 3450SOL    HW221813   1.632   0.713   2.857 -0.2469 -0.6174 -0.1299
 3451SOL     OW21814   3.896   4.065   5.054 -0.8283 -0.5318 -0.3161
 3451SOL    HW121815   3.952   4.037   4.982  0.4935 -0.5126  0.6847
 3451SOL    HW221816   3.944   4.055   5.137  1.0055  0.7338 -1.2215
 3452SOL     OW21817   2.843   4.058   6.567  0.1881  0.0239  0.1284
 3452SOL    HW121818   2.897   3.980   6.555  0.2375  0.0967 -0.1100
 3452SOL    HW221819   2.888   4.098   6.641 -0.8108  3.3454 -1.0688
 3453SOL     OW21820   1.068   2.866   8.476  0.1537 -0.3708  0.4314
 3453SOL    HW121821   1.084   2.774   8.453 -2.2155 -0.3719 -1.2403
 3453SOL    HW221822   1.005   2.898   8.412  1.0184  0.2600 -0.0996
 3454SOL     OW21823   2.555   2.880   8.901  0.3339 -0.7455  0.3636
 3454SOL    HW121824   2.514   2.965   8.885 -0.1803 -0.7507  1.5911
 3454SOL    HW221825   2.584   2.865   8.812 -0.1860  2.0013 -0.2767
 3455SOL     OW21826   0.943   0.411  13.091  0.0793 -0.4919  0.3014
 3455SOL    HW121827   1.011   0.474  13.117  0.4411 -1.5377  1.9139
 3455SOL    HW221828   0.874   0.434  13.153 -0.2404  1.2218 -0.6815
 3456SOL     OW21829   1.226   1.340  15.265 -0.2888 -0.7630  0.2583
 3456SOL    HW121830   1.223   1.337  15.170  0.2139 -0.5281  0.2384
 3456SOL    HW221831   1.204   1.433  15.276  1.5195 -0.3775  0.6470
 3457SOL     OW21832   2.358   1.665   5.846 -0.1800  0.1622  0.6364
 3457SOL    HW121833   2.279   1.660   5.899  1.2948  0.7316  2.8672
 3457SOL    HW221834   2.372   1.758   5.828 -2.7114 -0.0016 -2.1527
 3458SOL     OW21835   1.934   4.520   6.698 -0.7452 -0.8303 -0.0667
 3458SOL    HW121836   1.892   4.434   6.705 -0.6172 -0.7922  1.1208
 3458SOL    HW221837   1.909   4.545   6.787 -1.7332  0.0351 -0.5997
 3459SOL     OW21838   4.396   3.178   5.988 -0.1773  0.3767  0.2015
 3459SOL    HW121839   4.346   3.103   6.021  1.8639 -0.5900  1.0899
 3459SOL    HW221840   4.348   3.252   6.025  0.9734  1.1582  0.1347
 3460SOL     OW21841   1.808   0.062   5.689 -0.2998  0.3329  0.6377
 3460SOL    HW121842   1.777   0.006   5.760  2.2899 -2.4136 -0.3837
 3460SOL    HW221843   1.896   0.080   5.723 -0.9265 -0.2465  2.5980
 3461SOL     OW21844   2.543   0.835   4.614  0.3355  0.1501 -0.1190
 3461SOL    HW121845   2.476   0.768   4.629  0.5022  0.1601  0.6718
 3461SOL    HW221846   2.598   0.798   4.545  1.5789  0.1129  0.8962
 3462SOL     OW21847   2.267   4.509  17.265 -0.0370 -0.3873 -0.8481
 3462SOL    HW121848   2.212   4.444  17.223 -0.6169 -0.3122 -0.1904
 3462SOL    HW221849   2.355   4.490  17.233  0.8371  0.8693  0.7883
 3463SOL     OW21850   3.749   1.736   1.240 -0.5508 -0.1142 -0.0600
 3463SOL    HW121851   3.817   1.786   1.195  1.2570 -1.6329  0.9848
 3463SOL    HW221852   3.735   1.792   1.316  0.9845  1.0756 -0.6642
 3464SOL     OW21853   3.017   2.965   3.315  0.1360 -0.2294  0.2409
 3464SOL    HW121854   3.043   2.925   3.232 -3.1315  1.7600 -1.7293
 3464SOL    HW221855   3.077   2.921   3.376  2.2549  0.0378 -1.6267
 3465SOL     OW21856   1.397   3.150  16.869 -0.5174  0.1944 -0.2629
 3465SOL    HW121857   1.323   3.141  16.809  1.6543 -0.8245 -2.8199
 3465SOL    HW221858   1.357   3.193  16.944 -2.6925  0.3814 -1.5133
 3466SOL     OW21859   3.348   2.593   3.587  0.5846  0.1461 -0.3969
 3466SOL    HW121860   3.313   2.634   3.667 -0.5855 -0.5082 -0.5789
 3466SOL    HW221861   3.435   2.569   3.617  0.0648  0.0618  1.0543
 3467SOL     OW21862   3.747   3.129  14.673  0.0318  0.7726  0.4388
 3467SOL    HW121863   3.709   3.121  14.586  1.0960 -0.6911  0.1135
 3467SOL    HW221864   3.778   3.040  14.688 -2.7034 -0.1215  0.8060
 3468SOL     OW21865   3.741   2.065   8.680 -0.0900  0.2234  0.1626
 3468SOL    HW121866   3.671   2.046   8.742 -0.4237 -1.5988 -0.7658
 3468SOL    HW221867   3.681   2.077   8.607 -1.4885  2.9308  1.7500
 3469SOL     OW21868   1.961   2.734   7.595 -0.3411 -0.3327 -0.7145
 3469SOL    HW121869   1.998   2.805   7.542 -0.0694 -0.3789 -0.5872
 3469SOL    HW221870   1.871   2.718   7.566 -1.2958  0.5803  1.8139
 3470SOL     OW21871   0.569   0.125  16.997 -0.0712  0.0891  0.0763
 3470SOL    HW121872   0.570   0.031  17.012 -0.0825  0.3711  1.8949
 3470SOL    HW221873   0.613   0.129  16.913 -1.3424  1.4686 -0.5300
 3471SOL     OW21874   0.441   0.480   7.839  0.0610  0.3965  0.6075
 3471SOL    HW121875   0.502   0.508   7.907  0.5275  0.8501  0.0025
 3471SOL    HW221876   0.359   0.487   7.888  0.8334  1.9604  1.7000
 3472SOL     OW21877   0.950   1.954   6.748 -0.2625 -0.3016 -0.0420
 3472SOL    HW121878   0.871   1.927   6.795 -1.5437 -0.0805 -2.0845
 3472SOL    HW221879   0.987   1.867   6.735 -0.6267 -0.0438 -2.8670
 3473SOL     OW21880   4.492   2.779   1.823  0.1606 -0.1503  0.0227
 3473SOL    HW121881   4.446   2.761   1.741  1.3996 -1.0156 -0.4856
 3473SOL    HW221882   4.572   2.808   1.779  1.0914 -1.8115  0.6085
 3474SOL     OW21883   1.586   0.004  13.263 -0.9284 -0.3523 -0.2255
 3474SOL    HW121884   1.657   0.044  13.313 -1.3600 -1.1105  1.0071
 3474SOL    HW221885   1.513   0.061  13.287  0.1523  0.3142  1.4917
 3475SOL     OW21886   0.561   0.571   6.245  0.3330 -0.0556  0.3451
 3475SOL    HW121887   0.591   0.552   6.334  1.5981  2.3546  0.4444
 3475SOL    HW221888   0.633   0.541   6.189  1.3699  2.7020  0.2161
 3476SOL     OW21889   4.021   0.422   1.218  0.2214  0.0552 -0.3002
 3476SOL    HW121890   4.113   0.396   1.223  0.5926  1.4888  0.4727
 3476SOL    HW221891   4.008   0.437   1.124 -1.9046 -0.5438 -0.1017
 3477SOL     OW21892   4.486   2.691   2.790  0.1237 -0.4943 -0.2157
 3477SOL    HW121893   4.536   2.652   2.719  1.7079  1.1241  0.0323
 3477SOL    HW221894   4.545   2.713   2.862 -0.3255  0.9307 -0.2987
 3478SOL     OW21895   2.796   2.914   1.799  0.3398 -0.4221  0.2877
 3478SOL    HW121896   2.761   2.987   1.749 -1.4117 -0.5145  1.3967
 3478SOL    HW221897   2.852   2.866   1.738  0.8453 -1.5702  1.6508
 3479SOL     OW21898   0.873   2.450   7.543 -0.3547 -0.2939  0.3816
 3479SOL    HW121899   0.893   2.390   7.615 -0.6182 -0.0186  0.6875
 3479SOL    HW221900   0.788   2.417   7.514  0.6340 -2.6324  0.1776
 3480SOL     OW21901   1.892   4.588   7.935  0.3401 -0.2925  0.4336
 3480SOL    HW121902   1.932   4.567   8.019 -1.0451  1.0542  1.4360
 3480SOL    HW221903   1.866   4.680   7.949 -1.3337 -0.4731 -1.4712
 3481SOL     OW21904   0.370   0.768   6.821  0.3134  0.2176 -0.0630
 3481SOL    HW121905   0.293   0.810   6.860  1.2464  3.7349 -2.0069
 3481SOL    HW221906   0.320   0.713   6.762  1.1383  0.4235 -0.9576
 3482SOL     OW21907   4.267   4.583   8.993 -0.2917 -0.2248 -0.2870
 3482SOL    HW121908   4.349   4.625   8.966 -0.2610 -1.2826 -1.8787
 3482SOL    HW221909   4.249   4.628   9.075 -1.2764 -0.5147 -0.3507
 3483SOL     OW21910   0.598   2.194  17.115 -0.1383 -0.4598 -0.1457
 3483SOL    HW121911   0.576   2.274  17.162  0.0858  0.2719 -1.3023
 3483SOL    HW221912   0.619   2.227  17.027  0.7587  0.9365  0.5950
 3484SOL     OW21913   0.532   1.171  10.175  0.5580 -0.3194 -0.8041
 3484SOL    HW121914   0.561   1.233  10.108 -3.3742  1.1593 -1.1005
 3484SOL    HW221915   0.614   1.169  10.225  0.7863  1.3984 -1.0991
 3485SOL     OW21916   1.350   0.523   3.736 -0.1978  0.5071  0.3404
 3485SOL    HW121917   1.370   0.614   3.755  2.5101  0.0234 -0.1116
 3485SOL    HW221918   1.442   0.497   3.726 -0.6812 -0.7827 -0.8829
 3486SOL     OW21919   1.647   3.055   7.484 -0.1664 -0.1096  0.3816
 3486SOL    HW121920   1.661   3.078   7.392 -0.6429 -0.5776  0.1864
 3486SOL    HW221921   1.562   3.011   7.481  0.1888 -0.5885 -2.5490
 3487SOL     OW21922   0.480   1.372   3.635  0.1296  0.0543 -0.5283
 3487SOL    HW121923   0.425   1.392   3.559  0.9420 -1.5970 -1.5410
 3487SOL    HW221924   0.412   1.342   3.694  0.5519 -0.5320 -0.3413
 3488SOL     OW21925   1.092   3.038   1.236 -0.0490 -0.6063  0.3814
 3488SOL    HW121926   1.125   3.122   1.269  1.0472 -0.2337 -1.7269
 3488SOL    HW221927   1.062   3.002   1.320 -0.3957  0.6145  0.7798
 3489SOL     OW21928   2.486   1.924   2.965 -0.0082  0.2923 -0.3274
 3489SOL    HW121929   2.572   1.899   2.931  0.7356 -0.1308  1.8221
 3489SOL    HW221930   2.457   1.968   2.885 -1.7452  2.1473  1.3189
 3490SOL     OW21931   2.788   3.538   3.252 -0.7602 -0.1928  0.2803
 3490SOL    HW121932   2.705   3.493   3.238 -0.0874 -1.7060  1.1435
 3490SOL    HW221933   2.843   3.500   3.183 -1.3736 -0.5739 -0.0019
 3491SOL     OW21934   0.493   3.062  14.078  0.1015 -0.1195  0.7460
 3491SOL    HW121935   0.512   2.969  14.066  0.3450  0.1072 -0.7100
 3491SOL    HW221936   0.437   3.085  14.003  1.0513 -2.8267 -0.8047
 3492SOL     OW21937   1.187   2.007   4.433  0.0652 -0.4251 -0.3132
 3492SOL    HW121938   1.134   1.949   4.379 -0.0061  0.2185 -0.9228
 3492SOL    HW221939   1.275   1.970   4.443  0.1216 -0.0330  0.7315
 3493SOL     OW21940   0.832   3.246   9.869 -0.2678 -0.0819 -0.2292
 3493SOL    HW121941   0.912   3.298   9.872 -0.4775  0.2356 -0.2005
 3493SOL    HW221942   0.827   3.213   9.780 -0.2342 -0.4004 -0.1158
 3494SOL     OW21943   0.041   0.755   9.960 -0.1293  0.2074  0.1301
 3494SOL    HW121944   0.062   0.662   9.970  1.2560  0.7171  2.0265
 3494SOL    HW221945   0.116   0.794  10.005  1.4751 -2.1458 -0.5420
 3495SOL     OW21946   0.546   1.582  17.287  0.3402  0.2605 -0.5018
 3495SOL    HW121947   0.624   1.562  17.236  1.2700 -0.8276  1.3810
 3495SOL    HW221948   0.513   1.661  17.243 -0.1385 -0.0878 -0.7628
 3496SOL     OW21949   4.491   2.302   3.169 -0.0907  0.3009 -0.0907
 3496SOL    HW121950   4.554   2.359   3.214 -0.3622  0.0625  0.5926
 3496SOL    HW221951   4.551   2.243   3.123 -1.3308  0.0591 -1.3993
 3497SOL     OW21952   2.841   2.879  13.740  0.5390  0.0091  0.2997
 3497SOL    HW121953   2.769   2.816  13.750  0.5810 -0.3452 -1.7111
 3497SOL    HW221954   2.915   2.820  13.755  1.2334  1.3488  2.0839
 3498SOL     OW21955   2.280   1.244  16.232  0.3060 -0.1262 -0.6822
 3498SOL    HW121956   2.225   1.167  16.243 -0.8822  1.0645  1.8284
 3498SOL    HW221957   2.243   1.279  16.151  2.4678 -2.5286 -2.7116
 3499SOL     OW21958   0.426   0.871   5.040 -0.0003  0.4648  0.3660
 3499SOL    HW121959   0.497   0.852   5.102  2.1901  2.9136 -1.3916
 3499SOL    HW221960   0.418   0.790   4.990  0.9459 -0.1986  1.3045
 3500SOL     OW21961   0.964   1.445  15.359 -0.4855  0.0087 -0.1177
 3500SOL    HW121962   0.870   1.460  15.356 -0.5140 -0.0035  0.7708
 3500SOL    HW221963   0.962   1.354  15.387 -1.2689 -0.1655 -0.7480
 3501SOL     OW21964   4.336   1.187   4.305 -0.4897 -0.2493  0.1965
 3501SOL    HW121965   4.398   1.247   4.345 -0.2823  0.8052 -1.7418
 3501SOL    HW221966   4.256   1.240   4.308 -1.0148 -0.8505 -3.1738
 3502SOL     OW21967   2.872   0.166   0.711 -0.2628 -1.2081  0.2729
 3502SOL    HW121968   2.833   0.184   0.796 -0.8798 -0.1838 -0.2295
 3502SOL    HW221969   2.928   0.090   0.725  0.4466 -0.4226  1.7308
 3503SOL     OW21970   4.361   1.891   7.999  0.7618  0.3487  0.2828
 3503SOL    HW121971   4.442   1.896   8.049  1.2429 -0.5276 -0.4240
 3503SOL    HW221972   4.370   1.964   7.939 -2.2211  1.2120  0.8808
 3504SOL     OW21973   1.692   4.070   4.118  0.4775  0.1816  0.0106
 3504SOL    HW121974   1.725   4.038   4.034 -1.1800 -0.8890 -0.2413
 3504SOL    HW221975   1.658   4.150   4.077  1.7498  0.9723  0.5226
 3505SOL     OW21976   3.995   1.064   8.549  0.5814 -0.3583 -0.2591
 3505SOL    HW121977   3.960   1.122   8.616 -1.5853 -1.5463 -0.3786
 3505SOL    HW221978   4.088   1.088   8.545  0.9053 -1.6286 -0.6385
 3506SOL     OW21979   1.596   4.657  12.155  0.1221 -0.2110 -0.7012
 3506SOL    HW121980   1.584   4.712  12.232 -1.2787 -3.2438  1.2770
 3506SOL    HW221981   1.642   4.582  12.193  0.2971 -0.4315 -1.3480
 3507SOL     OW21982   1.444   4.568  16.853 -0.3745  0.1860 -0.1349
 3507SOL    HW121983   1.480   4.590  16.939  1.0821 -0.2304 -0.6355
 3507SOL    HW221984   1.441   4.656  16.815 -3.0063  0.2035  0.1401
 3508SOL     OW21985   0.937   2.055  13.499  0.1897  0.0283 -0.9487
 3508SOL    HW121986   0.869   2.115  13.529  1.8132  0.8157  1.1225
 3508SOL    HW221987   0.933   2.047  13.403 -2.4138  0.2493 -0.8663
 3509SOL     OW21988   2.864   2.241   1.735 -0.1729 -0.1780 -0.0832
 3509SOL    HW121989   2.911   2.158   1.745  1.0744  0.6883  1.2040
 3509SOL    HW221990   2.777   2.211   1.760  0.7189 -0.8218  2.2499
 3510SOL     OW21991   0.845   1.513   6.334  0.4232  0.4512  0.2260
 3510SOL    HW121992   0.937   1.537   6.331  0.3017  1.2398  2.8391
 3510SOL    HW221993   0.812   1.579   6.395 -1.4579  0.4030 -0.7382
 3511SOL     OW21994   3.834   2.841  10.323  0.6379  0.2689  0.0795
 3511SOL    HW121995   3.847   2.903  10.252  0.2639  0.6736  0.3617
 3511SOL    HW221996   3.892   2.770  10.297 -0.8804 -0.1744 -2.1047
 3512SOL     OW21997   0.394   4.319   4.796  0.5374 -0.4795  0.1519
 3512SOL    HW121998   0.342   4.395   4.770 -0.8194 -1.6438 -0.5198
 3512SOL    HW221999   0.467   4.365   4.839  0.3286  0.3670 -0.3961
 3513SOL     OW22000   3.955   0.298  13.843  0.5457  0.2189  0.3759
 3513SOL    HW122001   4.048   0.300  13.818  0.4320 -0.7389 -0.1128
 3513SOL    HW222002   3.942   0.203  13.843 -0.0772  0.3041 -0.5822
 3514SOL     OW22003   3.875   0.067  14.679 -0.1560  0.2126 -0.0526
 3514SOL    HW122004   3.834   0.147  14.648  0.2029  0.2520 -0.4265
 3514SOL    HW222005   3.814   4.715  14.670  0.3662 -0.2858  0.4188
 3515SOL     OW22006   1.171   3.044   3.472 -0.3891  1.0070  0.0173
 3515SOL    HW122007   1.241   3.098   3.435 -0.8057  0.8141 -1.0677
 3515SOL    HW222008   1.114   3.020   3.399 -0.3028  1.4338 -0.1907
 3516SOL     OW22009   2.925   3.082   6.813  0.4694 -0.4092 -0.0596
 3516SOL    HW122010   3.008   3.045   6.845  0.4250 -1.0000 -0.6420
 3516SOL    HW222011   2.939   3.064   6.720 -1.3394 -0.7665 -0.2540
 3517SOL     OW22012   0.412   2.196   6.986 -0.2591  0.1810  0.1274
 3517SOL    HW122013   0.468   2.151   6.923  1.1800  1.4705  0.4772
 3517SOL    HW222014   0.327   2.157   6.967 -0.8215  1.4930 -0.0476
 3518SOL     OW22015   3.236   1.294  16.990 -0.3118  0.7083 -0.1357
 3518SOL    HW122016   3.331   1.287  16.994 -0.4228  0.0464  1.2115
 3518SOL    HW222017   3.212   1.383  17.016  0.2961  0.7272  0.3377
 3519SOL     OW22018   2.914   1.071   0.431  0.4403 -0.4832  0.5261
 3519SOL    HW122019   2.858   1.065   0.508 -0.2945 -0.4403 -0.0087
 3519SOL    HW222020   2.892   0.991   0.384 -1.8891 -1.0911  2.6355
 3520SOL     OW22021   4.661   0.242  10.396  0.1395  0.5323 -0.5954
 3520SOL    HW122022   4.636   0.219  10.306 -0.1144 -0.1245 -0.3615
 3520SOL    HW222023   4.594   0.199  10.450  0.3995 -1.3939 -1.8254
 3521SOL     OW22024   2.456   0.755   6.955  0.0233  0.6253  0.4581
 3521SOL    HW122025   2.481   0.788   6.869  0.7002  0.6082  0.6520
 3521SOL    HW222026   2.540   0.755   7.000  0.0155 -1.8017  0.4708
 3522SOL     OW22027   4.050   3.078   2.759  0.0885 -0.3056 -0.7088
 3522SOL    HW122028   4.145   3.090   2.758  0.3593 -2.5108 -1.2519
 3522SOL    HW222029   4.051   2.984   2.777 -1.3009 -0.3139 -0.6796
 3523SOL     OW22030   2.005   3.831   4.656 -0.3921  0.4321  1.0105
 3523SOL    HW122031   1.973   3.921   4.663 -0.9279  0.0642  3.2390
 3523SOL    HW222032   2.079   3.834   4.717 -0.2435  1.7087  0.7706
 3524SOL     OW22033   1.033   4.322   7.534 -0.4861 -0.5005 -0.6734
 3524SOL    HW122034   1.095   4.251   7.551 -0.8338 -0.8736 -0.9399
 3524SOL    HW222035   0.954   4.271   7.517 -0.3861 -0.8434 -0.0961
 3525SOL     OW22036   4.543   2.676   6.239  0.1365  0.1893 -0.4659
 3525SOL    HW122037   4.509   2.593   6.273 -0.6219  1.2361  1.3318
 3525SOL    HW222038   4.508   2.733   6.307  1.6125 -0.1762  0.5898
 3526SOL     OW22039   1.661   1.143   3.270  0.1467 -0.3773 -0.1501
 3526SOL    HW122040   1.662   1.113   3.361 -1.6604  0.9073  0.2882
 3526SOL    HW222041   1.667   1.059   3.226 -2.7532 -0.0633 -1.1236
 3527SOL     OW22042   1.897   4.555   4.558  0.0595 -0.5936 -0.2464
 3527SOL    HW122043   1.939   4.471   4.540  2.8214  0.9633 -1.1243
 3527SOL    HW222044   1.955   4.567   4.633 -0.0071  3.7493 -0.8882
 3528SOL     OW22045   2.400   0.092   5.887 -0.4476 -0.1858  0.1312
 3528SOL    HW122046   2.405   0.179   5.927 -0.2279 -1.1860  2.2674
 3528SOL    HW222047   2.418   0.117   5.797 -0.1001 -0.2367  0.1875
 3529SOL     OW22048   4.022   2.317   6.988  0.5315 -0.4420 -0.4194
 3529SOL    HW122049   3.948   2.366   6.952  0.6301  2.2895  3.1408
 3529SOL    HW222050   4.039   2.382   7.055  0.8565  0.8774 -1.7925
 3530SOL     OW22051   4.373   3.732   9.576  1.0424  0.5777  0.7008
 3530SOL    HW122052   4.407   3.676   9.645  0.3000 -0.6379  0.0668
 3530SOL    HW222053   4.302   3.680   9.540 -0.0483  1.0971  2.0875
 3531SOL     OW22054   3.776   0.085   8.641 -0.0732  0.3931 -0.1433
 3531SOL    HW122055   3.769   0.180   8.650 -2.1683  0.3252 -0.9990
 3531SOL    HW222056   3.690   0.057   8.675  0.9899 -0.4021  1.8868
 3532SOL     OW22057   0.984   3.588  15.969 -0.3113 -0.2747 -0.8409
 3532SOL    HW122058   0.965   3.665  15.915 -0.8317 -0.2696 -0.6446
 3532SOL    HW222059   0.981   3.617  16.060  0.2836 -2.4084 -0.1419
 3533SOL     OW22060   3.263   1.392   6.362 -0.1358 -0.3926  0.5789
 3533SOL    HW122061   3.304   1.424   6.443  2.3423  0.3383 -1.0003
 3533SOL    HW222062   3.178   1.356   6.389 -1.2667  4.0575  3.0362
 3534SOL     OW22063   2.076   2.903   3.403  0.5030  0.3235  0.2814
 3534SOL    HW122064   2.125   2.843   3.459 -0.4724 -1.0861 -0.3578
 3534SOL    HW222065   2.088   2.878   3.311  0.8491 -0.5022  0.5502
 3535SOL     OW22066   1.848   1.674   0.454 -0.0189 -0.4590  0.4051
 3535SOL    HW122067   1.821   1.753   0.407  0.7738  0.7915  2.0377
 3535SOL    HW222068   1.760   1.648   0.481 -0.0803  0.8758  1.5125
 3536SOL     OW22069   1.323   1.828  12.717 -0.3408  0.1053  0.4736
 3536SOL    HW122070   1.322   1.903  12.658  0.5634 -0.5834 -0.4277
 3536SOL    HW222071   1.414   1.802  12.703 -0.2983  1.3273 -1.6591
 3537SOL     OW22072   1.546   1.470   9.257 -0.2995 -0.7149 -0.2305
 3537SOL    HW122073   1.568   1.560   9.279  1.0155 -1.2859  0.7498
 3537SOL    HW222074   1.607   1.423   9.314 -1.0665 -1.7791 -0.2913
 3538SOL     OW22075   0.223   0.672   0.261  0.2044  0.5269  0.1204
 3538SOL    HW122076   0.148   0.693   0.206 -0.1052 -1.1198 -0.1015
 3538SOL    HW222077   0.196   0.584   0.289 -1.3425  0.4917 -1.4507
 3539SOL     OW22078   1.790   1.675  15.556  0.1832 -0.4536 -0.2374
 3539SOL    HW122079   1.770   1.718  15.472  2.7746  1.4216  0.0926
 3539SOL    HW222080   1.706   1.638  15.584 -0.5422  1.5632  0.2475
 3540SOL     OW22081   1.412   4.336  10.155  0.2097  0.4533  0.2877
 3540SOL    HW122082   1.418   4.429  10.135 -1.8761  0.7964  1.2399
 3540SOL    HW222083   1.320   4.327  10.179 -0.7854  2.7007 -2.7122
 3541SOL     OW22084   2.791   3.305   6.751  0.6411 -0.8336 -0.6542
 3541SOL    HW122085   2.830   3.329   6.666 -0.1538  0.6975 -0.5890
 3541SOL    HW222086   2.827   3.218   6.765  0.4451 -0.8859 -0.4793
 3542SOL     OW22087   2.641   3.197  12.200  0.3301  0.0201 -0.0978
 3542SOL    HW122088   2.679   3.155  12.277 -0.8597 -1.5381 -0.3587
 3542SOL    HW222089   2.685   3.146  12.133  0.4477  0.7744 -0.6047
 3543SOL     OW22090   3.792   0.212  16.412 -0.4835 -0.5671 -0.7479
 3543SOL    HW122091   3.721   0.252  16.360 -0.6310 -0.2801 -0.3245
 3543SOL    HW222092   3.752   0.144  16.465 -1.2855 -1.3710 -2.3676
 3544SOL     OW22093   2.005   1.133   5.774 -0.8769  0.6264  0.3807
 3544SOL    HW122094   2.056   1.055   5.797  0.4141  1.2008 -0.5465
 3544SOL    HW222095   1.916   1.109   5.799 -0.7164 -0.9053 -0.4909
 3545SOL     OW22096   1.566   2.186   0.125  0.6252 -1.0943  0.0896
 3545SOL    HW122097   1.535   2.276   0.125 -0.1849 -1.3779  1.0209
 3545SOL    HW222098   1.539   2.153   0.211 -0.3559 -2.7099 -0.8482
 3546SOL     OW22099   3.986   2.936   4.113  0.6741  0.3702  0.7145
 3546SOL    HW122100   3.998   2.868   4.179  0.1140  0.8873  1.3448
 3546SOL    HW222101   3.921   2.895   4.056  1.4459  0.5439 -0.2892
 3547SOL     OW22102   4.564   3.111   5.694 -0.3582  0.2106  0.0096
 3547SOL    HW122103   4.630   3.046   5.719 -1.4115 -0.2607  1.5849
 3547SOL    HW222104   4.486   3.063   5.666 -1.2613  1.3848  0.5172
 3548SOL     OW22105   0.962   3.905   5.608  0.3074 -0.3913 -0.0816
 3548SOL    HW122106   1.057   3.909   5.600  0.1899  0.3124 -1.2078
 3548SOL    HW222107   0.940   3.837   5.544  2.1184 -0.3181 -0.7635
 3549SOL     OW22108   2.965   3.351   6.087 -0.6104 -0.0177  0.4285
 3549SOL    HW122109   2.886   3.400   6.063 -1.0017 -1.0871 -0.4673
 3549SOL    HW222110   3.021   3.416   6.129  0.7693 -2.6575  2.7450
 3550SOL     OW22111   4.426   1.035   4.117  0.4446 -0.6274 -0.7422
 3550SOL    HW122112   4.400   0.945   4.137  0.8738 -0.6791 -0.4192
 3550SOL    HW222113   4.381   1.083   4.186 -1.2458 -0.8153 -1.7105
 3551SOL     OW22114   1.322   4.313   1.885 -0.3349 -0.3385 -0.0168
 3551SOL    HW122115   1.254   4.268   1.836 -1.2988  0.3333  0.7018
 3551SOL    HW222116   1.387   4.246   1.906  0.9155  0.3771 -1.5781
 3552SOL     OW22117   2.128   1.944   6.757 -0.5613 -0.1195  0.7461
 3552SOL    HW122118   2.044   1.991   6.750 -1.1924 -1.6801 -2.2976
 3552SOL    HW222119   2.110   1.852   6.736  0.1947  0.0063 -0.4922
 3553SOL     OW22120   3.875   2.507   7.837  0.4906  0.3173 -0.0405
 3553SOL    HW122121   3.970   2.508   7.846  0.5846 -2.1387 -0.7126
 3553SOL    HW222122   3.851   2.531   7.926  0.3102  2.3939 -0.6451
 3554SOL     OW22123   2.648   2.005   5.137  0.5787 -0.4021  0.3096
 3554SOL    HW122124   2.725   2.009   5.081  0.2084  0.6054 -0.1287
 3554SOL    HW222125   2.589   2.067   5.093  0.3243 -1.6642 -1.1442
 3555SOL     OW22126   3.390   1.676  17.467 -0.8037 -0.0094  0.4995
 3555SOL    HW122127   3.367   1.626  17.546  0.5082  1.9054  2.0856
 3555SOL    HW222128   3.305   1.712  17.442 -0.4138  0.3101 -0.3610
 3556SOL     OW22129   0.128   4.260   8.170 -0.6008 -0.7025 -0.2819
 3556SOL    HW122130   0.110   4.261   8.076 -0.9927  0.3246 -0.2021
 3556SOL    HW222131   0.043   4.264   8.213 -0.4490 -1.2881  0.0717
 3557SOL     OW22132   0.086   4.048   5.700 -0.2636 -0.5469  0.1001
 3557SOL    HW122133   0.123   4.036   5.612 -1.4823 -1.1583 -0.3194
 3557SOL    HW222134   0.093   4.142   5.717  0.0346 -0.4827 -0.3600
 3558SOL     OW22135   1.658   1.634   6.296  0.0940  0.6551 -0.6039
 3558SOL    HW122136   1.740   1.682   6.304  0.5054 -0.2851  0.8500
 3558SOL    HW222137   1.628   1.644   6.206  1.2438  2.1840 -0.8055
 3559SOL     OW22138   1.626   2.434   7.507 -0.6170  0.4483  0.0589
 3559SOL    HW122139   1.647   2.517   7.550  3.6950 -0.4405 -0.3070
 3559SOL    HW222140   1.534   2.453   7.489 -0.9690  1.5376  2.8804
 3560SOL     OW22141   1.328   2.288   8.043 -0.2373 -0.0418 -0.4613
 3560SOL    HW122142   1.269   2.274   8.117 -1.6534  0.2131 -1.5266
 3560SOL    HW222143   1.369   2.368   8.076 -0.6603 -0.0469  0.0901
 3561SOL     OW22144   1.243   2.597   2.030 -0.2055  0.5816 -0.7669
 3561SOL    HW122145   1.268   2.579   1.939  1.9678 -0.4633  0.0448
 3561SOL    HW222146   1.330   2.614   2.067  0.2092 -1.2202 -0.8995
 3562SOL     OW22147   4.620   4.172  11.850  0.5119 -0.4354  0.9952
 3562SOL    HW122148   4.546   4.220  11.887  2.4412  1.2259  2.6845
 3562SOL    HW222149   4.593   4.080  11.848  0.3854 -0.3947  0.8058
 3563SOL     OW22150   4.571   4.194   9.768 -0.1680 -0.1983  0.2581
 3563SOL    HW122151   4.636   4.195   9.839  0.1222 -3.9324  0.0431
 3563SOL    HW222152   4.521   4.275   9.779  1.7909  0.9509  0.8341
 3564SOL     OW22153   2.313   3.922   9.170  0.6098  0.4032 -0.6090
 3564SOL    HW122154   2.263   3.885   9.242 -0.2984  0.4350 -1.2246
 3564SOL    HW222155   2.251   3.937   9.099 -1.0495 -0.5988  0.6433
 3565SOL     OW22156   0.447   3.886   5.506 -0.3488  0.1879  0.0695
 3565SOL    HW122157   0.389   3.861   5.578  0.3427  1.1970  0.9787
 3565SOL    HW222158   0.428   3.816   5.444 -0.0374 -0.5197  0.7770
 3566SOL     OW22159   4.449   1.179   2.246 -0.1912  0.2394 -0.3526
 3566SOL    HW122160   4.432   1.203   2.155  0.5298  0.2972 -0.4770
 3566SOL    HW222161   4.434   1.264   2.288 -0.9905 -1.4892  2.8900
 3567SOL     OW22162   0.276   0.734   5.850 -0.3275  0.6936  0.7947
 3567SOL    HW122163   0.221   0.657   5.842 -0.0871  0.6448 -0.3679
 3567SOL    HW222164   0.329   0.706   5.925  0.1568 -3.4563 -1.1068
 3568SOL     OW22165   1.321   3.072   2.837 -0.1387  0.0840 -0.1539
 3568SOL    HW122166   1.414   3.078   2.815  0.0174  5.1965  1.7737
 3568SOL    HW222167   1.291   3.008   2.772  0.4565  0.8953 -1.2377
 3569SOL     OW22168   2.583   2.272   8.629  0.2441  0.4104 -0.1312
 3569SOL    HW122169   2.626   2.275   8.544  0.8110  0.5650  0.1557
 3569SOL    HW222170   2.606   2.363   8.651  1.5738  0.7293 -2.9150
 3570SOL     OW22171   2.685   0.393   3.962 -0.1324 -0.5019  0.5166
 3570SOL    HW122172   2.638   0.351   3.890 -0.4000  1.9052 -0.7253
 3570SOL    HW222173   2.714   0.474   3.919  0.8736 -0.2588  1.6540
 3571SOL     OW22174   1.377   0.872   5.588  0.2517  0.0180  0.5009
 3571SOL    HW122175   1.344   0.937   5.649  0.9735  1.4902 -0.6928
 3571SOL    HW222176   1.471   0.888   5.595 -0.3877  1.9931  4.1142
 3572SOL     OW22177   2.169   2.352   2.219  0.4633 -0.1930  0.1284
 3572SOL    HW122178   2.157   2.296   2.142  1.7196 -1.7451  1.0722
 3572SOL    HW222179   2.205   2.428   2.175  0.1336 -0.3959 -0.4940
 3573SOL     OW22180   1.872   2.779   7.885 -0.2576 -0.2470 -0.8138
 3573SOL    HW122181   1.923   2.766   7.805 -0.6638 -0.1091 -1.0916
 3573SOL    HW222182   1.782   2.781   7.854 -0.5936  0.5126  0.1825
 3574SOL     OW22183   2.988   4.070  14.771 -0.0704  0.0979  0.0472
 3574SOL    HW122184   3.010   4.021  14.692  1.0852 -1.1420  1.1311
 3574SOL    HW222185   2.975   4.157  14.731 -0.7597  0.0809  0.2368
 3575SOL     OW22186   2.720   3.833   0.730 -0.0286 -0.3410 -0.2169
 3575SOL    HW122187   2.786   3.783   0.682 -2.7050 -2.3112 -1.7922
 3575SOL    HW222188   2.752   3.922   0.714 -0.6390 -0.5571 -2.6694
 3576SOL     OW22189   1.974   2.857  17.437  0.5958 -0.3827  0.4335
 3576SOL    HW122190   2.006   2.925  17.377  0.1647  0.5509  1.2644
 3576SOL    HW222191   1.937   2.913  17.506 -0.6995  0.4425 -0.9147
 3577SOL     OW22192   1.116   2.255  13.409  0.2001 -0.1936 -0.8933
 3577SOL    HW122193   1.051   2.323  13.425 -0.3111 -1.1057  0.9250
 3577SOL    HW222194   1.063   2.175  13.408 -0.3150  0.1598 -1.9119
 3578SOL     OW22195   2.347   3.917   0.848  0.3588  0.4338  0.1594
 3578SOL    HW122196   2.381   3.992   0.800  0.5522 -0.2064 -0.7085
 3578SOL    HW222197   2.358   3.955   0.935 -0.8811  1.1213  0.0131
 3579SOL     OW22198   2.800   2.657  16.702 -0.3940 -0.0846 -0.1003
 3579SOL    HW122199   2.720   2.605  16.704 -0.6385  0.3309  1.2327
 3579SOL    HW222200   2.857   2.623  16.633 -0.8521 -0.8262 -0.1051
 3580SOL     OW22201   2.622   0.892   5.084  0.1776  0.2023 -0.4490
 3580SOL    HW122202   2.654   0.949   5.154  0.5516  2.3590 -2.3660
 3580SOL    HW222203   2.690   0.828   5.067 -0.4995 -1.0266  1.5406
 3581SOL     OW22204   4.482   4.403  11.105 -0.1952  0.5275  0.4767
 3581SOL    HW122205   4.480   4.308  11.118  4.7233  0.5679  1.7427
 3581SOL    HW222206   4.494   4.430  11.196  2.3167 -0.6239  0.4824
 3582SOL     OW22207   0.732   0.195   8.680 -0.0229  0.6648  0.1450
 3582SOL    HW122208   0.654   0.216   8.630 -2.2614 -2.6486  2.2311
 3582SOL    HW222209   0.710   0.103   8.693  1.9918  0.3569  1.3940
 3583SOL     OW22210   4.244   2.595   1.877 -0.5125 -0.4032 -0.7643
 3583SOL    HW122211   4.281   2.664   1.822 -1.6378  1.1088  0.3549
 3583SOL    HW222212   4.202   2.639   1.951 -1.8243  2.6659 -3.2850
 3584SOL     OW22213   4.002   0.771   4.371  0.0525  0.4463 -0.1159
 3584SOL    HW122214   4.008   0.865   4.385  0.8527  0.7051 -2.2249
 3584SOL    HW222215   4.097   0.759   4.368  0.1180  0.8494  0.3364
 3585SOL     OW22216   0.117   0.235   4.009 -0.3215  0.4504  0.1190
 3585SOL    HW122217   0.090   0.220   4.099  0.5235  0.0651  0.3066
 3585SOL    HW222218   0.036   0.271   3.973 -0.5459 -0.7404 -0.5746
 3586SOL     OW22219   0.107   3.161   4.617 -0.5117 -0.3970  0.8614
 3586SOL    HW122220   0.140   3.249   4.599  1.0293 -1.2981 -0.7055
 3586SOL    HW222221   0.047   3.181   4.689 -0.7795  1.1775  0.1931
 3587SOL     OW22222   1.721   4.569   9.471 -0.2016  0.1800  0.1019
 3587SOL    HW122223   1.632   4.598   9.450 -0.3880 -1.8966 -1.8595
 3587SOL    HW222224   1.702   4.538   9.560  0.6212  0.2076  0.2854
 3588SOL     OW22225   0.788   0.287   9.687 -0.3067 -0.8042 -0.1002
 3588SOL    HW122226   0.731   0.231   9.740  1.7413 -0.8606  2.0357
 3588SOL    HW222227   0.744   0.290   9.602 -0.9647 -0.4297  0.2571
 3589SOL     OW22228   0.052   3.969  16.414  0.4729 -0.1023  0.1290
 3589SOL    HW122229   0.026   4.028  16.344 -0.7732 -2.7544 -1.6629
 3589SOL    HW222230   0.117   4.023  16.457 -0.2355  0.2988  0.7064
 3590SOL     OW22231   4.154   3.164   4.343 -0.1174  0.1901  0.0203
 3590SOL    HW122232   4.227   3.162   4.283  0.5399 -1.0191  0.8584
 3590SOL    HW222233   4.094   3.227   4.301  0.7441  1.1882  0.2866
 3591SOL     OW22234   1.229   2.519  15.476  0.1056  0.3885  0.2914
 3591SOL    HW122235   1.289   2.591  15.493 -1.2214  1.8601 -1.3010
 3591SOL    HW222236   1.288   2.463  15.426  2.6455  1.4982  2.0687
 3592SOL     OW22237   2.823   3.734  12.564  0.5038  0.8961 -0.3928
 3592SOL    HW122238   2.777   3.817  12.576 -0.0794  0.7511 -1.6243
 3592SOL    HW222239   2.793   3.684  12.640  2.1603  0.5664  0.0513
 3593SOL     OW22240   3.163   1.727   7.579 -0.1275  0.0080 -0.2206
 3593SOL    HW122241   3.205   1.780   7.511 -0.5063  2.1664  1.2422
 3593SOL    HW222242   3.088   1.700   7.526 -0.5008 -1.0961  0.8484
 3594SOL     OW22243   2.890   3.871   9.032 -0.0802 -0.3877  0.3286
 3594SOL    HW122244   2.858   3.837   8.949  0.4361 -0.8100  0.3045
 3594SOL    HW222245   2.852   3.808   9.094  1.5511 -0.9237  0.7831
 3595SOL     OW22246   0.688   3.359   2.892  0.0378 -0.5224  0.0800
 3595SOL    HW122247   0.630   3.415   2.841  1.6278  1.5595  0.5409
 3595SOL    HW222248   0.717   3.297   2.825  0.1494  0.4678 -0.7874
 3596SOL     OW22249   3.510   1.475   3.247 -0.9282  0.1586 -0.0052
 3596SOL    HW122250   3.505   1.571   3.241 -1.6568  0.1156  0.0352
 3596SOL    HW222251   3.464   1.456   3.328  1.5699 -3.1609  0.6344
 3597SOL     OW22252   1.215   3.382   8.653 -0.2775 -0.3435 -0.1640
 3597SOL    HW122253   1.197   3.370   8.746 -0.7474  0.3183 -0.1677
 3597SOL    HW222254   1.281   3.314   8.637 -1.2308 -0.6919 -2.5394
 3598SOL     OW22255   1.497   2.131   4.625  0.2248 -0.5150 -0.1084
 3598SOL    HW122256   1.427   2.100   4.682 -0.6512  1.5981 -0.0416
 3598SOL    HW222257   1.480   2.097   4.537  1.4216 -0.8922 -0.1993
 3599SOL     OW22258   2.370   1.558   3.692  0.0144 -0.1409 -0.2415
 3599SOL    HW122259   2.417   1.474   3.689 -1.8361 -1.1906  0.3939
 3599SOL    HW222260   2.281   1.528   3.709  0.0713  0.0714  0.4297
 3600SOL     OW22261   1.804   1.731  13.929  0.7670 -0.0647 -0.2911
 3600SOL    HW122262   1.732   1.789  13.951 -0.5583 -1.4955 -0.8421
 3600SOL    HW222263   1.877   1.793  13.932  2.1394 -1.7695  1.3738
 3601SOL     OW22264   1.259   1.398   9.815  0.5392  1.4003  0.6264
 3601SOL    HW122265   1.285   1.362   9.900 -1.2662  0.5290  0.8068
 3601SOL    HW222266   1.344   1.435   9.793  0.1336  1.5505 -0.6698
 3602SOL     OW22267   2.574   1.937   4.813 -0.2104 -0.2276  0.6072
 3602SOL    HW122268   2.635   1.988   4.760 -1.8504  0.3444 -0.7042
 3602SOL    HW222269   2.531   2.009   4.860 -0.0449 -0.5972  1.3329
 3603SOL     OW22270   4.006   2.460   9.180  0.3067  0.3667 -0.1671
 3603SOL    HW122271   4.090   2.503   9.193  0.6354  0.9186 -4.0503
 3603SOL    HW222272   3.999   2.466   9.085  2.4712  0.7221 -0.2937
 3604SOL     OW22273   3.493   3.189  10.750 -0.3729  0.1234  0.4032
 3604SOL    HW122274   3.532   3.115  10.796  1.2862  1.3240  0.9285
 3604SOL    HW222275   3.507   3.155  10.661 -0.9452 -1.6513  1.0028
 3605SOL     OW22276   3.227   2.513   1.420 -0.1378  0.6711 -0.1405
 3605SOL    HW122277   3.185   2.448   1.478  2.0782 -1.0701 -0.5021
 3605SOL    HW222278   3.190   2.497   1.333 -1.9202  0.0754  0.7239
 3606SOL     OW22279   1.637   1.141   2.220  0.2717 -0.0073  0.0313
 3606SOL    HW122280   1.586   1.127   2.140  1.5774  0.5024 -0.8984
 3606SOL    HW222281   1.587   1.206   2.269 -1.0663  1.3909 -3.1678
 3607SOL     OW22282   2.935   2.594   2.708 -0.1165  0.3655  0.3681
 3607SOL    HW122283   2.943   2.688   2.694  1.3356 -0.1510 -2.2494
 3607SOL    HW222284   2.902   2.579   2.619 -0.0284  1.0761  0.2134
 3608SOL     OW22285   2.974   4.197  13.587 -0.1026  0.3724  0.0356
 3608SOL    HW122286   3.042   4.131  13.577 -0.2167  0.3203 -0.4046
 3608SOL    HW222287   2.909   4.151  13.641  0.2557 -0.0629  0.0985
 3609SOL     OW22288   0.425   3.846   7.064 -0.4906  0.3290 -0.0197
 3609SOL    HW122289   0.378   3.813   6.987  0.4403 -2.5493  0.6471
 3609SOL    HW222290   0.431   3.765   7.114  0.0649  0.3650 -0.0360
 3610SOL     OW22291   0.635   3.372   8.702  0.0309 -0.0151  0.2581
 3610SOL    HW122292   0.548   3.383   8.663 -0.7383 -1.5756  1.5210
 3610SOL    HW222293   0.623   3.401   8.792 -3.0414  0.0526 -0.1577
 3611SOL     OW22294   0.560   3.584   3.916 -0.2270  0.1982  0.0624
 3611SOL    HW122295   0.630   3.550   3.861  0.5814  0.5704  0.8751
 3611SOL    HW222296   0.544   3.648   3.847  2.5793  1.2163  0.3633
 3612SOL     OW22297   4.180   0.595   4.679  0.1761 -0.3295  0.2522
 3612SOL    HW122298   4.227   0.605   4.597 -1.0209 -0.2416 -0.4196
 3612SOL    HW222299   4.181   0.687   4.704  1.6680 -0.5048  0.8664
 3613SOL     OW22300   0.546   1.037   4.879 -0.1712 -0.5121 -0.2332
 3613SOL    HW122301   0.495   0.990   4.946  0.8799 -3.6818 -1.6448
 3613SOL    HW222302   0.570   0.965   4.821  1.5269 -0.6847  0.6999
 3614SOL     OW22303   0.415   2.669  17.231  0.0240 -0.3054 -0.1087
 3614SOL    HW122304   0.499   2.694  17.269 -1.0382  2.3833  0.5065
 3614SOL    HW222305   0.353   2.706  17.294 -0.2277  1.6843 -1.5325
 3615SOL     OW22306   0.722   3.648   4.755 -0.4091  0.2399  0.2320
 3615SOL    HW122307   0.736   3.704   4.832 -0.1895 -0.2884  0.5770
 3615SOL    HW222308   0.710   3.714   4.687  1.0372  2.3006  1.9639
 3616SOL     OW22309   1.727   0.959   8.467 -0.1202  0.0852 -0.3591
 3616SOL    HW122310   1.730   0.870   8.503  1.9405  0.4543  0.3844
 3616SOL    HW222311   1.751   0.941   8.376 -0.2499 -1.0627 -0.1673
 3617SOL     OW22312   1.006   1.392   5.212 -0.5440  0.5363  0.2141
 3617SOL    HW122313   0.953   1.361   5.139  0.4361  0.2171 -0.3564
 3617SOL    HW222314   1.092   1.373   5.175 -1.2110 -1.3475 -0.3157
 3618SOL     OW22315   3.222   0.368  10.832 -0.0075  0.3459 -0.7182
 3618SOL    HW122316   3.177   0.312  10.769 -1.7798 -0.7253  1.4887
 3618SOL    HW222317   3.296   0.310  10.852  0.5647  1.4521  0.4524
 3619SOL     OW22318   0.886   0.940   7.061  0.0415 -0.1359 -0.3228
 3619SOL    HW122319   0.891   0.933   7.157  1.1731 -0.1524 -0.3767
 3619SOL    HW222320   0.959   0.993   7.028  1.2363 -1.3141  0.4035
 3620SOL     OW22321   4.326   4.386   6.239  0.1614 -0.3844 -0.4379
 3620SOL    HW122322   4.381   4.413   6.165  1.2580 -1.9052 -0.1843
 3620SOL    HW222323   4.305   4.296   6.214  1.0996 -0.9761  0.8870
 3621SOL     OW22324   3.217   3.987   4.270 -0.5308  0.7342  0.0391
 3621SOL    HW122325   3.158   4.027   4.333 -0.3773  3.1820 -1.3937
 3621SOL    HW222326   3.216   4.061   4.210 -0.1768  2.1470  1.8057
 3622SOL     OW22327   3.797   2.163   3.476 -0.0101  0.2028 -0.6981
 3622SOL    HW122328   3.705   2.187   3.464 -0.2109 -0.3021 -0.1982
 3622SOL    HW222329   3.831   2.211   3.401  1.3567  1.5054  0.7674
 3623SOL     OW22330   0.557   2.912   1.278  0.3125 -0.5849  0.2043
 3623SOL    HW122331   0.594   2.827   1.256 -2.6592 -1.6286 -0.7506
 3623SOL    HW222332   0.597   2.967   1.211  0.3953 -0.2233  0.5519
 3624SOL     OW22333   0.198   3.740  13.902 -0.0912  0.4811 -0.4863
 3624SOL    HW122334   0.281   3.711  13.939  0.7454  0.4740 -2.3737
 3624SOL    HW222335   0.172   3.775  13.987  1.8834 -0.4632  0.4992
 3625SOL     OW22336   3.325   1.022   3.345  0.3132 -0.0539  0.4198
 3625SOL    HW122337   3.267   1.098   3.350 -1.8398 -1.8279  2.3339
 3625SOL    HW222338   3.407   1.067   3.367 -0.7638  2.0553  0.1485
 3626SOL     OW22339   3.569   1.113  13.983  0.5107  0.0609 -0.5835
 3626SOL    HW122340   3.619   1.095  14.062  0.5735 -0.7873 -0.8115
 3626SOL    HW222341   3.567   1.024  13.946  0.3834 -0.2733  0.2208
 3627SOL     OW22342   3.162   3.882  13.879  0.6788 -0.3380  0.0667
 3627SOL    HW122343   3.138   3.791  13.894  1.4008 -0.7931 -1.5554
 3627SOL    HW222344   3.130   3.921  13.960  0.3590 -0.5914  0.0622
 3628SOL     OW22345   0.691   3.586   5.544 -0.2186 -0.3717 -0.3053
 3628SOL    HW122346   0.658   3.512   5.492 -2.0403  0.4632 -0.3535
 3628SOL    HW222347   0.665   3.571   5.634  0.8409  1.3908  0.2884
 3629SOL     OW22348   0.094   0.468   2.637 -0.1321  0.7186  0.2263
 3629SOL    HW122349   0.075   0.543   2.581  2.2154  1.1937  0.0505
 3629SOL    HW222350   0.086   0.399   2.571 -0.7855 -1.6457  2.7794
 3630SOL     OW22351   3.112   1.567  11.238 -0.4939 -0.0420  0.1638
 3630SOL    HW122352   3.099   1.661  11.249  2.9227  0.7224 -2.3211
 3630SOL    HW222353   3.092   1.568  11.144  0.8244 -0.4789 -0.1146
 3631SOL     OW22354   0.041   3.236   5.091 -0.0424  0.4204 -0.6799
 3631SOL    HW122355   0.081   3.318   5.062  1.6953  0.0177  0.6077
 3631SOL    HW222356   0.008   3.267   5.175  2.3672 -1.3029  0.8967
 3632SOL     OW22357   0.893   3.031  12.704  0.3979 -0.2296 -0.4472
 3632SOL    HW122358   0.840   2.982  12.641 -0.9101 -0.5399  0.9078
 3632SOL    HW222359   0.907   3.112  12.654 -1.0937  0.9963  1.1290
 3633SOL     OW22360   1.718   3.868   4.515 -0.1470  0.6160 -0.2468
 3633SOL    HW122361   1.799   3.817   4.513  0.1539  1.1022 -0.5831
 3633SOL    HW222362   1.747   3.958   4.499  1.3570  0.1044 -0.3987
 3634SOL     OW22363   3.664   1.470   7.056 -0.0129 -0.3223  0.1114
 3634SOL    HW122364   3.700   1.410   6.991  0.1978  0.6391 -0.6613
 3634SOL    HW222365   3.732   1.468   7.123  0.1070 -1.0230 -0.0334
 3635SOL     OW22366   2.856   0.763   6.304 -0.4833  0.1637 -0.3100
 3635SOL    HW122367   2.813   0.829   6.251 -0.7805  0.9606  0.9142
 3635SOL    HW222368   2.931   0.737   6.250  0.6935  2.0305  0.3958
 3636SOL     OW22369   0.602   1.622   5.049 -0.1756  0.0046  0.4688
 3636SOL    HW122370   0.656   1.617   4.971  2.2403 -0.2170  2.1607
 3636SOL    HW222371   0.617   1.534   5.084 -3.4085 -0.6705  0.1983
 3637SOL     OW22372   1.410   3.905   8.653  0.0145  0.1433  0.0297
 3637SOL    HW122373   1.363   3.822   8.660  1.8245 -0.9318 -0.5266
 3637SOL    HW222374   1.341   3.962   8.619  0.4524  0.9051  0.4059
 3638SOL     OW22375   3.963   1.086   6.429 -0.2278  0.0385  0.0001
 3638SOL    HW122376   4.011   1.057   6.351  0.8960  0.2497  0.6192
 3638SOL    HW222377   4.027   1.073   6.499  1.7444 -2.3076 -2.2372
 3639SOL     OW22378   2.870   3.533  16.165 -0.5613  0.2312 -0.3611
 3639SOL    HW122379   2.856   3.543  16.071 -2.9481  1.7157  0.1390
 3639SOL    HW222380   2.918   3.452  16.181 -1.1640  0.0469  0.5055
 3640SOL     OW22381   1.652   0.071   7.681  0.5335  0.9981  0.1516
 3640SOL    HW122382   1.644   0.068   7.776  2.8435 -0.2099  0.3086
 3640SOL    HW222383   1.666   0.164   7.665  2.9547  0.3648 -1.4961
 3641SOL     OW22384   3.667   0.687  15.049 -0.6404  0.3095 -0.2213
 3641SOL    HW122385   3.680   0.763  14.992  1.1643 -0.1653 -0.4298
 3641SOL    HW222386   3.710   0.716  15.130 -2.2015  2.0882 -0.0173
 3642SOL     OW22387   2.054   4.700   4.295  0.2899 -0.0558 -0.2035
 3642SOL    HW122388   2.116   4.627   4.289  1.1640  0.8094 -1.8192
 3642SOL    HW222389   2.063   4.721   4.388 -1.1167  1.5111 -0.4302
 3643SOL     OW22390   2.641   0.614  15.436 -0.1142  0.1080 -0.0935
 3643SOL    HW122391   2.615   0.655  15.353  1.3959  1.3730  0.0708
 3643SOL    HW222392   2.574   0.653  15.492 -2.9776 -2.6162 -1.6213
 3644SOL     OW22393   4.445   0.747   6.564 -0.3528  0.2056  0.5013
 3644SOL    HW122394   4.373   0.805   6.591 -1.2411 -0.2139 -1.0176
 3644SOL    HW222395   4.492   0.807   6.506 -0.1670  0.0826  0.5259
 3645SOL     OW22396   4.548   2.501   9.361 -0.1077 -0.4366  0.2399
 3645SOL    HW122397   4.584   2.581   9.399 -1.1971  1.8101 -3.4831
 3645SOL    HW222398   4.457   2.516   9.386 -0.2684  0.8265 -1.0994
 3646SOL     OW22399   2.610   0.053   0.576 -0.2746  0.7289  0.4844
 3646SOL    HW122400   2.568   4.717   0.640 -1.4607  2.3782  1.1951
 3646SOL    HW222401   2.540   0.116   0.558 -0.8455  0.5359  2.0421
 3647SOL     OW22402   4.416   0.734   1.839 -0.2373 -0.2004  0.2930
 3647SOL    HW122403   4.322   0.740   1.823 -0.5874  1.1049  2.6977
 3647SOL    HW222404   4.434   0.658   1.785 -0.4813 -0.4587  0.5741
 3648SOL     OW22405   0.823   0.578  13.318  0.4257  0.0530 -0.9351
 3648SOL    HW122406   0.748   0.560  13.261 -1.0205  2.9234  0.0707
 3648SOL    HW222407   0.807   0.536  13.402  2.0261 -0.6497 -0.9870
 3649SOL     OW22408   2.539   2.189  11.773 -0.0040 -0.1476  0.1984
 3649SOL    HW122409   2.470   2.253  11.755  0.6087  0.2156 -0.8545
 3649SOL    HW222410   2.619   2.242  11.778 -1.3942  2.1260 -1.4005
 3650SOL     OW22411   4.369   0.335   4.849 -0.2533 -0.0233 -0.3667
 3650SOL    HW122412   4.349   0.256   4.799  1.2044  0.0825 -1.1145
 3650SOL    HW222413   4.282   0.365   4.875  0.1998  1.6170 -0.6900
 3651SOL     OW22414   0.335   4.269   6.868 -0.4773 -0.0046 -0.4987
 3651SOL    HW122415   0.277   4.306   6.935 -0.3519  1.2926 -1.0904
 3651SOL    HW222416   0.372   4.355   6.849 -0.8053  0.2776  0.1357
 3652SOL     OW22417   2.686   1.481  16.135 -0.0876 -0.3646 -0.5454
 3652SOL    HW122418   2.718   1.564  16.170  0.8528 -1.4800  1.2775
 3652SOL    HW222419   2.614   1.510  16.080  0.0148 -0.5829 -0.7940
 3653SOL     OW22420   1.147   3.486  17.035 -0.0264  0.0979 -0.7129
 3653SOL    HW122421   1.140   3.521  16.946 -0.9518 -0.1206 -0.7320
 3653SOL    HW222422   1.153   3.566  17.087 -1.4400  1.4853 -2.7032
 3654SOL     OW22423   1.354   1.404   9.078  0.5334  0.6142 -0.1068
 3654SOL    HW122424   1.422   1.415   9.144  1.8832 -1.5706 -1.1047
 3654SOL    HW222425   1.312   1.327   9.116 -0.5416  1.7825  1.0606
 3655SOL     OW22426   0.617   1.194  15.056 -0.2596 -0.0370 -0.6164
 3655SOL    HW122427   0.704   1.167  15.084 -0.7778  1.2402  2.1666
 3655SOL    HW222428   0.562   1.161  15.127 -0.7053  2.7614  0.3573
 3656SOL     OW22429   1.736   0.900   7.708  0.1481  0.3179  0.0808
 3656SOL    HW122430   1.710   0.973   7.652 -0.6890  0.3353  0.4884
 3656SOL    HW222431   1.684   0.827   7.672 -1.1296  0.9812  0.5656
 3657SOL     OW22432   3.576   0.327  11.891 -0.0056 -0.2267  0.4748
 3657SOL    HW122433   3.520   0.385  11.942 -0.8720 -0.2352 -0.4839
 3657SOL    HW222434   3.654   0.383  11.899 -0.0754  0.0888 -1.1397
 3658SOL     OW22435   2.448   4.136   0.995 -0.4926 -0.2107 -0.4598
 3658SOL    HW122436   2.496   4.147   0.913  1.1807  1.4041  0.7153
 3658SOL    HW222437   2.381   4.202   0.976 -1.2180 -0.6936  0.4155
 3659SOL     OW22438   1.556   1.837   5.626  0.0440 -0.5417  0.3382
 3659SOL    HW122439   1.617   1.887   5.572 -0.7866 -0.7970 -0.8294
 3659SOL    HW222440   1.608   1.829   5.706 -2.1311 -3.5669  1.4446
 3660SOL     OW22441   0.205   3.275   8.060 -0.0454  0.0342  0.2596
 3660SOL    HW122442   0.263   3.269   8.136 -0.5546  0.7044  0.7047
 3660SOL    HW222443   0.121   3.296   8.102 -0.1439 -1.2451  0.6868
 3661SOL     OW22444   2.103   1.574   8.490  0.2056 -0.1845 -0.0991
 3661SOL    HW122445   2.176   1.610   8.539 -1.0324  0.8319  0.9990
 3661SOL    HW222446   2.145   1.499   8.450 -1.0923 -1.2337  0.5009
 3662SOL     OW22447   1.444   1.545   3.385  0.5015 -1.1314 -0.4762
 3662SOL    HW122448   1.355   1.552   3.422  0.5031  5.0967 -1.5596
 3662SOL    HW222449   1.443   1.466   3.332 -0.5996  0.1060 -2.2759
 3663SOL     OW22450   2.313   0.676   4.610 -0.2952 -0.1633 -0.3671
 3663SOL    HW122451   2.255   0.676   4.686 -0.0760 -1.1102 -0.2041
 3663SOL    HW222452   2.318   0.582   4.596 -1.1453 -0.6741  2.7452
 3664SOL     OW22453   0.495   1.140   2.452  0.4919 -0.3766 -0.0364
 3664SOL    HW122454   0.532   1.078   2.515  0.3262  0.4349  0.8546
 3664SOL    HW222455   0.508   1.228   2.487  0.7179 -1.1844  1.8969
 3665SOL     OW22456   1.164   3.567  10.186  0.2607 -0.4840 -0.4653
 3665SOL    HW122457   1.187   3.635  10.123 -0.6000  2.4868  2.3785
 3665SOL    HW222458   1.245   3.565  10.237 -0.3747  2.0340  0.6532
 3666SOL     OW22459   3.238   3.665   2.546  0.2573 -0.3009 -0.0405
 3666SOL    HW122460   3.301   3.649   2.616  0.6701  0.5526 -0.2200
 3666SOL    HW222461   3.161   3.619   2.578 -0.8074  0.7737 -1.0620
 3667SOL     OW22462   3.972   0.243   2.772 -0.1495  0.0867 -0.0489
 3667SOL    HW122463   3.885   0.238   2.733  1.1083 -2.1735 -2.5480
 3667SOL    HW222464   3.997   0.325   2.729  1.8572 -0.5677 -0.0987
 3668SOL     OW22465   0.035   4.394   5.877 -0.2518  0.4853 -0.2874
 3668SOL    HW122466   0.009   4.372   5.788 -0.9000 -1.9590  0.5252
 3668SOL    HW222467   0.055   4.488   5.869 -0.3090  0.6246  1.1518
 3669SOL     OW22468   2.573   4.619   4.203  0.3946 -0.1450 -0.2900
 3669SOL    HW122469   2.590   4.684   4.135  1.0456  2.9844  2.8353
 3669SOL    HW222470   2.582   4.678   4.278  2.4045  0.3042 -0.8853
 3670SOL     OW22471   2.475   2.287   0.010  0.1994  0.4757 -0.4589
 3670SOL    HW122472   2.516   2.285   0.097  0.9220 -2.8350 -0.8965
 3670SOL    HW222473   2.536   2.241  17.641 -0.0208  0.8229 -0.9742
 3671SOL     OW22474   1.642   4.579  16.273 -0.0495 -0.0136 -0.3460
 3671SOL    HW122475   1.681   4.562  16.186 -0.3022 -1.2062 -0.2217
 3671SOL    HW222476   1.724   4.565  16.321  0.3699  3.8290  0.0284
 3672SOL     OW22477   1.680   3.810  11.670  0.1779  0.3312 -0.3144
 3672SOL    HW122478   1.768   3.804  11.634  0.3054  0.4965 -0.0305
 3672SOL    HW222479   1.657   3.717  11.669  1.0423  0.1255 -0.6296
 3673SOL     OW22480   0.753   0.642  16.336  0.3074 -0.1762  0.7142
 3673SOL    HW122481   0.665   0.609  16.315 -1.1000  2.7415  2.0356
 3673SOL    HW222482   0.745   0.656  16.430  4.2250 -2.0381  1.3304
 3674SOL     OW22483   4.682   3.064   5.419 -0.2478  0.4221 -0.0089
 3674SOL    HW122484   4.697   3.074   5.513 -3.1207  2.0435  0.2935
 3674SOL    HW222485   4.708   3.154   5.401 -0.5434  0.7062  0.9904
 3675SOL     OW22486   4.396   0.731  16.046 -0.3177 -0.0155  0.3071
 3675SOL    HW122487   4.339   0.807  16.056 -0.8666 -0.3621 -0.1885
 3675SOL    HW222488   4.337   0.659  16.022 -0.0652  0.1669 -0.8470
 3676SOL     OW22489   4.320   3.649  15.232 -0.0003 -0.3737  0.3437
 3676SOL    HW122490   4.365   3.570  15.202 -0.5023 -0.6037  0.1920
 3676SOL    HW222491   4.375   3.725  15.214 -2.6518  0.9998 -1.9248
 3677SOL     OW22492   2.099   2.542  13.107 -0.3473 -0.2063  0.5018
 3677SOL    HW122493   2.169   2.486  13.140 -0.0424 -0.5888 -0.7883
 3677SOL    HW222494   2.097   2.514  13.015 -0.4318 -3.1224  1.4002
 3678SOL     OW22495   4.253   4.304   3.326 -0.2907 -0.0819  0.1020
 3678SOL    HW122496   4.240   4.218   3.367  0.0319 -0.1014  0.1636
 3678SOL    HW222497   4.340   4.299   3.288 -0.4249 -1.4832 -0.0512
 3679SOL     OW22498   0.779   0.788   6.835  0.1209  0.2665 -0.1636
 3679SOL    HW122499   0.871   0.776   6.809  0.2293  0.1597  0.2788
 3679SOL    HW222500   0.789   0.834   6.918 -1.3407  1.0161 -0.4062
 3680SOL     OW22501   2.103   0.106  14.642  0.3297  0.5688 -0.1321
 3680SOL    HW122502   2.171   0.040  14.648  0.0798  0.3695  0.4803
 3680SOL    HW222503   2.110   0.149  14.728 -2.3693 -1.8231  1.2726
 3681SOL     OW22504   0.704   1.993  14.356 -0.3213 -0.2138 -0.1909
 3681SOL    HW122505   0.796   1.967  14.353  0.1213  1.1306  1.6385
 3681SOL    HW222506   0.703   2.039  14.273  1.1675 -1.4462 -0.8827
 3682SOL     OW22507   0.583   3.317   0.896  0.0493 -0.0936  0.3796
 3682SOL    HW122508   0.553   3.233   0.862 -1.1617  0.0620  1.0592
 3682SOL    HW222509   0.611   3.357   0.814 -0.5615 -2.9456 -1.1988
 3683SOL     OW22510   1.939   3.166  16.774 -0.2890  0.1727  0.5191
 3683SOL    HW122511   1.967   3.257  16.761  0.6647 -0.5566 -2.5090
 3683SOL    HW222512   2.000   3.106  16.732  0.5579  1.4368 -0.0696
 3684SOL     OW22513   0.837   0.577   9.713  0.0191  0.2825  0.4247
 3684SOL    HW122514   0.883   0.582   9.797  1.2101 -1.2392 -0.1414
 3684SOL    HW222515   0.810   0.486   9.706  0.7745  0.0428  0.6362
 3685SOL     OW22516   1.471   1.788   3.846  0.3625 -0.5744  0.3992
 3685SOL    HW122517   1.456   1.873   3.889  3.1003 -0.1344  0.4684
 3685SOL    HW222518   1.447   1.822   3.760  0.1175 -0.6209  0.4487
 3686SOL     OW22519   3.675   1.425  17.676 -0.1375 -0.3796 -0.3401
 3686SOL    HW122520   3.749   1.426   0.048 -0.4544  0.6522  0.0173
 3686SOL    HW222521   3.604   1.474   0.028 -0.8488 -1.2552 -0.5098
 3687SOL     OW22522   4.024   1.231  15.343  0.6480  0.2472 -0.2536
 3687SOL    HW122523   3.986   1.311  15.305 -0.4852  0.4191  1.2499
 3687SOL    HW222524   3.990   1.237  15.432 -0.5630  1.0936 -0.7814
 3688SOL     OW22525   1.669   0.663  10.987  0.3209 -0.3663 -0.1735
 3688SOL    HW122526   1.578   0.640  11.007  0.8397 -2.1118  0.1825
 3688SOL    HW222527   1.714   0.597  11.040  0.5824 -0.2242 -0.2185
 3689SOL     OW22528   2.627   3.298   4.706  0.4937 -0.2531 -0.1241
 3689SOL    HW122529   2.684   3.314   4.781  0.1872  0.1311  0.0246
 3689SOL    HW222530   2.570   3.373   4.722  0.8400  0.0896 -0.4982
 3690SOL     OW22531   3.547   0.811   2.046  0.6663  0.3493  0.6212
 3690SOL    HW122532   3.515   0.875   1.982 -0.4843 -1.1982 -0.3476
 3690SOL    HW222533   3.618   0.768   1.997  1.8516  1.5393  1.3053
 3691SOL     OW22534   2.846   1.641  10.484 -0.3699 -0.1280  0.2771
 3691SOL    HW122535   2.845   1.733  10.457 -0.3912  0.2487  1.5376
 3691SOL    HW222536   2.938   1.614  10.482 -0.3206  0.0801 -0.3239
 3692SOL     OW22537   2.374   0.046   2.390 -0.0774  0.1515 -0.2648
 3692SOL    HW122538   2.339   0.105   2.323  3.5220 -0.0797 -2.3643
 3692SOL    HW222539   2.421   4.698   2.344  0.8470  0.9304 -0.5007
 3693SOL     OW22540   2.964   4.346   9.510  0.0273 -0.4512  0.0314
 3693SOL    HW122541   2.993   4.377   9.424  1.4273 -3.3767 -0.5530
 3693SOL    HW222542   3.003   4.414   9.565  1.0153 -0.3583 -0.7950
 3694SOL     OW22543   0.491   2.698   0.492 -0.6150  0.6681 -0.2372
 3694SOL    HW122544   0.503   2.715   0.585  3.3479  0.2762 -0.6935
 3694SOL    HW222545   0.448   2.780   0.465 -2.0061 -0.3827 -1.2089
 3695SOL     OW22546   1.563   1.075   6.712  0.0232  0.0344 -0.3311
 3695SOL    HW122547   1.610   0.992   6.703  0.6837  0.4296 -0.5276
 3695SOL    HW222548   1.638   1.134   6.708 -0.2356  0.2400 -2.2827
 3696SOL     OW22549   1.110   3.625  12.244  0.2460  0.0154  0.0552
 3696SOL    HW122550   1.201   3.615  12.217  0.8237  0.4872  1.8139
 3696SOL    HW222551   1.076   3.651  12.158 -0.9130 -0.0323  0.5068
 3697SOL     OW22552   1.033   0.853  10.006 -0.1299 -0.0971 -0.1447
 3697SOL    HW122553   1.095   0.802  10.057  0.4337 -0.3377 -1.0591
 3697SOL    HW222554   1.045   0.819   9.917 -4.4446  0.7179 -1.0275
 3698SOL     OW22555   1.040   0.381  15.507  0.1323  0.4235  0.0153
 3698SOL    HW122556   0.950   0.391  15.538  0.0987 -0.2545  0.1363
 3698SOL    HW222557   1.033   0.450  15.441 -0.6270  0.6431  0.3248
 3699SOL     OW22558   0.446   1.468  13.703 -0.2436 -0.1385  0.4357
 3699SOL    HW122559   0.528   1.470  13.752 -0.2549  1.5246  0.3698
 3699SOL    HW222560   0.444   1.377  13.673  0.2955  0.4986 -1.5896
 3700SOL     OW22561   3.303   0.925  13.941  0.3831  0.0988  0.1993
 3700SOL    HW122562   3.393   0.901  13.921  0.4255  0.4526 -0.0420
 3700SOL    HW222563   3.297   0.897  14.033  1.1689 -1.0382 -0.1002
 3701SOL     OW22564   0.896   1.651   4.904 -0.0326 -0.1750 -0.1047
 3701SOL    HW122565   0.907   1.721   4.839 -0.5585  0.4044  0.4360
 3701SOL    HW222566   0.911   1.702   4.983 -1.6095 -1.1091  0.7908
 3702SOL     OW22567   3.470   2.017   1.894  0.6102 -0.4914 -0.4581
 3702SOL    HW122568   3.492   1.945   1.835  0.7341  0.1549 -1.2123
 3702SOL    HW222569   3.556   2.054   1.912  0.0300  0.7155 -0.1430
 3703SOL     OW22570   2.190   3.694   3.444 -0.2600 -0.3640 -0.1148
 3703SOL    HW122571   2.190   3.759   3.374  1.2985 -1.3413 -1.0296
 3703SOL    HW222572   2.103   3.654   3.442 -1.1052  1.5466 -1.4692
 3704SOL     OW22573   0.073   3.859   2.569 -0.0097  0.1061 -0.0510
 3704SOL    HW122574   0.123   3.940   2.578  0.5059 -0.0524 -1.4682
 3704SOL    HW222575   0.035   3.877   2.483  0.4845 -2.4539 -0.8100
 3705SOL     OW22576   0.381   4.031  12.298 -0.3737  0.2974  0.3070
 3705SOL    HW122577   0.317   3.995  12.236 -1.6048 -0.5900  2.1228
 3705SOL    HW222578   0.391   4.118  12.259 -0.6774 -0.6803 -1.9458
 3706SOL     OW22579   2.727   4.655   6.923 -0.1954 -0.2886  0.1085
 3706SOL    HW122580   2.726   4.580   6.983 -1.2253  0.7442  1.3782
 3706SOL    HW222581   2.648   4.641   6.870 -2.2753  1.3757  2.7538
 3707SOL     OW22582   3.140   3.278   5.877  0.6242  0.2530 -0.1690
 3707SOL    HW122583   3.148   3.372   5.864 -1.1849  0.4166 -0.1753
 3707SOL    HW222584   3.097   3.285   5.963  1.5887 -0.4899  0.3740
 3708SOL     OW22585   2.195   4.529   8.987 -0.1066 -0.1880  0.1309
 3708SOL    HW122586   2.158   4.468   8.923 -2.3678  1.1391  0.1623
 3708SOL    HW222587   2.280   4.531   8.943  0.6466  0.4543  1.6045
 3709SOL     OW22588   2.604   0.376   1.297  0.3194  0.0899  0.1907
 3709SOL    HW122589   2.673   0.337   1.351 -1.1037 -2.8366 -0.1005
 3709SOL    HW222590   2.596   0.462   1.339 -0.0065  0.6102 -0.9497
 3710SOL     OW22591   0.585   1.414  13.335  0.5268 -0.1528  0.0579
 3710SOL    HW122592   0.625   1.378  13.414 -0.9823  0.7569  1.2545
 3710SOL    HW222593   0.627   1.500  13.339  1.5815 -0.6484 -0.4485
 3711SOL     OW22594   1.085   1.938   5.985 -0.1647 -0.2034  0.3442
 3711SOL    HW122595   1.053   1.896   5.905 -0.9004 -0.6604  0.8778
 3711SOL    HW222596   1.172   1.956   5.949 -1.5266  1.9845 -1.8395
 3712SOL     OW22597   1.845   4.128   3.183  0.7512 -0.7121 -0.0405
 3712SOL    HW122598   1.827   4.037   3.204  1.2482 -0.9749 -0.8020
 3712SOL    HW222599   1.810   4.135   3.094  0.6942  2.0510  0.1819
 3713SOL     OW22600   1.885   4.369   1.152  0.1368 -0.2183 -0.0402
 3713SOL    HW122601   1.954   4.348   1.215  1.7574  1.2420 -1.3344
 3713SOL    HW222602   1.807   4.322   1.182  0.1095 -0.3275 -0.2812
 3714SOL     OW22603   4.262   4.439  12.188 -0.6957  0.4710  0.4091
 3714SOL    HW122604   4.235   4.479  12.270 -0.8325  0.3676  0.4145
 3714SOL    HW222605   4.355   4.460  12.184 -0.9389  1.4633 -0.2503
 3715SOL     OW22606   3.200   0.056  12.847 -0.8058  0.0345 -0.0276
 3715SOL    HW122607   3.286   0.082  12.880 -1.7964  1.7047  1.2114
 3715SOL    HW222608   3.160   0.139  12.820 -0.4867  0.0711 -0.3857
 3716SOL     OW22609   2.696   3.360   2.225  0.0905  0.1893 -0.3438
 3716SOL    HW122610   2.723   3.450   2.210 -1.5950  0.5822 -0.9642
 3716SOL    HW222611   2.695   3.328   2.135  0.4266 -1.8505  0.3813
 3717SOL     OW22612   2.435   1.134  16.544  0.0657 -0.3941 -0.2891
 3717SOL    HW122613   2.372   1.106  16.478  0.6003  0.3430 -1.1125
 3717SOL    HW222614   2.387   1.179  16.614 -2.7495 -2.8195 -0.6741
 3718SOL     OW22615   1.705   2.065   4.794  0.2636  0.5885  0.2408
 3718SOL    HW122616   1.640   2.089   4.728  0.4356  1.4255  0.3737
 3718SOL    HW222617   1.781   2.061   4.736 -1.9241  1.2188 -2.7124
 3719SOL     OW22618   3.322   4.041   7.404 -0.0896  0.1025 -0.4251
 3719SOL    HW122619   3.348   3.995   7.324 -1.9656 -1.0346 -0.3593
 3719SOL    HW222620   3.405   4.058   7.450  0.1734  2.8892 -1.9049
 3720SOL     OW22621   1.905   0.370   7.059 -0.1534 -0.3943 -0.1697
 3720SOL    HW122622   1.962   0.388   6.984  1.7852 -1.3505  1.0624
 3720SOL    HW222623   1.963   0.390   7.133  0.3833  1.3226 -1.0526
 3721SOL     OW22624   2.412   2.845   7.419  0.2944 -0.1499 -0.3699
 3721SOL    HW122625   2.441   2.756   7.401  1.4247 -0.1436  1.4452
 3721SOL    HW222626   2.353   2.826   7.493 -0.7758  1.8174 -0.7321
 3722SOL     OW22627   2.940   2.336   6.951 -0.0828  0.5137 -0.0921
 3722SOL    HW122628   2.987   2.382   7.021  1.1414  0.1081 -0.6533
 3722SOL    HW222629   2.858   2.386   6.959 -0.7943 -0.2541 -2.6150
 3723SOL     OW22630   2.460   0.592   6.532 -0.2568 -0.1267 -0.3871
 3723SOL    HW122631   2.546   0.633   6.542 -0.3715 -0.3087  1.3541
 3723SOL    HW222632   2.482   0.498   6.531  1.5103  0.2530  1.7733
 3724SOL     OW22633   3.507   2.219   3.399  0.2906  0.1681  0.1778
 3724SOL    HW122634   3.529   2.278   3.327 -0.0011 -0.6736 -0.6097
 3724SOL    HW222635   3.452   2.265   3.461 -1.8868 -0.0384 -1.5905
 3725SOL     OW22636   0.235   2.389  15.299  0.2237  0.5176 -0.9501
 3725SOL    HW122637   0.190   2.330  15.359 -0.1923  1.8811  0.0434
 3725SOL    HW222638   0.319   2.344  15.288 -0.0207 -0.3804  1.0014
 3726SOL     OW22639   4.007   1.004   3.829 -0.5499  0.4437  0.0185
 3726SOL    HW122640   3.987   1.006   3.735  0.7393 -3.7586 -0.3435
 3726SOL    HW222641   4.101   1.013   3.842 -0.9833 -0.2105  3.6667
 3727SOL     OW22642   2.939   1.163   2.940 -0.3618  0.3750 -0.0600
 3727SOL    HW122643   2.929   1.191   3.031 -0.4868  0.1255  0.0042
 3727SOL    HW222644   3.025   1.200   2.920  0.2873 -0.1914  1.6623
 3728SOL     OW22645   2.705   3.398   8.886 -0.6751 -0.0371 -0.1347
 3728SOL    HW122646   2.691   3.403   8.981  0.0733  0.1222 -0.0339
 3728SOL    HW222647   2.621   3.424   8.849  0.2245 -0.2574 -2.2913
 3729SOL     OW22648   2.979   4.479   4.274  0.4290  0.0028 -0.2919
 3729SOL    HW122649   2.956   4.543   4.207 -1.6554  0.6787  1.0771
 3729SOL    HW222650   3.066   4.507   4.302  0.1664  1.8109 -1.3151
 3730SOL     OW22651   3.378   3.916   8.061 -0.7321  0.0170  0.2569
 3730SOL    HW122652   3.336   4.001   8.049  0.0525  0.2717 -0.7010
 3730SOL    HW222653   3.359   3.902   8.154 -1.7206 -0.2708  0.0191
 3731SOL     OW22654   4.536   2.115   5.212 -0.6143  0.1612 -0.0951
 3731SOL    HW122655   4.537   2.026   5.248 -1.7675  0.8936  1.7113
 3731SOL    HW222656   4.504   2.092   5.124  0.7589  1.0697 -0.8278
 3732SOL     OW22657   2.950   0.544   4.448 -0.4456 -0.1478  0.0324
 3732SOL    HW122658   2.972   0.589   4.366 -1.5389 -1.9256 -1.2293
 3732SOL    HW222659   2.993   0.458   4.447 -0.7886 -0.3215  0.5158
 3733SOL     OW22660   1.534   1.228   0.491  0.4261 -0.4288 -0.6343
 3733SOL    HW122661   1.528   1.323   0.475  1.4281 -0.3209 -0.3650
 3733SOL    HW222662   1.599   1.204   0.425  0.8986  0.9268 -0.6723
 3734SOL     OW22663   0.999   1.694  11.833  0.3548  0.0966 -0.4623
 3734SOL    HW122664   1.004   1.616  11.777 -2.4775  1.3741 -2.4740
 3734SOL    HW222665   1.030   1.654  11.914  0.3569  0.5105 -0.2632
 3735SOL     OW22666   3.720   3.907   6.112 -0.7582  0.1378  0.2879
 3735SOL    HW122667   3.633   3.873   6.090  0.1315 -2.2315  0.4877
 3735SOL    HW222668   3.698   3.974   6.177  1.2089  0.5577  0.5151
 3736SOL     OW22669   2.950   0.128  15.983  0.4816  0.0579 -0.1745
 3736SOL    HW122670   2.965   0.164  15.896 -2.2605 -0.4345 -0.8671
 3736SOL    HW222671   2.977   0.037  15.971  1.8176  0.3996  0.2354
 3737SOL     OW22672   3.916   3.101   6.771 -1.0015 -1.0359 -0.4430
 3737SOL    HW122673   3.912   3.160   6.846  0.9865 -0.6210 -0.6671
 3737SOL    HW222674   3.906   3.156   6.694  0.5052 -0.8278 -0.4926
 3738SOL     OW22675   2.793   4.428   3.157  0.2041  0.2310 -0.2556
 3738SOL    HW122676   2.878   4.466   3.179  1.4391 -1.6691 -1.7497
 3738SOL    HW222677   2.807   4.413   3.064  0.4397  0.6010 -0.2815
 3739SOL     OW22678   3.382   3.183   9.146 -0.0464 -0.2288  0.1226
 3739SOL    HW122679   3.349   3.273   9.141 -1.5926 -0.7757  0.5504
 3739SOL    HW222680   3.407   3.184   9.238  2.6283  0.4821 -0.5847
 3740SOL     OW22681   3.740   0.251   4.534 -0.1876 -0.0106  0.0253
 3740SOL    HW122682   3.697   0.249   4.619  3.4633  0.2999  1.8586
 3740SOL    HW222683   3.822   0.295   4.556 -0.3639 -0.1096  0.8724
 3741SOL     OW22684   3.093   1.367   9.972  0.4281 -0.0837 -0.4029
 3741SOL    HW122685   3.003   1.360  10.002  0.9839 -1.8528  0.7929
 3741SOL    HW222686   3.077   1.349   9.879 -1.6458 -1.2894  0.1873
 3742SOL     OW22687   2.618   1.059   8.716  0.5802  0.2037 -0.1497
 3742SOL    HW122688   2.637   1.045   8.623  0.7947  2.7144 -0.4712
 3742SOL    HW222689   2.589   0.973   8.746  0.1719  1.4584  3.0668
 3743SOL     OW22690   1.166   3.313  10.310  0.0196  0.4690 -0.0232
 3743SOL    HW122691   1.133   3.242  10.254 -1.2025 -0.3241  1.7303
 3743SOL    HW222692   1.187   3.382  10.247 -2.6612  2.8456  1.6645
 3744SOL     OW22693   1.048   4.354  16.261 -0.2052  0.4039 -0.3650
 3744SOL    HW122694   1.102   4.415  16.210 -0.4719 -1.3284 -2.7221
 3744SOL    HW222695   1.019   4.405  16.337 -0.4809  0.4783 -0.5212
 3745SOL     OW22696   3.305   0.565   1.460  0.7869  0.1876 -0.1822
 3745SOL    HW122697   3.283   0.473   1.473 -0.1205  0.4052 -0.1708
 3745SOL    HW222698   3.357   0.556   1.380  0.9897  0.8749 -0.1244
 3746SOL     OW22699   2.860   1.783   6.716  0.3688 -0.2140 -1.0625
 3746SOL    HW122700   2.914   1.785   6.795 -1.4227  1.9933  0.1209
 3746SOL    HW222701   2.783   1.773   6.772 -1.0294  1.4506 -2.6851
 3747SOL     OW22702   3.567   3.069   8.992  0.4882 -0.9108  0.0459
 3747SOL    HW122703   3.647   3.107   9.027  1.3250 -1.5237 -1.2034
 3747SOL    HW222704   3.503   3.096   9.057  1.5168  2.1035 -0.1794
 3748SOL     OW22705   4.535   2.447   7.154 -0.3795 -0.0671  0.2429
 3748SOL    HW122706   4.493   2.533   7.158  0.4598  0.4099 -1.2614
 3748SOL    HW222707   4.525   2.418   7.245  0.7481 -1.7438 -0.1817
 3749SOL     OW22708   0.803   1.995  16.150 -0.3790 -0.5756  0.8831
 3749SOL    HW122709   0.710   2.006  16.131  0.3782 -0.8998 -2.8828
 3749SOL    HW222710   0.845   1.946  16.080  0.3486  0.5711  0.5146
 3750SOL     OW22711   1.667   1.886  13.521  0.2515  0.6407  0.1652
 3750SOL    HW122712   1.600   1.920  13.581  0.1752 -2.5291  1.8968
 3750SOL    HW222713   1.637   1.932  13.443  0.6869  1.0249  0.2275
 3751SOL     OW22714   0.085   1.574  10.772  0.4578 -0.4433 -0.4539
 3751SOL    HW122715   0.001   1.614  10.749  0.5018  0.3069  0.6599
 3751SOL    HW222716   0.080   1.498  10.715  1.9067 -0.8671 -0.0280
 3752SOL     OW22717   2.751   2.275  12.464  0.0419 -0.3006  0.0736
 3752SOL    HW122718   2.787   2.194  12.500 -0.8344 -0.4702  0.5619
 3752SOL    HW222719   2.661   2.260  12.434  0.8538 -1.8447 -1.5778
 3753SOL     OW22720   1.152   0.805  14.640  0.0087 -0.7949 -0.4114
 3753SOL    HW122721   1.143   0.710  14.628 -3.6250 -0.4475 -0.2995
 3753SOL    HW222722   1.067   0.841  14.616 -1.4501 -2.4263  2.1758
 3754SOL     OW22723   1.442   3.423   3.266  0.8203 -0.4499 -0.0069
 3754SOL    HW122724   1.430   3.392   3.176  1.0151 -3.6675  1.0440
 3754SOL    HW222725   1.501   3.498   3.266 -0.8943  0.9208  1.3259
 3755SOL     OW22726   1.153   3.770   2.815 -0.2038  0.3676 -0.0582
 3755SOL    HW122727   1.102   3.690   2.822  2.6286 -1.3482  0.9626
 3755SOL    HW222728   1.208   3.748   2.890 -1.7229 -2.6585  0.1142
 3756SOL     OW22729   4.436   1.644  10.863  0.2342 -0.1676  0.1521
 3756SOL    HW122730   4.487   1.684  10.792 -0.7957 -0.3053 -0.6652
 3756SOL    HW222731   4.504   1.646  10.930 -0.8717  1.2651  1.2208
 3757SOL     OW22732   2.868   4.093   8.088 -0.9746 -0.4522  0.1780
 3757SOL    HW122733   2.897   4.184   8.091 -0.4476 -0.6477  1.0301
 3757SOL    HW222734   2.891   4.072   7.997  2.3335 -1.2891  1.2134
 3758SOL     OW22735   2.262   4.324   3.381 -0.4805 -0.2232 -0.4241
 3758SOL    HW122736   2.251   4.336   3.286  1.4404 -3.5108 -1.0496
 3758SOL    HW222737   2.297   4.411   3.402  1.3406 -1.4260  1.4690
 3759SOL     OW22738   2.489   0.451   2.083 -0.0197 -0.1879 -0.0522
 3759SOL    HW122739   2.444   0.368   2.095 -0.4272  0.0031 -0.2449
 3759SOL    HW222740   2.575   0.434   2.120 -0.3233  0.9721  1.1850
 3760SOL     OW22741   1.756   0.267   1.597  0.2366 -0.9991 -0.3532
 3760SOL    HW122742   1.827   0.216   1.636  0.6473  0.4863  0.8735
 3760SOL    HW222743   1.681   0.209   1.612 -0.1129 -0.3569  0.3790
 3761SOL     OW22744   2.360   4.211   0.451  0.0291 -0.1553 -0.3529
 3761SOL    HW122745   2.390   4.186   0.363  0.6258  4.0304 -1.3581
 3761SOL    HW222746   2.296   4.141   0.460  1.6653 -1.7034 -0.8974
 3762SOL     OW22747   3.280   1.425  12.053 -0.5264  0.5228 -0.5037
 3762SOL    HW122748   3.226   1.502  12.071 -0.5486  0.8600 -2.0151
 3762SOL    HW222749   3.296   1.439  11.960 -1.0391  0.1988 -0.6374
 3763SOL     OW22750   0.727   2.611   4.359  0.4530 -0.0603 -0.1127
 3763SOL    HW122751   0.709   2.698   4.322  0.0432 -0.5431 -1.0332
 3763SOL    HW222752   0.816   2.601   4.324 -0.3756 -1.6504 -1.7625
 3764SOL     OW22753   4.538   1.667  14.964  0.4525 -0.0310  0.2226
 3764SOL    HW122754   4.585   1.597  15.009  2.2839  0.7489 -0.4678
 3764SOL    HW222755   4.614   1.715  14.931  0.3442 -1.1328 -1.5942
 3765SOL     OW22756   0.980   3.358  17.271 -0.4258  0.3791  0.4212
 3765SOL    HW122757   1.057   3.406  17.301  0.5538  0.5070 -2.3524
 3765SOL    HW222758   1.003   3.265  17.280 -0.4404  0.5114  1.8730
 3766SOL     OW22759   1.563   2.273   1.121  0.1076 -0.2509  0.0017
 3766SOL    HW122760   1.528   2.222   1.048  1.7093  1.0840 -1.7264
 3766SOL    HW222761   1.651   2.299   1.092 -0.1318  0.1504 -0.3698
 3767SOL     OW22762   3.931   4.396   3.393 -0.0020  0.0426 -0.6401
 3767SOL    HW122763   3.913   4.477   3.441  0.7560 -0.2853  0.1968
 3767SOL    HW222764   3.986   4.416   3.317  0.4875 -0.1088 -0.3261
 3768SOL     OW22765   2.520   0.950  10.463  0.7310 -0.5765 -0.3851
 3768SOL    HW122766   2.519   0.891  10.388  0.8673  0.3262 -1.1020
 3768SOL    HW222767   2.614   0.964  10.461  0.6076  0.2060 -0.9346
 3769SOL     OW22768   1.715   4.013   2.613 -0.5742  0.4681 -0.1632
 3769SOL    HW122769   1.682   3.934   2.571  0.3947  1.4557 -2.7596
 3769SOL    HW222770   1.644   4.071   2.587 -0.4317  0.7566  0.0827
 3770SOL     OW22771   1.763   3.345   2.876 -0.1258  0.0545 -0.1893
 3770SOL    HW122772   1.853   3.344   2.909 -0.0519 -0.4870 -0.3935
 3770SOL    HW222773   1.774   3.423   2.821 -0.1683 -0.6026 -1.1414
 3771SOL     OW22774   2.625   0.731   1.015  0.0247 -0.5872  0.3684
 3771SOL    HW122775   2.587   0.693   1.095 -0.7314 -0.8262 -0.1040
 3771SOL    HW222776   2.661   0.811   1.052  2.1092 -1.4571  0.2499
 3772SOL     OW22777   1.999   0.337  11.109  0.1562  0.1965  0.6156
 3772SOL    HW122778   2.089   0.355  11.138  0.3388  1.0992 -0.5097
 3772SOL    HW222779   1.948   0.406  11.149  1.5536  1.3258  0.4518
 3773SOL     OW22780   3.175   1.265   2.863  0.6623  0.2732  0.6973
 3773SOL    HW122781   3.124   1.287   2.785 -0.6813 -1.5051  1.0682
 3773SOL    HW222782   3.170   1.348   2.909 -1.5024  0.7172 -0.3059
 3774SOL     OW22783   1.275   1.768   5.622  0.1723 -0.5031  0.3412
 3774SOL    HW122784   1.306   1.679   5.608  1.9509 -0.0451  1.4704
 3774SOL    HW222785   1.362   1.807   5.622 -0.6051  1.2287  0.0666
 3775SOL     OW22786   3.916   3.197   7.018 -0.5682 -0.0738  0.3483
 3775SOL    HW122787   3.998   3.230   7.054 -0.8701  0.2023  0.7891
 3775SOL    HW222788   3.855   3.270   7.003  0.3901  0.7254  0.3617
 3776SOL     OW22789   0.963   3.936   4.011 -0.5186  0.3132 -0.1563
 3776SOL    HW122790   0.981   3.887   3.930  0.0847 -0.1281  0.2442
 3776SOL    HW222791   0.920   3.864   4.057  1.3058 -0.2420  0.6660
 3777SOL     OW22792   2.974   3.289   3.497  0.0543  0.0281  0.2928
 3777SOL    HW122793   2.905   3.256   3.440 -0.1316 -0.7278  0.9654
 3777SOL    HW222794   2.997   3.373   3.456  0.0327  1.2890  2.8114
 3778SOL     OW22795   2.865   1.024  17.508  0.0852  0.2842  0.0292
 3778SOL    HW122796   2.828   1.109  17.533  0.3827 -0.0542  1.5824
 3778SOL    HW222797   2.897   1.053  17.423  2.1217 -0.5132  0.5318
 3779SOL     OW22798   3.542   1.387   1.382 -0.1196  0.2906 -0.0589
 3779SOL    HW122799   3.483   1.337   1.439  3.1655 -2.4948  0.8902
 3779SOL    HW222800   3.593   1.314   1.347  0.1445 -0.0007  0.9452
 3780SOL     OW22801   3.859   2.027   3.788 -0.2089  0.8131  0.2709
 3780SOL    HW122802   3.815   1.950   3.752 -0.4166  1.0934 -0.0745
 3780SOL    HW222803   3.926   2.040   3.721  0.0711 -2.9182 -0.1773
 3781SOL     OW22804   4.133   4.316   3.674  0.3408 -0.8128  0.2784
 3781SOL    HW122805   4.142   4.386   3.609 -1.7951  1.0007  1.9169
 3781SOL    HW222806   4.136   4.237   3.621 -0.3081  0.0177 -0.9972
 3782SOL     OW22807   3.129   4.087  11.942  0.4206 -0.0036 -0.6791
 3782SOL    HW122808   3.180   4.099  12.023  0.6314 -0.7003 -0.7080
 3782SOL    HW222809   3.126   4.177  11.911  0.1038 -0.4444 -1.9106
 3783SOL     OW22810   3.906   0.749   0.868  0.3840 -0.4178  0.1732
 3783SOL    HW122811   3.985   0.803   0.862  0.5558 -0.4547  2.2467
 3783SOL    HW222812   3.836   0.790   0.817  0.4041  0.3523  0.7741
 3784SOL     OW22813   1.705   3.194   8.880 -0.7575  0.2723 -0.2556
 3784SOL    HW122814   1.771   3.256   8.910  0.5075 -2.0377  1.7109
 3784SOL    HW222815   1.760   3.116   8.888 -1.7891 -0.1909  2.5776
 3785SOL     OW22816   3.329   4.071   4.612  0.5436  0.5058 -0.3980
 3785SOL    HW122817   3.382   4.009   4.562  0.8143 -0.3032  0.9038
 3785SOL    HW222818   3.366   4.038   4.694 -1.7179 -0.9889  0.0307
 3786SOL     OW22819   2.580   4.161   7.683  0.1361  0.2020 -0.4560
 3786SOL    HW122820   2.490   4.153   7.650  0.0605 -0.4420 -0.0866
 3786SOL    HW222821   2.598   4.070   7.706 -0.0646  0.0665 -0.8424
 3787SOL     OW22822   1.284   0.971   8.695  0.5239  0.7263  0.4166
 3787SOL    HW122823   1.291   1.037   8.764  1.7558  0.5394  0.4639
 3787SOL    HW222824   1.290   0.892   8.749 -1.4723  0.0856 -0.2791
 3788SOL     OW22825   1.874   0.587   4.517  0.1576  0.1770  0.3327
 3788SOL    HW122826   1.946   0.625   4.467  1.0362 -2.0484 -0.0721
 3788SOL    HW222827   1.798   0.598   4.459 -0.4770 -0.1753  1.1031
 3789SOL     OW22828   3.926   0.830   5.136  0.3879 -0.3692 -0.2615
 3789SOL    HW122829   4.000   0.856   5.191  0.1417  0.6769 -0.4310
 3789SOL    HW222830   3.935   0.895   5.067  0.5852  0.6625  0.7408
 3790SOL     OW22831   3.854   0.386   0.390 -0.4885 -0.0010 -0.0214
 3790SOL    HW122832   3.921   0.450   0.415  0.0592 -1.1410  1.4701
 3790SOL    HW222833   3.817   0.368   0.477  1.6842 -0.7320  0.7567
 3791SOL     OW22834   2.768   1.858  12.918  0.4473 -0.1112 -0.6498
 3791SOL    HW122835   2.862   1.856  12.900  0.3630  0.1450 -1.1323
 3791SOL    HW222836   2.733   1.777  12.879  1.7250 -0.7037 -0.5748
 3792SOL     OW22837   3.422   2.204   2.115 -0.1551 -0.1036  0.1290
 3792SOL    HW122838   3.393   2.114   2.099 -1.5254  0.3902 -0.1572
 3792SOL    HW222839   3.372   2.218   2.196  0.9314 -3.0533  1.3132
 3793SOL     OW22840   0.791   3.093  17.603  0.2099 -0.1504 -0.2020
 3793SOL    HW122841   0.874   3.047  17.606  0.1475 -0.1870  0.6818
 3793SOL    HW222842   0.736   3.039  17.546  1.9697  1.4697 -3.4465
 3794SOL     OW22843   0.574   1.968  16.002  0.2751 -0.1434  0.0085
 3794SOL    HW122844   0.516   1.938  16.073 -1.5639  0.0634 -1.4108
 3794SOL    HW222845   0.514   2.029  15.960 -0.1526 -0.9629 -0.5726
 3795SOL     OW22846   0.799   0.748   1.528 -0.0477 -0.0811 -0.2041
 3795SOL    HW122847   0.714   0.743   1.485  0.9580  1.4122 -2.3639
 3795SOL    HW222848   0.796   0.684   1.599  0.5481  0.4840  0.3393
 3796SOL     OW22849   3.461   1.076  17.009 -0.6495  0.8113 -0.2215
 3796SOL    HW122850   3.491   1.161  16.976 -0.1843 -0.5351 -3.1979
 3796SOL    HW222851   3.438   1.090  17.101 -1.7450 -0.4614 -0.3149
 3797SOL     OW22852   4.716   4.716  12.807 -0.1084  0.0704 -0.1588
 3797SOL    HW122853   0.076   0.019  12.765 -0.0700 -1.2043 -0.8452
 3797SOL    HW222854   4.648   4.698  12.742 -0.1161 -2.2180  0.4798
 3798SOL     OW22855   3.553   3.594  14.903  0.4744 -0.2674  0.0009
 3798SOL    HW122856   3.482   3.549  14.857 -2.0804  1.9095  1.8097
 3798SOL    HW222857   3.601   3.520  14.941  0.6091  0.6685  1.6705
 3799SOL     OW22858   2.353   3.447  14.242  0.0618 -0.3366 -0.5892
 3799SOL    HW122859   2.413   3.430  14.315  0.8597 -0.7987 -1.3476
 3799SOL    HW222860   2.396   3.392  14.176 -1.5549 -0.6765 -1.3685
 3800SOL     OW22861   2.394   1.020   2.186  0.2900 -0.0961  0.9905
 3800SOL    HW122862   2.358   1.089   2.130 -0.7413 -2.0357 -0.7027
 3800SOL    HW222863   2.352   1.040   2.270 -0.9694 -0.9697  0.5783
 3801SOL     OW22864   3.938   0.159   7.536  0.4311 -0.1923 -0.6199
 3801SOL    HW122865   3.970   0.228   7.478  1.7852  0.6116  1.0494
 3801SOL    HW222866   4.002   0.166   7.607 -0.6087  0.5795  0.2416
 3802SOL     OW22867   4.031   0.213   9.045 -0.0070  0.3527  0.4042
 3802SOL    HW122868   4.117   0.252   9.056 -1.1866  2.7700  0.9797
 3802SOL    HW222869   3.993   0.251   8.966 -1.5351  0.6472  1.2742
 3803SOL     OW22870   0.203   2.200   5.445 -0.4502 -0.2867 -0.8121
 3803SOL    HW122871   0.244   2.192   5.359 -1.3442 -0.9834 -1.1675
 3803SOL    HW222872   0.281   2.160   5.484  1.1761  3.9967  0.3594
 3804SOL     OW22873   1.949   1.832   2.603  0.3486 -0.0447 -0.3663
 3804SOL    HW122874   1.907   1.754   2.641  2.7636 -1.2679 -0.2246
 3804SOL    HW222875   1.917   1.824   2.513  0.0455 -3.8737  0.0851
 3805SOL     OW22876   2.216   4.144  13.458  0.0611  0.5032 -0.1708
 3805SOL    HW122877   2.222   4.237  13.436  2.2202 -0.0446 -1.9053
 3805SOL    HW222878   2.184   4.153  13.548 -1.8391  0.7245 -0.8693
 3806SOL     OW22879   3.269   4.027   2.281 -0.6549  0.4801  0.2140
 3806SOL    HW122880   3.352   4.015   2.326 -0.8861 -0.8819  0.2703
 3806SOL    HW222881   3.217   3.966   2.333 -0.2468 -0.0301  0.0245
 3807SOL     OW22882   0.410   0.717   7.440  0.7250  0.2429  0.1968
 3807SOL    HW122883   0.397   0.706   7.346 -0.7020  2.4395  0.1309
 3807SOL    HW222884   0.425   0.812   7.444 -1.4953  0.5016  1.8908
 3808SOL     OW22885   2.986   0.076   7.078  0.5705 -0.2843 -0.6800
 3808SOL    HW122886   2.955   0.133   7.008  0.3318  0.6150  0.1579
 3808SOL    HW222887   2.901   0.063   7.120  1.1455  1.0336  0.9358
 3809SOL     OW22888   4.329   3.352  10.008 -0.3828  0.2346 -0.1265
 3809SOL    HW122889   4.238   3.354   9.979  0.4096 -0.4098 -2.6596
 3809SOL    HW222890   4.331   3.322  10.099  0.6322  0.2487 -0.1401
 3810SOL     OW22891   3.739   0.723  14.616  0.1023 -0.3900  0.0673
 3810SOL    HW122892   3.796   0.655  14.653 -1.5364 -1.2780  0.9445
 3810SOL    HW222893   3.658   0.674  14.607  0.1837 -0.2125 -1.6633
 3811SOL     OW22894   4.445   2.480   2.239  0.5915  0.3138 -0.1675
 3811SOL    HW122895   4.394   2.501   2.317  0.5121  1.2705 -0.4858
 3811SOL    HW222896   4.507   2.549   2.218  3.3878 -1.6588  1.5775
 3812SOL     OW22897   1.398   0.652  13.140 -0.3455 -0.1164 -0.1989
 3812SOL    HW122898   1.485   0.650  13.101  0.4983  0.1598  1.6605
 3812SOL    HW222899   1.371   0.735  13.099 -2.7202 -1.9880 -2.4103
 3813SOL     OW22900   0.283   1.456   9.662 -0.3043  0.0782  0.1481
 3813SOL    HW122901   0.364   1.406   9.656 -0.0050  0.6510 -0.4949
 3813SOL    HW222902   0.266   1.477   9.570 -2.3165 -1.9102  0.0546
 3814SOL     OW22903   0.796   2.664   1.870  0.4295  0.1683 -0.2094
 3814SOL    HW122904   0.867   2.689   1.811  0.2587  2.0612  0.4134
 3814SOL    HW222905   0.744   2.599   1.822 -0.1976  1.4902 -1.3156
 3815SOL     OW22906   4.669   4.194   1.771  0.3904  0.1433 -0.4277
 3815SOL    HW122907   0.027   4.244   1.754 -1.1421  3.2292  1.3724
 3815SOL    HW222908   4.608   4.228   1.707  0.3746  0.1101 -0.4305
 3816SOL     OW22909   0.647   4.594   1.979  0.2265 -0.4463 -0.0266
 3816SOL    HW122910   0.648   4.597   2.074 -0.8791  0.3239 -0.0371
 3816SOL    HW222911   0.603   4.512   1.954 -1.7697  0.2868  1.1206
 3817SOL     OW22912   1.528   4.064   6.048 -0.2992 -0.1589 -0.1816
 3817SOL    HW122913   1.534   4.010   6.127  3.2921 -1.3875 -1.3000
 3817SOL    HW222914   1.576   4.011   5.985 -2.3746  0.6864 -2.4552
 3818SOL     OW22915   1.229   1.382  17.088 -0.0865 -0.1787 -0.5629
 3818SOL    HW122916   1.269   1.306  17.046  0.9862  0.3319 -0.4638
 3818SOL    HW222917   1.282   1.444  17.039  0.6759  0.1896  0.7115
 3819SOL     OW22918   3.451   2.408  16.105 -0.0782 -0.0613 -0.2028
 3819SOL    HW122919   3.498   2.463  16.043  1.7834 -0.5752  0.7523
 3819SOL    HW222920   3.419   2.480  16.159  1.5852  0.6138 -0.1355
 3820SOL     OW22921   0.201   1.086   8.810 -0.0454 -0.7169 -0.3307
 3820SOL    HW122922   0.144   1.009   8.800 -2.8113  1.4604 -1.2365
 3820SOL    HW222923   0.202   1.115   8.719 -0.6158 -0.8929 -0.3941
 3821SOL     OW22924   2.829   1.747  16.171 -0.0213  0.8124  0.2078
 3821SOL    HW122925   2.886   1.821  16.190  1.1221 -0.0467  0.1627
 3821SOL    HW222926   2.889   1.674  16.187 -1.8398 -1.1158 -1.7025
 3822SOL     OW22927   2.349   3.837   7.738 -0.3296  0.5169 -0.6847
 3822SOL    HW122928   2.305   3.897   7.798 -0.6268 -1.7861  1.4111
 3822SOL    HW222929   2.274   3.780   7.719  1.0743 -1.8832  0.9735
 3823SOL     OW22930   0.536   3.405   6.030 -0.0940  0.6629  0.3503
 3823SOL    HW122931   0.502   3.426   6.117 -2.3210  0.8834 -0.5736
 3823SOL    HW222932   0.493   3.477   5.984  0.2250  0.4293 -0.3109
 3824SOL     OW22933   2.845   2.119  15.354 -0.1550  0.2942  0.2836
 3824SOL    HW122934   2.936   2.139  15.333 -1.0764  2.4365 -1.5473
 3824SOL    HW222935   2.828   2.204  15.394  3.0754  1.0989 -0.0388
 3825SOL     OW22936   0.211   3.942  12.088 -0.2773 -0.8925  0.0095
 3825SOL    HW122937   0.164   3.859  12.093 -0.2410 -0.9015  0.2275
 3825SOL    HW222938   0.230   3.934  11.995  2.0417 -0.3174  0.4359
 3826SOL     OW22939   1.451   3.150   4.992  0.0540 -0.4920 -0.5542
 3826SOL    HW122940   1.380   3.150   5.055  0.1158 -1.3165 -0.4955
 3826SOL    HW222941   1.393   3.158   4.916 -0.1943  1.5127 -0.1682
 3827SOL     OW22942   4.428   1.796   4.960  0.0950 -0.7212  0.5311
 3827SOL    HW122943   4.342   1.779   4.921 -0.3216 -0.3554  1.2740
 3827SOL    HW222944   4.411   1.852   5.036 -0.4347 -0.8093  0.4752
 3828SOL     OW22945   2.587   1.507   8.825  0.4338 -0.0991 -0.2377
 3828SOL    HW122946   2.621   1.595   8.841  1.2038 -0.5963  0.8023
 3828SOL    HW222947   2.637   1.486   8.746 -1.9458  0.6472 -1.9657
 3829SOL     OW22948   4.156   1.950  11.858 -0.5731  0.5150 -0.3292
 3829SOL    HW122949   4.189   1.875  11.809  1.8145  1.0580  0.4990
 3829SOL    HW222950   4.225   2.012  11.836 -1.8779  1.7212 -1.0783
 3830SOL     OW22951   4.202   3.121  12.191 -0.8544 -0.0273 -0.7393
 3830SOL    HW122952   4.139   3.074  12.136 -0.4005 -2.4379  0.8011
 3830SOL    HW222953   4.247   3.056  12.245 -2.7942  1.7605  2.9815
 3831SOL     OW22954   0.133   2.089  16.077 -0.3203  0.1329 -0.3175
 3831SOL    HW122955   0.077   2.147  16.129  0.5036 -0.2823  1.0230
 3831SOL    HW222956   0.186   2.154  16.031  1.6763 -0.6878  0.8606
 3832SOL     OW22957   2.599   4.387   8.900  0.1890 -0.2758 -0.2489
 3832SOL    HW122958   2.585   4.294   8.886  2.1422 -0.5451 -0.3924
 3832SOL    HW222959   2.515   4.429   8.883  0.5294  0.2815 -0.5707
 3833SOL     OW22960   0.644   0.156   6.889  0.4951  0.5866 -0.0971
 3833SOL    HW122961   0.633   0.236   6.940  0.2676  0.6407 -0.2298
 3833SOL    HW222962   0.679   0.092   6.951  0.6762  0.1404 -0.6557
 3834SOL     OW22963   0.941   1.977   8.197 -0.2685 -0.2216 -0.4534
 3834SOL    HW122964   0.895   2.035   8.257 -2.1114 -0.1737 -1.9198
 3834SOL    HW222965   0.943   1.900   8.254 -0.8716  0.9363  1.1160
 3835SOL     OW22966   1.329   4.027   3.841  0.2877 -0.5662 -0.0797
 3835SOL    HW122967   1.252   3.978   3.814 -1.2385  1.8355 -0.1464
 3835SOL    HW222968   1.303   4.059   3.928  2.9911 -0.4615  0.6726
 3836SOL     OW22969   4.221   3.379   5.151  0.6913 -0.2313  1.0002
 3836SOL    HW122970   4.229   3.393   5.057 -1.2013 -1.4352  0.6568
 3836SOL    HW222971   4.146   3.434   5.173  0.2050 -0.4388 -0.1319
 3837SOL     OW22972   1.920   0.400   5.889 -0.1036 -0.2103 -0.0386
 3837SOL    HW122973   1.916   0.467   5.957  0.2708 -0.2856  0.0570
 3837SOL    HW222974   1.876   0.322   5.923 -1.0478  0.5220  0.4145
 3838SOL     OW22975   2.055   1.495   2.478 -0.5550 -0.2080  0.0180
 3838SOL    HW122976   2.035   1.447   2.398  0.1010 -1.7135  0.7757
 3838SOL    HW222977   1.988   1.451   2.530 -1.9550  0.5351 -1.1699
 3839SOL     OW22978   2.745   0.870   3.890 -0.0038 -0.1018  0.0426
 3839SOL    HW122979   2.772   0.959   3.913  2.1245 -1.0131  1.0885
 3839SOL    HW222980   2.809   0.866   3.819  1.1797  2.0991  0.9690
 3840SOL     OW22981   0.503   1.676   3.601  0.5824  0.0840  0.4491
 3840SOL    HW122982   0.558   1.727   3.542 -1.3167  2.1224  0.4604
 3840SOL    HW222983   0.413   1.706   3.586 -0.5732 -1.7513  3.5369
 3841SOL     OW22984   3.419   3.805  10.774  0.6811  0.9883  0.1296
 3841SOL    HW122985   3.509   3.829  10.796  1.1605 -0.0892 -0.6702
 3841SOL    HW222986   3.407   3.722  10.820 -3.0254  0.2054 -2.1848
 3842SOL     OW22987   0.699   0.509  13.709  0.0024  0.2248 -0.3120
 3842SOL    HW122988   0.792   0.517  13.690  0.4242  0.6748  1.8661
 3842SOL    HW222989   0.705   0.504  13.805  0.2042 -2.9272 -0.4924
 3843SOL     OW22990   0.758   1.449   5.637 -0.7499 -0.0775  0.1422
 3843SOL    HW122991   0.837   1.396   5.644 -2.1489 -2.4195 -1.6264
 3843SOL    HW222992   0.708   1.383   5.588  1.6376 -0.1281 -2.1892
 3844SOL     OW22993   4.582   3.074   0.369  0.5861  0.1323 -0.3554
 3844SOL    HW122994   4.512   3.059   0.432  1.0315  2.5711  0.7409
 3844SOL    HW222995   4.552   3.018   0.298  2.4988  0.2533 -1.2532
 3845SOL     OW22996   2.637   0.538   2.663  0.6662  0.0351 -0.2523
 3845SOL    HW122997   2.725   0.502   2.678  0.0308 -2.2265 -1.9377
 3845SOL    HW222998   2.651   0.583   2.579  2.1321 -0.2933 -0.1852
 3846SOL     OW22999   2.422   4.034  11.169 -0.3336 -0.1167  0.3810
 3846SOL    HW123000   2.329   4.048  11.154 -0.8588 -1.3559  2.4665
 3846SOL    HW223001   2.455   4.124  11.167  2.4018 -1.1279 -1.0463
 3847SOL     OW23002   2.232   3.020   0.368  0.5038  0.9838  0.6252
 3847SOL    HW123003   2.326   3.011   0.352 -0.1859  2.2112 -4.2010
 3847SOL    HW223004   2.227   3.094   0.428  1.7093 -0.5788  2.6665
 3848SOL     OW23005   3.950   0.518  15.205  0.2847  0.3226 -0.2327
 3848SOL    HW123006   3.920   0.609  15.209  0.0365  0.2480 -0.3376
 3848SOL    HW223007   4.039   0.523  15.238 -1.1655 -1.6672  3.9563
 3849SOL     OW23008   4.663   3.085  11.146 -0.3409  0.1147  0.0080
 3849SOL    HW123009   4.605   3.020  11.106 -0.6477  1.3568 -1.5582
 3849SOL    HW223010   4.632   3.163  11.101 -0.1093  0.9880  1.3521
 3850SOL     OW23011   2.535   0.505  12.079  0.0395  0.0061 -0.1934
 3850SOL    HW123012   2.618   0.458  12.066 -0.7149 -1.4363  0.2367
 3850SOL    HW223013   2.519   0.512  12.173 -1.1371 -0.9057 -0.3253
 3851SOL     OW23014   1.891   1.763   6.190  0.1763 -0.1975  0.1557
 3851SOL    HW123015   1.836   1.761   6.112  1.1760  1.4628 -0.6073
 3851SOL    HW223016   1.966   1.813   6.157 -0.7806  1.3913  0.4318
 3852SOL     OW23017   4.520   1.384   4.462 -0.2945  0.4419 -0.1184
 3852SOL    HW123018   4.563   1.443   4.400 -0.0750  1.9585  1.4643
 3852SOL    HW223019   4.477   1.447   4.521 -1.0743 -0.0877 -0.1235
 3853SOL     OW23020   0.135   0.165   3.741 -0.0455 -0.0627  0.1025
 3853SOL    HW123021   0.146   0.181   3.834  1.8470 -0.6605 -0.0317
 3853SOL    HW223022   0.079   0.087   3.746 -0.3277  0.0183 -1.6096
 3854SOL     OW23023   3.889   0.895  15.482  0.8313 -0.0019  0.0046
 3854SOL    HW123024   3.808   0.870  15.527  0.7823  1.6022  0.7825
 3854SOL    HW223025   3.949   0.826  15.512  1.3599  1.0079  1.2984
 3855SOL     OW23026   2.512   0.809   8.795 -0.4090 -0.1249 -0.1006
 3855SOL    HW123027   2.445   0.867   8.830 -0.9348 -0.6504 -0.2418
 3855SOL    HW223028   2.462   0.769   8.724  2.2124  2.0857 -3.1378
 3856SOL     OW23029   0.814   4.295   6.929  0.0165  0.3183 -0.1286
 3856SOL    HW123030   0.884   4.231   6.942 -1.1942 -0.4222  2.8168
 3856SOL    HW223031   0.789   4.273   6.839  1.6899  0.1078 -0.5447
 3857SOL     OW23032   2.113   0.545   5.420 -0.6833 -0.1659  0.0171
 3857SOL    HW123033   2.051   0.494   5.472 -0.0088 -0.0660  0.9280
 3857SOL    HW223034   2.077   0.632   5.438 -0.0590  0.6200 -2.5314
 3858SOL     OW23035   4.577   0.642   5.410 -0.1866 -0.3197  0.2303
 3858SOL    HW123036   4.665   0.653   5.446  0.8951 -0.3971 -2.4081
 3858SOL    HW223037   4.540   0.607   5.491  2.1972 -2.9059  0.2091
 3859SOL     OW23038   3.505   1.514   8.637 -0.9918  0.2286 -0.3821
 3859SOL    HW123039   3.560   1.507   8.559  0.0634 -0.3103  0.4200
 3859SOL    HW223040   3.559   1.500   8.714  0.4199  2.6091 -0.9311
 3860SOL     OW23041   2.178   1.711  11.354 -0.6377  0.6195  0.2240
 3860SOL    HW123042   2.138   1.754  11.278 -2.7909  0.6187  1.3710
 3860SOL    HW223043   2.267   1.746  11.355 -0.4605  0.1297  1.1936
 3861SOL     OW23044   2.593   2.245   3.122  0.1680 -0.1720  0.1442
 3861SOL    HW123045   2.653   2.267   3.050 -0.4290 -1.4446 -0.7334
 3861SOL    HW223046   2.505   2.266   3.093  0.6033  1.2525 -0.1301
 3862SOL     OW23047   2.684   3.900   1.018 -0.7269 -0.2915 -0.0810
 3862SOL    HW123048   2.603   3.923   0.974  0.3604  1.2943 -1.2820
 3862SOL    HW223049   2.712   3.825   0.966 -0.4616 -0.2492 -0.0025
 3863SOL     OW23050   1.545   4.623   4.495 -0.7100  0.1190  0.0878
 3863SOL    HW123051   1.489   4.641   4.420 -1.5699  0.8947  0.9070
 3863SOL    HW223052   1.490   4.626   4.573  0.6906  0.1301  1.0776
 3864SOL     OW23053   1.429   0.763   4.397 -0.1315 -0.4592  0.3517
 3864SOL    HW123054   1.432   0.850   4.358  2.5971 -1.1723 -1.0072
 3864SOL    HW223055   1.375   0.782   4.474 -1.4469  0.0917 -0.7179
 3865SOL     OW23056   4.011   3.237   5.590 -0.3244  0.0132 -0.1450
 3865SOL    HW123057   4.093   3.282   5.568 -1.7793  3.4630  1.4437
 3865SOL    HW223058   4.034   3.209   5.679  1.2442  0.1918 -0.4922
 3866SOL     OW23059   3.461   2.524   4.800  0.3678 -0.6938  0.6278
 3866SOL    HW123060   3.408   2.602   4.817  1.9488 -0.3435  4.0718
 3866SOL    HW223061   3.403   2.491   4.732  1.1971  0.2728 -0.5335
 3867SOL     OW23062   1.560   3.522   7.545  0.4179  0.5622 -0.0049
 3867SOL    HW123063   1.510   3.573   7.609 -0.3461 -0.1821 -0.0026
 3867SOL    HW223064   1.545   3.562   7.460  0.7947 -0.4597 -0.5522
 3868SOL     OW23065   0.137   3.438  10.125  0.5596  1.0569 -0.2088
 3868SOL    HW123066   0.133   3.352  10.167  0.2569  0.5099 -1.3663
 3868SOL    HW223067   0.154   3.409  10.035 -1.1246  2.0069 -0.8422
 3869SOL     OW23068   2.160   1.831   8.301  0.1507  0.0441 -0.2453
 3869SOL    HW123069   2.227   1.856   8.364  0.1462 -3.6948  1.2239
 3869SOL    HW223070   2.139   1.915   8.260  0.7630 -1.2193 -3.1060
 3870SOL     OW23071   0.295   3.290  17.045 -0.1469 -0.1284 -0.6486
 3870SOL    HW123072   0.245   3.362  17.006 -0.1504 -1.2710 -2.7219
 3870SOL    HW223073   0.371   3.337  17.081 -2.4923  2.8702  0.3574
 3871SOL     OW23074   0.068   3.438   4.065 -0.2172  0.2559  0.1927
 3871SOL    HW123075   0.119   3.438   3.984 -1.0313 -1.5583 -0.3138
 3871SOL    HW223076   0.102   3.518   4.107 -0.0073  0.2777 -0.0198
 3872SOL     OW23077   2.961   4.149   1.978  0.5452 -0.4618  0.6646
 3872SOL    HW123078   2.979   4.062   1.943 -0.2544 -1.3843  2.5406
 3872SOL    HW223079   3.038   4.171   2.029  0.6246 -0.0719  0.3736
 3873SOL     OW23080   0.703   0.569   7.691 -0.2491  0.4207 -0.5982
 3873SOL    HW123081   0.740   0.525   7.615  1.7869  1.4574 -0.1957
 3873SOL    HW223082   0.776   0.577   7.752 -2.2820 -2.0982  2.2204
 3874SOL     OW23083   1.787   2.180   6.409  0.2148  0.0902  0.2137
 3874SOL    HW123084   1.880   2.178   6.429 -0.2113  0.9024  2.2057
 3874SOL    HW223085   1.784   2.261   6.357 -0.2704 -0.6369 -0.8821
 3875SOL     OW23086   3.971   3.820   6.265 -0.1057 -0.0311 -0.2626
 3875SOL    HW123087   4.023   3.776   6.198 -1.3060  0.1345 -1.2853
 3875SOL    HW223088   3.896   3.848   6.213 -1.8058 -2.1252  1.0270
 3876SOL     OW23089   4.154   3.466   1.875  0.1427  0.1253 -0.3126
 3876SOL    HW123090   4.186   3.377   1.866  0.2264 -0.0717  1.9699
 3876SOL    HW223091   4.122   3.474   1.965  1.0184  0.0671  0.0113
 3877SOL     OW23092   0.875   3.916   7.949  0.9908 -0.0403  0.1335
 3877SOL    HW123093   0.954   3.905   7.896  1.0620  1.0950  0.0104
 3877SOL    HW223094   0.911   3.977   8.014 -2.7639  1.8045  0.5120
 3878SOL     OW23095   1.771   3.985  13.188  0.3816  0.1859 -0.2700
 3878SOL    HW123096   1.738   3.984  13.098  0.9159  0.6890 -0.4650
 3878SOL    HW223097   1.715   3.923  13.234 -1.1977  0.5512 -1.7064
 3879SOL     OW23098   2.511   2.546  15.887  0.2886  0.3402 -0.0772
 3879SOL    HW123099   2.586   2.606  15.890 -1.7672  3.0357 -2.3471
 3879SOL    HW223100   2.459   2.595  15.823 -1.0130 -0.5157  0.3315
 3880SOL     OW23101   4.056   3.522  16.895  0.4363  0.0815  0.5282
 3880SOL    HW123102   4.116   3.533  16.822 -0.8229 -2.0056 -0.8163
 3880SOL    HW223103   3.997   3.597  16.895 -0.3123 -0.5136 -1.0235
 3881SOL     OW23104   1.760   1.397   7.331  0.2560 -0.0309 -0.0365
 3881SOL    HW123105   1.828   1.343   7.291 -0.8064 -1.4741  0.1365
 3881SOL    HW223106   1.819   1.450   7.385 -1.4925  0.0568  1.7812
 3882SOL     OW23107   4.051   3.514  11.194  0.1556  0.0876  0.0894
 3882SOL    HW123108   3.977   3.487  11.248 -1.6874  0.7169 -2.1446
 3882SOL    HW223109   4.124   3.455  11.212  1.9548  2.9468  2.3230
 3883SOL     OW23110   1.702   4.083  11.618 -0.3233 -0.1616  0.4721
 3883SOL    HW123111   1.714   3.988  11.620 -0.4575 -0.1862  0.1475
 3883SOL    HW223112   1.711   4.101  11.524 -0.3488  2.1175  0.9181
 3884SOL     OW23113   0.452   2.652   1.881  0.0325  0.5671  0.1376
 3884SOL    HW123114   0.464   2.580   1.819  1.8375  0.4997  0.5645
 3884SOL    HW223115   0.490   2.718   1.823  2.4341 -0.6450  0.3447
 3885SOL     OW23116   3.956   4.703  14.973 -0.6980  0.2594  0.4981
 3885SOL    HW123117   3.993   0.061  15.011 -0.5192  0.1499  0.5570
 3885SOL    HW223118   3.994   4.644  15.039  0.3102 -1.4875 -1.6341
 3886SOL     OW23119   2.359   2.634   5.301  0.4506  0.0284  0.0547
 3886SOL    HW123120   2.450   2.607   5.291 -0.1595 -1.9498 -0.0706
 3886SOL    HW223121   2.319   2.548   5.291 -2.0905  1.1845  0.2005
 3887SOL     OW23122   1.698   1.272   3.014 -0.1011 -0.3143 -0.5472
 3887SOL    HW123123   1.663   1.231   3.094  0.4580  1.2681  0.5018
 3887SOL    HW223124   1.621   1.280   2.957  0.7979 -0.7680 -1.8261
 3888SOL     OW23125   2.114   3.320   2.378 -0.3367  0.5763  0.0892
 3888SOL    HW123126   2.199   3.363   2.375  0.4907 -1.1853 -1.6869
 3888SOL    HW223127   2.111   3.278   2.292  0.7418 -0.1849  0.4233
 3889SOL     OW23128   0.879   0.495   7.476  0.1111 -0.0291  0.1181
 3889SOL    HW123129   0.863   0.424   7.414  1.8114  0.5512 -1.0037
 3889SOL    HW223130   0.968   0.484   7.511  0.6109  0.8262 -0.8714
 3890SOL     OW23131   1.454   3.663   0.385 -0.3031  0.2360 -0.4566
 3890SOL    HW123132   1.412   3.702   0.308  0.2492  0.5032 -0.6140
 3890SOL    HW223133   1.456   3.571   0.358  0.6311  0.6002 -1.5862
 3891SOL     OW23134   4.082   2.675   6.867  0.3514  0.1021  0.2236
 3891SOL    HW123135   4.154   2.621   6.834 -0.2469 -1.3719  1.2972
 3891SOL    HW223136   4.133   2.744   6.909  0.6290 -0.7728  1.3258
 3892SOL     OW23137   2.110   0.113  13.129  0.6227  0.1005  0.5631
 3892SOL    HW123138   2.064   0.160  13.198 -1.0635 -2.3737  1.1617
 3892SOL    HW223139   2.079   0.023  13.140  1.8905 -0.2240  1.4320
 3893SOL     OW23140   3.374   1.215   3.627  0.1865 -0.4419 -0.3422
 3893SOL    HW123141   3.376   1.244   3.536 -1.1290 -1.2297 -0.6039
 3893SOL    HW223142   3.293   1.253   3.660  0.5732  0.2615 -0.1922
 3894SOL     OW23143   0.285   2.645   7.891 -0.7535 -0.4459 -0.0385
 3894SOL    HW123144   0.303   2.639   7.797 -1.8443 -0.6652 -0.2242
 3894SOL    HW223145   0.190   2.649   7.888 -0.7292  0.5754  0.5931
 3895SOL     OW23146   4.055   1.835   9.239 -0.0675  0.0926  0.1825
 3895SOL    HW123147   4.085   1.763   9.183  1.3441  1.3443 -0.6859
 3895SOL    HW223148   4.098   1.816   9.322  0.2331 -0.6181 -0.1401
 3896SOL     OW23149   0.870   0.272   1.082 -0.5286  0.6312 -0.0387
 3896SOL    HW123150   0.954   0.228   1.093 -0.3160  1.0884  0.2025
 3896SOL    HW223151   0.858   0.278   0.988 -0.3373 -1.1350 -0.1666
 3897SOL     OW23152   3.853   1.936   2.535 -0.0959 -0.6262  0.4420
 3897SOL    HW123153   3.805   2.001   2.484  0.6765 -0.3646  0.0457
 3897SOL    HW223154   3.828   1.853   2.496 -0.1135  0.0351 -0.9548
 3898SOL     OW23155   4.174   3.341  15.070 -0.1244  0.3722  0.0580
 3898SOL    HW123156   4.191   3.305  15.157 -0.9645 -1.0715 -0.3746
 3898SOL    HW223157   4.085   3.376  15.079 -0.2675  0.1359 -0.4251
 3899SOL     OW23158   1.729   4.676   5.459  0.1892 -0.2151  0.1407
 3899SOL    HW123159   1.738   4.719   5.544 -0.3712 -1.4336  0.8179
 3899SOL    HW223160   1.730   0.036   5.410  1.4702  1.0267  2.1993
 3900SOL     OW23161   2.094   2.420   5.791  0.8205  0.5019  0.0652
 3900SOL    HW123162   2.057   2.498   5.832  0.1689 -1.4925  3.3019
 3900SOL    HW223163   2.148   2.460   5.724  2.1156 -0.0034  0.8064
 3901SOL     OW23164   2.691   1.951   7.030  0.1946 -0.0285 -0.0032
 3901SOL    HW123165   2.772   1.993   7.003 -0.0785  0.5881  0.1253
 3901SOL    HW223166   2.721   1.861   7.021 -2.6384 -1.1686  1.6997
 3902SOL     OW23167   1.244   1.199   4.600 -0.0099 -0.6409  0.0795
 3902SOL    HW123168   1.310   1.252   4.554 -0.2816 -2.1060 -2.0285
 3902SOL    HW223169   1.229   1.133   4.532 -0.6488  0.2664 -0.6801
 3903SOL     OW23170   0.623   3.787   7.468 -0.2958 -0.0637 -0.6328
 3903SOL    HW123171   0.686   3.716   7.461 -0.5248 -0.0869 -2.5765
 3903SOL    HW223172   0.543   3.736   7.453 -1.3387  1.0129  1.1986
 3904SOL     OW23173   4.638   3.706   6.744 -0.5058 -0.1094 -0.1232
 3904SOL    HW123174   4.685   3.623   6.746 -5.0942 -2.7286  0.8701
 3904SOL    HW223175   4.601   3.706   6.833  1.2548 -0.8804  0.6199
 3905SOL     OW23176   3.358   2.410   7.296  0.1236 -0.0954 -0.2935
 3905SOL    HW123177   3.429   2.426   7.359  0.9148 -0.3407 -1.1272
 3905SOL    HW223178   3.295   2.476   7.325  1.2152  0.3589  1.0854
 3906SOL     OW23179   2.267   2.646   1.789 -0.2665  0.2050 -0.1137
 3906SOL    HW123180   2.263   2.603   1.874  2.4191 -1.0167 -0.6158
 3906SOL    HW223181   2.303   2.730   1.817  0.5358  0.6167 -2.3880
 3907SOL     OW23182   0.600   1.276   2.998  0.0922 -0.3944 -0.2378
 3907SOL    HW123183   0.642   1.314   2.921 -0.3922  1.3251  0.3468
 3907SOL    HW223184   0.512   1.268   2.961 -0.0850  0.8802 -0.0822
 3908SOL     OW23185   0.331   1.695   3.097  0.1795 -0.4806 -0.0521
 3908SOL    HW123186   0.407   1.744   3.066  0.0826 -1.1236 -1.2663
 3908SOL    HW223187   0.368   1.608   3.112  2.1530  0.5158  0.9836
 3909SOL     OW23188   1.804   0.110   2.646  0.3057  0.4063 -0.5894
 3909SOL    HW123189   1.823   0.200   2.674 -0.4538  0.5373 -0.4857
 3909SOL    HW223190   1.712   0.097   2.669  0.2044  0.3597 -1.0140
 3910SOL     OW23191   0.379   1.941  16.171 -0.4654  0.0151  0.4487
 3910SOL    HW123192   0.289   1.918  16.148 -0.0711  0.2720 -1.3154
 3910SOL    HW223193   0.361   2.017  16.226  0.1025  0.4747 -0.0078
 3911SOL     OW23194   4.132   2.686  17.524  0.2106  0.3216 -0.1195
 3911SOL    HW123195   4.143   2.613  17.463  0.1652  0.5106 -0.3545
 3911SOL    HW223196   4.122   2.750  17.454  1.4351 -0.6706 -1.2002
 3912SOL     OW23197   3.561   0.147  11.661 -0.1283 -0.3989 -0.0167
 3912SOL    HW123198   3.616   0.198  11.603  0.5652  0.2167  1.1787
 3912SOL    HW223199   3.544   0.212  11.729  2.5647  1.5964 -1.2911
 3913SOL     OW23200   0.519   0.211   2.825  0.2741  0.0943 -0.4239
 3913SOL    HW123201   0.538   0.161   2.746  1.8302  3.0239 -1.8756
 3913SOL    HW223202   0.440   0.258   2.796 -0.3528 -1.1753 -0.7885
 3914SOL     OW23203   2.895   1.066   7.606 -0.2121  0.5804 -0.0704
 3914SOL    HW123204   2.862   0.988   7.562  1.8227 -0.0715 -0.4071
 3914SOL    HW223205   2.989   1.052   7.599 -0.0643  0.7322  1.7050
 3915SOL     OW23206   3.196   2.816   3.792  0.0322  0.3630  0.1426
 3915SOL    HW123207   3.188   2.735   3.844 -1.0216 -0.0745 -0.6877
 3915SOL    HW223208   3.119   2.866   3.819  0.2003  0.8869 -0.3664
 3916SOL     OW23209   2.233   0.792   9.360  0.1656 -0.6823 -0.0601
 3916SOL    HW123210   2.192   0.835   9.435  1.1354 -2.7899  1.7222
 3916SOL    HW223211   2.316   0.762   9.399  0.0016  0.9962  1.6067
 3917SOL     OW23212   3.930   1.389   0.095  0.3698 -0.2364  0.2681
 3917SOL    HW123213   4.019   1.395   0.128  0.7888 -0.0585 -0.8957
 3917SOL    HW223214   3.907   1.298   0.117 -0.7167 -0.0770 -0.1832
 3918SOL     OW23215   3.934   4.524   5.288 -0.5580 -0.3369  0.1658
 3918SOL    HW123216   3.996   4.588   5.321  1.2013 -1.2828 -1.3402
 3918SOL    HW223217   3.854   4.567   5.320 -1.3727 -0.5866 -1.5490
 3919SOL     OW23218   2.851   0.836   9.647  0.3558  0.1989  0.0315
 3919SOL    HW123219   2.793   0.891   9.699  1.0879  1.4637 -0.5093
 3919SOL    HW223220   2.938   0.840   9.688  0.3098  0.8106  0.0692
 3920SOL     OW23221   1.637   3.786  12.495  0.0417  0.7599 -0.0319
 3920SOL    HW123222   1.664   3.827  12.413 -0.0675 -0.1317 -0.5140
 3920SOL    HW223223   1.548   3.754  12.478  0.3977 -0.4548  0.3791
 3921SOL     OW23224   3.563   3.866   5.774 -0.1355  0.3170 -0.3047
 3921SOL    HW123225   3.526   3.822   5.851  0.6723  0.6611  0.2818
 3921SOL    HW223226   3.598   3.948   5.809  0.1576  0.6530 -1.3739
 3922SOL     OW23227   1.711   4.382   4.635  0.3581  0.8613  0.6113
 3922SOL    HW123228   1.752   4.453   4.585  1.3268 -0.4366 -0.4194
 3922SOL    HW223229   1.757   4.385   4.719  0.6563  1.8424  0.4141
 3923SOL     OW23230   3.049   2.709  13.796 -0.1805  0.3773 -0.1755
 3923SOL    HW123231   3.080   2.653  13.867  2.1919  0.1377 -1.3890
 3923SOL    HW223232   3.134   2.747  13.773  0.9739 -3.1419 -1.7008
 3924SOL     OW23233   0.026   2.589   5.120  0.2923 -0.5233  0.0345
 3924SOL    HW123234   4.715   2.625   5.037 -2.3575 -0.9656  0.8987
 3924SOL    HW223235   4.671   2.577   5.176 -1.4808  1.4483 -1.9703
 3925SOL     OW23236   4.486   0.677   6.246  0.1837 -0.0570  0.0217
 3925SOL    HW123237   4.432   0.688   6.168 -2.7355 -1.6637  1.7930
 3925SOL    HW223238   4.476   0.583   6.264  0.5183  0.1113  1.0374
 3926SOL     OW23239   4.016   4.641  12.849  0.2221 -0.2555 -0.1293
 3926SOL    HW123240   3.944   4.650  12.787 -0.0516 -1.1296  0.0635
 3926SOL    HW223241   4.004   4.548  12.868  0.3908 -0.2680 -0.0841
 3927SOL     OW23242   0.540   4.248  13.264  0.0055 -0.1733 -0.1402
 3927SOL    HW123243   0.548   4.215  13.354  2.5856 -0.0126 -0.3071
 3927SOL    HW223244   0.506   4.172  13.217  1.1927 -1.6346  1.3643
 3928SOL     OW23245   0.885   1.686   5.555 -0.2203  0.0444 -0.7276
 3928SOL    HW123246   0.886   1.594   5.529 -4.5019  0.3425 -1.8382
 3928SOL    HW223247   0.875   1.728   5.470 -1.7394  1.7371  0.3023
 3929SOL     OW23248   1.392   1.729   7.724 -0.0702 -0.4930  0.2489
 3929SOL    HW123249   1.316   1.750   7.779 -0.5933  0.0832 -0.6929
 3929SOL    HW223250   1.389   1.634   7.732  1.5281 -0.5044  0.6987
 3930SOL     OW23251   3.677   0.710   3.833 -0.3535  0.5932 -0.2019
 3930SOL    HW123252   3.738   0.757   3.890  2.6891 -1.1708 -1.9869
 3930SOL    HW223253   3.719   0.625   3.848 -0.1824  0.7242  0.0547
 3931SOL     OW23254   3.894   3.190   5.944  0.1522 -0.3807 -0.2987
 3931SOL    HW123255   3.817   3.137   5.964 -0.1417  0.3209  0.4383
 3931SOL    HW223256   3.963   3.128   5.920 -0.5399 -1.2377 -0.0678
 3932SOL     OW23257   3.820   4.296   7.888 -0.4742 -0.1024 -0.2534
 3932SOL    HW123258   3.890   4.255   7.938  0.3868 -0.6039 -1.8630
 3932SOL    HW223259   3.826   4.390   7.904 -1.2800 -0.2298  0.7209
 3933SOL     OW23260   2.332   4.674   3.013  0.1112  0.4779  0.3045
 3933SOL    HW123261   2.411   4.635   3.051 -1.2151 -2.1682  0.3303
 3933SOL    HW223262   2.306   4.615   2.942  0.3433  1.6020 -0.7268
 3934SOL     OW23263   1.130   1.288   0.621  0.0741  0.0758 -0.3791
 3934SOL    HW123264   1.196   1.227   0.591 -2.7158 -2.9181 -0.4315
 3934SOL    HW223265   1.076   1.275   0.543  0.1849  3.0335 -0.9582
 3935SOL     OW23266   0.860   3.522   0.245  0.3004 -0.3890  0.1142
 3935SOL    HW123267   0.924   3.458   0.213  0.5630  0.8164 -1.7242
 3935SOL    HW223268   0.906   3.567   0.316 -1.4118  0.0016  0.9884
 3936SOL     OW23269   4.044   1.323   7.580  0.2419  0.5132 -0.4478
 3936SOL    HW123270   3.994   1.268   7.520 -0.2375  1.3812 -0.8439
 3936SOL    HW223271   4.022   1.286   7.665 -0.9985 -1.4085 -1.6191
 3937SOL     OW23272   1.129   3.820   7.838 -0.4367 -0.4484 -0.1674
 3937SOL    HW123273   1.166   3.762   7.906  2.2513  0.7038 -0.6489
 3937SOL    HW223274   1.120   3.760   7.765 -1.1216 -0.8765  0.2726
 3938SOL     OW23275   1.483   3.305   8.995  0.2468 -0.7062 -0.6071
 3938SOL    HW123276   1.552   3.254   8.953 -0.9445 -1.0692 -2.1557
 3938SOL    HW223277   1.409   3.257   8.957 -0.6444  0.4426 -0.3365
 3939SOL     OW23278   2.832   3.752   6.102  0.6852  0.3731 -0.3881
 3939SOL    HW123279   2.744   3.789   6.104  0.9312  0.9671 -0.6820
 3939SOL    HW223280   2.816   3.658   6.088  0.6271  0.3187  0.0409
 3940SOL     OW23281   4.669   3.825  17.069 -0.2913 -0.1774  0.1622
 3940SOL    HW123282   4.585   3.780  17.083 -1.2062  1.1522 -0.9678
 3940SOL    HW223283   4.637   3.857  16.984 -0.9425  2.3163  1.3426
 3941SOL     OW23284   2.413   2.542  12.255  0.3875 -0.3197 -0.3880
 3941SOL    HW123285   2.318   2.555  12.249  0.2921  0.2432  2.1495
 3941SOL    HW223286   2.439   2.620  12.303  1.4708  0.3386 -2.0837
 3942SOL     OW23287   0.587   4.629   9.156 -0.1343 -0.2259 -0.4593
 3942SOL    HW123288   0.632   4.556   9.198 -0.6424 -0.0033  0.4692
 3942SOL    HW223289   0.523   4.641   9.226 -0.3486  0.1431 -0.7191
 3943SOL     OW23290   2.427   4.332   2.957 -0.2730 -0.2281 -0.3665
 3943SOL    HW123291   2.399   4.351   2.867  0.1073  0.1432 -0.4064
 3943SOL    HW223292   2.489   4.260   2.943 -1.9565 -1.7688  0.0380
 3944SOL     OW23293   1.933   4.233   6.998  0.2380  0.3085  0.2399
 3944SOL    HW123294   1.924   4.318   6.953  1.1315 -0.1193 -0.7342
 3944SOL    HW223295   1.884   4.256   7.077  1.2480  0.5685  0.7826
 3945SOL     OW23296   2.391   2.589   7.264 -0.2528  0.8623 -0.2215
 3945SOL    HW123297   2.460   2.524   7.273 -0.2354  0.8818 -0.2137
 3945SOL    HW223298   2.312   2.538   7.247 -0.2535  0.3605  1.3448
 3946SOL     OW23299   3.759   2.341   7.371  0.5740  0.3698 -0.3500
 3946SOL    HW123300   3.749   2.420   7.425  0.2733  0.1120 -0.0204
 3946SOL    HW223301   3.702   2.281   7.420  1.0238  0.5219  0.3677
 3947SOL     OW23302   1.633   3.806  10.631 -0.0241 -0.0268  0.2938
 3947SOL    HW123303   1.662   3.895  10.612 -1.2067  0.4800  0.8594
 3947SOL    HW223304   1.689   3.748  10.579  1.8346 -0.4241  2.7649
 3948SOL     OW23305   1.128   2.048   8.423  0.1994  0.3928  0.1350
 3948SOL    HW123306   1.036   2.049   8.448  0.3070 -1.7934  0.6093
 3948SOL    HW223307   1.145   1.956   8.443 -1.0092 -0.3184 -2.0450
 3949SOL     OW23308   3.657   4.538   3.318  0.5915  0.5923  0.3179
 3949SOL    HW123309   3.735   4.530   3.263  1.1246 -0.3137  1.2243
 3949SOL    HW223310   3.660   4.631   3.341  0.9383  0.3692  1.1752
 3950SOL     OW23311   0.958   1.227   7.793  0.0020  0.3023 -0.2752
 3950SOL    HW123312   0.957   1.320   7.812  0.2227  0.3543 -0.5154
 3950SOL    HW223313   0.928   1.244   7.704  2.0569  2.5674 -0.5312
 3951SOL     OW23314   1.690   2.199  12.629  0.5277  0.0120 -0.4588
 3951SOL    HW123315   1.719   2.255  12.557  0.5478 -0.5232 -0.8630
 3951SOL    HW223316   1.741   2.233  12.703  0.4221 -1.4812  0.2998
 3952SOL     OW23317   2.855   1.992   4.973 -0.1554 -0.3234 -0.0245
 3952SOL    HW123318   2.918   2.055   5.008  0.6894 -0.1090 -1.9037
 3952SOL    HW223319   2.844   2.015   4.881  0.4476  2.8692  0.7031
 3953SOL     OW23320   2.404   2.122   2.437  0.4082 -0.1636 -0.2403
 3953SOL    HW123321   2.359   2.206   2.433 -0.6292 -0.8036 -2.5403
 3953SOL    HW223322   2.485   2.135   2.387  0.5869  1.3813  0.4407
 3954SOL     OW23323   2.663   0.644   3.299  0.3700  0.4011  0.4525
 3954SOL    HW123324   2.725   0.614   3.232 -1.7151  2.0133 -2.2125
 3954SOL    HW223325   2.595   0.578   3.285  2.0772 -0.7707 -2.4577
 3955SOL     OW23326   3.669   1.662   7.362 -0.1190 -0.0783 -0.2776
 3955SOL    HW123327   3.758   1.630   7.377 -0.8886 -1.3461  1.6099
 3955SOL    HW223328   3.674   1.728   7.431  1.6471  2.2712 -2.6733
 3956SOL     OW23329   4.404   2.021   6.060  0.4268  0.2049  0.1253
 3956SOL    HW123330   4.370   2.095   6.009  2.4115  0.8366 -0.2598
 3956SOL    HW223331   4.499   2.031   6.063  0.5440 -1.0641  0.5535
 3957SOL     OW23332   1.523   0.696   6.543  0.6248  0.1162  0.0034
 3957SOL    HW123333   1.440   0.722   6.503  0.4315  0.3802  0.5774
 3957SOL    HW223334   1.488   0.640   6.613  1.3775  0.9689  1.0489
 3958SOL     OW23335   1.206   3.460  15.710  0.9424 -0.1722 -0.2418
 3958SOL    HW123336   1.193   3.551  15.737 -1.0060 -1.0229  1.6616
 3958SOL    HW223337   1.132   3.454  15.650 -0.2552 -1.0674  1.2993
 3959SOL     OW23338   3.228   1.045   5.044  0.6922  0.5233 -0.4771
 3959SOL    HW123339   3.258   1.087   5.125 -1.6994  2.7409 -0.7359
 3959SOL    HW223340   3.227   0.957   5.082 -0.0929  0.4819 -0.5952
 3960SOL     OW23341   3.008   1.725   8.825 -0.2433 -0.3848  0.1370
 3960SOL    HW123342   2.975   1.699   8.911 -1.0139  1.1158  0.2930
 3960SOL    HW223343   3.093   1.761   8.846 -0.9497  1.3057  0.0951
 3961SOL     OW23344   1.114   1.956   7.561  0.0225  0.2740 -0.4317
 3961SOL    HW123345   1.151   2.026   7.614  0.0805 -1.3007  1.6223
 3961SOL    HW223346   1.192   1.902   7.543 -0.8842 -0.8645 -0.9532
 3962SOL     OW23347   0.160   1.089   7.583 -0.8998  0.0139 -0.1074
 3962SOL    HW123348   0.154   1.183   7.599  1.9168  0.3313 -0.8124
 3962SOL    HW223349   0.225   1.088   7.513  1.9548 -1.1060  2.5618
 3963SOL     OW23350   0.091   2.604   7.223  0.1609 -0.1915 -0.1408
 3963SOL    HW123351   0.028   2.535   7.243 -1.9267  1.4191 -1.1401
 3963SOL    HW223352   0.176   2.573   7.253  0.5450  1.3866  0.4434
 3964SOL     OW23353   3.273   0.327   5.936  0.3347 -1.0528  0.1744
 3964SOL    HW123354   3.217   0.390   5.981  0.9693  0.7384 -1.5589
 3964SOL    HW223355   3.356   0.336   5.983  0.1410 -0.6199  0.4354
 3965SOL     OW23356   2.743   1.570  16.850  0.4960  1.0451 -0.0045
 3965SOL    HW123357   2.736   1.492  16.905 -0.7701  2.6110  2.0831
 3965SOL    HW223358   2.666   1.562  16.793  0.0184  1.1083  0.6278
 3966SOL     OW23359   3.695   3.410  10.806  0.3909 -0.0607 -0.3835
 3966SOL    HW123360   3.701   3.391  10.712 -0.5858  0.8607 -0.6266
 3966SOL    HW223361   3.627   3.344  10.820  0.2330 -0.0018 -0.8660
 3967SOL     OW23362   2.036   4.111  11.572 -0.4260  0.0756 -0.4052
 3967SOL    HW123363   2.094   4.063  11.631 -0.9059  0.2521  0.2105
 3967SOL    HW223364   2.082   4.094  11.490  1.1931  1.2352  0.2614
 3968SOL     OW23365   2.021   0.735   8.588  0.3752  0.1138 -0.2840
 3968SOL    HW123366   2.045   0.813   8.638  0.1571 -0.1476  0.2387
 3968SOL    HW223367   1.932   0.710   8.615  0.5497 -0.2543 -0.0425
 3969SOL     OW23368   0.327   1.752   7.930 -0.0675  0.0752  0.1078
 3969SOL    HW123369   0.237   1.721   7.926 -0.0859  0.3366 -1.6484
 3969SOL    HW223370   0.327   1.778   8.023 -0.3662 -1.0675  0.4193
 3970SOL     OW23371   4.519   0.539   5.652 -0.4279  0.1559  1.0774
 3970SOL    HW123372   4.462   0.462   5.656 -0.2640  0.0719  1.7484
 3970SOL    HW223373   4.499   0.582   5.735  0.8183 -2.9002  2.9554
 3971SOL     OW23374   1.679   3.480   6.625  0.3632  0.0108  0.2656
 3971SOL    HW123375   1.700   3.460   6.716  4.5240 -1.7725 -1.0510
 3971SOL    HW223376   1.604   3.424   6.609  2.1700 -2.2311 -0.4264
 3972SOL     OW23377   2.249   1.785   3.139  0.1357  0.0415  0.3286
 3972SOL    HW123378   2.274   1.845   3.070 -1.0724 -2.2913 -2.1166
 3972SOL    HW223379   2.180   1.735   3.097  0.6475  0.2723 -0.7653
 3973SOL     OW23380   0.835   4.503   8.232 -0.4457 -0.0299 -0.2458
 3973SOL    HW123381   0.907   4.464   8.282 -1.8109 -2.0563  0.1323
 3973SOL    HW223382   0.824   4.588   8.276  0.8039  1.2859 -2.4629
 3974SOL     OW23383   4.445   3.495  10.631 -0.2052  0.2445 -0.1095
 3974SOL    HW123384   4.526   3.544  10.645 -0.4563  0.7215 -0.3061
 3974SOL    HW223385   4.373   3.547  10.667  0.9417  1.5143  0.3647
 3975SOL     OW23386   1.353   0.236   5.099 -0.3111 -0.3264 -0.3488
 3975SOL    HW123387   1.385   0.323   5.125 -1.5714  0.3892 -1.1893
 3975SOL    HW223388   1.350   0.249   5.004 -1.0566 -1.3508 -0.4619
 3976SOL     OW23389   2.281   2.179   7.027  0.4909  0.1941 -0.5370
 3976SOL    HW123390   2.200   2.183   6.975 -2.0388 -0.1387  3.4080
 3976SOL    HW223391   2.311   2.270   7.020  0.9418  0.2567  2.1643
 3977SOL     OW23392   3.811   2.544  16.802  0.0578  0.2496 -0.0705
 3977SOL    HW123393   3.884   2.491  16.768  0.2196  1.3084 -1.4066
 3977SOL    HW223394   3.807   2.613  16.735  0.4380  0.8940  0.5712
 3978SOL     OW23395   1.605   3.904   5.830  0.5963 -0.0780  0.1468
 3978SOL    HW123396   1.648   3.827   5.868  1.5582  0.6248  0.4953
 3978SOL    HW223397   1.657   3.902   5.749 -0.9871 -0.8588 -0.8537
 3979SOL     OW23398   4.256   0.675   4.404 -0.0168 -0.2430 -0.5497
 3979SOL    HW123399   4.341   0.713   4.381  0.1293  0.6229  1.4366
 3979SOL    HW223400   4.265   0.588   4.366 -1.1554  0.8840 -3.4683
 3980SOL     OW23401   1.326   2.884   8.850  0.2623  0.6587  0.4555
 3980SOL    HW123402   1.295   2.831   8.924  2.5190 -1.5233 -0.1464
 3980SOL    HW223403   1.410   2.844   8.830 -1.2249 -2.3441  0.1949
 3981SOL     OW23404   3.629   2.385   4.605 -0.1120 -0.0103 -0.6244
 3981SOL    HW123405   3.594   2.469   4.575 -2.1042 -0.5699  0.1220
 3981SOL    HW223406   3.552   2.360   4.657  1.1633 -1.2317  0.6729
 3982SOL     OW23407   0.218   3.989  12.695 -0.2570  0.2570  0.0825
 3982SOL    HW123408   0.181   3.956  12.777  2.6996  0.2298  1.4033
 3982SOL    HW223409   0.152   4.054  12.670 -1.1539 -0.7230 -0.1297
 3983SOL     OW23410   1.894   3.044   4.775  0.1539  0.1743 -0.1485
 3983SOL    HW123411   1.957   3.038   4.702  0.1463  2.5077 -0.3530
 3983SOL    HW223412   1.940   3.013   4.853  0.3775  1.7929  0.3658
 3984SOL     OW23413   3.838   0.448  11.348 -0.2043  0.0109  0.1135
 3984SOL    HW123414   3.910   0.466  11.287 -1.3163  0.4981 -1.0397
 3984SOL    HW223415   3.813   0.536  11.377  0.3427  0.1095  0.3015
 3985SOL     OW23416   1.779   4.178  11.382  0.0354 -0.0841  0.3501
 3985SOL    HW123417   1.866   4.210  11.359 -0.0947  0.4888  0.6562
 3985SOL    HW223418   1.745   4.156  11.295 -0.5531 -0.1638  0.5998
 3986SOL     OW23419   2.889   0.940   8.568 -0.4928  0.4136 -0.6932
 3986SOL    HW123420   2.863   0.862   8.519 -0.9494  0.0428  0.1439
 3986SOL    HW223421   2.818   0.994   8.534 -0.1217  1.5985  0.4102
 3987SOL     OW23422   1.242   3.377   5.846  0.2634  0.4836 -0.0954
 3987SOL    HW123423   1.270   3.288   5.823 -2.8988 -0.5613  0.1340
 3987SOL    HW223424   1.211   3.356   5.934  0.9613 -0.8092 -0.1614
 3988SOL     OW23425   1.918   2.290  14.359  0.1647  0.0873  0.0872
 3988SOL    HW123426   1.990   2.235  14.328 -0.2563 -0.8336  0.7612
 3988SOL    HW223427   1.960   2.342  14.427 -1.1467 -1.6785  2.2264
 3989SOL     OW23428   3.172   1.745   1.128  0.6770 -0.2572  0.4563
 3989SOL    HW123429   3.150   1.836   1.110 -1.9660 -1.0127 -0.0610
 3989SOL    HW223430   3.132   1.733   1.214 -1.4185  0.6791 -0.3897
 3990SOL     OW23431   0.297   3.276   8.343 -0.2593  0.4585  0.1955
 3990SOL    HW123432   0.317   3.368   8.362  3.6949 -0.7001  1.7158
 3990SOL    HW223433   0.217   3.269   8.395  0.0246  0.5727  0.6561
 3991SOL     OW23434   3.869   1.192   6.975  0.1196 -0.1250 -0.2820
 3991SOL    HW123435   3.850   1.138   6.898 -2.0571  1.6634 -0.9834
 3991SOL    HW223436   3.820   1.150   7.044  2.1250  1.5340  2.1559
 3992SOL     OW23437   4.409   3.475  11.049 -0.5969  0.0778  0.2194
 3992SOL    HW123438   4.437   3.567  11.046 -1.7382  0.4022 -0.2765
 3992SOL    HW223439   4.318   3.487  11.024 -0.9889  0.9529  2.0079
 3993SOL     OW23440   2.005   3.059   6.025 -0.1547 -0.4028 -0.3085
 3993SOL    HW123441   1.935   2.993   6.021 -0.3577 -0.3133  1.5294
 3993SOL    HW223442   2.079   3.002   6.004 -0.0184 -1.1847  2.2632
 3994SOL     OW23443   1.952   3.350   0.584 -0.0698  0.1044  0.1115
 3994SOL    HW123444   2.037   3.308   0.571 -0.0155 -0.3625  1.9459
 3994SOL    HW223445   1.897   3.276   0.559 -0.1828  0.0225  0.5967
 3995SOL     OW23446   1.494   1.973  15.189 -0.0696  0.3030 -0.2828
 3995SOL    HW123447   1.492   1.880  15.211 -0.7974  0.9273  2.2656
 3995SOL    HW223448   1.547   1.960  15.110 -2.4159 -1.2488 -1.5941
 3996SOL     OW23449   2.974   3.194   2.799  0.6175  0.2297 -0.4115
 3996SOL    HW123450   2.976   3.153   2.712 -3.9639  0.2756 -0.5099
 3996SOL    HW223451   3.050   3.159   2.846  0.2605 -0.7835 -0.5697
 3997SOL     OW23452   1.388   3.536  11.387  0.7249  0.1958  0.4834
 3997SOL    HW123453   1.324   3.558  11.454  1.5561 -0.3226  1.4403
 3997SOL    HW223454   1.342   3.495  11.313  1.6919 -0.1218  0.0569
 3998SOL     OW23455   3.502   0.634  16.162 -0.2412  0.1692  0.0997
 3998SOL    HW123456   3.443   0.692  16.210 -1.0561 -0.9733  0.4745
 3998SOL    HW223457   3.575   0.689  16.134 -0.2991  0.0699 -0.2454
 3999SOL     OW23458   1.289   0.838   3.653 -0.1331 -0.2175 -0.6959
 3999SOL    HW123459   1.333   0.819   3.570 -1.1171  1.8802 -1.7008
 3999SOL    HW223460   1.369   0.865   3.698 -2.3236  1.5181  2.1673
 4000SOL     OW23461   4.398   3.110   3.078 -0.6039 -1.0564  0.4120
 4000SOL    HW123462   4.338   3.148   3.142 -0.2889 -0.2924  0.2593
 4000SOL    HW223463   4.360   3.023   3.072 -1.3781 -0.7225  0.4217
 4001SOL     OW23464   4.374   3.632   6.823 -0.3030  0.1412 -0.1765
 4001SOL    HW123465   4.341   3.545   6.803  1.5537  0.1683 -3.2956
 4001SOL    HW223466   4.454   3.642   6.770 -1.6995  3.4081 -1.6643
 4002SOL     OW23467   4.621   0.048  11.269  0.0412  0.3473 -0.0544
 4002SOL    HW123468   4.713   0.069  11.250  0.7720 -1.6081  1.2528
 4002SOL    HW223469   4.585   0.128  11.308 -1.9550 -0.3736 -0.4172
 4003SOL     OW23470   0.661   0.185   7.679  0.0660 -0.2556 -0.2656
 4003SOL    HW123471   0.679   0.102   7.633  2.3910 -1.4579  2.8575
 4003SOL    HW223472   0.704   0.248   7.622  1.4465 -2.2072 -1.4122
 4004SOL     OW23473   0.704   2.275   3.552  0.2712 -0.0734 -0.0374
 4004SOL    HW123474   0.670   2.236   3.632 -2.2076  0.2879 -0.9355
 4004SOL    HW223475   0.738   2.358   3.586 -1.9695  0.6154  0.5041
 4005SOL     OW23476   0.048   0.449  14.299  0.5620  0.2184  0.1090
 4005SOL    HW123477   0.009   0.494  14.373 -1.5477  0.0928 -0.9162
 4005SOL    HW223478   4.697   0.468  14.239  1.2660  0.8773 -0.5212
 4006SOL     OW23479   0.397   4.125   6.180  0.3308 -0.0632 -0.0143
 4006SOL    HW123480   0.352   4.120   6.264  2.0972 -0.0477  0.9321
 4006SOL    HW223481   0.319   4.130   6.125  1.2115 -1.8170 -1.4508
 4007SOL     OW23482   2.432   0.999  17.285  0.0937  0.1943  0.1572
 4007SOL    HW123483   2.448   0.992  17.379  0.6366 -2.3378 -0.0995
 4007SOL    HW223484   2.440   0.906  17.261  0.4594  0.0446  0.8695
 4008SOL     OW23485   0.837   3.628  17.330  0.0327 -0.0844  0.3392
 4008SOL    HW123486   0.888   3.552  17.357 -0.1862 -0.3939 -0.1163
 4008SOL    HW223487   0.899   3.685  17.284  0.9328 -0.8723  0.6069
 4009SOL     OW23488   3.391   1.165   8.120 -0.4542 -0.3321 -0.1012
 4009SOL    HW123489   3.296   1.175   8.118 -0.4382 -0.0781  0.3041
 4009SOL    HW223490   3.407   1.233   8.054 -0.4571  0.4016  0.6581
 4010SOL     OW23491   2.445   0.835   3.156  0.3487 -0.4632 -0.7668
 4010SOL    HW123492   2.452   0.830   3.061  1.2598  1.9028 -0.8385
 4010SOL    HW223493   2.529   0.806   3.193  0.6889  1.5233  0.0191
 4011SOL     OW23494   2.778   3.691   8.407 -0.0636  0.2870  0.3214
 4011SOL    HW123495   2.802   3.630   8.337 -1.4280  0.2895 -0.1493
 4011SOL    HW223496   2.689   3.712   8.378  0.5095 -0.9203 -2.2810
 4012SOL     OW23497   3.066   0.503   6.785 -0.0762  0.1070  0.0762
 4012SOL    HW123498   3.113   0.543   6.858  0.5032  0.7798 -0.6562
 4012SOL    HW223499   2.992   0.564   6.780  0.5393  0.9349  1.0810
 4013SOL     OW23500   3.351   3.138   7.312  0.0043  0.4916  0.7803
 4013SOL    HW123501   3.301   3.172   7.237 -0.9268 -4.5546 -0.8503
 4013SOL    HW223502   3.296   3.077   7.361  1.4384  0.9161  2.9197
 4014SOL     OW23503   0.384   3.286   1.837 -0.2747 -0.7804  0.4757
 4014SOL    HW123504   0.339   3.264   1.756  0.7122  0.6830 -0.4668
 4014SOL    HW223505   0.310   3.303   1.897 -1.0261 -1.1688 -0.3417
 4015SOL     OW23506   3.835   1.188  12.035  0.3013  0.3658  0.5451
 4015SOL    HW123507   3.823   1.093  12.035  1.5450  0.2054  1.3581
 4015SOL    HW223508   3.930   1.192  12.019 -0.1293 -0.6138 -2.2882
 4016SOL     OW23509   2.803   0.861  14.036 -0.2115 -0.5828  0.5570
 4016SOL    HW123510   2.844   0.790  14.086 -2.7895 -2.0251  0.6012
 4016SOL    HW223511   2.808   0.816  13.952  0.1950 -0.7955  0.6932
 4017SOL     OW23512   4.644   4.557   4.464  0.2567 -0.7707 -0.4190
 4017SOL    HW123513   4.641   4.524   4.375 -1.3275 -0.0237 -0.6304
 4017SOL    HW223514   4.555   4.593   4.460 -0.0073 -1.0961  2.5560
 4018SOL     OW23515   3.890   0.569   6.541  0.3373  0.2618  0.0163
 4018SOL    HW123516   3.820   0.578   6.606  0.6885 -0.6052  0.5160
 4018SOL    HW223517   3.920   0.659   6.524  0.1151  0.4992  0.8596
 4019SOL     OW23518   4.190   2.405   1.021  0.1054 -0.1434  0.5887
 4019SOL    HW123519   4.186   2.500   1.023 -0.8923 -0.1593 -0.4702
 4019SOL    HW223520   4.097   2.386   1.005  0.2760  1.1721 -2.0917
 4020SOL     OW23521   3.661   3.139   4.923  0.1375  0.2793  0.1123
 4020SOL    HW123522   3.735   3.189   4.958 -1.7191  3.8667 -1.1131
 4020SOL    HW223523   3.708   3.063   4.890  1.6501  1.0088  0.6069
 4021SOL     OW23524   4.164   0.281   7.997 -0.3545  0.1762 -0.3951
 4021SOL    HW123525   4.201   0.358   8.039 -1.1110 -0.2957  1.1146
 4021SOL    HW223526   4.141   0.241   8.081 -2.8696 -0.5934 -1.4512
 4022SOL     OW23527   0.537   1.807  17.138  0.0504  0.0626 -0.2966
 4022SOL    HW123528   0.596   1.832  17.066  0.4046 -1.9234 -0.6940
 4022SOL    HW223529   0.571   1.871  17.200 -0.2729  0.0485 -0.1060
 4023SOL     OW23530   2.473   1.724  14.303  0.5411  0.1953 -0.0853
 4023SOL    HW123531   2.426   1.666  14.363 -0.2192  1.6932  0.7870
 4023SOL    HW223532   2.564   1.710  14.328 -0.0619 -0.5004  1.7299
 4024SOL     OW23533   1.977   0.481   8.914  0.4554 -0.3944 -0.3319
 4024SOL    HW123534   1.896   0.434   8.892  1.1030 -0.8783 -1.6891
 4024SOL    HW223535   1.981   0.448   9.004  1.3329 -0.4008 -0.3804
 4025SOL     OW23536   1.482   1.329   8.090  0.2593 -0.5915  0.9476
 4025SOL    HW123537   1.505   1.239   8.067  1.4165  0.2641 -1.1641
 4025SOL    HW223538   1.533   1.369   8.020 -0.4442  0.2162  0.8929
 4026SOL     OW23539   0.499   0.349   8.542 -0.0564  0.7187 -0.5145
 4026SOL    HW123540   0.433   0.411   8.572 -0.1428  0.5806 -0.4221
 4026SOL    HW223541   0.446   0.275   8.513  1.9731 -0.5201 -1.0660
 4027SOL     OW23542   1.624   2.374   4.860 -0.1451  0.5438  0.4061
 4027SOL    HW123543   1.651   2.405   4.774 -1.5838  0.0856 -0.2119
 4027SOL    HW223544   1.653   2.284   4.843  2.0466  1.7388 -2.0942
 4028SOL     OW23545   0.136   4.152   2.836  0.4257  0.3475 -0.2179
 4028SOL    HW123546   0.181   4.208   2.773  2.8234 -0.9524  0.3647
 4028SOL    HW223547   0.081   4.226   2.865  1.5486  0.3018  2.0587
 4029SOL     OW23548   0.665   0.807   8.474  0.0284 -0.6404  0.0897
 4029SOL    HW123549   0.701   0.834   8.558  0.7854  0.8975 -0.7310
 4029SOL    HW223550   0.603   0.875   8.448  1.5543  1.5950  2.3457
 4030SOL     OW23551   1.558   3.798  16.395 -0.1999 -0.1005 -0.0625
 4030SOL    HW123552   1.463   3.798  16.387 -0.1635 -1.0419 -0.5986
 4030SOL    HW223553   1.578   3.879  16.348 -0.7022 -0.3220 -0.6537
 4031SOL     OW23554   3.818   4.142   1.056  0.0570  0.1314  0.3687
 4031SOL    HW123555   3.867   4.101   1.127  2.6247 -0.6174 -1.8365
 4031SOL    HW223556   3.728   4.155   1.085  0.4416 -2.2528  2.5862
 4032SOL     OW23557   1.591   3.368   8.683 -0.4906 -0.4240 -0.4832
 4032SOL    HW123558   1.524   3.301   8.671 -0.8875  0.0541 -0.9326
 4032SOL    HW223559   1.666   3.316   8.712 -0.7319  1.0795  2.8631
 4033SOL     OW23560   2.498   3.688  16.576 -0.2922  0.5452 -0.4104
 4033SOL    HW123561   2.470   3.610  16.529 -1.1395  2.1837 -2.6434
 4033SOL    HW223562   2.592   3.695  16.561  0.0879 -3.7368 -0.1197
 4034SOL     OW23563   3.829   4.220  12.269  0.0260  0.0027  0.2493
 4034SOL    HW123564   3.901   4.215  12.207 -0.1820 -1.2392  0.0969
 4034SOL    HW223565   3.757   4.185  12.217  0.4505  0.9269 -0.9345
 4035SOL     OW23566   1.540   1.797   6.577 -0.3431  0.5517  0.6888
 4035SOL    HW123567   1.620   1.847   6.562  1.3548 -2.1519  0.7533
 4035SOL    HW223568   1.514   1.838   6.660 -1.9354 -1.9033  1.4159
 4036SOL     OW23569   1.440   2.823   4.945  0.8287 -0.0878 -0.0728
 4036SOL    HW123570   1.492   2.766   5.002  1.8696  0.2599 -0.6752
 4036SOL    HW223571   1.356   2.812   4.990  1.6702 -0.5705  1.3830
 4037SOL     OW23572   2.440   4.520  14.920 -0.3225  0.1747  0.1288
 4037SOL    HW123573   2.505   4.512  14.851 -0.6296 -1.7174  0.0550
 4037SOL    HW223574   2.486   4.584  14.974 -2.9254  2.3111 -0.1503
 4038SOL     OW23575   0.473   3.878   8.607  0.1325 -0.7785  0.6202
 4038SOL    HW123576   0.516   3.963   8.596 -0.2238 -0.3414  2.7529
 4038SOL    HW223577   0.394   3.906   8.652 -0.1539  2.0952 -1.6633
 4039SOL     OW23578   0.415   1.222   5.833 -0.4404 -0.3578 -0.1197
 4039SOL    HW123579   0.440   1.237   5.924  0.3869  3.1954 -0.9530
 4039SOL    HW223580   0.387   1.309   5.806  0.4399  0.1732  0.6366
 4040SOL     OW23581   2.577   1.662   2.617 -0.1862 -1.0906  0.1558
 4040SOL    HW123582   2.568   1.566   2.614  0.7172 -1.0975 -2.3288
 4040SOL    HW223583   2.526   1.699   2.545  2.3220 -0.5046 -1.2973
 4041SOL     OW23584   2.442   4.189   4.264  0.4795  0.5489  0.4455
 4041SOL    HW123585   2.372   4.252   4.281  0.4644  0.9247 -1.0101
 4041SOL    HW223586   2.434   4.191   4.168 -0.8552 -1.7579  0.5127
 4042SOL     OW23587   4.634   3.053  12.798  0.1131 -0.5599  0.7305
 4042SOL    HW123588   0.003   3.080  12.782  0.8281 -2.2414  1.8200
 4042SOL    HW223589   4.623   3.067  12.892  3.0541 -0.4848  1.0680
 4043SOL     OW23590   3.742   3.357   8.040 -0.0639 -0.6016 -0.0544
 4043SOL    HW123591   3.714   3.324   8.125 -0.0944 -0.3014  0.0497
 4043SOL    HW223592   3.677   3.309   7.989 -3.5255  4.0470  0.0227
 4044SOL     OW23593   3.457   0.715  17.273  0.0494  0.5796 -0.1349
 4044SOL    HW123594   3.528   0.773  17.245  0.2124  1.5442  2.2537
 4044SOL    HW223595   3.399   0.734  17.199 -1.1497 -2.8476 -0.0878
 4045SOL     OW23596   2.568   1.864   5.346  0.1696  0.0768  0.9310
 4045SOL    HW123597   2.621   1.787   5.326  0.7000  0.7444 -0.2424
 4045SOL    HW223598   2.598   1.920   5.274  1.2550 -0.7092  0.7633
 4046SOL     OW23599   0.391   1.824   7.088  0.1824  0.1310  0.5871
 4046SOL    HW123600   0.343   1.857   7.012  1.1389 -1.4757 -0.7185
 4046SOL    HW223601   0.357   1.735   7.103 -1.0946  0.6492  0.7707
 4047SOL     OW23602   4.532   3.711   2.791  0.4481  0.5288 -0.3310
 4047SOL    HW123603   4.467   3.751   2.848  1.8535  0.0735  1.6079
 4047SOL    HW223604   4.493   3.725   2.705 -1.8710 -3.0087  0.1105
 4048SOL     OW23605   1.930   3.729   1.683  0.2402 -0.0131 -0.3788
 4048SOL    HW123606   1.970   3.751   1.599  0.0022 -0.7352 -0.6771
 4048SOL    HW223607   1.965   3.797   1.741 -0.4101  0.0700 -0.0854
 4049SOL     OW23608   1.121   1.095  15.377 -0.1849  0.1965 -0.2823
 4049SOL    HW123609   1.189   1.041  15.336 -1.6130  0.1786 -2.5859
 4049SOL    HW223610   1.154   1.182  15.355  0.0514  0.4039  0.9027
 4050SOL     OW23611   1.834   4.411   4.902 -0.4331  0.5484 -0.3110
 4050SOL    HW123612   1.928   4.429   4.890 -0.0887 -1.3961 -0.5802
 4050SOL    HW223613   1.841   4.341   4.967  0.7919  1.3619  0.4403
 4051SOL     OW23614   0.970   4.686  14.760 -0.1805 -0.2790 -0.2253
 4051SOL    HW123615   1.043   4.713  14.703  1.1266 -0.0753  1.5409
 4051SOL    HW223616   0.940   4.619  14.698 -0.9829  0.6766 -0.8690
 4052SOL     OW23617   1.898   1.293   4.540  0.1054 -0.0415 -0.3046
 4052SOL    HW123618   1.889   1.331   4.627 -0.0654 -0.0351 -0.3238
 4052SOL    HW223619   1.899   1.200   4.561 -0.0735  0.7770  3.3722
 4053SOL     OW23620   0.850   2.629   6.144  0.1582  0.5046 -0.5653
 4053SOL    HW123621   0.797   2.585   6.077  1.9752 -1.7103 -0.5497
 4053SOL    HW223622   0.935   2.640   6.101  0.6827  2.0207  0.8545
 4054SOL     OW23623   0.200   3.686   6.209 -0.0705 -0.6459 -0.4472
 4054SOL    HW123624   0.210   3.731   6.125  0.4788  0.3735  0.1697
 4054SOL    HW223625   0.242   3.752   6.263 -1.7358  0.8704 -1.0170
 4055SOL     OW23626   3.499   0.115  12.043 -0.3748  0.1600 -0.8015
 4055SOL    HW123627   3.423   0.131  12.098 -0.0015 -0.9505  0.0189
 4055SOL    HW223628   3.494   0.194  11.988 -0.4267 -0.6895 -2.0233
 4056SOL     OW23629   2.241   4.106   4.802 -0.1337 -0.4577 -0.1145
 4056SOL    HW123630   2.267   4.182   4.855  2.8658  0.0951 -2.3495
 4056SOL    HW223631   2.331   4.077   4.783 -0.1158  0.4783 -1.4135
 4057SOL     OW23632   4.478   4.595   7.140  0.0899 -0.4162 -0.3199
 4057SOL    HW123633   4.535   4.667   7.165 -0.0327 -0.1013 -0.9633
 4057SOL    HW223634   4.408   4.623   7.200  1.9730  2.8176  0.3686
 4058SOL     OW23635   0.103   1.992  17.534 -0.0091  0.3052  0.0944
 4058SOL    HW123636   0.089   2.059  17.466 -1.4475 -0.8290 -0.7268
 4058SOL    HW223637   0.015   1.954  17.536  0.3978 -0.4905  2.4688
 4059SOL     OW23638   2.424   0.517   7.715 -0.0607 -0.2475  0.2884
 4059SOL    HW123639   2.451   0.528   7.806 -1.2440 -0.9644  0.7381
 4059SOL    HW223640   2.337   0.482   7.734  0.7084 -1.2917  1.8413
 4060SOL     OW23641   0.969   3.428  12.307 -0.2011  0.5528 -0.0724
 4060SOL    HW123642   1.016   3.506  12.278  0.1031 -0.0155 -1.1289
 4060SOL    HW223643   0.877   3.454  12.295  0.1237  0.7921 -2.0989
 4061SOL     OW23644   1.083   1.030   4.776  0.7130 -0.3715  0.0866
 4061SOL    HW123645   1.095   1.105   4.718 -2.0841  0.0029 -0.0358
 4061SOL    HW223646   1.015   1.064   4.834  0.3183 -2.6634  0.9843
 4062SOL     OW23647   3.035   2.202   6.701 -0.0552  0.7154 -0.1815
 4062SOL    HW123648   3.008   2.238   6.617  2.2259 -1.3240 -1.7724
 4062SOL    HW223649   3.002   2.264   6.766 -0.8517 -0.6132  0.6963
 4063SOL     OW23650   3.768   1.370   3.143 -0.0374  0.1598  0.0982
 4063SOL    HW123651   3.681   1.408   3.134 -0.4758 -1.1235 -1.0664
 4063SOL    HW223652   3.742   1.281   3.169 -1.6689  0.7097  0.3811
 4064SOL     OW23653   3.934   4.705  17.424  0.6047  0.2450 -0.3021
 4064SOL    HW123654   3.965   4.615  17.438  0.8129  0.2787 -0.5455
 4064SOL    HW223655   3.838   4.706  17.431  0.5980 -0.7782 -0.1903
 4065SOL     OW23656   2.404   0.233  12.536  0.4010 -0.2039  0.0250
 4065SOL    HW123657   2.404   0.289  12.459 -0.3035  0.0774  0.2269
 4065SOL    HW223658   2.480   0.179  12.514  0.2487 -0.3529 -0.1321
 4066SOL     OW23659   4.007   3.206   8.316 -0.0196 -0.1783  0.2432
 4066SOL    HW123660   3.918   3.184   8.342  0.4143 -0.8287  1.1568
 4066SOL    HW223661   4.061   3.154   8.375 -0.5030 -0.8709  0.0742
 4067SOL     OW23662   3.013   2.062   6.081 -0.1856  0.1388 -0.4140
 4067SOL    HW123663   3.053   2.047   6.166  0.5200  2.3112 -0.3557
 4067SOL    HW223664   2.921   2.066   6.109 -0.2805 -1.8566 -0.4740
 4068SOL     OW23665   4.086   2.409   3.672 -0.0407 -0.1277  0.3911
 4068SOL    HW123666   4.025   2.434   3.602 -0.7385 -0.8057  0.7556
 4068SOL    HW223667   4.036   2.409   3.753  0.0828  0.9944  0.4683
 4069SOL     OW23668   4.259   2.574   4.461 -0.0240 -1.1629  0.1321
 4069SOL    HW123669   4.307   2.637   4.514  1.2377 -1.1273 -1.0486
 4069SOL    HW223670   4.291   2.498   4.509 -0.4071 -1.0604  0.5570
 4070SOL     OW23671   1.690   1.290   9.409 -0.5377 -0.1932 -0.6142
 4070SOL    HW123672   1.755   1.263   9.474 -0.3840  0.0585 -0.6628
 4070SOL    HW223673   1.612   1.258   9.453 -0.2819 -0.9133 -0.6809
 4071SOL     OW23674   4.488   1.250  10.767 -0.1344  0.0318 -0.1947
 4071SOL    HW123675   4.428   1.309  10.720 -0.0076  0.6446  0.4037
 4071SOL    HW223676   4.574   1.264  10.729 -0.4183 -1.4665 -1.3864
 4072SOL     OW23677   2.270   3.189   5.931  0.0447  0.0114 -1.1939
 4072SOL    HW123678   2.202   3.194   5.998  0.7908 -0.6453 -0.3729
 4072SOL    HW223679   2.232   3.214   5.847 -3.6003 -0.2595  0.3811
 4073SOL     OW23680   4.179   1.379   4.460 -0.5749 -0.0811  0.3921
 4073SOL    HW123681   4.241   1.446   4.488 -0.5280  0.2801 -0.5840
 4073SOL    HW223682   4.098   1.431   4.460 -0.2728  0.3856 -0.4749
 4074SOL     OW23683   3.732   1.658   7.778  0.1370  0.3447 -0.0367
 4074SOL    HW123684   3.821   1.685   7.800 -0.1535 -0.5047  2.2110
 4074SOL    HW223685   3.716   1.716   7.704  0.0604 -0.4834 -0.6654
 4075SOL     OW23686   3.464   2.022   8.556 -1.0943  0.4899  0.3681
 4075SOL    HW123687   3.491   2.113   8.542  0.0557  0.1850  0.6731
 4075SOL    HW223688   3.451   2.017   8.651  1.8758  1.6654  0.8314
 4076SOL     OW23689   0.904   4.164   5.658 -0.3686 -0.3722 -0.1454
 4076SOL    HW123690   0.942   4.193   5.742  0.6589 -1.2677 -0.3023
 4076SOL    HW223691   0.942   4.077   5.662  0.0341 -0.1203  1.9765
 4077SOL     OW23692   0.505   3.368   4.423  0.6323 -0.5566  0.3422
 4077SOL    HW123693   0.559   3.446   4.429  1.7628 -1.2984 -0.0515
 4077SOL    HW223694   0.543   3.304   4.484  0.0214 -0.2863  1.0029
 4078SOL     OW23695   0.564   0.528  13.486  0.2519 -0.0029  0.2148
 4078SOL    HW123696   0.594   0.506  13.575  0.6750  2.8762  0.7648
 4078SOL    HW223697   0.591   0.451  13.436 -1.0199  0.1655 -0.7387
 4079SOL     OW23698   3.306   0.925   6.181 -0.1719 -0.0908  0.0152
 4079SOL    HW123699   3.327   0.845   6.133 -0.7643 -0.1648 -0.1245
 4079SOL    HW223700   3.310   0.990   6.111 -1.3723  1.5993  1.5203
 4080SOL     OW23701   4.191   1.677   8.039 -0.5952 -0.2824  0.3275
 4080SOL    HW123702   4.271   1.728   8.030 -0.1702 -1.4864 -2.7665
 4080SOL    HW223703   4.154   1.694   7.952  1.4928 -1.2045 -0.7521
 4081SOL     OW23704   2.664   2.233   6.844  0.4607  0.0831  0.2361
 4081SOL    HW123705   2.654   2.304   6.907 -1.1211 -1.6323  1.9210
 4081SOL    HW223706   2.668   2.156   6.901  3.6696 -1.8844 -2.6304
 4082SOL     OW23707   4.049   1.932   6.444 -0.2455  0.4062  0.5218
 4082SOL    HW123708   4.090   1.975   6.369  1.4318  1.2312  1.9094
 4082SOL    HW223709   4.123   1.919   6.503  0.0374 -0.4057 -0.0167
 4083SOL     OW23710   1.799   3.868   8.209  0.1110  0.0729  0.3463
 4083SOL    HW123711   1.771   3.851   8.298 -0.4372 -0.8831 -0.0099
 4083SOL    HW223712   1.731   3.827   8.155 -0.8046  1.2031  0.6448
 4084SOL     OW23713   2.676   1.404   5.500 -0.4442  0.5030  0.0877
 4084SOL    HW123714   2.619   1.462   5.549  0.8724  2.1787 -0.3420
 4084SOL    HW223715   2.629   1.322   5.494 -0.1518  0.3453 -0.0860
 4085SOL     OW23716   0.339   1.878  11.292  0.1079 -0.7061  0.0623
 4085SOL    HW123717   0.357   1.793  11.253 -3.5946 -1.5774  0.2515
 4085SOL    HW223718   0.297   1.855  11.375  0.9140 -1.0555  0.3686
 4086SOL     OW23719   4.055   3.215   0.225  0.2075 -0.5938 -0.2785
 4086SOL    HW123720   4.150   3.201   0.220 -0.0503 -2.9428  1.1905
 4086SOL    HW223721   4.056   3.305   0.193 -0.6800 -0.6414 -0.4463
 4087SOL     OW23722   3.412   1.252  13.685  0.1051  0.2072  0.0010
 4087SOL    HW123723   3.423   1.326  13.625  1.6546 -1.3100 -1.5978
 4087SOL    HW223724   3.496   1.211  13.666  0.7377  1.4681  0.0992
 4088SOL     OW23725   1.260   2.116  11.468 -0.5719 -0.0868 -0.6233
 4088SOL    HW123726   1.341   2.069  11.450 -0.0901  0.4710  0.0861
 4088SOL    HW223727   1.199   2.054  11.508  0.0001  0.0547  0.4753
 4089SOL     OW23728   0.827   1.071   4.933  0.1983  0.6677  0.2095
 4089SOL    HW123729   0.770   0.999   4.904 -1.5684  1.6165  1.3565
 4089SOL    HW223730   0.762   1.129   4.972 -0.9006 -1.5245  1.6725
 4090SOL     OW23731   1.104   3.757  15.285 -0.4343 -0.2349 -0.3496
 4090SOL    HW123732   1.144   3.844  15.277 -1.1467  0.2960  1.8207
 4090SOL    HW223733   1.180   3.702  15.303  1.6509  2.5954 -0.4514
 4091SOL     OW23734   1.231   0.181   7.520 -0.6418 -1.0509 -0.0836
 4091SOL    HW123735   1.276   0.265   7.511  0.7930 -1.7120  0.8352
 4091SOL    HW223736   1.300   0.115   7.523 -1.2322 -1.6207  0.9243
 4092SOL     OW23737   3.700   0.568   8.540 -0.0039 -0.2243  0.2277
 4092SOL    HW123738   3.605   0.577   8.547  0.0782  0.3989  0.5774
 4092SOL    HW223739   3.733   0.657   8.551 -0.2822 -0.0411 -0.4403
 4093SOL     OW23740   1.790   2.125   4.502  0.8069  0.5276  0.0530
 4093SOL    HW123741   1.775   2.214   4.534  1.3113  1.3060 -1.8554
 4093SOL    HW223742   1.712   2.123   4.446  1.3563 -0.8685 -0.6407
 4094SOL     OW23743   1.588   1.108   9.869  0.4494  0.1477 -0.4660
 4094SOL    HW123744   1.638   1.121   9.789  0.0498  0.3190 -0.6901
 4094SOL    HW223745   1.513   1.065   9.829  1.2559 -0.9540 -0.7815
 4095SOL     OW23746   3.598   2.694   8.204 -0.0510 -0.3859 -1.0492
 4095SOL    HW123747   3.535   2.678   8.274  0.1032  1.2354 -0.5433
 4095SOL    HW223748   3.572   2.781   8.173 -0.4459  0.0523  0.5299
 4096SOL     OW23749   2.967   2.067  11.854  0.2709 -1.1855 -0.4644
 4096SOL    HW123750   2.897   2.090  11.915  1.3927  0.3900  0.2648
 4096SOL    HW223751   2.918   2.080  11.774  2.0118 -2.1578 -1.6917
 4097SOL     OW23752   2.216   2.359   5.176  0.1290  0.2333 -0.0592
 4097SOL    HW123753   2.152   2.387   5.242  1.7115 -0.1690  1.6586
 4097SOL    HW223754   2.209   2.265   5.190 -0.1187  0.5600  2.0815
 4098SOL     OW23755   1.478   1.848   5.300  0.2517  0.1972 -0.5855
 4098SOL    HW123756   1.514   1.798   5.227  1.7897  0.4678 -0.0186
 4098SOL    HW223757   1.499   1.795   5.376  0.4591  1.1076 -0.0134
 4099SOL     OW23758   2.136   4.497   4.985 -0.5767 -0.5996 -0.0582
 4099SOL    HW123759   2.189   4.564   5.029 -1.2839 -0.4705  0.5939
 4099SOL    HW223760   2.070   4.473   5.050 -0.1768 -0.5736  0.3529
 4100SOL     OW23761   0.987   2.560   9.074  0.5598  0.3868  0.2474
 4100SOL    HW123762   0.918   2.538   9.011 -0.0196  2.8037  0.0271
 4100SOL    HW223763   0.934   2.581   9.150  0.9350 -0.2171  0.6727
 4101SOL     OW23764   2.270   2.891  15.134 -0.4609  0.6472 -0.0075
 4101SOL    HW123765   2.198   2.832  15.156  1.7244 -2.2055 -0.4918
 4101SOL    HW223766   2.226   2.966  15.094  1.6010  1.9476  0.1440
 4102SOL     OW23767   2.232   2.583   0.847  0.2213 -0.3746 -0.3983
 4102SOL    HW123768   2.208   2.633   0.769 -0.3268  0.5941  0.3958
 4102SOL    HW223769   2.255   2.495   0.817  0.7195 -0.5507  0.5191
 4103SOL     OW23770   0.588   3.099   1.971 -0.8997 -0.2917  0.4580
 4103SOL    HW123771   0.596   3.181   1.922  2.2793 -1.0931 -0.3872
 4103SOL    HW223772   0.544   3.130   2.050  0.5195 -0.2826  1.2536
 4104SOL     OW23773   1.910   1.193   7.901  0.0378  0.2534 -0.4275
 4104SOL    HW123774   1.896   1.286   7.916 -1.5601 -0.1221  0.4041
 4104SOL    HW223775   1.973   1.198   7.830  0.6469 -0.2931  0.0649
 4105SOL     OW23776   2.608   2.894  12.806 -0.6081 -0.5737 -0.3619
 4105SOL    HW123777   2.614   2.860  12.717 -0.1604  2.0334 -1.3337
 4105SOL    HW223778   2.678   2.958  12.795 -1.8995  1.5427  3.3972
 4106SOL     OW23779   0.085   2.470   9.858  0.1605 -0.2194 -0.2995
 4106SOL    HW123780   0.146   2.431   9.921  1.9915  0.4995 -1.6177
 4106SOL    HW223781   0.013   2.503   9.913  2.6416 -0.0688  2.8478
 4107SOL     OW23782   0.215   0.773   8.547  0.0659  0.0442  0.2509
 4107SOL    HW123783   0.275   0.846   8.529  0.1596 -0.1244 -0.1260
 4107SOL    HW223784   0.152   0.805   8.483  0.9441  0.4943 -0.3993
 4108SOL     OW23785   0.655   3.996  17.533 -0.1956 -0.0605 -0.4750
 4108SOL    HW123786   0.618   3.909  17.545  0.9660 -0.8183 -2.2965
 4108SOL    HW223787   0.618   4.014  17.446  0.3338 -2.0546 -1.1236
 4109SOL     OW23788   1.708   0.883   6.592  0.8703 -0.1413  0.8108
 4109SOL    HW123789   1.629   0.832   6.573 -0.3774  2.8037 -2.0454
 4109SOL    HW223790   1.771   0.817   6.618  0.7008 -0.7310 -0.2462
 4110SOL     OW23791   4.316   2.708  10.550 -0.6618  0.3988 -0.1969
 4110SOL    HW123792   4.241   2.670  10.594 -0.8353  1.6765  0.6189
 4110SOL    HW223793   4.295   2.669  10.465  0.6367 -0.3568 -0.1673
 4111SOL     OW23794   4.333   2.137   2.211  0.4533 -0.2003 -0.0013
 4111SOL    HW123795   4.304   2.178   2.292  0.1366 -1.3467  0.4698
 4111SOL    HW223796   4.411   2.190   2.196  0.8810 -1.1961 -1.3549
 4112SOL     OW23797   1.574   2.628  15.228 -0.1397 -0.2792 -0.4304
 4112SOL    HW123798   1.596   2.715  15.262 -1.4165 -1.0294  2.2933
 4112SOL    HW223799   1.616   2.635  15.142 -0.2507 -1.3685 -0.5633
 4113SOL     OW23800   2.279   1.452   5.470 -0.2662 -0.1211 -0.4771
 4113SOL    HW123801   2.274   1.370   5.520 -2.3102  0.9831  1.1242
 4113SOL    HW223802   2.345   1.503   5.517 -0.5968  0.5123 -0.7046
 4114SOL     OW23803   4.611   0.632  10.674  0.2182  0.1924 -0.4346
 4114SOL    HW123804   4.523   0.610  10.643 -0.2940  0.6149  0.7522
 4114SOL    HW223805   4.607   0.727  10.688  2.7196  0.1886  0.3273
 4115SOL     OW23806   4.065   2.122   8.280  0.4281 -0.2117 -0.5516
 4115SOL    HW123807   4.020   2.161   8.355  0.1009 -0.5315 -0.5794
 4115SOL    HW223808   4.104   2.198   8.237  1.7629 -0.4073  0.3104
 4116SOL     OW23809   3.417   2.103   3.824  0.1396  0.0922  0.2236
 4116SOL    HW123810   3.340   2.058   3.789  0.8789 -2.4810  1.8828
 4116SOL    HW223811   3.436   2.049   3.901 -0.4628  0.9712  0.9755
 4117SOL     OW23812   1.662   3.197   1.644  0.0169  0.5096  0.0837
 4117SOL    HW123813   1.645   3.142   1.568  1.0069  0.0279  0.2074
 4117SOL    HW223814   1.701   3.138   1.708 -0.2347  0.7550  0.4707
 4118SOL     OW23815   3.668   1.970   9.302  0.1448  0.4465  0.2668
 4118SOL    HW123816   3.701   1.972   9.392  3.5227 -0.9331 -0.9660
 4118SOL    HW223817   3.719   2.038   9.259  2.3127 -1.5711 -0.3157
 4119SOL     OW23818   4.325   2.275   9.898  0.1582 -0.4609  0.0115
 4119SOL    HW123819   4.312   2.299   9.990  0.4513  0.7103 -0.2509
 4119SOL    HW223820   4.341   2.181   9.910  0.3170 -0.2905  1.1363
 4120SOL     OW23821   1.152   4.197   3.268  0.0031  1.2667  0.2503
 4120SOL    HW123822   1.204   4.267   3.228  2.2117 -0.6275 -0.1802
 4120SOL    HW223823   1.066   4.213   3.231 -0.0437  2.4173  0.8541
 4121SOL     OW23824   0.414   1.910  12.729 -0.4543 -0.0068  0.5692
 4121SOL    HW123825   0.330   1.918  12.685  1.2141 -0.7306 -2.7537
 4121SOL    HW223826   0.476   1.884  12.661 -0.0702 -0.7008  1.1724
 4122SOL     OW23827   1.065   3.828   5.211  0.6200  0.2127 -0.0673
 4122SOL    HW123828   1.100   3.789   5.131 -0.1046 -0.4404 -0.0601
 4122SOL    HW223829   1.087   3.758   5.272 -0.4208 -1.6104 -1.7780
 4123SOL     OW23830   3.579   1.516   1.138  0.2373  0.0622 -0.3633
 4123SOL    HW123831   3.559   1.464   1.216  0.2299  1.2871  0.4428
 4123SOL    HW223832   3.629   1.587   1.179 -0.6530  0.1341  0.6089
 4124SOL     OW23833   0.976   4.620   4.289  0.4276 -0.3354  0.8665
 4124SOL    HW123834   0.970   4.529   4.319 -0.8011 -0.0959  1.3429
 4124SOL    HW223835   1.069   4.639   4.280 -0.3106  1.7015 -2.4213
 4125SOL     OW23836   3.183   4.519   7.375  0.2287  0.4874  0.0732
 4125SOL    HW123837   3.117   4.472   7.425 -3.0183  4.5685 -0.3866
 4125SOL    HW223838   3.257   4.459   7.382 -0.0892  0.3147  1.7835
 4126SOL     OW23839   1.872   0.131   7.942 -0.1684  0.0415  0.2372
 4126SOL    HW123840   1.811   0.174   8.002 -1.0015 -1.7152  0.6573
 4126SOL    HW223841   1.878   0.196   7.872  2.6485 -2.4424 -1.8586
 4127SOL     OW23842   1.209   4.087   2.050 -0.0067 -0.3654 -0.3735
 4127SOL    HW123843   1.254   4.002   2.050  1.0227  0.2000  1.6429
 4127SOL    HW223844   1.276   4.155   2.055 -1.7827  1.3288  0.4375
 4128SOL     OW23845   0.419   1.521   6.126 -0.6476 -0.1429 -0.4738
 4128SOL    HW123846   0.400   1.569   6.046 -1.5983 -0.9241 -0.7201
 4128SOL    HW223847   0.387   1.580   6.194  2.5923  2.1681 -0.9569
 4129SOL     OW23848   0.006   2.138   8.078 -0.4308 -0.3513 -0.2811
 4129SOL    HW123849   0.076   2.169   8.135 -0.5302  0.3898 -0.5556
 4129SOL    HW223850   4.708   2.217   8.027  0.8237  0.2193  0.1240
 4130SOL     OW23851   3.740   4.599  13.019  0.5428 -0.0975  0.2425
 4130SOL    HW123852   3.791   4.518  13.023 -0.2364 -0.4426  2.6638
 4130SOL    HW223853   3.745   4.629  13.110  3.0193  1.6736 -0.4636
 4131SOL     OW23854   0.903   3.139   0.562 -0.3332  0.1413  0.0115
 4131SOL    HW123855   0.866   3.106   0.644  1.9077  2.0491  1.7914
 4131SOL    HW223856   0.995   3.122   0.580  0.1512  1.8380 -0.8203
 4132SOL     OW23857   3.193   0.882   4.200 -0.4546 -0.0133  0.2309
 4132SOL    HW123858   3.100   0.904   4.193 -0.8452 -1.0866  2.0001
 4132SOL    HW223859   3.211   0.832   4.120  0.3926 -0.7664  0.8939
 4133SOL     OW23860   2.359   2.745   5.839  0.0683  0.1304  0.4889
 4133SOL    HW123861   2.402   2.699   5.911  0.9889  0.4407  0.1437
 4133SOL    HW223862   2.334   2.681   5.772  0.2825  0.7111 -0.1498
 4134SOL     OW23863   1.693   1.046   9.591 -0.4925 -0.6443  0.6350
 4134SOL    HW123864   1.753   1.065   9.520  0.0423  1.8501  1.7487
 4134SOL    HW223865   1.631   0.985   9.551  0.0672  0.8042 -2.4505
 4135SOL     OW23866   4.424   1.299  15.513 -0.3004  0.0101 -0.2201
 4135SOL    HW123867   4.437   1.319  15.606 -1.2173 -0.7367  0.0709
 4135SOL    HW223868   4.337   1.334  15.495 -0.5200 -0.0890  0.6056
 4136SOL     OW23869   0.222   0.799   8.192  0.1028 -0.1528  0.3005
 4136SOL    HW123870   0.262   0.844   8.267 -3.4813  1.1415  1.4230
 4136SOL    HW223871   0.204   0.708   8.217 -2.3202  0.1202 -0.4590
 4137SOL     OW23872   1.208   3.612  11.559  0.4127  0.1734 -0.0091
 4137SOL    HW123873   1.117   3.624  11.585  0.3640  1.0464 -0.5871
 4137SOL    HW223874   1.234   3.668  11.632 -4.1125 -0.9422  2.4012
 4138SOL     OW23875   2.990   3.884  14.140 -0.1478 -0.4378  0.1380
 4138SOL    HW123876   2.940   3.853  14.215 -1.2388  1.5891  0.2457
 4138SOL    HW223877   2.993   3.799  14.097 -0.5774 -0.8190  0.8837
 4139SOL     OW23878   1.473   4.145   2.539 -0.1465 -0.1818  0.3329
 4139SOL    HW123879   1.406   4.121   2.475  1.4561 -1.9161 -0.6843
 4139SOL    HW223880   1.417   4.169   2.614 -0.2845 -0.6356  0.3749
 4140SOL     OW23881   0.909   2.534   3.529 -0.2397 -0.1874  0.3451
 4140SOL    HW123882   0.918   2.602   3.596 -0.1852 -0.3478  0.4987
 4140SOL    HW223883   0.843   2.568   3.469 -1.7778  0.8272  2.6200
 4141SOL     OW23884   2.865   1.867   3.817  0.1404 -0.3394 -0.5348
 4141SOL    HW123885   2.792   1.851   3.758  0.3939 -1.6742 -0.4986
 4141SOL    HW223886   2.840   1.816   3.894 -0.2582  0.8601  0.1335
 4142SOL     OW23887   3.371   3.809   9.339  0.1796 -0.2689  0.5669
 4142SOL    HW123888   3.320   3.850   9.408  0.9340  0.2280  0.8213
 4142SOL    HW223889   3.445   3.778   9.390  1.2821  0.7668 -0.4208
 4143SOL     OW23890   0.077   4.010   4.099  0.2032 -0.7282  0.0916
 4143SOL    HW123891   0.007   4.072   4.079 -2.2561 -3.4203  0.4179
 4143SOL    HW223892   0.142   4.032   4.032  0.6992 -0.4429  0.6555
 4144SOL     OW23893   4.175   4.251   6.446 -0.1558 -0.6507 -0.0480
 4144SOL    HW123894   4.244   4.316   6.439 -2.4651  1.9502  1.4020
 4144SOL    HW223895   4.228   4.171   6.445 -0.5424 -0.9045 -0.6220
 4145SOL     OW23896   1.451   1.576  12.563  0.9493  0.1524 -0.2833
 4145SOL    HW123897   1.480   1.646  12.622  1.8991  0.9549 -1.7099
 4145SOL    HW223898   1.526   1.556  12.508  0.5748 -1.1057 -0.3400
 4146SOL     OW23899   4.593   3.943   0.320  0.0898  0.1205 -0.3404
 4146SOL    HW123900   4.642   3.901   0.390 -0.8527  0.3546  0.4674
 4146SOL    HW223901   4.575   4.029   0.358  0.6193 -0.3546  0.9654
 4147SOL     OW23902   2.535   1.190   2.998  0.2854  0.1514 -0.4380
 4147SOL    HW123903   2.595   1.192   3.072  1.2176 -0.6273 -1.1806
 4147SOL    HW223904   2.568   1.115   2.949 -1.7111 -1.0427  0.0474
 4148SOL     OW23905   1.821   2.573   4.420  0.1893 -0.1172  0.4002
 4148SOL    HW123906   1.768   2.509   4.373  2.6561 -2.5780  0.9762
 4148SOL    HW223907   1.905   2.531   4.401  1.1870  2.2224 -0.4434
 4149SOL     OW23908   0.222   2.909   6.120  0.4114  0.8562  0.0288
 4149SOL    HW123909   0.273   2.859   6.184 -0.6461  0.4800  0.5875
 4149SOL    HW223910   0.153   2.848   6.095  1.3056  0.2771 -1.0032
 4150SOL     OW23911   1.422   1.546   6.192 -0.0487 -0.4375 -0.3934
 4150SOL    HW123912   1.419   1.455   6.163  0.9101 -0.5766 -0.0892
 4150SOL    HW223913   1.405   1.582   6.106  1.0623  0.4046 -0.2672
 4151SOL     OW23914   2.418   1.254   9.831 -0.4656 -0.8231 -0.3512
 4151SOL    HW123915   2.468   1.271   9.751 -0.0334 -2.3581 -0.4254
 4151SOL    HW223916   2.355   1.203   9.780 -1.3617  1.8793 -1.9322
 4152SOL     OW23917   2.676   0.417   2.292 -0.0357 -0.4415  0.1106
 4152SOL    HW123918   2.758   0.388   2.330  1.1923  0.9946 -1.4482
 4152SOL    HW223919   2.618   0.397   2.365  0.6937  3.1689  1.6905
 4153SOL     OW23920   0.983   3.560   2.759  0.8559 -0.1654  0.3908
 4153SOL    HW123921   0.944   3.516   2.684 -1.0411  2.7992 -0.3595
 4153SOL    HW223922   1.020   3.491   2.814 -2.3672 -1.2768  1.1842
 4154SOL     OW23923   1.026   3.745   3.808  0.0281  0.3547  0.3775
 4154SOL    HW123924   0.945   3.694   3.807  0.9752 -1.1276 -0.4438
 4154SOL    HW223925   1.034   3.762   3.715 -2.2336  1.4929  0.3959
 4155SOL     OW23926   1.199   4.477   4.019  0.1322 -0.1126  0.5498
 4155SOL    HW123927   1.229   4.419   3.948 -0.7377  2.3432 -1.8052
 4155SOL    HW223928   1.248   4.557   3.999 -2.0269  2.0565  3.9370
 4156SOL     OW23929   0.327   2.171   3.352 -0.1757 -0.5146 -0.4756
 4156SOL    HW123930   0.369   2.098   3.397  1.0095 -0.7760 -1.9823
 4156SOL    HW223931   0.403   2.226   3.331  1.4122 -2.3416  0.5389
 4157SOL     OW23932   4.622   1.127  11.845 -0.4885 -0.0200  0.4306
 4157SOL    HW123933   4.702   1.109  11.795  0.1544  0.7767  1.1698
 4157SOL    HW223934   4.666   1.185  11.907 -2.4530  2.0989 -0.1514
 4158SOL     OW23935   2.239   1.696  15.686 -0.6766 -0.0868 -0.0900
 4158SOL    HW123936   2.183   1.763  15.725  0.3971  1.0292 -0.4522
 4158SOL    HW223937   2.175   1.634  15.651 -1.3143  0.7727 -0.4434
 4159SOL     OW23938   2.954   3.525   1.736  0.1187  0.3054  0.3559
 4159SOL    HW123939   2.947   3.429   1.737 -1.1721  0.3808 -1.0291
 4159SOL    HW223940   3.013   3.532   1.811  1.2328 -1.4444 -0.3470
 4160SOL     OW23941   3.005   1.834   1.944  0.2368  0.2230 -0.1209
 4160SOL    HW123942   2.972   1.825   2.033  0.1847 -1.1269 -0.2805
 4160SOL    HW223943   3.089   1.789   1.940  0.6310  0.8848  0.6048
 4161SOL     OW23944   3.960   3.301   4.142  0.2748 -1.2767 -0.8163
 4161SOL    HW123945   3.932   3.219   4.102  1.2821 -2.2821  0.5392
 4161SOL    HW223946   4.052   3.286   4.120  0.6734 -2.1587  1.4164
 4162SOL     OW23947   4.626   3.261   4.833  0.3849  0.0928  0.1888
 4162SOL    HW123948   4.559   3.199   4.863 -0.3007 -0.2187 -2.0101
 4162SOL    HW223949   4.682   3.259   4.911  0.7444 -1.0310 -0.0923
 4163SOL     OW23950   2.930   1.323   9.155 -0.7460  0.1490 -0.4239
 4163SOL    HW123951   2.933   1.419   9.156  0.7393  0.0941  0.6300
 4163SOL    HW223952   2.930   1.293   9.064 -1.5525  2.4392 -1.1748
 4164SOL     OW23953   2.969   2.885  15.083 -0.4985  0.0959 -0.2273
 4164SOL    HW123954   3.027   2.827  15.034 -1.0544 -0.1111 -0.6559
 4164SOL    HW223955   2.973   2.839  15.167 -2.9199 -0.9601 -0.6781
 4165SOL     OW23956   4.209   0.910   6.656 -0.2445 -0.3457 -0.3165
 4165SOL    HW123957   4.144   0.874   6.595 -2.5263  1.3625  1.1261
 4165SOL    HW223958   4.197   0.864   6.739 -0.1291  0.2465  0.0282
 4166SOL     OW23959   3.000   0.053   2.993 -0.1566 -0.2897 -0.4042
 4166SOL    HW123960   2.951   0.127   3.027  2.0143  0.6644  0.6590
 4166SOL    HW223961   2.928   0.009   2.948 -0.9344 -0.5499  1.1072
 4167SOL     OW23962   3.383   1.058   4.223 -0.2421 -0.2819  0.0897
 4167SOL    HW123963   3.311   0.999   4.202 -0.9012  1.1411 -1.6226
 4167SOL    HW223964   3.387   1.094   4.135  1.1999  0.5330  0.4966
 4168SOL     OW23965   2.362   2.497  12.553  0.1185 -0.5228 -0.2740
 4168SOL    HW123966   2.425   2.437  12.515 -1.3491 -1.3891 -1.3529
 4168SOL    HW223967   2.375   2.572  12.496  0.1451 -2.1411 -2.3668
 4169SOL     OW23968   3.992   2.971  11.350  0.3948 -0.4212  0.1883
 4169SOL    HW123969   3.929   3.019  11.296 -1.8486 -1.6410  1.7234
 4169SOL    HW223970   4.057   2.949  11.283  1.2041  0.2232  0.7657
 4170SOL     OW23971   3.663   2.971   5.233 -0.4400  0.2084 -0.2213
 4170SOL    HW123972   3.666   3.057   5.191  1.9539 -0.3049 -1.1020
 4170SOL    HW223973   3.717   2.988   5.310 -1.0001  0.2256  0.1597
 4171SOL     OW23974   2.951   3.509  10.285 -0.0089 -0.7052  0.1371
 4171SOL    HW123975   3.015   3.576  10.309 -1.0998  0.2281  0.4550
 4171SOL    HW223976   2.879   3.546  10.336 -1.4710 -1.2433 -1.5331
 4172SOL     OW23977   4.064   1.679   8.442 -0.3566 -0.0043 -0.3158
 4172SOL    HW123978   4.032   1.720   8.362 -0.9074  3.3276  1.6336
 4172SOL    HW223979   4.070   1.589   8.409  1.5870 -0.6368  1.7464
 4173SOL     OW23980   0.642   3.189   5.894  0.1050  0.0584 -0.7197
 4173SOL    HW123981   0.598   3.234   5.966 -1.5987 -1.6729 -0.6887
 4173SOL    HW223982   0.579   3.120   5.876 -0.9920  0.2667  2.4132
 4174SOL     OW23983   1.119   1.841  13.146 -0.0130 -0.0348 -0.4197
 4174SOL    HW123984   1.183   1.826  13.077 -1.5989 -0.5673 -1.7973
 4174SOL    HW223985   1.130   1.758  13.192  1.9968  0.4718  0.0111
 4175SOL     OW23986   1.544   2.308   1.654 -0.0382  0.1250  0.1519
 4175SOL    HW123987   1.453   2.313   1.627 -0.0316 -0.7150 -0.0288
 4175SOL    HW223988   1.563   2.395   1.689  0.1144  0.5075 -0.8763
 4176SOL     OW23989   1.842   0.649   5.191 -0.2265 -0.1506 -0.2027
 4176SOL    HW123990   1.923   0.615   5.154  1.2430 -0.2031  3.0745
 4176SOL    HW223991   1.857   0.739   5.161 -0.1372 -0.1168 -0.0569
 4177SOL     OW23992   1.557   2.927   2.597 -0.2267 -0.1911  0.2589
 4177SOL    HW123993   1.504   2.981   2.539 -0.5035  0.3155  0.9918
 4177SOL    HW223994   1.635   2.982   2.593 -1.1803  1.3626  2.9355
 4178SOL     OW23995   0.683   0.361   1.463  0.6895  0.4798  0.8004
 4178SOL    HW123996   0.693   0.354   1.558 -0.5278  0.8364  0.9486
 4178SOL    HW223997   0.632   0.281   1.449  0.0159  0.8877  0.9378
 4179SOL     OW23998   1.974   2.385  17.463  0.2773  0.2835 -0.5286
 4179SOL    HW123999   1.924   2.419  17.388 -2.4980  0.1602  1.2510
 4179SOL    HW224000   1.957   2.457  17.524 -0.7079  0.9415 -1.5799
 4180SOL     OW24001   0.991   1.780   7.789  0.2540 -0.3483  0.1714
 4180SOL    HW124002   1.033   1.827   7.717  0.9309 -0.1550  0.6933
 4180SOL    HW224003   1.047   1.803   7.863  1.0816  0.3840 -0.6782
 4181SOL     OW24004   2.115   0.909   5.788 -0.3607 -0.1787 -0.3875
 4181SOL    HW124005   2.176   0.869   5.725 -3.3595 -1.7833 -2.2587
 4181SOL    HW224006   2.144   0.858   5.863 -0.9897  2.0786  1.3964
 4182SOL     OW24007   4.030   0.517  16.300  0.0237 -0.0476  0.0153
 4182SOL    HW124008   4.002   0.449  16.239  2.8605 -1.2891  0.1325
 4182SOL    HW224009   3.980   0.585  16.254  1.9533  0.2789 -1.5851
 4183SOL     OW24010   1.222   3.108   5.749 -0.2680  0.8152 -0.0068
 4183SOL    HW124011   1.198   3.020   5.720 -0.4507  0.8668 -0.0065
 4183SOL    HW224012   1.156   3.156   5.700  0.8756  1.1126 -1.2827
 4184SOL     OW24013   2.791   3.226   0.863 -0.2461 -0.0082 -0.1550
 4184SOL    HW124014   2.734   3.164   0.908  0.6374 -0.0785  0.8655
 4184SOL    HW224015   2.759   3.312   0.891  0.0486  0.0209  0.0958
 4185SOL     OW24016   2.171   3.579   8.085  0.0003  0.2108  0.5783
 4185SOL    HW124017   2.163   3.484   8.079  1.4715  0.2228 -1.4185
 4185SOL    HW224018   2.260   3.585   8.051 -0.3172 -2.1772 -0.6621
 4186SOL     OW24019   0.583   3.589  10.871 -0.1180  0.2664 -0.1636
 4186SOL    HW124020   0.634   3.565  10.794  0.6045  1.5220 -0.0893
 4186SOL    HW224021   0.640   3.552  10.938 -1.4477  0.0964  0.8918
 4187SOL     OW24022   2.283   3.001   3.739 -0.2280 -0.4482 -0.3278
 4187SOL    HW124023   2.279   2.962   3.827  3.3316 -0.0048  0.0623
 4187SOL    HW224024   2.192   3.014   3.715 -0.4052 -0.5546  0.2700
 4188SOL     OW24025   0.429   0.035   8.631  0.3849  0.3696 -0.2370
 4188SOL    HW124026   0.483   4.689   8.674  0.7291  0.5348 -0.4067
 4188SOL    HW224027   0.425   0.098   8.702 -1.9289  1.2884 -1.2027
 4189SOL     OW24028   4.014   0.394  16.001  0.6701 -0.2285 -0.3363
 4189SOL    HW124029   4.005   0.323  16.065  2.5849 -0.2659 -0.1165
 4189SOL    HW224030   3.931   0.381  15.955 -0.8567  0.4839  2.2213
 4190SOL     OW24031   4.567   3.838   5.074  0.2913 -0.5886  0.0211
 4190SOL    HW124032   4.503   3.909   5.071 -0.4346 -1.2768 -0.6676
 4190SOL    HW224033   4.566   3.815   4.981 -3.7324  1.2549 -0.4110
 4191SOL     OW24034   2.132   0.942   2.916 -0.6832 -0.0890 -0.0404
 4191SOL    HW124035   2.118   0.990   2.997 -0.9585  0.3991 -0.3803
 4191SOL    HW224036   2.227   0.927   2.910 -0.2870  3.2312 -1.9070
 4192SOL     OW24037   0.808   2.011   5.196  0.2011 -0.2895  0.1119
 4192SOL    HW124038   0.864   1.947   5.240  0.3030 -0.2123  0.0944
 4192SOL    HW224039   0.724   1.968   5.177 -0.0296  0.6876 -1.0826
 4193SOL     OW24040   1.465   0.216  13.373 -0.0541 -0.3115 -0.4027
 4193SOL    HW124041   1.445   0.183  13.461 -0.4062 -1.9977 -1.1145
 4193SOL    HW224042   1.411   0.294  13.357  1.1832  1.1568  2.5460
 4194SOL     OW24043   2.425   4.371   1.197 -0.0827 -0.5228 -0.4419
 4194SOL    HW124044   2.335   4.403   1.203 -0.0541 -0.3019 -1.1559
 4194SOL    HW224045   2.478   4.450   1.209 -0.5152 -0.1920 -0.6974
 4195SOL     OW24046   0.225   3.475   5.100 -0.2233 -0.7736 -0.1934
 4195SOL    HW124047   0.165   3.545   5.126  0.3482 -0.1910 -0.4297
 4195SOL    HW224048   0.255   3.439   5.184  0.6368  1.0314  0.2896
 4196SOL     OW24049   3.453   4.538   7.121  0.3027 -0.6366 -0.1588
 4196SOL    HW124050   3.487   4.620   7.156  0.3775 -0.9112  0.4099
 4196SOL    HW224051   3.374   4.561   7.072  0.2687 -1.8195 -0.6544
 4197SOL     OW24052   3.789   3.485   0.875  0.3644 -0.1648  0.6245
 4197SOL    HW124053   3.814   3.408   0.823  1.6905  0.7049 -0.0314
 4197SOL    HW224054   3.833   3.471   0.958  0.7675 -1.6055  0.1720
 4198SOL     OW24055   3.719   3.233   5.205 -0.2426  0.3617  0.2595
 4198SOL    HW124056   3.800   3.204   5.249 -1.0900 -1.9487  0.3138
 4198SOL    HW224057   3.760   3.286   5.137 -0.2798 -0.0016 -0.0444
 4199SOL     OW24058   1.902   3.474   8.406 -0.8326 -0.3637 -0.7983
 4199SOL    HW124059   1.865   3.541   8.463  0.4405 -1.5941  1.5089
 4199SOL    HW224060   1.988   3.514   8.398 -1.0087 -0.4992 -3.2479
 4200SOL     OW24061   3.843   4.168   4.714 -0.2416  0.2422  0.7678
 4200SOL    HW124062   3.804   4.131   4.634 -0.0176  0.8518  0.3786
 4200SOL    HW224063   3.929   4.125   4.706 -1.2454 -1.9951  2.0330
 4201SOL     OW24064   1.047   3.426   3.282  0.5273 -0.1824 -0.1878
 4201SOL    HW124065   0.961   3.466   3.294  0.8015 -0.2469  1.8640
 4201SOL    HW224066   1.034   3.367   3.207 -0.5965 -1.5953  1.1270
 4202SOL     OW24067   4.588   1.911   8.147 -0.1494 -0.3594  0.0801
 4202SOL    HW124068   4.548   1.934   8.231  1.6020  2.6694  0.1067
 4202SOL    HW224069   4.645   1.985   8.125  0.7002 -0.3301  2.3315
 4203SOL     OW24070   2.376   2.463  11.001 -0.1034  0.1635 -0.4147
 4203SOL    HW124071   2.289   2.487  10.970  0.1469  0.7556 -0.6485
 4203SOL    HW224072   2.354   2.429  11.088 -3.1388  1.1076 -0.8394
 4204SOL     OW24073   4.421   3.306   6.275 -0.2931 -0.2593 -0.3064
 4204SOL    HW124074   4.430   3.386   6.222  1.1717 -0.1665  0.0757
 4204SOL    HW224075   4.344   3.330   6.326  2.0219  1.3774  2.3855
 4205SOL     OW24076   0.094   2.424   8.550 -0.3129  0.1669 -0.2502
 4205SOL    HW124077   0.146   2.345   8.550 -1.2042 -0.4311  0.4041
 4205SOL    HW224078   0.058   2.418   8.639  1.7048  0.4144  0.5894
 4206SOL     OW24079   3.172   0.872  13.427 -0.8438 -0.1206  0.4064
 4206SOL    HW124080   3.237   0.913  13.485 -0.1455 -2.2159  1.1430
 4206SOL    HW224081   3.209   0.900  13.344 -1.9361  0.4330  0.1072
 4207SOL     OW24082   0.957   0.705   5.041  0.5223  0.2285  1.1557
 4207SOL    HW124083   0.990   0.672   5.124  2.3299 -0.9079 -0.0175
 4207SOL    HW224084   0.895   0.766   5.081 -0.5475 -0.2821  0.2788
 4208SOL     OW24085   2.318   0.040   0.798  0.0081  0.4023 -0.3939
 4208SOL    HW124086   2.329   4.667   0.807 -1.1066  0.2906 -0.2094
 4208SOL    HW224087   2.232   0.053   0.757 -0.5692 -2.8087 -0.2484
 4209SOL     OW24088   1.066   3.356   4.558 -0.0097  0.2586 -0.2769
 4209SOL    HW124089   1.068   3.262   4.571  1.0686  0.3333  0.0866
 4209SOL    HW224090   1.003   3.371   4.488 -0.6438  1.6927  0.6059
 4210SOL     OW24091   3.018   0.445   3.763  0.1488  0.4970 -0.0683
 4210SOL    HW124092   2.948   0.386   3.789  0.2170 -0.9010 -3.1301
 4210SOL    HW224093   3.089   0.389   3.794  0.7900  1.2809 -0.1158
 4211SOL     OW24094   4.324   2.222  11.898 -0.2063  0.1556  0.1966
 4211SOL    HW124095   4.328   2.246  11.991 -1.5424 -1.9978  0.8235
 4211SOL    HW224096   4.375   2.141  11.908  1.9571  1.6367  1.0658
 4212SOL     OW24097   3.594   1.464   4.101  0.1380  0.1247 -0.0500
 4212SOL    HW124098   3.668   1.410   4.072 -1.2781 -2.5157  1.2840
 4212SOL    HW224099   3.638   1.517   4.167 -0.6303  0.1968  0.3959
 4213SOL     OW24100   0.283   3.003  17.076  0.0853  0.1516 -0.0939
 4213SOL    HW124101   0.197   2.979  17.042  0.3230 -1.1337  0.2111
 4213SOL    HW224102   0.291   3.095  17.052  2.1638 -0.5146 -1.9540
 4214SOL     OW24103   2.332   2.119   0.160  0.0799  0.5480 -0.0581
 4214SOL    HW124104   2.258   2.067   0.127 -0.1052  0.7867 -0.0209
 4214SOL    HW224105   2.383   2.135   0.080  0.4982  2.8131  0.6759
 4215SOL     OW24106   1.875   3.983  11.995  0.0458  0.1931  0.0841
 4215SOL    HW124107   1.787   3.957  11.970 -0.4342  2.7139 -0.8708
 4215SOL    HW224108   1.910   3.902  12.033  0.2905 -0.0008 -0.5618
 4216SOL     OW24109   2.626   2.290   3.412 -0.1117 -0.1958  0.1475
 4216SOL    HW124110   2.567   2.352   3.454  0.2873 -0.0385  0.4807
 4216SOL    HW224111   2.576   2.269   3.334 -2.3751  1.7925  1.0671
 4217SOL     OW24112   2.152   0.297   5.574 -0.8495  0.0294 -0.0362
 4217SOL    HW124113   2.058   0.285   5.563 -0.8176  0.4888 -0.8165
 4217SOL    HW224114   2.155   0.376   5.627 -1.2401  0.7107 -1.0389
 4218SOL     OW24115   1.933   2.750   8.225 -0.0203 -0.4189 -0.6069
 4218SOL    HW124116   1.927   2.845   8.231  1.0972 -0.3739 -0.1766
 4218SOL    HW224117   2.017   2.731   8.266 -1.1144 -0.9180  1.4205
 4219SOL     OW24118   1.016   1.442   9.617  0.0188  0.3642  0.1370
 4219SOL    HW124119   1.005   1.534   9.643  1.2581 -0.2553  2.8484
 4219SOL    HW224120   1.105   1.428   9.650 -0.1287  0.0578  0.4007
 4220SOL     OW24121   0.328   2.019  12.356  0.0183  0.2098  0.3204
 4220SOL    HW124122   0.288   1.978  12.433 -0.6377 -0.2052 -0.2409
 4220SOL    HW224123   0.280   1.983  12.281  2.4416 -3.3995  0.4946
 4221SOL     OW24124   2.357   3.641   4.499  0.1563 -0.3153  0.3704
 4221SOL    HW124125   2.350   3.649   4.404  4.6306 -1.1489 -0.0531
 4221SOL    HW224126   2.266   3.654   4.526  0.6980  0.3656  1.8603
 4222SOL     OW24127   2.968   3.832   7.101  0.3776 -0.4173 -0.4361
 4222SOL    HW124128   3.026   3.824   7.177  0.3671 -0.5678 -0.4436
 4222SOL    HW224129   3.022   3.868   7.032 -0.1576  1.1775 -0.0283
 4223SOL     OW24130   3.859   3.185  11.211 -0.1532  0.0748 -0.0380
 4223SOL    HW124131   3.842   3.224  11.125 -3.0239 -0.3931  0.3053
 4223SOL    HW224132   3.881   3.257  11.271  0.4467  0.6861 -0.9988
 4224SOL     OW24133   2.874   4.171   3.557  0.5617  0.3366 -0.0671
 4224SOL    HW124134   2.936   4.135   3.492 -0.0234 -0.8066  0.0079
 4224SOL    HW224135   2.797   4.118   3.539  0.4971  0.5287 -0.3613
 4225SOL     OW24136   0.243   0.457  13.612  0.5140 -0.1693  0.1432
 4225SOL    HW124137   0.310   0.401  13.651  1.2101 -0.4709 -1.5075
 4225SOL    HW224138   0.190   0.483  13.688  1.4384  0.4496  0.5847
 4226SOL     OW24139   1.571   2.158   8.557 -0.2021 -0.3852  0.5380
 4226SOL    HW124140   1.475   2.154   8.553 -0.2613  3.5362 -1.8315
 4226SOL    HW224141   1.582   2.077   8.607  2.3038 -2.4079 -3.2518
 4227SOL     OW24142   0.089   3.711   5.124  0.0995  0.1327 -0.7405
 4227SOL    HW124143   0.147   3.787   5.119 -0.3896  0.7600  2.7517
 4227SOL    HW224144   0.006   3.759   5.113 -0.9759 -1.5441 -0.0150
 4228SOL     OW24145   3.302   0.657   4.372  0.3223 -0.3865 -0.1518
 4228SOL    HW124146   3.249   0.714   4.428  0.1197 -1.3442  0.6275
 4228SOL    HW224147   3.287   0.682   4.281  0.4443  2.4009  0.5997
 4229SOL     OW24148   1.894   1.430   9.733  0.5537  1.1705  0.0418
 4229SOL    HW124149   1.971   1.479   9.704  0.3511  1.0668 -0.6728
 4229SOL    HW224150   1.902   1.355   9.673  0.1008 -0.0313  1.4939
 4230SOL     OW24151   0.390   3.725  17.267 -0.3778  0.0819  0.4048
 4230SOL    HW124152   0.350   3.646  17.304  1.1674  0.5138  3.0011
 4230SOL    HW224153   0.315   3.766  17.224  0.7093  0.4943 -1.0637
 4231SOL     OW24154   1.560   0.329  13.654  0.0093 -0.3582  0.9548
 4231SOL    HW124155   1.470   0.315  13.623 -0.6693 -1.6266  3.4948
 4231SOL    HW224156   1.540   0.359  13.743 -0.4751  1.0215  0.3866
 4232SOL     OW24157   0.605   2.974  14.334 -0.3011 -0.4022 -0.1997
 4232SOL    HW124158   0.583   3.033  14.262  0.8563 -0.9881 -1.0269
 4232SOL    HW224159   0.615   3.051  14.391  2.2049 -0.1560 -0.9931
 4233SOL     OW24160   1.159   1.517   3.456  0.4236  0.3321  0.0836
 4233SOL    HW124161   1.133   1.597   3.410 -0.2573 -0.3294 -0.6743
 4233SOL    HW224162   1.104   1.516   3.534 -0.6300  3.7671 -0.5866
 4234SOL     OW24163   1.746   0.074   6.240 -0.0805  0.1751 -0.4485
 4234SOL    HW124164   1.779   4.714   6.279 -0.5524 -0.0310 -0.4800
 4234SOL    HW224165   1.669   0.083   6.297  1.1487  0.8771  1.1093
 4235SOL     OW24166   3.761   0.491   7.418  0.1841 -0.0817 -0.2034
 4235SOL    HW124167   3.788   0.502   7.509 -0.4544  0.5733 -0.0896
 4235SOL    HW224168   3.710   0.572   7.413 -0.5669 -0.5536 -0.2166
 4236SOL     OW24169   3.252   0.958  11.162 -0.3934 -0.2496  0.0870
 4236SOL    HW124170   3.182   0.893  11.152  0.2498 -0.7267 -1.2771
 4236SOL    HW224171   3.328   0.904  11.142 -0.3196 -0.1968  0.2222
 4237SOL     OW24172   4.545   3.812  16.303  0.0962  0.2308 -0.1124
 4237SOL    HW124173   4.634   3.833  16.331  0.7463 -1.8607 -0.6713
 4237SOL    HW224174   4.501   3.867  16.368  1.1201 -0.3213  1.0278
 4238SOL     OW24175   3.584   1.907  12.605 -0.5818  0.2939 -0.0099
 4238SOL    HW124176   3.608   1.999  12.592  1.5924 -0.0770  1.3068
 4238SOL    HW224177   3.508   1.924  12.660 -0.5998  0.8719 -0.2148
 4239SOL     OW24178   3.270   3.133   3.494  0.1213  0.1816 -0.4542
 4239SOL    HW124179   3.333   3.093   3.434 -0.9034 -1.4735 -0.4219
 4239SOL    HW224180   3.194   3.076   3.491 -1.1279  1.8968 -2.2572
 4240SOL     OW24181   1.358   3.191   8.261  0.0109 -0.0851  0.0832
 4240SOL    HW124182   1.341   3.100   8.236 -0.4797 -0.0905  0.4317
 4240SOL    HW224183   1.295   3.202   8.332 -0.7986  0.8268 -0.7725
 4241SOL     OW24184   0.927   2.445   1.196 -0.0156 -0.0357  0.6103
 4241SOL    HW124185   0.885   2.408   1.118  0.8198 -1.9488  1.0735
 4241SOL    HW224186   0.992   2.378   1.217  0.5416  0.2915 -0.0532
 4242SOL     OW24187   0.820   4.711  12.566 -0.9894 -0.2595  0.1370
 4242SOL    HW124188   0.849   4.624  12.537  1.3519  0.2457  0.9619
 4242SOL    HW224189   0.903   0.033  12.586 -2.1844  0.5816  3.1777
 4243SOL     OW24190   0.099   1.017   2.597 -0.4294 -0.1359  0.2968
 4243SOL    HW124191   0.149   0.940   2.570 -1.1474 -1.3337  2.4054
 4243SOL    HW224192   0.069   0.993   2.685  0.6552  0.2763  0.7792
 4244SOL     OW24193   0.146   0.248   8.092 -0.2622  0.0316 -0.3896
 4244SOL    HW124194   0.232   0.238   8.133 -0.1146  0.9703 -0.4764
 4244SOL    HW224195   0.163   0.192   8.017 -0.0794  3.0128 -2.5612
 4245SOL     OW24196   2.707   2.285   4.540  0.0621  0.1536 -0.2867
 4245SOL    HW124197   2.743   2.326   4.461 -0.7964  0.1960 -0.6545
 4245SOL    HW224198   2.640   2.228   4.505 -0.2728  2.3236 -3.2153
 4246SOL     OW24199   3.763   0.644   7.667  0.4812  0.3914 -0.3198
 4246SOL    HW124200   3.751   0.706   7.740  1.4383 -1.2447  1.2508
 4246SOL    HW224201   3.676   0.660   7.631  0.3725  1.4297  0.3923
 4247SOL     OW24202   4.655   3.546   5.758 -0.2199  0.0404 -0.2400
 4247SOL    HW124203   4.699   3.596   5.826  1.0709 -0.8244 -0.4377
 4247SOL    HW224204   4.684   3.586   5.676  2.4575 -1.4953 -0.0286
 4248SOL     OW24205   2.798   2.425   6.626  0.0388 -0.5142 -0.0310
 4248SOL    HW124206   2.779   2.359   6.693  0.5245  0.0366  0.6473
 4248SOL    HW224207   2.717   2.475   6.621  1.8511  2.4695  0.4252
 4249SOL     OW24208   2.347   4.251   8.926  0.7320 -0.0016  0.6541
 4249SOL    HW124209   2.297   4.171   8.911  0.6753  0.2871 -0.7394
 4249SOL    HW224210   2.387   4.240   9.012  0.9326  0.8047  0.6640
 4250SOL     OW24211   1.265   0.333  14.688  0.2496 -0.0828  0.1402
 4250SOL    HW124212   1.222   0.251  14.663  1.1177 -1.4069  2.9819
 4250SOL    HW224213   1.342   0.339  14.630 -0.2687 -2.7305 -0.8246
 4251SOL     OW24214   2.243   3.788   7.193 -0.4343 -0.3469  0.0664
 4251SOL    HW124215   2.160   3.834   7.180 -0.5407 -1.0033 -1.5762
 4251SOL    HW224216   2.226   3.733   7.269 -2.6135 -0.4546 -0.4980
 4252SOL     OW24217   0.987   2.209   2.703 -0.5147  0.1308  0.6149
 4252SOL    HW124218   1.032   2.232   2.622  0.4210  0.7620  1.3169
 4252SOL    HW224219   0.910   2.266   2.706  1.1275  2.2454  2.6497
 4253SOL     OW24220   1.316   2.376   7.476  0.1040 -0.9999  0.3419
 4253SOL    HW124221   1.316   2.429   7.556  0.7076  2.9163 -2.2573
 4253SOL    HW224222   1.240   2.412   7.430  0.1354 -1.6968 -0.2379
 4254SOL     OW24223   1.340   4.671   4.332  0.3686 -0.6251 -0.6422
 4254SOL    HW124224   1.310   4.588   4.296  0.7249 -1.1230  0.2017
 4254SOL    HW224225   1.296   0.009   4.271  0.7075  1.7684  1.4236
 4255SOL     OW24226   2.172   1.874   7.031 -0.2970 -0.4162  0.1224
 4255SOL    HW124227   2.263   1.886   7.058 -0.8838 -0.3965  2.0519
 4255SOL    HW224228   2.183   1.882   6.936  3.5693 -0.1928  0.5830
 4256SOL     OW24229   2.498   3.625   9.632 -0.0605 -0.4477 -0.3102
 4256SOL    HW124230   2.555   3.604   9.706  0.1997 -1.5360 -0.8022
 4256SOL    HW224231   2.453   3.698   9.674  1.5900  1.3898 -1.7424
 4257SOL     OW24232   4.685   2.618  14.611 -0.1174 -0.1585 -0.5360
 4257SOL    HW124233   4.696   2.534  14.657  0.0970  0.0933 -0.1220
 4257SOL    HW224234   4.643   2.584  14.533 -3.7891  0.8188  1.0435
 4258SOL     OW24235   4.381   2.127   7.853  0.5025 -0.1777  0.4290
 4258SOL    HW124236   4.447   2.099   7.789  1.3359  1.0212  0.7762
 4258SOL    HW224237   4.347   2.199   7.799  2.2281  1.0245  0.9552
 4259SOL     OW24238   0.893   1.952   4.918  0.0553  0.9790 -0.2353
 4259SOL    HW124239   0.870   2.040   4.886  0.0356  0.5694 -1.3354
 4259SOL    HW224240   0.884   1.971   5.012 -0.2756  2.7516 -0.6154
 4260SOL     OW24241   3.247   0.267   3.659 -0.5324 -0.3440  0.4868
 4260SOL    HW124242   3.311   0.332   3.629  0.2951 -0.7398  1.3843
 4260SOL    HW224243   3.202   0.240   3.579  1.3644 -0.8401 -0.4208
 4261SOL     OW24244   3.902   4.271   5.858  0.0961 -0.2811  0.1113
 4261SOL    HW124245   3.960   4.339   5.825  0.4943 -0.1611  1.0322
 4261SOL    HW224246   3.880   4.313   5.941 -1.2339  1.9444 -1.3783
 4262SOL     OW24247   3.038   1.625  13.729  0.4258  0.1621 -0.5431
 4262SOL    HW124248   3.036   1.552  13.791  3.2768 -1.7891 -2.7911
 4262SOL    HW224249   3.086   1.696  13.772 -1.8104  1.2913  0.1033
 4263SOL     OW24250   1.609   1.126   7.611 -0.4809  0.3183  0.0327
 4263SOL    HW124251   1.568   1.168   7.536 -0.4229  1.3786  0.6003
 4263SOL    HW224252   1.535   1.093   7.663 -0.2432 -2.0520 -1.1276
 4264SOL     OW24253   3.999   0.813   6.499  0.7654  0.6421  0.2330
 4264SOL    HW124254   3.938   0.886   6.498  0.4862  0.4055 -0.8143
 4264SOL    HW224255   4.042   0.812   6.413  2.8122 -0.2617  1.2639
 4265SOL     OW24256   4.228   2.821   0.044 -0.4315  0.0831  0.3429
 4265SOL    HW124257   4.151   2.828   0.100 -0.6806 -1.7582  0.2175
 4265SOL    HW224258   4.203   2.752  17.671 -0.1843  0.5005 -0.2239
 4266SOL     OW24259   0.351   3.658  10.694  0.6645  0.2149 -0.1408
 4266SOL    HW124260   0.400   3.616  10.764  0.1471 -0.9678 -0.4945
 4266SOL    HW224261   0.323   3.736  10.743  0.1549  0.8244 -1.3881
 4267SOL     OW24262   1.473   1.200  12.190  0.1465 -0.3349  0.1903
 4267SOL    HW124263   1.465   1.261  12.117  0.8122  1.3867  1.5540
 4267SOL    HW224264   1.494   1.116  12.149  0.7154  0.1912 -0.6084
 4268SOL     OW24265   4.225   3.272   6.478 -0.0514  0.2083 -0.2437
 4268SOL    HW124266   4.187   3.353   6.510 -0.4197  0.2349 -0.7505
 4268SOL    HW224267   4.149   3.213   6.479  1.3644 -1.6127  0.5010
 4269SOL     OW24268   3.072   3.511   6.819 -0.5808 -0.3370 -0.9566
 4269SOL    HW124269   2.993   3.563   6.835 -0.4187 -0.1936 -0.6170
 4269SOL    HW224270   3.030   3.433   6.855  0.3608 -0.3313  0.1515
 4270SOL     OW24271   1.051   4.223   5.881  0.1640 -0.3303 -0.7491
 4270SOL    HW124272   1.004   4.194   5.959 -0.3853  1.3525 -0.4551
 4270SOL    HW224273   1.093   4.138   5.870 -0.1508 -0.4316 -1.1786
 4271SOL     OW24274   3.442   1.750   3.171 -0.6054  0.1747 -0.0129
 4271SOL    HW124275   3.370   1.776   3.114  1.4607  1.7726 -1.9209
 4271SOL    HW224276   3.451   1.820   3.236  0.9053 -0.3986  0.3991
 4272SOL     OW24277   2.209   2.680  17.308  0.2911 -0.6233  0.7500
 4272SOL    HW124278   2.140   2.624  17.343  1.3959 -1.4641  1.5699
 4272SOL    HW224279   2.216   2.745  17.378  2.3821 -0.8663  0.7594
 4273SOL     OW24280   2.718   2.833   8.367  0.1236 -0.1215 -0.0725
 4273SOL    HW124281   2.679   2.919   8.353  1.2836 -0.0658 -3.0886
 4273SOL    HW224282   2.782   2.833   8.295  2.5353  1.0400  2.0857
 4274SOL     OW24283   1.089   2.862   7.435  0.2276  0.7787 -0.7966
 4274SOL    HW124284   1.103   2.954   7.415  1.3841  0.5583 -1.0026
 4274SOL    HW224285   1.059   2.870   7.526  3.1365 -1.6940  0.3811
 4275SOL     OW24286   0.181   3.881  17.178 -0.2168  0.6186  0.1664
 4275SOL    HW124287   0.160   3.951  17.240  0.8115  1.5587 -0.5543
 4275SOL    HW224288   0.099   3.868  17.132 -0.5416  1.6886  0.4341
 4276SOL     OW24289   2.024   2.834  14.839 -0.1864  0.1105  0.1246
 4276SOL    HW124290   2.005   2.924  14.814  3.8356  1.5758  2.3448
 4276SOL    HW224291   1.989   2.837  14.928  1.4601  0.3100  0.7610
 4277SOL     OW24292   3.917   2.698   8.628  0.2296 -0.2166 -0.2444
 4277SOL    HW124293   3.863   2.656   8.695 -2.3209  1.4219 -1.2991
 4277SOL    HW224294   3.905   2.791   8.649 -1.1722  0.0013 -2.0143
 4278SOL     OW24295   3.040   3.550  10.754  0.0598  0.2277 -0.5303
 4278SOL    HW124296   3.002   3.545  10.842  0.5172  0.9797 -0.2912
 4278SOL    HW224297   3.118   3.495  10.758 -1.4454 -1.8422  0.4509
 4279SOL     OW24298   3.772   0.367   4.839  0.2862  0.2423 -0.6278
 4279SOL    HW124299   3.791   0.452   4.880  0.3997 -0.0962  0.0142
 4279SOL    HW224300   3.792   0.306   4.910 -1.8557  1.6236  1.1527
 4280SOL     OW24301   4.111   2.436  14.252 -0.3919 -0.0635 -0.3226
 4280SOL    HW124302   4.079   2.390  14.329 -2.2533  1.7288 -0.0500
 4280SOL    HW224303   4.201   2.403  14.252  0.5760  2.5947 -1.2158
 4281SOL     OW24304   0.826   1.020   7.916 -0.2790  0.3890 -0.4615
 4281SOL    HW124305   0.757   1.042   7.978  0.3175  0.1061  0.3196
 4281SOL    HW224306   0.867   1.100   7.883 -0.4924  0.6574 -0.0679
 4282SOL     OW24307   0.339   0.401   2.500 -0.2626 -0.4712  0.1552
 4282SOL    HW124308   0.301   0.314   2.489 -0.4592 -0.3365 -0.2252
 4282SOL    HW224309   0.351   0.400   2.595  4.4040  1.3352 -0.4550
 4283SOL     OW24310   2.679   3.273   4.041 -0.1288  0.4317  0.3857
 4283SOL    HW124311   2.603   3.299   4.093 -1.2092  1.1367 -1.5520
 4283SOL    HW224312   2.633   3.238   3.965 -2.4728  2.5751  0.8234
 4284SOL     OW24313   2.465   1.164   1.505  0.1534  0.0757 -0.2170
 4284SOL    HW124314   2.525   1.178   1.579  0.0367  0.6636 -0.2313
 4284SOL    HW224315   2.382   1.203   1.534  1.6580  1.8361  1.7852
 4285SOL     OW24316   2.506   0.124   5.194  0.0030 -0.7904 -0.9022
 4285SOL    HW124317   2.533   0.032   5.197  0.4883 -0.6509 -0.9221
 4285SOL    HW224318   2.499   0.140   5.100  2.2509  0.8282 -0.8002
 4286SOL     OW24319   4.478   0.533   8.747  0.0307 -0.7919 -0.7560
 4286SOL    HW124320   4.397   0.510   8.792  0.5165  1.3972  1.2333
 4286SOL    HW224321   4.500   0.447   8.712  3.1102 -0.0008 -0.7777
 4287SOL     OW24322   0.900   2.226   2.116 -0.0751 -0.7138  0.8560
 4287SOL    HW124323   0.905   2.317   2.087 -2.9497 -0.6454  0.5716
 4287SOL    HW224324   0.900   2.189   2.028  0.3201 -0.9213  0.9439
 4288SOL     OW24325   0.477   3.767  13.951 -0.6528 -0.3576  0.3573
 4288SOL    HW124326   0.472   3.824  14.027 -2.3218 -0.3590  0.2420
 4288SOL    HW224327   0.543   3.703  13.978  0.5245  0.6729 -0.0245
 4289SOL     OW24328   4.247   0.245   1.977  0.7941 -0.0267 -0.3736
 4289SOL    HW124329   4.208   0.173   1.928 -2.4067  2.5773 -1.6748
 4289SOL    HW224330   4.236   0.226   2.070  0.2893  3.7273  0.3413
 4290SOL     OW24331   2.392   0.607   4.130 -0.3363  0.3929 -0.3313
 4290SOL    HW124332   2.435   0.602   4.045  1.9898 -1.1249  0.9228
 4290SOL    HW224333   2.428   0.690   4.162 -2.6813  1.3920 -0.3480
 4291SOL     OW24334   3.401   3.110  13.068 -0.0275 -0.7940 -0.0299
 4291SOL    HW124335   3.428   3.027  13.106  1.3030 -0.2572  0.1996
 4291SOL    HW224336   3.312   3.112  13.103  0.4837 -0.4977  1.2386
 4292SOL     OW24337   1.554   3.989   7.631  0.7487 -0.1171 -0.3338
 4292SOL    HW124338   1.532   4.039   7.710  0.0404 -0.0768 -0.5594
 4292SOL    HW224339   1.637   3.954   7.664  1.3476  1.2130 -0.3906
 4293SOL     OW24340   3.414   0.322   4.012 -0.0778  1.0574 -0.0666
 4293SOL    HW124341   3.428   0.332   3.918 -0.9824  0.4596 -0.2720
 4293SOL    HW224342   3.452   0.403   4.044 -0.6057  1.3968 -0.3006
 4294SOL     OW24343   3.619   0.075  13.723  0.0165  0.4480 -0.4076
 4294SOL    HW124344   3.533   0.098  13.687 -0.9692 -1.1389  0.9414
 4294SOL    HW224345   3.631   4.702  13.714 -1.9327  0.3728 -2.2961
 4295SOL     OW24346   4.080   2.412   9.810  0.1809  0.2973  0.1958
 4295SOL    HW124347   4.146   2.343   9.806 -2.5057 -2.1809 -1.5091
 4295SOL    HW224348   4.120   2.481   9.758 -0.9243  0.4746 -0.4192
 4296SOL     OW24349   0.366   1.704  13.634 -0.1945 -0.1604  0.2167
 4296SOL    HW124350   0.406   1.623  13.664  3.0665  1.4415  0.2528
 4296SOL    HW224351   0.306   1.672  13.566  2.2440  1.1117 -2.5840
 4297SOL     OW24352   1.322   0.630   8.095 -0.1000 -0.1889 -0.3883
 4297SOL    HW124353   1.277   0.714   8.089 -0.8282 -0.3665  2.6123
 4297SOL    HW224354   1.249   0.579   8.131  0.1968 -0.0058  0.4602
 4298SOL     OW24355   3.004   3.323   5.179  0.2557  0.3644  0.0148
 4298SOL    HW124356   3.040   3.392   5.123  0.5506  0.7752  0.7025
 4298SOL    HW224357   3.066   3.252   5.166  0.2058  0.0675  1.3602
 4299SOL     OW24358   1.933   2.902   3.108 -0.0916  0.1172  0.7404
 4299SOL    HW124359   1.858   2.857   3.147 -0.0872 -0.8448 -0.3193
 4299SOL    HW224360   1.884   2.956   3.046  0.1779 -0.2291  0.2272
 4300SOL     OW24361   3.896   0.927   2.086  0.4879  0.6692  0.2092
 4300SOL    HW124362   3.955   0.921   2.010  1.3604  1.2186  0.8490
 4300SOL    HW224363   3.848   1.008   2.071  0.9050  1.0584  1.0279
 4301SOL     OW24364   3.111   2.954   6.973  0.1471  0.4091 -0.0467
 4301SOL    HW124365   3.196   2.910   6.964  0.2224  0.1742  1.7273
 4301SOL    HW224366   3.058   2.881   7.005 -0.6768  0.1732 -1.9795
 4302SOL     OW24367   1.729   3.905   5.587  0.4988  0.1193 -0.2237
 4302SOL    HW124368   1.665   3.899   5.516  0.8127  1.1193 -0.5877
 4302SOL    HW224369   1.810   3.866   5.555  1.6298  1.6961  0.7117
 4303SOL     OW24370   3.902   3.791  10.963  0.4388  0.3887 -0.0649
 4303SOL    HW124371   3.882   3.835  11.046  1.6517 -2.4771  1.7426
 4303SOL    HW224372   3.817   3.752  10.943  1.3222 -1.5501 -0.0387
 4304SOL     OW24373   2.805   4.602  16.762 -0.3448 -0.0439  0.7557
 4304SOL    HW124374   2.815   4.640  16.674 -0.7748 -0.6896  0.4226
 4304SOL    HW224375   2.753   4.669  16.806 -1.1106 -0.2044  0.0969
 4305SOL     OW24376   0.552   1.399   6.457 -0.2749  0.1584 -0.1836
 4305SOL    HW124377   0.566   1.428   6.367 -0.3798  0.4684 -0.1024
 4305SOL    HW224378   0.495   1.324   6.441 -1.0110 -0.2439  4.0851
 4306SOL     OW24379   1.348   4.261  11.840 -0.0975  0.0789 -0.0453
 4306SOL    HW124380   1.436   4.250  11.804 -0.8229 -2.8327 -0.8914
 4306SOL    HW224381   1.382   4.277  11.928  2.2329 -0.3916 -0.8713
 4307SOL     OW24382   3.998   3.772   8.255  0.5377  0.0949 -0.6464
 4307SOL    HW124383   3.947   3.716   8.197  0.3601 -1.1708  0.7537
 4307SOL    HW224384   3.928   3.796   8.316 -0.3019 -0.1465 -1.5255
 4308SOL     OW24385   1.870   4.573   8.929 -0.2980 -0.1295  0.4765
 4308SOL    HW124386   1.919   4.609   9.003  2.8039 -0.4030 -1.3989
 4308SOL    HW224387   1.829   4.493   8.961 -0.7172  0.2544  0.8906
 4309SOL     OW24388   1.901   4.710  10.471 -0.0693  0.4951  0.3139
 4309SOL    HW124389   1.912   0.005  10.565 -1.2319  0.3086  0.4770
 4309SOL    HW224390   1.808   4.712  10.450 -0.0950 -0.5773  0.3389
 4310SOL     OW24391   3.192   0.783   3.938  0.0271 -0.3750  0.0362
 4310SOL    HW124392   3.164   0.855   3.882  3.2047  0.1916 -0.8664
 4310SOL    HW224393   3.272   0.747   3.899  0.0907  2.4616 -2.5031
 4311SOL     OW24394   3.078   2.315   1.577 -0.5408  0.3618 -0.2947
 4311SOL    HW124395   3.017   2.299   1.649 -0.1700 -1.0727 -0.3080
 4311SOL    HW224396   3.143   2.247   1.591 -0.6544  0.4390  0.6258
 4312SOL     OW24397   0.276   0.838   3.707 -0.2326 -0.4043 -0.1949
 4312SOL    HW124398   0.298   0.889   3.629  0.5780 -2.2219 -1.1363
 4312SOL    HW224399   0.191   0.872   3.737 -0.1645  0.7725 -1.3441
 4313SOL     OW24400   2.630   1.281  14.807  0.0977  0.2087 -0.4250
 4313SOL    HW124401   2.719   1.279  14.841  0.6243 -0.1216 -1.8276
 4313SOL    HW224402   2.596   1.208  14.860 -1.3627  2.9572  2.4260
 4314SOL     OW24403   3.178   3.450   2.312 -0.5764 -0.1151  0.3514
 4314SOL    HW124404   3.245   3.445   2.380 -0.5840  0.6245  0.4121
 4314SOL    HW224405   3.116   3.509   2.353 -0.3500 -0.4368  1.1631
 4315SOL     OW24406   4.451   3.950   7.481 -0.3889  0.1675 -0.0960
 4315SOL    HW124407   4.415   3.875   7.434  0.1127 -0.3422  0.3348
 4315SOL    HW224408   4.473   3.999   7.402  2.1533  0.7280  0.9897
 4316SOL     OW24409   0.265   1.341   7.331  0.1342 -0.3740 -0.2470
 4316SOL    HW124410   0.216   1.260   7.348  2.8997 -1.9658  0.2555
 4316SOL    HW224411   0.353   1.321   7.298  0.1164  1.6921 -1.5447
 4317SOL     OW24412   1.551   4.066   4.937 -0.0176  0.0600  0.1225
 4317SOL    HW124413   1.613   4.072   5.010 -0.7828  1.2459  0.6652
 4317SOL    HW224414   1.472   4.065   4.991  0.2639  0.2289  0.5323
 4318SOL     OW24415   2.791   0.257   1.444  0.3023  0.4293 -0.4890
 4318SOL    HW124416   2.750   0.191   1.500 -1.2333 -0.9717 -3.3095
 4318SOL    HW224417   2.824   0.199   1.376 -0.6997 -2.1866  1.2447
 4319SOL     OW24418   3.099   2.218  12.721  0.1189  0.0167 -0.2351
 4319SOL    HW124419   3.111   2.313  12.718  1.5065 -0.1492  0.2753
 4319SOL    HW224420   3.012   2.229  12.761 -0.3217 -0.9507 -0.9215
 4320SOL     OW24421   1.548   0.026   3.671 -0.0504  0.5582 -0.3520
 4320SOL    HW124422   1.578   0.001   3.583 -2.6001 -0.1950 -1.0131
 4320SOL    HW224423   1.461   0.062   3.654  0.8577  2.9324  0.0959
 4321SOL     OW24424   3.327   1.510   7.676  0.0452 -0.2043  0.5448
 4321SOL    HW124425   3.379   1.546   7.747 -0.2762 -0.2848  0.8203
 4321SOL    HW224426   3.270   1.582   7.650 -0.3257 -0.6241  0.1884
 4322SOL     OW24427   3.206   4.714   1.037 -0.4356 -0.0496  0.3928
 4322SOL    HW124428   3.270   4.684   1.102 -0.4779  0.2675  0.5811
 4322SOL    HW224429   3.159   0.051   1.096  1.0173 -0.3261  1.8165
 4323SOL     OW24430   0.353   1.186  11.767 -0.2071 -0.3488  0.2794
 4323SOL    HW124431   0.330   1.151  11.853  0.6124  0.7230  0.9371
 4323SOL    HW224432   0.448   1.195  11.782  0.0315 -1.2516 -0.6760
 4324SOL     OW24433   0.710   4.578   9.935  0.3345 -0.0634  1.0005
 4324SOL    HW124434   0.739   4.550  10.022  0.2338 -1.2312  0.6594
 4324SOL    HW224435   0.640   4.515   9.918  0.1271  0.2677  0.6185
 4325SOL     OW24436   0.504   2.771  16.696 -0.3162  0.8993 -0.4957
 4325SOL    HW124437   0.503   2.836  16.766  3.4380  1.0457 -0.5942
 4325SOL    HW224438   0.593   2.765  16.661 -0.3446 -1.2875 -0.2426
 4326SOL     OW24439   2.481   0.731   0.223  0.1773  0.4006  0.4939
 4326SOL    HW124440   2.446   0.750   0.136  1.8457  2.7331  0.3171
 4326SOL    HW224441   2.571   0.754   0.201 -0.2642  0.3740 -1.3108
 4327SOL     OW24442   0.498   2.414  17.254  0.2134  0.2661  0.0614
 4327SOL    HW124443   0.480   2.499  17.216 -0.5553  0.8703  1.8034
 4327SOL    HW224444   0.442   2.411  17.331  0.6456  2.0335  0.4399
 4328SOL     OW24445   2.104   2.808   2.772  0.1212  0.6204 -0.1615
 4328SOL    HW124446   2.093   2.720   2.808  0.3550 -0.9553 -3.9028
 4328SOL    HW224447   2.169   2.791   2.704  0.6071 -2.0729  1.0087
 4329SOL     OW24448   0.568   2.804   6.473 -0.4700  0.9384  0.4374
 4329SOL    HW124449   0.524   2.796   6.388  0.1173 -0.5447  0.2763
 4329SOL    HW224450   0.631   2.875   6.471  0.4944  0.0364 -1.2303
 4330SOL     OW24451   0.602   4.346   5.182  0.3884  0.0833 -0.1939
 4330SOL    HW124452   0.646   4.270   5.143  1.1513 -0.5589  1.9358
 4330SOL    HW224453   0.508   4.325   5.181  0.4878 -0.3668 -0.3669
 4331SOL     OW24454   0.423   3.041   4.259  0.5609 -0.4318 -0.5966
 4331SOL    HW124455   0.454   2.974   4.198  1.8463 -0.6170  0.2660
 4331SOL    HW224456   0.341   3.069   4.219  0.2903  2.6686  2.1375
 4332SOL     OW24457   0.073   1.007   4.269  0.1668  0.1755 -0.4557
 4332SOL    HW124458   0.041   0.926   4.308  0.4863  0.0162 -0.5293
 4332SOL    HW224459   0.016   1.068   4.315 -0.9974 -0.4745 -1.0386
 4333SOL     OW24460   4.124   4.044   7.113  0.1781 -0.2283 -0.0212
 4333SOL    HW124461   4.175   3.964   7.117 -0.6006 -0.6476  1.3319
 4333SOL    HW224462   4.194   4.109   7.106 -0.0635  0.0205 -0.1243
 4334SOL     OW24463   0.766   4.678   1.206  0.1439 -0.1937  0.1124
 4334SOL    HW124464   0.798   4.682   1.115  0.5757 -0.5874  0.2452
 4334SOL    HW224465   0.699   4.610   1.199 -0.7180  1.0085 -3.2947
 4335SOL     OW24466   1.863   1.104   7.100 -0.0367  0.3036  0.2424
 4335SOL    HW124467   1.914   1.182   7.123 -2.1360  1.0309  2.4411
 4335SOL    HW224468   1.925   1.064   7.039  1.5711  2.0204  0.7581
 4336SOL     OW24469   4.596   3.708   8.515 -0.1277  0.1449  0.1632
 4336SOL    HW124470   4.664   3.732   8.452 -0.0624  0.8326  0.4907
 4336SOL    HW224471   4.632   3.749   8.594  0.9489  1.5990 -1.0772
 4337SOL     OW24472   3.443   3.592   7.463  0.2285  0.1520  0.3337
 4337SOL    HW124473   3.534   3.599   7.433  0.4023 -0.0342  0.8305
 4337SOL    HW224474   3.461   3.567   7.553 -0.9095  1.7056  0.9923
 4338SOL     OW24475   1.871   2.517   8.547 -0.3996  0.2879 -0.8355
 4338SOL    HW124476   1.923   2.438   8.563  0.1752  0.6541 -0.8861
 4338SOL    HW224477   1.790   2.499   8.594  0.6829 -1.1550  0.5052
 4339SOL     OW24478   3.539   4.340   9.580  0.5499  0.4236  0.2626
 4339SOL    HW124479   3.618   4.287   9.586 -0.2703 -0.8027  0.2770
 4339SOL    HW224480   3.585   4.423   9.571 -0.3457  0.5821 -2.9166
 4340SOL     OW24481   3.879   2.528   4.511  0.5453  0.4320 -0.2200
 4340SOL    HW124482   3.932   2.458   4.473  0.0663  0.5551 -1.1059
 4340SOL    HW224483   3.795   2.482   4.519  1.2916 -0.9645 -0.4301
 4341SOL     OW24484   2.053   1.176   3.869  0.5119  0.6423 -0.3101
 4341SOL    HW124485   2.001   1.215   3.939 -0.0975  2.3473 -1.7255
 4341SOL    HW224486   2.107   1.115   3.920 -2.8293 -1.1274  1.1388
 4342SOL     OW24487   1.491   3.265   7.608 -0.2964 -0.2901 -0.0644
 4342SOL    HW124488   1.502   3.350   7.566 -0.0844  0.6062  1.8079
 4342SOL    HW224489   1.564   3.224   7.561 -1.6687 -0.9930 -1.5632
 4343SOL     OW24490   3.059   2.919   4.868  0.5812  0.2983  0.6633
 4343SOL    HW124491   3.067   2.883   4.780 -1.0454 -0.5525  0.8629
 4343SOL    HW224492   3.004   2.997   4.864 -0.0722 -0.2391 -0.6358
 4344SOL     OW24493   0.625   3.115  13.739  0.3167  0.2032 -0.3174
 4344SOL    HW124494   0.624   3.154  13.651  1.6333  4.4854  1.5938
 4344SOL    HW224495   0.533   3.114  13.765  0.5943  0.4731  0.6548
 4345SOL     OW24496   1.112   1.118   5.483  0.7400 -0.1215  0.3230
 4345SOL    HW124497   1.047   1.058   5.448  0.7243 -0.4420  0.8970
 4345SOL    HW224498   1.132   1.082   5.570  0.1046  2.3340  1.4776
 4346SOL     OW24499   3.491   1.146  10.434 -0.1695 -0.2367 -0.8666
 4346SOL    HW124500   3.567   1.188  10.474  0.8573 -1.7784 -1.2147
 4346SOL    HW224501   3.427   1.204  10.476  0.7625 -0.5415  0.9666
 4347SOL     OW24502   0.281   3.966   8.180 -0.1268 -0.1495  0.5962
 4347SOL    HW124503   0.195   3.931   8.156  1.3126 -2.1289 -1.6966
 4347SOL    HW224504   0.298   4.038   8.120 -1.6516 -0.5206 -0.2760
 4348SOL     OW24505   0.696   4.637  14.903  0.5581  0.7533  0.3232
 4348SOL    HW124506   0.733   4.678  14.824 -0.2167 -0.0992 -0.4791
 4348SOL    HW224507   0.771   4.637  14.963  1.1844  1.9990 -0.4607
 4349SOL     OW24508   4.247   3.970  16.291 -0.1656  0.0884  0.5543
 4349SOL    HW124509   4.274   3.981  16.383  0.6842 -2.0768  0.5801
 4349SOL    HW224510   4.296   4.044  16.257  1.4181 -2.0997 -1.8825
 4350SOL     OW24511   2.678   2.195   7.231 -0.1849 -0.2590  0.0483
 4350SOL    HW124512   2.687   2.126   7.165 -0.7160 -1.3609  1.1234
 4350SOL    HW224513   2.705   2.155   7.313  1.5181 -0.4606 -0.6095
 4351SOL     OW24514   2.777   0.462   9.745  0.3033 -0.5695  0.1314
 4351SOL    HW124515   2.834   0.472   9.822  0.8434  0.3570 -0.3974
 4351SOL    HW224516   2.699   0.506   9.778  0.7111 -1.4458  2.2626
 4352SOL     OW24517   4.689   3.067   4.267  0.1312 -0.7333 -0.2977
 4352SOL    HW124518   0.034   3.003   4.293 -0.6405 -0.7175  1.7543
 4352SOL    HW224519   4.707   3.137   4.330  0.8571 -2.1763  1.1020
 4353SOL     OW24520   1.168   0.294   7.905 -0.1701  0.3193  0.3341
 4353SOL    HW124521   1.094   0.297   7.844  0.9503 -1.2963 -1.0941
 4353SOL    HW224522   1.148   0.209   7.943 -1.7243 -0.1008 -1.4398
 4354SOL     OW24523   3.727   3.957   8.869 -0.2119  0.2580 -0.4882
 4354SOL    HW124524   3.804   3.978   8.922 -0.7406 -1.7429  1.0490
 4354SOL    HW224525   3.745   3.972   8.776  2.3832 -0.0023 -0.0317
 4355SOL     OW24526   4.718   2.451  11.039  0.4589 -0.0590  0.1758
 4355SOL    HW124527   0.018   2.544  11.025 -0.9288  0.0335 -1.3714
 4355SOL    HW224528   4.659   2.451  11.114  0.5920  2.7293  0.3035
 4356SOL     OW24529   3.988   3.439  12.811  0.2358 -0.3129 -0.1070
 4356SOL    HW124530   4.013   3.469  12.724  1.6777 -1.0887  0.0466
 4356SOL    HW224531   3.900   3.406  12.791 -0.5422  2.4864 -1.3256
 4357SOL     OW24532   2.131   4.236   5.252 -0.0775 -0.3143  0.0362
 4357SOL    HW124533   2.105   4.206   5.165 -0.3333  0.7797 -0.2634
 4357SOL    HW224534   2.116   4.156   5.304 -2.1296  0.0602  0.0199
 4358SOL     OW24535   3.289   1.287   8.412  0.5340  0.3174 -0.2128
 4358SOL    HW124536   3.261   1.205   8.373  3.8649 -0.3212 -1.2107
 4358SOL    HW224537   3.199   1.305   8.439  0.6134  0.1964  0.1324
 4359SOL     OW24538   1.792   1.770  12.270  0.4858 -0.4367  0.3515
 4359SOL    HW124539   1.722   1.798  12.330 -0.5673 -0.9719 -0.6267
 4359SOL    HW224540   1.866   1.829  12.284  1.4723 -1.0379 -2.4438
 4360SOL     OW24541   4.507   1.408  10.104  0.3581 -0.1982 -0.3141
 4360SOL    HW124542   4.575   1.389  10.040  0.9026  0.9094 -0.0580
 4360SOL    HW224543   4.506   1.503  10.100  2.3565 -0.2843 -2.8152
 4361SOL     OW24544   4.511   2.484   9.974 -0.8007  0.2679  0.2877
 4361SOL    HW124545   4.448   2.555   9.962 -0.4938 -0.4653 -5.5462
 4361SOL    HW224546   4.457   2.409   9.950  0.2379  0.3132 -2.1201
 4362SOL     OW24547   4.320   3.699   1.607 -0.2252  0.2335  0.6909
 4362SOL    HW124548   4.335   3.604   1.611  1.0945  0.3110 -2.0918
 4362SOL    HW224549   4.315   3.710   1.512  0.4998  1.0124  0.7463
 4363SOL     OW24550   3.979   3.571   5.928  0.0730  0.2951  0.1648
 4363SOL    HW124551   4.060   3.536   5.892 -1.1956 -1.0673 -1.3816
 4363SOL    HW224552   3.920   3.509   5.884 -1.2090  1.2410  0.5300
 4364SOL     OW24553   0.994   0.953  12.847 -0.4276 -0.8625 -0.4318
 4364SOL    HW124554   1.045   0.996  12.777 -2.6534  0.1329 -1.4441
 4364SOL    HW224555   0.906   0.989  12.838  0.0239  0.5385  0.6173
 4365SOL     OW24556   2.381   0.194   1.325 -0.0704 -0.2127 -0.3477
 4365SOL    HW124557   2.323   0.268   1.343  0.8366  0.4553 -0.1371
 4365SOL    HW224558   2.457   0.244   1.295 -0.0276  0.5309  1.0112
 4366SOL     OW24559   2.628   3.028   6.450 -0.1186 -0.4218  0.1521
 4366SOL    HW124560   2.655   3.110   6.490  0.5541 -0.8055  0.4897
 4366SOL    HW224561   2.705   2.972   6.442  1.2548  1.3375  1.0930
 4367SOL     OW24562   0.229   3.358  17.657 -0.3828 -0.1156  0.4685
 4367SOL    HW124563   0.192   3.320  17.577 -2.7297 -1.5560  2.2083
 4367SOL    HW224564   0.320   3.343  17.635 -0.6945  1.0990 -1.6209
 4368SOL     OW24565   2.611   0.240  15.599  0.8014 -0.5370  0.1725
 4368SOL    HW124566   2.531   0.194  15.574  1.2193 -0.1760 -1.8142
 4368SOL    HW224567   2.581   0.277  15.683  1.0799  2.4858 -1.0736
 4369SOL     OW24568   0.269   0.873   6.232  0.0682  0.0509 -0.7197
 4369SOL    HW124569   0.294   0.845   6.320  1.1672 -2.3903 -1.8241
 4369SOL    HW224570   0.181   0.837   6.232  0.6140 -1.3170  0.8020
 4370SOL     OW24571   0.380   4.628  17.276  0.1978 -0.7607  0.1022
 4370SOL    HW124572   0.400   4.534  17.279 -2.7248 -1.4476 -1.3509
 4370SOL    HW224573   0.326   4.637  17.197  0.1102  1.9294  0.4704
 4371SOL     OW24574   1.324   3.900  15.568 -0.1280 -0.5383 -0.1077
 4371SOL    HW124575   1.310   3.988  15.604  0.9107  0.1534 -1.4171
 4371SOL    HW224576   1.298   3.898  15.476 -0.5466  1.1363 -0.0234
 4372SOL     OW24577   1.340   2.508  13.594  0.3895  0.1515  0.1483
 4372SOL    HW124578   1.368   2.599  13.592  2.2834 -0.4647 -1.2522
 4372SOL    HW224579   1.425   2.465  13.600  0.1874 -0.2423  0.1785
 4373SOL     OW24580   2.554   3.625  10.506  0.3260 -0.2763  0.6120
 4373SOL    HW124581   2.577   3.714  10.481  0.6084 -0.2943  0.8120
 4373SOL    HW224582   2.637   3.587  10.535  0.3247 -2.0794 -1.7048
 4374SOL     OW24583   2.002   1.329   7.210 -0.0626  0.6369 -0.0875
 4374SOL    HW124584   2.094   1.328   7.185  0.0929  0.1454  0.5018
 4374SOL    HW224585   1.987   1.281   7.291 -0.6986  1.4439  0.2758
 4375SOL     OW24586   0.218   3.815  10.003  0.6244  0.2074 -0.3372
 4375SOL    HW124587   0.172   3.845   9.925 -0.2016  1.8996  0.8019
 4375SOL    HW224588   0.152   3.832  10.070  1.9573  1.3753  0.6918
 4376SOL     OW24589   0.332   0.546  10.162  0.9434 -0.4134  0.1268
 4376SOL    HW124590   0.325   0.635  10.197 -1.0728 -0.6341  0.2836
 4376SOL    HW224591   0.245   0.541  10.121  1.2934  3.5018 -1.1115
 4377SOL     OW24592   0.714   0.671   5.975  0.6161 -0.1537 -0.0630
 4377SOL    HW124593   0.664   0.699   5.897 -0.8526 -0.6254  0.7040
 4377SOL    HW224594   0.783   0.737   5.978  0.9286 -0.6663  3.1527
 4378SOL     OW24595   2.988   3.598   2.613  0.4309 -0.3174  0.0969
 4378SOL    HW124596   2.948   3.619   2.529  0.6016  0.1139  0.1204
 4378SOL    HW224597   2.938   3.653   2.673  1.1059  0.0800  0.2976
 4379SOL     OW24598   3.430   2.969   3.322  0.5276 -0.2156  0.4658
 4379SOL    HW124599   3.447   2.876   3.307 -3.7954 -0.9739  0.2729
 4379SOL    HW224600   3.520   3.003   3.316  0.0837  0.4378 -2.5289
 4380SOL     OW24601   2.186   0.609  15.172 -0.2112  0.0780 -0.3949
 4380SOL    HW124602   2.173   0.686  15.117 -0.7658 -0.2524 -0.7218
 4380SOL    HW224603   2.261   0.567  15.129  0.2048  0.1356  0.2738
 4381SOL     OW24604   0.443   2.695  14.230 -0.3243  0.1427  0.3268
 4381SOL    HW124605   0.480   2.739  14.154  1.1991  2.5571  2.4262
 4381SOL    HW224606   0.456   2.603  14.210 -1.3558 -0.0833  0.6644
 4382SOL     OW24607   2.223   3.296  17.309  0.0688 -0.2663  0.4886
 4382SOL    HW124608   2.226   3.356  17.383 -3.6592  0.7951 -0.2506
 4382SOL    HW224609   2.312   3.260  17.312  0.2769  0.0758 -1.9157
 4383SOL     OW24610   2.592   0.466   0.821 -0.6746 -0.1588  0.3505
 4383SOL    HW124611   2.570   0.429   0.906  1.3629  0.5379  1.1828
 4383SOL    HW224612   2.535   0.543   0.817  0.8157  0.8701 -1.2668
 4384SOL     OW24613   1.522   4.095   1.896 -0.1774  0.2320  0.1796
 4384SOL    HW124614   1.538   4.058   1.983 -3.8776 -0.2302  0.6723
 4384SOL    HW224615   1.604   4.067   1.856 -0.1765 -1.6886  1.5271
 4385SOL     OW24616   2.733   4.080  13.689 -0.2974  0.0289 -0.5788
 4385SOL    HW124617   2.738   3.985  13.695 -3.1886 -0.0953 -0.1726
 4385SOL    HW224618   2.684   4.095  13.607 -1.1759  1.7381  0.2627
 4386SOL     OW24619   3.618   3.372   9.291  0.3989 -0.2268  0.2911
 4386SOL    HW124620   3.705   3.408   9.271  0.5254 -0.8411 -0.2829
 4386SOL    HW224621   3.589   3.360   9.200  1.7344  2.1993 -0.4680
 4387SOL     OW24622   4.347   1.600   4.212 -0.0933 -0.3671 -0.2267
 4387SOL    HW124623   4.392   1.586   4.129  0.0931  1.2659 -0.3858
 4387SOL    HW224624   4.398   1.552   4.277  1.0999  2.3000  0.8042
 4388SOL     OW24625   1.738   1.979   5.834  0.6350 -0.4428 -0.2314
 4388SOL    HW124626   1.769   2.031   5.759 -0.6356  0.4537 -0.1324
 4388SOL    HW224627   1.691   2.047   5.883 -2.6198 -1.1246 -2.4547
 4389SOL     OW24628   0.163   2.696   5.659  0.0419 -0.4924  0.1901
 4389SOL    HW124629   0.214   2.749   5.597  1.0432 -1.2899  0.3427
 4389SOL    HW224630   0.196   2.610   5.634 -0.1651 -0.8866  1.3085
 4390SOL     OW24631   3.958   0.322   9.709  0.1233  0.0618  0.6332
 4390SOL    HW124632   3.988   0.399   9.661  0.3281  0.7430  1.8546
 4390SOL    HW224633   3.906   0.284   9.639  0.1166 -0.1061  0.7296
 4391SOL     OW24634   4.411   1.030   7.845  0.9699 -0.2303 -0.0564
 4391SOL    HW124635   4.367   1.107   7.882  0.0948 -1.2272  0.9762
 4391SOL    HW224636   4.491   1.068   7.809 -0.3297  2.4429 -0.0843
 4392SOL     OW24637   1.330   1.897   3.340 -0.3664  0.3292 -0.0915
 4392SOL    HW124638   1.386   1.910   3.264  0.8929  1.5503  1.0505
 4392SOL    HW224639   1.315   1.989   3.360  1.2912  0.5509  0.0722
 4393SOL     OW24640   3.420   1.277   2.651 -0.1299 -0.0658  0.2947
 4393SOL    HW124641   3.402   1.183   2.653  1.4391 -0.3969 -1.2008
 4393SOL    HW224642   3.484   1.273   2.721  1.7182  1.0149 -1.3503
 4394SOL     OW24643   2.559   3.877  10.454 -0.3767 -0.7454  0.4414
 4394SOL    HW124644   2.492   3.929  10.498 -0.7998  0.6956 -1.9361
 4394SOL    HW224645   2.637   3.929  10.476  1.3510 -4.0009  2.0712
 4395SOL     OW24646   1.913   2.205   3.344 -0.1683  0.1478 -0.1980
 4395SOL    HW124647   1.846   2.137   3.334  1.0259 -1.3144  1.7922
 4395SOL    HW224648   1.942   2.217   3.253  1.4256  1.6373  0.4988
 4396SOL     OW24649   2.230   4.689   5.170 -0.1761  0.2512 -0.3073
 4396SOL    HW124650   2.320   4.719   5.163  0.1524  0.1512  3.5194
 4396SOL    HW224651   2.205   0.020   5.246 -1.5074  2.1225 -2.0109
 4397SOL     OW24652   4.439   1.567   5.322 -0.6759 -0.0231  0.1071
 4397SOL    HW124653   4.405   1.522   5.245 -1.9729 -0.2399  0.8092
 4397SOL    HW224654   4.358   1.612   5.347  0.1185  0.4018  1.8892
 4398SOL     OW24655   2.672   4.522   4.876  0.0394 -0.1274  0.5855
 4398SOL    HW124656   2.752   4.471   4.863 -0.8520 -1.8495  1.9025
 4398SOL    HW224657   2.642   4.514   4.786 -0.9257 -2.1016  1.0881
 4399SOL     OW24658   2.859   0.368   2.512  0.1781  0.4207  0.2963
 4399SOL    HW124659   2.845   0.284   2.555 -1.2095 -1.2309 -3.4318
 4399SOL    HW224660   2.928   0.407   2.566  2.6807 -1.7190 -1.3818
 4400SOL     OW24661   3.835   1.532   1.781 -0.4829  0.2398  0.4580
 4400SOL    HW124662   3.772   1.528   1.709 -0.6743  1.1240  0.5805
 4400SOL    HW224663   3.906   1.581   1.741 -0.4304  0.2170  0.5241
 4401SOL     OW24664   4.293   2.648  11.101  0.5154 -0.4170  0.0389
 4401SOL    HW124665   4.366   2.602  11.142  0.4534  0.6629  1.3473
 4401SOL    HW224666   4.290   2.612  11.012  1.4040 -0.4142  0.0098
 4402SOL     OW24667   2.098   4.609  11.350  0.2146 -0.0775  0.3298
 4402SOL    HW124668   2.176   4.576  11.394  1.2933 -1.0052 -2.2878
 4402SOL    HW224669   2.133   4.695  11.326  0.9430 -0.3425  0.4452
 4403SOL     OW24670   1.839   3.003   1.713 -0.0096 -0.5022 -0.3063
 4403SOL    HW124671   1.877   2.966   1.634  0.5964 -2.0207  0.6959
 4403SOL    HW224672   1.901   2.963   1.774 -0.2460  0.7472  0.7472
 4404SOL     OW24673   2.000   0.453   2.646  0.1846 -0.0384  0.6011
 4404SOL    HW124674   2.011   0.548   2.640  0.2204 -0.1259 -0.6026
 4404SOL    HW224675   1.914   0.445   2.605  0.4265 -0.7124  0.2350
 4405SOL     OW24676   0.678   1.070  13.721 -1.0830 -0.0610  0.1093
 4405SOL    HW124677   0.762   1.114  13.709  0.7699 -3.5686  0.1318
 4405SOL    HW224678   0.660   1.042  13.631 -1.0049 -0.5760  0.2546
 4406SOL     OW24679   2.629   0.881   9.458 -0.2536 -0.2805  0.1606
 4406SOL    HW124680   2.595   0.792   9.450  0.3612 -0.7532  2.6453
 4406SOL    HW224681   2.652   0.883   9.551 -0.4320  1.3292  0.1719
 4407SOL     OW24682   0.377   3.801   1.992  0.0819 -0.4402  0.1894
 4407SOL    HW124683   0.331   3.718   2.002 -0.8413 -0.1677 -1.9045
 4407SOL    HW224684   0.304   3.857   1.964 -0.8138 -1.1898  1.0215
 4408SOL     OW24685   1.461   4.165   2.901 -0.6603 -0.5411 -0.0444
 4408SOL    HW124686   1.453   4.070   2.907 -1.7218 -0.4336  0.2780
 4408SOL    HW224687   1.392   4.182   2.837 -2.7335  0.6207  2.4910
 4409SOL     OW24688   0.893   0.257  13.418  0.0035 -0.2743  0.4491
 4409SOL    HW124689   0.826   0.286  13.356  1.0280 -0.5879 -0.8045
 4409SOL    HW224690   0.919   0.177  13.372 -2.9679 -0.8118 -0.3036
 4410SOL     OW24691   3.409   2.644   4.179 -0.0564 -0.2725  0.6448
 4410SOL    HW124692   3.368   2.566   4.142 -1.6913  0.6159  0.5912
 4410SOL    HW224693   3.377   2.711   4.118 -0.5025 -0.6561  0.4597
 4411SOL     OW24694   0.882   1.746  11.429 -0.1160  0.1492 -0.0672
 4411SOL    HW124695   0.791   1.776  11.420  0.6356  3.1083  2.3635
 4411SOL    HW224696   0.871   1.653  11.447  1.4225 -0.5727 -2.8426
 4412SOL     OW24697   1.733   4.721   4.810  0.7328  0.1996  0.6491
 4412SOL    HW124698   1.780   4.713   4.893 -1.0489 -2.5923  1.3986
 4412SOL    HW224699   1.723   4.630   4.783 -0.4902  0.3340  0.6563
 4413SOL     OW24700   1.828   3.885  16.125  0.4727 -0.3300  0.3347
 4413SOL    HW124701   1.916   3.904  16.093 -0.1594  2.8650  0.5207
 4413SOL    HW224702   1.846   3.899  16.218 -4.7949 -1.2984  1.5076
 4414SOL     OW24703   0.906   0.608   0.889  0.0325 -0.0412 -0.0033
 4414SOL    HW124704   0.913   0.681   0.950 -1.0597  0.0197  0.0331
 4414SOL    HW224705   0.813   0.592   0.873  0.0207  0.9051 -0.9002
 4415SOL     OW24706   2.497   1.609   7.716 -0.1812  0.3525 -0.2497
 4415SOL    HW124707   2.426   1.628   7.655 -1.2603  1.1569  1.2530
 4415SOL    HW224708   2.445   1.591   7.795 -0.0234 -2.9225 -0.8880
 4416SOL     OW24709   3.080   4.038   5.591  0.2300 -0.0231 -0.0353
 4416SOL    HW124710   3.091   4.118   5.642 -1.0169  0.4498 -0.5037
 4416SOL    HW224711   3.133   4.060   5.514 -1.8315 -1.2896 -1.8107
 4417SOL     OW24712   3.962   4.383  11.543  0.5572  0.1039  0.2969
 4417SOL    HW124713   4.027   4.449  11.520  0.9796 -0.4912 -0.2141
 4417SOL    HW224714   3.898   4.429  11.598 -0.8823  0.0175 -1.2995
 4418SOL     OW24715   3.733   4.431   8.154  0.2745 -0.4603 -0.2394
 4418SOL    HW124716   3.652   4.463   8.113  0.2620 -0.4338 -0.1938
 4418SOL    HW224717   3.796   4.502   8.139 -1.3631  0.8082 -1.2118
 4419SOL     OW24718   3.391   4.288  17.075  0.9791 -0.0242  0.1259
 4419SOL    HW124719   3.366   4.368  17.028  1.1149 -0.8013 -1.2945
 4419SOL    HW224720   3.486   4.293  17.082  1.1123 -3.0411  0.5893
 4420SOL     OW24721   4.658   1.853   3.695  0.1478  0.0746 -0.4331
 4420SOL    HW124722   4.666   1.864   3.600 -2.4057 -0.4704 -0.6924
 4420SOL    HW224723   4.702   1.935   3.719 -0.7785  0.9780 -1.8393
 4421SOL     OW24724   3.621   3.861  14.885 -0.8648 -0.1002 -0.1141
 4421SOL    HW124725   3.597   3.770  14.904 -0.0738 -0.1566  0.6075
 4421SOL    HW224726   3.537   3.906  14.882 -2.2565 -2.6120  1.1456
 4422SOL     OW24727   1.269   0.479   6.428 -0.5194 -0.7512  0.1049
 4422SOL    HW124728   1.315   0.469   6.512 -1.9861  2.1035  1.2416
 4422SOL    HW224729   1.180   0.450   6.445 -0.8546  0.1694 -0.1176
 4423SOL     OW24730   1.121   0.460   5.480 -0.0958  0.5511 -0.6850
 4423SOL    HW124731   1.190   0.521   5.507 -1.6015  2.3509 -0.8785
 4423SOL    HW224732   1.088   0.439   5.568  1.2714 -1.2389 -0.6004
 4424SOL     OW24733   2.645   3.807  16.010  0.6165  0.1368 -0.5969
 4424SOL    HW124734   2.621   3.862  15.935 -0.6005 -1.5981 -1.4933
 4424SOL    HW224735   2.716   3.852  16.055  0.5095  0.6774 -0.9642
 4425SOL     OW24736   4.214   0.441   7.670  0.0238 -0.0258 -0.2721
 4425SOL    HW124737   4.182   0.351   7.667 -0.5763  0.1321  1.4861
 4425SOL    HW224738   4.149   0.494   7.715 -1.1560 -0.2658 -1.6910
 4426SOL     OW24739   4.655   3.688  14.083 -0.1304 -0.4455 -0.2485
 4426SOL    HW124740   4.582   3.748  14.093 -0.0674 -0.9625  3.4566
 4426SOL    HW224741   0.006   3.749  14.074 -0.6482  0.2276  0.1132
 4427SOL     OW24742   1.730   1.935   5.465 -0.0181 -0.4843 -0.5337
 4427SOL    HW124743   1.782   1.976   5.396  1.2326  1.6100  1.6374
 4427SOL    HW224744   1.784   1.856   5.473  1.5299  0.5520 -0.6357
 4428SOL     OW24745   4.071   4.060   2.759  0.4197 -0.4433  0.6683
 4428SOL    HW124746   4.048   3.993   2.695  1.4721 -2.5227  2.4480
 4428SOL    HW224747   4.015   4.042   2.834  0.1571  0.1664  0.6134
 4429SOL     OW24748   2.689   2.876   6.896 -0.4314  0.0735 -0.7209
 4429SOL    HW124749   2.763   2.936   6.909 -0.1729 -0.2846 -0.5612
 4429SOL    HW224750   2.719   2.826   6.820  0.1183 -0.7381  0.0373
 4430SOL     OW24751   3.934   3.797   3.504  0.2817 -0.2069 -0.7279
 4430SOL    HW124752   3.994   3.795   3.579 -1.9612  0.8248  1.0743
 4430SOL    HW224753   3.865   3.739   3.536  1.0149 -0.6667  0.0434
 4431SOL     OW24754   3.853   1.986   4.395 -0.1051 -0.3389 -0.2222
 4431SOL    HW124755   3.794   2.061   4.393 -0.3250 -0.5321 -1.3413
 4431SOL    HW224756   3.786   1.926   4.359 -1.0158 -0.0398  0.9713
 4432SOL     OW24757   1.296   2.376   1.525 -0.0281  0.3104 -0.0247
 4432SOL    HW124758   1.214   2.422   1.507 -0.3091 -0.2078 -0.0567
 4432SOL    HW224759   1.321   2.357   1.435  0.3248  0.1199  0.1150
 4433SOL     OW24760   2.035   0.789  12.743  0.0775 -0.3854 -0.2341
 4433SOL    HW124761   1.980   0.841  12.685 -0.9834  1.2383  2.2287
 4433SOL    HW224762   2.013   0.828  12.828 -4.3764 -1.4348 -0.8845
 4434SOL     OW24763   1.399   3.174   8.673  0.8718 -0.1348  1.0235
 4434SOL    HW124764   1.443   3.092   8.650  0.7944  0.2927 -0.5989
 4434SOL    HW224765   1.353   3.146   8.753  0.0862  0.5551  0.8132
 4435SOL     OW24766   0.327   1.702   3.964  0.0323  0.0523  0.0502
 4435SOL    HW124767   0.254   1.649   3.933 -0.9782  2.1682 -1.1548
 4435SOL    HW224768   0.387   1.628   3.953 -0.5161 -0.4631  0.5687
 4436SOL     OW24769   0.051   4.098   5.405 -0.1059  0.0564 -0.5877
 4436SOL    HW124770   4.678   4.102   5.420  0.1274 -1.7381  1.4531
 4436SOL    HW224771   0.056   4.084   5.310  0.4074  0.7275 -0.6553
 4437SOL     OW24772   2.099   1.106   6.934  0.6142  0.2384  0.0317
 4437SOL    HW124773   2.084   1.196   6.904  1.6816  0.4552  0.1682
 4437SOL    HW224774   2.194   1.101   6.927  0.5447  0.1022 -0.8457
 4438SOL     OW24775   2.555   4.286  11.205 -0.5456  0.3276 -0.1433
 4438SOL    HW124776   2.596   4.366  11.239 -2.4540  2.2595 -2.4216
 4438SOL    HW224777   2.607   4.262  11.128 -1.5287 -1.7858 -0.1427
 4439SOL     OW24778   0.780   2.176  15.809  0.1873 -0.2302  0.0028
 4439SOL    HW124779   0.782   2.258  15.760 -0.9412  0.1737  0.6308
 4439SOL    HW224780   0.869   2.150  15.783  0.6744  0.8768  0.5942
 4440SOL     OW24781   3.588   2.350  16.753 -0.6434  0.7297 -0.5056
 4440SOL    HW124782   3.572   2.310  16.838 -2.2483 -1.9084 -2.0537
 4440SOL    HW224783   3.664   2.405  16.773  0.8808 -0.5510 -2.6608
 4441SOL     OW24784   0.084   0.084   6.414 -0.3572  0.1679  0.2820
 4441SOL    HW124785   0.057   0.174   6.434  1.7930  0.3496  2.4305
 4441SOL    HW224786   0.156   0.069   6.476  0.9164 -1.8026 -1.7081
 4442SOL     OW24787   3.398   3.588  10.915 -0.4094 -0.0443  0.1866
 4442SOL    HW124788   3.359   3.569  11.000 -0.0539 -0.1710  0.3228
 4442SOL    HW224789   3.397   3.504  10.870  1.5649  0.8849 -1.6247
 4443SOL     OW24790   3.310   2.719   5.208  0.2579 -0.1887  0.4217
 4443SOL    HW124791   3.219   2.736   5.186  0.1791  0.5435  1.2772
 4443SOL    HW224792   3.316   2.627   5.185 -1.2026 -0.5850  1.6352
 4444SOL     OW24793   0.809   1.496   8.051 -0.9904  0.0033 -0.4961
 4444SOL    HW124794   0.830   1.410   8.087  4.0076  2.0973  1.6397
 4444SOL    HW224795   0.721   1.504   8.088 -0.8092  1.2098 -0.3169
 4445SOL     OW24796   4.194   1.563   2.601 -0.1135  0.1704  0.2394
 4445SOL    HW124797   4.190   1.468   2.598 -0.2117  0.0872  3.1886
 4445SOL    HW224798   4.147   1.580   2.682  0.0782 -0.7965  0.5539
 4446SOL     OW24799   4.538   1.682   2.174  0.0718  0.5127  1.1116
 4446SOL    HW124800   4.527   1.735   2.254  0.5944  0.0120  1.5142
 4446SOL    HW224801   4.592   1.732   2.113 -0.6069 -2.7614 -2.1804
 4447SOL     OW24802   0.355   1.246   4.670  0.6136 -0.3837  0.0863
 4447SOL    HW124803   0.435   1.298   4.670  1.4545 -1.6820 -0.3833
 4447SOL    HW224804   0.370   1.176   4.606  2.9419 -0.0683  0.2980
 4448SOL     OW24805   2.640   1.910  10.633  0.1211  0.5153  0.3088
 4448SOL    HW124806   2.705   1.912  10.562  0.6082  0.5160  0.7513
 4448SOL    HW224807   2.551   1.920  10.600  0.2202  0.0315 -0.1059
 4449SOL     OW24808   1.494   4.207   3.183  0.3979 -0.3361 -0.0377
 4449SOL    HW124809   1.461   4.184   3.096  2.3702 -0.8154 -0.6591
 4449SOL    HW224810   1.436   4.279   3.207  0.0770 -0.4964 -0.3249
 4450SOL     OW24811   4.185   4.418   7.033  0.6705  0.4415 -0.1184
 4450SOL    HW124812   4.097   4.413   7.070  0.8396 -0.2435  0.1898
 4450SOL    HW224813   4.174   4.476   6.957 -0.0411  0.0690 -0.3014
 4451SOL     OW24814   1.934   3.452   0.843  0.5666 -0.2943  0.2331
 4451SOL    HW124815   1.871   3.523   0.834 -0.6107 -1.1424  1.5712
 4451SOL    HW224816   1.946   3.415   0.756 -1.6953 -0.2926 -0.0890
 4452SOL     OW24817   0.029   0.836   3.357 -1.0059 -0.0091  0.3660
 4452SOL    HW124818   0.002   0.748   3.384  2.4426 -1.3815 -0.6378
 4452SOL    HW224819   4.672   0.887   3.377 -0.2192  0.4679  2.2448
 4453SOL     OW24820   4.651   2.240   6.124 -0.0269  0.2086 -0.4533
 4453SOL    HW124821   4.664   2.226   6.030  1.8189  0.1988 -0.2098
 4453SOL    HW224822   0.019   2.219   6.152  0.7520  0.4944 -2.6846
 4454SOL     OW24823   3.416   4.476  16.155 -0.0745  0.0815  0.0519
 4454SOL    HW124824   3.432   4.451  16.064 -0.4306 -3.8095  1.0716
 4454SOL    HW224825   3.504   4.474  16.193 -0.0696  1.0722  0.1114
 4455SOL     OW24826   1.079   2.168   5.741  0.4736 -0.1885 -0.4488
 4455SOL    HW124827   1.093   2.167   5.647 -1.3471  0.7833 -0.7330
 4455SOL    HW224828   1.067   2.074   5.758 -0.3102  0.2110  1.2012
 4456SOL     OW24829   1.633   4.658  10.458 -0.3081 -0.9616  0.6057
 4456SOL    HW124830   1.594   4.574  10.484  1.5293 -1.2924  2.3078
 4456SOL    HW224831   1.566   4.710  10.502  0.5918  0.1894  0.6056
 4457SOL     OW24832   0.649   0.729   4.888  0.0888 -0.0798 -0.6328
 4457SOL    HW124833   0.670   0.669   4.960  1.0071 -1.7681 -2.3011
 4457SOL    HW224834   0.567   0.689   4.857  0.5330 -0.6056 -1.1335
 4458SOL     OW24835   0.370   0.012   6.322 -0.1635  0.4410  0.4149
 4458SOL    HW124836   0.418   0.094   6.318  1.7727 -0.7190 -0.1535
 4458SOL    HW224837   0.306   0.021   6.393 -1.0707  0.2574 -0.3803
 4459SOL     OW24838   1.115   3.249   7.087  0.7518 -0.0936 -0.1024
 4459SOL    HW124839   1.206   3.228   7.067  1.5597  0.4198  2.9250
 4459SOL    HW224840   1.083   3.159   7.084  1.0965 -0.2340  0.3709
 4460SOL     OW24841   1.453   1.295   2.837 -0.6239  0.0856 -0.7870
 4460SOL    HW124842   1.362   1.310   2.861 -0.2750  1.0927 -0.1204
 4460SOL    HW224843   1.431   1.224   2.776  0.5374 -0.6755 -0.3429
 4461SOL     OW24844   2.393   3.459   6.057  0.0599 -0.1607  0.4319
 4461SOL    HW124845   2.403   3.366   6.075  0.9678  0.0815  1.1752
 4461SOL    HW224846   2.384   3.492   6.146  0.1953 -0.8227  0.6897
 4462SOL     OW24847   2.589   4.543   1.448  0.3720 -0.3280 -0.2973
 4462SOL    HW124848   2.562   4.484   1.518  1.4020  0.4605  0.7666
 4462SOL    HW224849   2.656   4.596   1.491 -0.3360  1.4078 -1.3204
 4463SOL     OW24850   1.193   3.636   5.371  0.0735 -0.3812 -0.2018
 4463SOL    HW124851   1.258   3.573   5.342  1.8990  1.3844  0.0527
 4463SOL    HW224852   1.118   3.577   5.381  2.0229 -2.3034  2.9626
 4464SOL     OW24853   1.180   4.151   3.549  0.5358 -0.0821  0.3169
 4464SOL    HW124854   1.243   4.213   3.586 -0.6423  2.1381 -1.3586
 4464SOL    HW224855   1.167   4.183   3.460  0.1940 -1.1388 -0.0087
 4465SOL     OW24856   2.011   2.512   2.936 -0.7044 -0.1299  0.9297
 4465SOL    HW124857   2.009   2.525   2.841  1.4380  2.8799  1.3002
 4465SOL    HW224858   1.917   2.523   2.949 -0.8369 -0.0045 -0.1033
 4466SOL     OW24859   0.091   0.779   5.514 -0.4202 -0.0802  0.1511
 4466SOL    HW124860   0.183   0.756   5.526 -0.1579  0.8538 -0.0587
 4466SOL    HW224861   0.086   0.873   5.495  0.2480  0.1261  1.0084
 4467SOL     OW24862   3.841   4.020   7.728 -0.4282 -0.1262  0.6262
 4467SOL    HW124863   3.901   4.089   7.700 -2.5595  2.0869  1.4779
 4467SOL    HW224864   3.766   4.078   7.739 -1.3734 -0.9779 -1.3588
 4468SOL     OW24865   3.927   1.907   1.137 -0.5047  0.2524 -0.1665
 4468SOL    HW124866   3.947   1.994   1.170 -1.1535 -0.5846  2.3834
 4468SOL    HW224867   3.867   1.936   1.068 -0.8920 -0.6270 -0.2005
 4469SOL     OW24868   1.628   0.712  15.200  0.0453 -0.7232  0.1833
 4469SOL    HW124869   1.604   0.768  15.274 -2.3223  0.4337 -1.4579
 4469SOL    HW224870   1.547   0.704  15.149  0.8275  0.3749 -1.2139
 4470SOL     OW24871   0.177   4.296   6.244  0.1674  0.2495 -0.1987
 4470SOL    HW124872   0.232   4.338   6.310  1.4610 -4.1483  1.5169
 4470SOL    HW224873   0.105   4.356   6.225 -1.8060 -1.4382  2.0142
 4471SOL     OW24874   4.278   1.854   8.497  0.4926  0.7801  0.3868
 4471SOL    HW124875   4.256   1.939   8.534 -0.1202  0.6256  0.3830
 4471SOL    HW224876   4.201   1.799   8.508 -1.2787  3.6259  2.0495
 4472SOL     OW24877   3.329   2.314   8.662 -0.4159 -0.7589  0.5846
 4472SOL    HW124878   3.355   2.406   8.675  0.7492 -0.6576 -2.5800
 4472SOL    HW224879   3.324   2.285   8.753  0.4160 -0.2476  0.7992
 4473SOL     OW24880   0.283   3.885   6.359 -0.1965 -0.3107  0.3166
 4473SOL    HW124881   0.379   3.886   6.353 -0.2425 -1.7920 -0.7584
 4473SOL    HW224882   0.277   3.907   6.452  1.2189 -0.0531  0.3447
 4474SOL     OW24883   4.504   4.151   5.370 -0.0963  0.3111  0.2814
 4474SOL    HW124884   4.517   4.093   5.295  0.9277 -1.9230  2.1898
 4474SOL    HW224885   4.441   4.214   5.336 -1.4966 -0.6550  1.0958
 4475SOL     OW24886   1.217   0.677  14.181  0.2270  0.2966  0.3884
 4475SOL    HW124887   1.293   0.632  14.218 -0.3677  0.1386  1.4365
 4475SOL    HW224888   1.235   0.765  14.215 -0.1761 -0.0847  1.6059
 4476SOL     OW24889   1.824   0.629   2.327 -0.3353 -0.3060 -0.6398
 4476SOL    HW124890   1.774   0.577   2.265 -2.6234  0.0526  0.9195
 4476SOL    HW224891   1.905   0.646   2.279 -1.1032  0.0040 -1.8320
 4477SOL     OW24892   3.138   3.352   8.191  0.2436  0.2160 -0.0541
 4477SOL    HW124893   3.130   3.345   8.096 -3.0465 -0.8032  0.2742
 4477SOL    HW224894   3.230   3.329   8.203  0.1443 -0.3832 -0.4330
 4478SOL     OW24895   4.190   0.379  12.438  0.1522 -0.4440 -0.2462
 4478SOL    HW124896   4.217   0.291  12.414  0.7666 -1.1272  2.9195
 4478SOL    HW224897   4.260   0.438  12.411  1.5993 -1.4988  1.2124
 4479SOL     OW24898   0.899   3.188   7.638 -0.1550 -0.0129 -0.7570
 4479SOL    HW124899   0.990   3.214   7.651 -0.5495  0.5078  0.9144
 4479SOL    HW224900   0.854   3.198   7.722 -0.8679  0.6455 -1.2259
 4480SOL     OW24901   3.544   0.031   7.246  0.6482 -0.1453 -0.2007
 4480SOL    HW124902   3.609   0.098   7.269  1.3970 -1.0029  0.1678
 4480SOL    HW224903   3.503   0.091   7.182  0.1562 -1.4788 -1.1297
 4481SOL     OW24904   3.304   0.752  12.871 -0.0353  0.2736  0.2437
 4481SOL    HW124905   3.311   0.668  12.826  3.2038  0.1494  1.0142
 4481SOL    HW224906   3.250   0.801  12.808  0.0798 -0.8130 -0.7014
 4482SOL     OW24907   0.883   1.773  13.909 -0.1523  0.0089  0.2571
 4482SOL    HW124908   0.946   1.804  13.845  1.7677  0.4761  2.3603
 4482SOL    HW224909   0.825   1.848  13.925  0.7029  0.4384  1.3908
 4483SOL     OW24910   3.920   2.135   1.323  0.1704  0.1846  0.3907
 4483SOL    HW124911   3.836   2.158   1.363  1.5517  1.3677  2.6396
 4483SOL    HW224912   3.939   2.222   1.288 -0.6841  0.4976  0.7160
 4484SOL     OW24913   0.375   1.736   4.635 -0.1165 -0.8571  0.0196
 4484SOL    HW124914   0.399   1.829   4.631  0.8262 -1.0860  0.2977
 4484SOL    HW224915   0.402   1.706   4.548 -2.6968  2.6033 -1.9588
 4485SOL     OW24916   4.501   0.016  12.323  0.2067  0.3288 -0.0377
 4485SOL    HW124917   4.521   0.065  12.244 -2.8366  2.7339  0.6475
 4485SOL    HW224918   4.586   4.715  12.361 -0.4240 -1.3268  0.4005
 4486SOL     OW24919   3.236   4.218   3.997 -0.1657 -0.2707 -0.1784
 4486SOL    HW124920   3.185   4.279   3.943 -0.0789 -1.4508 -1.5693
 4486SOL    HW224921   3.167   4.199   4.061 -1.2076  2.5371 -0.4367
 4487SOL     OW24922   0.316   4.588   5.402  0.4728 -0.3343  0.1670
 4487SOL    HW124923   0.294   4.614   5.491 -2.2441 -2.4980  0.1245
 4487SOL    HW224924   0.310   4.492   5.401  2.4289 -0.4508 -2.2625
 4488SOL     OW24925   1.765   3.799   2.906  0.8022  0.1843 -0.5155
 4488SOL    HW124926   1.670   3.804   2.895  0.3922 -2.2032  1.9642
 4488SOL    HW224927   1.787   3.875   2.852  0.3315 -1.3615 -2.8825
 4489SOL     OW24928   0.151   1.952   9.413  0.3893  0.1664  0.0601
 4489SOL    HW124929   0.188   1.874   9.373  1.8251  1.6834 -1.5563
 4489SOL    HW224930   0.172   1.937   9.505  1.4792 -1.1935 -0.4126
 4490SOL     OW24931   4.066   2.188   7.583 -0.5158  0.0870 -0.4929
 4490SOL    HW124932   3.975   2.219   7.586 -0.5296  0.0491 -0.5250
 4490SOL    HW224933   4.054   2.108   7.532  1.4493 -0.2368 -0.4367
 4491SOL     OW24934   1.106   0.909  17.554 -0.5991 -0.5822 -0.3251
 4491SOL    HW124935   1.118   0.921  17.648 -0.4541 -1.0296 -0.2885
 4491SOL    HW224936   1.012   0.889  17.559 -0.3252 -1.3839  1.8425
 4492SOL     OW24937   3.976   1.508   9.274  0.4176  0.2805  0.3841
 4492SOL    HW124938   4.022   1.548   9.201  1.9586 -1.2155  0.5400
 4492SOL    HW224939   4.034   1.531   9.347  0.6241 -1.4816  0.7848
 4493SOL     OW24940   0.836   3.903  15.295 -0.4827 -0.1119  0.4531
 4493SOL    HW124941   0.842   3.876  15.386 -1.0223  2.0618  1.1211
 4493SOL    HW224942   0.843   3.999  15.293  1.2451 -0.2466 -0.5924
 4494SOL     OW24943   4.690   1.797   3.966 -0.3045 -0.4357  0.1630
 4494SOL    HW124944   4.693   1.892   3.976  0.2463 -0.4103 -0.2834
 4494SOL    HW224945   4.672   1.802   3.872 -1.2155 -0.8020  0.3179
 4495SOL     OW24946   3.859   4.092  12.526  0.7723 -0.1362 -0.3792
 4495SOL    HW124947   3.860   4.135  12.440  1.2032  2.6355  1.0142
 4495SOL    HW224948   3.767   4.070  12.529  1.0931 -1.1966  1.3292
 4496SOL     OW24949   3.673   1.798   9.040 -0.1666  0.0007 -0.4674
 4496SOL    HW124950   3.727   1.826   9.113  0.6000  1.1378 -1.4584
 4496SOL    HW224951   3.744   1.776   8.980  0.8296 -1.4793  1.2761
 4497SOL     OW24952   2.316   3.616  12.645 -0.4869 -0.1683  0.9346
 4497SOL    HW124953   2.351   3.537  12.686 -1.9213 -2.4044 -2.1726
 4497SOL    HW224954   2.371   3.686  12.680 -1.1985  0.0229  1.6921
 4498SOL     OW24955   3.199   2.632   3.271  0.3123  0.0714 -0.0344
 4498SOL    HW124956   3.291   2.657   3.276  0.8127 -2.1542  2.1955
 4498SOL    HW224957   3.210   2.550   3.222 -0.3146  0.5293 -0.9326
 4499SOL     OW24958   2.230   2.240  11.599 -0.0505  0.0470  0.3372
 4499SOL    HW124959   2.163   2.278  11.541 -1.3700 -0.3297  1.6193
 4499SOL    HW224960   2.288   2.312  11.622  1.2089 -0.5858 -0.8264
 4500SOL     OW24961   1.888   2.773   2.501  0.0196  0.1960  0.1352
 4500SOL    HW124962   1.859   2.864   2.492 -1.9899 -0.5558 -0.8016
 4500SOL    HW224963   1.818   2.723   2.542 -1.4848  0.0592 -2.6562
 4501SOL     OW24964   3.251   3.071   8.689  0.3693 -0.0899 -0.1250
 4501SOL    HW124965   3.252   2.983   8.726  0.0779  0.2611  0.7085
 4501SOL    HW224966   3.315   3.119   8.742 -0.3839 -0.2459  0.9177
 4502SOL     OW24967   2.132   1.304  15.757 -0.5234 -0.5574  0.0819
 4502SOL    HW124968   2.204   1.301  15.694 -1.7224  1.0502 -1.3610
 4502SOL    HW224969   2.087   1.385  15.731 -0.2006 -0.8019 -1.2518
 4503SOL     OW24970   3.501   3.808  13.317 -0.7002  0.3416  0.0490
 4503SOL    HW124971   3.413   3.772  13.323 -0.3300 -1.0102 -2.8140
 4503SOL    HW224972   3.508   3.839  13.408 -0.1229  4.0329 -1.2740
 4504SOL     OW24973   1.303   0.567  11.768 -0.1435 -0.0140  0.0566
 4504SOL    HW124974   1.279   0.612  11.686 -0.2642 -0.0569  0.0679
 4504SOL    HW224975   1.219   0.546  11.808  0.3206 -0.9039  0.5812
 4505SOL     OW24976   2.000   3.022   7.960  0.0376 -0.4939 -0.0322
 4505SOL    HW124977   1.962   3.023   8.048  0.7164  2.3867  0.2215
 4505SOL    HW224978   1.958   2.942   7.926  2.0040 -1.2228 -0.7568
 4506SOL     OW24979   3.332   1.940  11.246  0.7545  0.1086  0.2137
 4506SOL    HW124980   3.386   2.017  11.266 -0.2401  0.2140  2.4245
 4506SOL    HW224981   3.340   1.925  11.152 -1.4587  1.6658 -0.2135
 4507SOL     OW24982   0.749   1.618  15.522  0.3505  0.5545 -0.0992
 4507SOL    HW124983   0.690   1.635  15.449 -1.1542  0.8174  1.1920
 4507SOL    HW224984   0.710   1.670  15.592  0.8530 -0.3400  0.8518
 4508SOL     OW24985   1.120   2.830   4.391 -0.3857 -0.4852 -0.0533
 4508SOL    HW124986   1.167   2.802   4.469 -1.7776  1.6619  1.5558
 4508SOL    HW224987   1.109   2.922   4.414 -3.2991 -0.6379 -0.8244
 4509SOL     OW24988   4.635   2.582   6.699  0.2309  0.0988  0.5665
 4509SOL    HW124989   4.563   2.521   6.712 -1.5705  1.9882 -0.4513
 4509SOL    HW224990   4.648   2.609   6.790 -0.7822  0.6902  0.5408
 4510SOL     OW24991   0.028   2.475   1.992  0.0148 -0.1401  0.3505
 4510SOL    HW124992   0.089   2.546   2.014 -0.4789  0.2842  0.3595
 4510SOL    HW224993   4.671   2.524   2.018  0.1917 -0.1115  0.8251
 4511SOL     OW24994   1.924   1.310   5.569  0.0516 -0.1184 -0.5130
 4511SOL    HW124995   1.983   1.384   5.584 -2.1028  1.6600 -0.8561
 4511SOL    HW224996   1.953   1.249   5.637  0.7002 -0.4580 -1.0901
 4512SOL     OW24997   3.314   1.187   3.974  0.4692 -0.1389  0.1882
 4512SOL    HW124998   3.377   1.233   3.919  1.1922 -1.4926 -0.1096
 4512SOL    HW224999   3.247   1.255   3.982 -0.9273 -1.4209 -0.5281
 4513SOL     OW25000   4.175   4.435  11.231 -0.2264  0.1284  0.4373
 4513SOL    HW125001   4.237   4.469  11.294  1.1925  0.6009 -1.2261
 4513SOL    HW225002   4.183   4.494  11.156  0.3789  2.1256  2.0721
 4514SOL     OW25003   1.312   2.118   7.630  0.5125 -0.1241 -0.4691
 4514SOL    HW125004   1.352   2.156   7.553  0.1688 -1.0303 -1.0946
 4514SOL    HW225005   1.386   2.086   7.681 -0.0125 -0.1713  0.2695
 4515SOL     OW25006   0.191   3.454   4.844 -0.4338  0.0883  0.2623
 4515SOL    HW125007   0.203   3.474   4.937  1.6486 -0.3466  0.1053
 4515SOL    HW225008   0.235   3.370   4.833 -0.6590  0.3371 -2.4214
 4516SOL     OW25009   1.300   4.204  14.074 -0.0264 -0.2490  0.1822
 4516SOL    HW125010   1.247   4.127  14.052 -0.5019  0.3300 -0.7165
 4516SOL    HW225011   1.368   4.195  14.008  0.6894  0.2583  0.8632
 4517SOL     OW25012   2.967   1.919   7.223 -0.7514 -0.2502  0.5878
 4517SOL    HW125013   2.901   1.894   7.158 -0.1069  1.4647 -0.7318
 4517SOL    HW225014   2.993   2.005   7.189  0.5673 -1.5005 -1.5590
 4518SOL     OW25015   1.248   1.352   4.109 -0.3029  0.4664  0.2601
 4518SOL    HW125016   1.153   1.362   4.122 -0.1274  0.5862  1.4216
 4518SOL    HW225017   1.249   1.410   4.033  0.5142 -0.1118 -0.1609
 4519SOL     OW25018   3.406   3.371   8.269  0.3469 -0.5851  0.1790
 4519SOL    HW125019   3.380   3.394   8.359  0.7088  0.4084  0.0302
 4519SOL    HW225020   3.405   3.461   8.236 -1.3743  0.3654  2.8486
 4520SOL     OW25021   2.175   2.077   2.951  0.3505  0.2169 -0.0529
 4520SOL    HW125022   2.158   2.118   2.866  0.8278 -0.8869 -0.6660
 4520SOL    HW225023   2.118   2.001   2.942  0.0138  0.5210 -0.5407
 4521SOL     OW25024   4.636   1.235   7.091 -0.2087  0.0722  0.6914
 4521SOL    HW125025   4.576   1.166   7.064 -1.0581  0.7668  0.8108
 4521SOL    HW225026   4.651   1.240   7.185  0.3112  0.6966  0.5752
 4522SOL     OW25027   4.714   1.576   4.128 -0.4113  0.0711 -0.0112
 4522SOL    HW125028   0.080   1.546   4.105  0.3630  0.4657  2.4614
 4522SOL    HW225029   4.709   1.658   4.079 -2.0748 -0.4798 -0.7508
 4523SOL     OW25030   4.255   3.654  11.590  0.6567 -0.6342 -0.0437
 4523SOL    HW125031   4.312   3.726  11.616 -1.0304  0.3387  0.9710
 4523SOL    HW225032   4.275   3.668  11.498  2.6710  1.5159  0.7375
 4524SOL     OW25033   2.775   3.773  13.662  0.1999 -0.3002  0.1763
 4524SOL    HW125034   2.864   3.747  13.636 -0.1804 -0.5907 -0.8407
 4524SOL    HW225035   2.749   3.716  13.734  1.0175  0.0532  0.7612
 4525SOL     OW25036   3.453   3.072   2.727 -0.2227 -0.3528  0.8524
 4525SOL    HW125037   3.460   2.993   2.781  2.0233  0.6642  2.0710
 4525SOL    HW225038   3.541   3.072   2.689 -0.9953 -0.9431 -0.9194
 4526SOL     OW25039   0.591   4.186   4.383 -0.1041 -0.0552  0.0945
 4526SOL    HW125040   0.636   4.245   4.323  1.8797  0.0786  1.6995
 4526SOL    HW225041   0.581   4.108   4.328  2.6037 -0.5358  0.2668
 4527SOL     OW25042   2.325   1.252  17.293 -0.0958  0.1625 -0.2646
 4527SOL    HW125043   2.235   1.236  17.324  0.1604 -0.6739  0.0429
 4527SOL    HW225044   2.351   1.163  17.317 -0.4611  0.6472  1.9043
 4528SOL     OW25045   2.100   1.301  14.527 -0.5983 -0.2737  0.0539
 4528SOL    HW125046   2.124   1.363  14.458  0.5751  1.2996  1.8687
 4528SOL    HW225047   2.180   1.313  14.577 -0.0595 -1.0298 -0.6284
 4529SOL     OW25048   0.222   2.727   7.006  0.2649  0.3982  0.2212
 4529SOL    HW125049   0.207   2.705   7.097 -2.0948 -0.6287 -0.4273
 4529SOL    HW225050   0.247   2.643   6.966  0.5523  0.2061  0.8079
 4530SOL     OW25051   3.540   3.220   5.503 -0.3836  0.2683  0.3116
 4530SOL    HW125052   3.520   3.313   5.516  1.6121  0.6607  0.7289
 4530SOL    HW225053   3.602   3.217   5.430 -2.2204  2.2861 -1.3244
 4531SOL     OW25054   3.535   4.412   3.751  0.5399 -0.4272 -0.4525
 4531SOL    HW125055   3.626   4.428   3.726  1.0146 -4.2850 -1.3270
 4531SOL    HW225056   3.485   4.412   3.669 -1.2083 -1.2935  0.6033
 4532SOL     OW25057   0.272   2.479  11.334 -0.0902  0.4104 -0.4311
 4532SOL    HW125058   0.195   2.532  11.354 -0.2622  0.7070 -1.9041
 4532SOL    HW225059   0.258   2.400  11.386 -0.6095  1.1708  0.5842
 4533SOL     OW25060   4.567   2.228   3.683 -0.0120 -0.6107 -0.2837
 4533SOL    HW125061   4.513   2.173   3.739 -4.2196  0.0593 -3.6837
 4533SOL    HW225062   4.499   2.280   3.641  0.4463  1.1190  1.1378
 4534SOL     OW25063   3.244   0.569   7.886 -0.5911  0.1252 -0.0911
 4534SOL    HW125064   3.259   0.477   7.909  2.9508  1.1292  1.6904
 4534SOL    HW225065   3.161   0.587   7.929 -1.1201 -0.7039 -0.7670
 4535SOL     OW25066   0.616   3.932   1.322  0.3594  0.2855  0.4701
 4535SOL    HW125067   0.544   3.993   1.339 -0.8866 -0.5363 -1.8407
 4535SOL    HW225068   0.580   3.861   1.374  1.1229  0.5306  1.3399
 4536SOL     OW25069   0.695   2.881  11.018 -0.7646  0.2517 -0.5161
 4536SOL    HW125070   0.761   2.856  11.083 -0.4526  0.9704 -0.5533
 4536SOL    HW225071   0.638   2.931  11.077  0.7601 -1.3671  2.3213
 4537SOL     OW25072   2.615   3.943  12.343  0.0965 -0.2327 -0.1660
 4537SOL    HW125073   2.661   3.965  12.262 -0.9687 -0.3186 -0.7928
 4537SOL    HW225074   2.613   3.850  12.319 -1.2048 -0.9266  2.5848
 4538SOL     OW25075   3.029   1.858   4.561  0.1060  0.4810  0.4610
 4538SOL    HW125076   2.982   1.777   4.580  1.7892 -0.3404  1.0789
 4538SOL    HW225077   2.970   1.893   4.494  1.8913 -0.2428 -1.4758
 4539SOL     OW25078   2.046   2.233   6.509  0.5618  0.0581  0.5697
 4539SOL    HW125079   2.124   2.199   6.552  0.3176 -0.8594  0.2759
 4539SOL    HW225080   2.082   2.297   6.448 -0.8013 -0.8955 -1.2292
 4540SOL     OW25081   2.614   0.012   9.037 -0.0126  0.5294  0.1907
 4540SOL    HW125082   2.549   0.082   9.027  0.0321  0.5979  0.3737
 4540SOL    HW225083   2.570   4.677   9.101  0.4050 -1.3588 -1.2095
 4541SOL     OW25084   3.189   2.043   7.743  0.0018  0.0757  0.2268
 4541SOL    HW125085   3.097   2.053   7.721  0.0131 -1.6559 -0.5902
 4541SOL    HW225086   3.192   1.991   7.823  0.5605 -0.4173 -0.1089
 4542SOL     OW25087   3.503   1.227   3.366 -0.6301 -0.1221  0.1050
 4542SOL    HW125088   3.496   1.274   3.283  0.2023  1.1822  0.7735
 4542SOL    HW225089   3.594   1.245   3.389  0.7512 -4.2705 -2.0336
 4543SOL     OW25090   3.971   0.664   9.852 -0.2208 -0.0666 -0.0340
 4543SOL    HW125091   4.063   0.681   9.832  0.4363 -0.5369  2.6147
 4543SOL    HW225092   3.953   0.615   9.772  1.5682 -0.1614 -0.3584
 4544SOL     OW25093   0.378   0.187  15.066 -0.2296  0.1713 -0.1023
 4544SOL    HW125094   0.329   0.110  15.093 -0.3729  0.2914 -0.0187
 4544SOL    HW225095   0.420   0.159  14.984  0.4243  2.6656 -0.6312
 4545SOL     OW25096   2.666   3.332   7.558  0.5439 -0.3312  0.0142
 4545SOL    HW125097   2.687   3.239   7.560  0.2951 -0.3723  0.7119
 4545SOL    HW225098   2.754   3.370   7.562  0.8235 -0.8317 -1.6323
 4546SOL     OW25099   2.746   1.135   7.812 -0.5262  0.2694  0.1908
 4546SOL    HW125100   2.739   1.046   7.848  0.8780 -0.2631 -0.8517
 4546SOL    HW225101   2.808   1.121   7.740 -0.1779 -2.2696  0.9762
 4547SOL     OW25102   4.652   0.280   9.487  0.0719  0.0729 -0.5154
 4547SOL    HW125103   4.583   0.235   9.438 -1.1136  0.8555  0.4263
 4547SOL    HW225104   4.641   0.245   9.576 -1.1216  0.1601 -0.6310
 4548SOL     OW25105   2.165   2.330  12.602 -0.6114 -0.0135  0.6204
 4548SOL    HW125106   2.238   2.390  12.590  1.6958 -2.7589  1.0231
 4548SOL    HW225107   2.174   2.261  12.537 -3.2885 -0.2782  0.5222
 4549SOL     OW25108   2.496   0.498  13.625  0.0828 -0.1770 -0.0560
 4549SOL    HW125109   2.563   0.454  13.574  1.8102  0.1535  1.9719
 4549SOL    HW225110   2.542   0.576  13.656 -0.6435  0.5809 -0.8611
 4550SOL     OW25111   3.141   0.088   1.365  0.4849  0.1773  0.0830
 4550SOL    HW125112   3.184   0.151   1.422  0.4745  0.7466 -0.5334
 4550SOL    HW225113   3.210   0.033   1.328  2.5292  3.7421 -1.3622
 4551SOL     OW25114   0.244   0.144   9.145 -0.9760 -0.0123 -0.3050
 4551SOL    HW125115   0.336   0.135   9.123 -0.9133 -1.5613  0.6424
 4551SOL    HW225116   0.202   0.060   9.126 -2.8468  0.8600 -0.1053
 4552SOL     OW25117   1.078   2.679   6.315  0.0951  0.4775 -0.0283
 4552SOL    HW125118   1.079   2.749   6.250 -2.0803  0.7957  0.2887
 4552SOL    HW225119   0.985   2.656   6.324 -0.0689  0.3685 -1.9667
 4553SOL     OW25120   4.039   4.248   8.077 -0.3674  0.8595  0.5852
 4553SOL    HW125121   3.968   4.198   8.117  1.0015  0.5601  2.6045
 4553SOL    HW225122   4.115   4.220   8.128  2.0840  2.5109 -2.1547
 4554SOL     OW25123   1.180   2.364  11.349  0.0532 -0.1824  1.1503
 4554SOL    HW125124   1.108   2.395  11.405 -1.1407 -1.7590  0.4643
 4554SOL    HW225125   1.169   2.270  11.361  1.3819 -0.1976  2.2039
 4555SOL     OW25126   1.548   2.618  11.310 -0.0294 -0.0915 -0.4163
 4555SOL    HW125127   1.584   2.592  11.226  2.3982  0.7954  0.3573
 4555SOL    HW225128   1.548   2.532  11.354  0.5558 -0.3683 -0.9560
 4556SOL     OW25129   0.860   0.765   2.511 -0.2700  0.5913  0.9388
 4556SOL    HW125130   0.954   0.768   2.492 -0.0907 -2.4606  1.3802
 4556SOL    HW225131   0.854   0.854   2.545  1.2857  1.6115 -1.4308
 4557SOL     OW25132   3.223   2.221   6.118 -0.3210 -0.3907 -0.4134
 4557SOL    HW125133   3.152   2.158   6.103 -0.9867 -0.1468  1.7014
 4557SOL    HW225134   3.283   2.163   6.164  1.2103  1.2639 -0.3557
 4558SOL     OW25135   4.595   0.090   8.213  0.2274  0.0039 -0.1222
 4558SOL    HW125136   4.596   0.147   8.136  0.7458 -2.1695 -1.7065
 4558SOL    HW225137   4.654   0.137   8.272  0.2512  0.2121 -0.3084
 4559SOL     OW25138   1.446   3.451   8.193  0.2255  0.1121 -0.3628
 4559SOL    HW125139   1.454   3.508   8.270 -0.8361  0.5607 -0.5763
 4559SOL    HW225140   1.455   3.364   8.232 -2.9259 -1.3615 -2.9603
 4560SOL     OW25141   0.350   3.810   0.107  0.2956 -0.7686  0.0341
 4560SOL    HW125142   0.277   3.868   0.129  0.8484  1.1075 -3.2024
 4560SOL    HW225143   0.361   3.769   0.193  1.5844  0.3620  0.4046
 4561SOL     OW25144   2.481   2.300   5.082  0.2558  0.4233  0.0215
 4561SOL    HW125145   2.447   2.347   5.159  3.0431 -0.8868  2.0533
 4561SOL    HW225146   2.576   2.301   5.088  0.4125 -0.2820 -2.3696
 4562SOL     OW25147   2.480   4.616   2.027  0.2265 -0.0906  0.4550
 4562SOL    HW125148   2.498   4.705   1.997 -2.6079  0.3682  0.1167
 4562SOL    HW225149   2.569   4.580   2.022 -0.1680 -1.2031  1.2445
 4563SOL     OW25150   2.442   1.843   4.592 -0.6548  0.1928 -0.0498
 4563SOL    HW125151   2.451   1.751   4.568 -1.8872  0.3040 -0.9684
 4563SOL    HW225152   2.500   1.851   4.668  1.3693  0.3409 -1.6261
 4564SOL     OW25153   2.361   2.398   3.288  0.6982 -0.4006  0.3561
 4564SOL    HW125154   2.319   2.469   3.240  0.7046 -1.0511 -0.6112
 4564SOL    HW225155   2.441   2.433   3.327  1.0082 -0.1670 -0.4776
 4565SOL     OW25156   3.762   2.186   0.564  0.0051 -0.1278  0.1692
 4565SOL    HW125157   3.683   2.137   0.543 -0.3915  0.0037  1.3445
 4565SOL    HW225158   3.756   2.177   0.659  1.3675  2.9684  0.5573
 4566SOL     OW25159   0.020   1.229  12.073  0.0657 -0.1277  0.1728
 4566SOL    HW125160   0.106   1.264  12.049  1.1566 -0.6516  3.2700
 4566SOL    HW225161   4.693   1.308  12.095 -1.6661 -1.0269 -0.4264
 4567SOL     OW25162   0.799   3.557   3.798  0.4591  0.1153 -0.3096
 4567SOL    HW125163   0.782   3.462   3.798  0.5518  0.1003 -0.5497
 4567SOL    HW225164   0.822   3.577   3.708  1.5581 -1.4849 -0.3844
 4568SOL     OW25165   0.321   0.039   4.471 -0.2622 -0.5451 -0.1190
 4568SOL    HW125166   0.324   0.083   4.386  1.5911  1.6656  1.0983
 4568SOL    HW225167   0.226   0.033   4.470 -0.4356  2.8073 -1.0393
 4569SOL     OW25168   0.903   1.331   7.529  0.3568  0.0768  0.3646
 4569SOL    HW125169   0.926   1.254   7.477 -0.8155 -0.7222  1.0369
 4569SOL    HW225170   0.852   1.376   7.462  1.4408 -0.0786 -0.5715
 4570SOL     OW25171   4.302   3.597   8.230  0.8937 -0.4350  0.1790
 4570SOL    HW125172   4.278   3.641   8.148 -0.4963 -1.7790 -0.1441
 4570SOL    HW225173   4.220   3.553   8.252 -0.1049  0.7270 -1.2021
 4571SOL     OW25174   0.606   0.959   6.568 -0.0126 -0.5438 -0.3674
 4571SOL    HW125175   0.637   0.898   6.635  0.8066  1.6232  1.2285
 4571SOL    HW225176   0.641   1.044   6.593 -2.2518 -0.5589  2.9092
 4572SOL     OW25177   2.887   3.555  16.742 -0.4813 -0.1554 -0.4110
 4572SOL    HW125178   2.835   3.633  16.722 -0.4628 -0.0966 -0.2355
 4572SOL    HW225179   2.842   3.487  16.692 -2.6995  1.9594 -1.2919
 4573SOL     OW25180   2.807   0.513   7.649  0.3103  0.2430  0.3178
 4573SOL    HW125181   2.816   0.431   7.697 -2.0249 -1.1374 -1.5893
 4573SOL    HW225182   2.870   0.501   7.578  0.6066 -0.7374  0.7559
 4574SOL     OW25183   0.924   4.540   5.099 -0.0919  0.0060 -0.3469
 4574SOL    HW125184   1.010   4.579   5.111 -0.7843  0.8318  1.9895
 4574SOL    HW225185   0.938   4.455   5.142  0.7378  0.4097  0.1725
 4575SOL     OW25186   0.394   0.646   3.859  0.3365 -0.8384 -0.2230
 4575SOL    HW125187   0.385   0.687   3.945  1.2478 -1.4972  0.1886
 4575SOL    HW225188   0.343   0.712   3.813  2.5336  1.6976  1.0020
 4576SOL     OW25189   3.701   2.033   5.556 -0.5480  0.3469 -0.1879
 4576SOL    HW125190   3.796   2.041   5.544 -0.1489 -1.9044  1.5423
 4576SOL    HW225191   3.700   1.958   5.615  0.9526 -0.4060 -1.1088
 4577SOL     OW25192   4.002   0.053   7.131  0.2186  0.2491 -0.1582
 4577SOL    HW125193   3.989   4.690   7.090 -1.8946  0.9116 -0.8601
 4577SOL    HW225194   3.956   0.111   7.070 -0.2681 -2.2036 -2.0789
 4578SOL     OW25195   2.308   0.974   0.642  0.0815 -0.3829 -0.2088
 4578SOL    HW125196   2.301   0.907   0.575  0.6652 -1.5590  0.9016
 4578SOL    HW225197   2.305   0.922   0.723 -2.3423 -0.7547 -0.5344
 4579SOL     OW25198   1.717   1.630  10.208  0.3809  0.2377  0.0669
 4579SOL    HW125199   1.742   1.722  10.202 -0.9481  0.8112  3.3222
 4579SOL    HW225200   1.750   1.577  10.135  0.5994 -1.5873  1.4946
 4580SOL     OW25201   0.866   3.601   3.110 -0.0826  0.3141 -0.2246
 4580SOL    HW125202   0.778   3.609   3.145  0.2928 -1.5435  1.1582
 4580SOL    HW225203   0.841   3.591   3.018 -0.2769 -2.6465  0.1367
 4581SOL     OW25204   1.809   0.872   8.183  0.6853 -0.0492  0.0305
 4581SOL    HW125205   1.802   0.777   8.189  0.2463  0.1288  2.1687
 4581SOL    HW225206   1.844   0.868   8.094  1.4219  1.9935  0.2180
 4582SOL     OW25207   4.338   0.186  14.052 -0.2213  0.7733 -1.1646
 4582SOL    HW125208   4.271   0.118  14.057 -0.0222  0.8496  2.6819
 4582SOL    HW225209   4.305   0.232  13.975  3.5480  1.1637 -2.5856
 4583SOL     OW25210   0.852   1.721  12.113  1.1306  0.3271  0.6281
 4583SOL    HW125211   0.887   1.797  12.066 -0.2558  0.7421  0.2696
 4583SOL    HW225212   0.817   1.760  12.193 -0.2743 -0.3496  0.3353
 4584SOL     OW25213   4.105   0.948   5.823  0.0385  0.1729  0.0790
 4584SOL    HW125214   4.023   0.958   5.872  0.4066  1.5013  0.4088
 4584SOL    HW225215   4.132   1.038   5.807 -1.9276  0.6138 -0.7753
 4585SOL     OW25216   4.303   3.709   6.319 -0.0085 -0.0561 -0.2294
 4585SOL    HW125217   4.228   3.655   6.294 -1.3099  0.9424  1.4768
 4585SOL    HW225218   4.315   3.766   6.244 -0.9980 -0.2866 -0.5596
 4586SOL     OW25219   1.350   1.715   2.859  0.1164  0.4756  0.1811
 4586SOL    HW125220   1.264   1.720   2.819 -0.1929 -2.7211  0.4379
 4586SOL    HW225221   1.387   1.800   2.836  0.4811 -0.2828 -2.0013
 4587SOL     OW25222   1.062   1.953   7.060  0.0282  0.0062  0.2559
 4587SOL    HW125223   1.107   2.023   7.107  0.5851 -1.5429  2.0258
 4587SOL    HW225224   0.974   1.987   7.046 -0.6766 -1.7202  0.4706
 4588SOL     OW25225   2.469   3.118  15.388  0.2500 -0.4623  0.5378
 4588SOL    HW125226   2.445   3.055  15.456 -0.8731 -0.4148  0.1694
 4588SOL    HW225227   2.441   3.199  15.431 -1.3513 -0.6870 -0.0826
 4589SOL     OW25228   2.593   0.496   5.570 -0.0271 -0.5245 -0.1474
 4589SOL    HW125229   2.624   0.407   5.554  0.8498 -0.1740 -0.4218
 4589SOL    HW225230   2.544   0.515   5.490  1.6302  1.1257 -0.7815
 4590SOL     OW25231   3.344   1.886   1.393  0.0596 -0.2405  0.5230
 4590SOL    HW125232   3.263   1.836   1.387  0.2186 -0.3565 -0.6360
 4590SOL    HW225233   3.400   1.822   1.438  1.2361  1.2475  1.1778
 4591SOL     OW25234   3.275   1.010   2.587  0.4057 -0.4757  0.5135
 4591SOL    HW125235   3.232   1.059   2.517  1.4368 -0.2707  0.0277
 4591SOL    HW225236   3.306   0.929   2.547 -0.3321 -0.5500  0.0910
 4592SOL     OW25237   2.816   2.113   5.783  0.7285  0.2529 -0.0313
 4592SOL    HW125238   2.862   2.186   5.824 -1.2652  0.0808  2.4822
 4592SOL    HW225239   2.881   2.060   5.736  2.1680  0.3638  1.8035
 4593SOL     OW25240   2.757   0.993   3.212 -0.2675 -0.2139 -0.2316
 4593SOL    HW125241   2.742   0.935   3.137 -1.5726  1.1447 -1.0398
 4593SOL    HW225242   2.836   0.956   3.251 -0.0819 -0.3020 -0.6867
 4594SOL     OW25243   4.477   4.602  15.182 -0.0777  0.3592 -0.5176
 4594SOL    HW125244   4.436   4.651  15.254 -1.4010 -0.2308 -0.8645
 4594SOL    HW225245   4.414   4.543  15.141  0.5336 -1.5219  1.2052
 4595SOL     OW25246   4.523   3.908   7.008  0.0491 -0.3344  0.6795
 4595SOL    HW125247   4.606   3.947   6.983  0.8232 -2.6871 -0.4414
 4595SOL    HW225248   4.514   3.949   7.094  0.4288  1.1742  0.0022
 4596SOL     OW25249   1.726   0.743  17.058  0.2258 -0.4097  0.3123
 4596SOL    HW125250   1.665   0.669  17.049 -0.1358 -0.3613  2.3603
 4596SOL    HW225251   1.693   0.809  16.997 -1.1611 -0.3655  1.1165
 4597SOL     OW25252   2.233   2.202   0.944  0.1029 -0.1214  0.5500
 4597SOL    HW125253   2.277   2.241   0.869  0.4990 -0.6881  0.4912
 4597SOL    HW225254   2.302   2.183   1.008  0.9816 -1.6708 -0.8741
 4598SOL     OW25255   3.177   2.934  15.406 -0.1189  0.6069 -0.3762
 4598SOL    HW125256   3.267   2.926  15.439 -1.5187  0.2628  3.3145
 4598SOL    HW225257   3.178   3.028  15.385  0.4698  0.5857 -0.4449
 4599SOL     OW25258   2.351   0.892   3.450  0.3187  0.1006  0.0511
 4599SOL    HW125259   2.381   0.870   3.361  0.9121  0.7160  0.0946
 4599SOL    HW225260   2.257   0.896   3.432  0.2436 -0.7047  0.3000
 4600SOL     OW25261   1.194   0.100  10.693 -0.2105 -0.6423  0.3424
 4600SOL    HW125262   1.237   0.185  10.683 -0.9264 -0.3859 -0.5930
 4600SOL    HW225263   1.147   0.112  10.776  0.0674  3.6621 -0.1455
 4601SOL     OW25264   4.372   3.651   7.820  0.3207  0.1527  0.0504
 4601SOL    HW125265   4.354   3.744   7.831  2.4755  0.4350  1.2844
 4601SOL    HW225266   4.297   3.614   7.867  0.1000 -0.7771 -1.0303
 4602SOL     OW25267   2.168   2.413  13.825 -0.0842 -0.0768  0.0247
 4602SOL    HW125268   2.227   2.417  13.900 -0.0316  0.1501 -0.0280
 4602SOL    HW225269   2.157   2.324  13.793 -1.1664  0.0240  0.1228
 4603SOL     OW25270   1.767   1.966   6.606  0.3208 -0.0125  0.8438
 4603SOL    HW125271   1.759   2.029   6.534 -0.9954 -0.7311  0.3504
 4603SOL    HW225272   1.822   2.021   6.662  0.7738  0.7582 -0.3530
 4604SOL     OW25273   1.173   3.213   6.437 -0.1370 -0.3815 -0.5791
 4604SOL    HW125274   1.140   3.300   6.459 -1.2472 -1.5040  2.1440
 4604SOL    HW225275   1.107   3.182   6.375 -0.4258 -2.5798  0.8695
 4605SOL     OW25276   2.958   0.852   5.098  0.4295  0.3582 -0.4378
 4605SOL    HW125277   2.906   0.899   5.163 -1.6185 -2.2119 -0.2198
 4605SOL    HW225278   3.037   0.830   5.146  0.4542  1.9834  0.2506
 4606SOL     OW25279   3.881   3.311   7.577  0.0739 -0.0117  0.0614
 4606SOL    HW125280   3.793   3.336   7.604 -0.7933 -2.1890 -0.7670
 4606SOL    HW225281   3.938   3.344   7.647  0.0935 -0.0436  0.0608
 4607SOL     OW25282   2.759   3.029  14.987 -0.3581  0.3720 -0.3523
 4607SOL    HW125283   2.676   3.010  15.028  0.4003 -0.1658  0.9214
 4607SOL    HW225284   2.814   2.957  15.017  1.0062  1.4029 -0.3532
 4608SOL     OW25285   3.199   1.852  10.420 -0.2586  0.2123  0.0965
 4608SOL    HW125286   3.171   1.764  10.445 -0.3025  0.0747 -0.4408
 4608SOL    HW225287   3.110   1.876  10.396  0.6918  0.1457 -3.4882
 4609SOL     OW25288   1.328   1.247   7.710  0.7370 -0.0965  0.1611
 4609SOL    HW125289   1.249   1.208   7.673  1.3463 -1.4246  0.2467
 4609SOL    HW225290   1.378   1.184   7.763  2.8579  0.4236 -1.1947
 4610SOL     OW25291   3.560   1.819  10.374 -0.1550  0.1681  0.5034
 4610SOL    HW125292   3.595   1.868  10.448  1.1624 -2.6086  1.7319
 4610SOL    HW225293   3.618   1.838  10.299 -1.0542 -1.8015 -0.6939
 4611SOL     OW25294   2.734   4.004  15.812 -0.6051  0.1605  0.7687
 4611SOL    HW125295   2.746   4.097  15.830  0.2244 -0.0698  1.4204
 4611SOL    HW225296   2.820   3.965  15.828  0.5541  1.5350 -2.2248
 4612SOL     OW25297   2.293   4.119  11.983  1.0208  0.2350 -0.0408
 4612SOL    HW125298   2.305   4.092  12.074  0.8958  2.2989  0.5867
 4612SOL    HW225299   2.372   4.086  11.941 -0.3769 -0.8213 -1.8444
 4613SOL     OW25300   0.301   2.610   1.331 -0.0813  0.5814 -0.1583
 4613SOL    HW125301   0.290   2.550   1.257 -2.4600  1.2486 -0.3346
 4613SOL    HW225302   0.239   2.561   1.384 -1.0096  2.1112  0.1788
 4614SOL     OW25303   0.845   4.462   2.259 -0.5509 -0.1202  0.2131
 4614SOL    HW125304   0.842   4.537   2.318 -1.3367  0.1343 -0.1479
 4614SOL    HW225305   0.754   4.434   2.262 -0.2115 -1.3266 -0.6936
 4615SOL     OW25306   4.618   0.335  10.919 -0.0586  0.1392 -0.1099
 4615SOL    HW125307   4.630   0.240  10.924 -2.1038 -0.0232  1.6876
 4615SOL    HW225308   4.710   0.355  10.933  0.1123  0.7667 -2.1314
 4616SOL     OW25309   3.590   1.007   5.086  0.5021  0.1036  0.2910
 4616SOL    HW125310   3.577   1.091   5.130 -1.2595  1.1064 -2.1572
 4616SOL    HW225311   3.618   1.028   4.997 -1.5991  1.4343 -0.0557
 4617SOL     OW25312   0.065   2.539   2.736 -0.0771 -0.1816  0.4398
 4617SOL    HW125313   0.062   2.481   2.812 -3.2650 -1.8009 -0.9179
 4617SOL    HW225314   0.084   2.618   2.787  4.9351 -0.4027 -1.0885
 4618SOL     OW25315   0.412   3.493   7.955 -0.2249  0.4746  0.4101
 4618SOL    HW125316   0.356   3.566   7.933 -0.0445  0.1837 -0.9948
 4618SOL    HW225317   0.365   3.459   8.031 -0.2318 -1.1766 -0.3270
 4619SOL     OW25318   3.149   4.486   7.885  0.2430 -0.4112  0.0839
 4619SOL    HW125319   3.241   4.465   7.870  0.6986  1.5832  0.0784
 4619SOL    HW225320   3.132   4.516   7.796  3.0705 -2.9505 -1.3127
 4620SOL     OW25321   3.128   4.449   8.738  0.1076  0.4836  1.0068
 4620SOL    HW125322   3.184   4.505   8.791 -0.1030  0.3784  1.3440
 4620SOL    HW225323   3.051   4.447   8.795  0.1418 -0.3870  1.0252
 4621SOL     OW25324   2.024   1.987   7.725  0.3646  0.3354  0.0958
 4621SOL    HW125325   2.024   2.081   7.706 -1.2206  0.3652  0.2260
 4621SOL    HW225326   2.115   1.965   7.708  0.5305  1.6451 -0.7695
 4622SOL     OW25327   4.243   2.273   2.426  0.5518  0.6303 -0.0992
 4622SOL    HW125328   4.277   2.243   2.510  1.0075  0.0399 -0.4899
 4622SOL    HW225329   4.233   2.366   2.444 -2.4488 -0.1759  2.3833
 4623SOL     OW25330   0.377   3.565   0.739  0.3135  0.2076  0.3662
 4623SOL    HW125331   0.460   3.523   0.717 -0.2269  0.4431 -2.1796
 4623SOL    HW225332   0.388   3.595   0.829  1.9095 -0.2887  0.3374
 4624SOL     OW25333   1.764   3.246   4.389 -0.1410  0.4413  0.0336
 4624SOL    HW125334   1.732   3.327   4.349 -1.7119 -0.8269 -1.2497
 4624SOL    HW225335   1.704   3.188   4.342 -1.4802  1.1994  0.7910
 4625SOL     OW25336   4.644   1.063   8.448  0.2988  0.4712 -0.6558
 4625SOL    HW125337   4.625   1.143   8.400 -1.2285  0.6083  0.1924
 4625SOL    HW225338   4.571   1.060   8.510  1.5537  1.6861  0.8482
 4626SOL     OW25339   1.115   2.246  15.477  0.5741 -0.2518  0.0547
 4626SOL    HW125340   1.141   2.338  15.478  1.3780 -0.5016  2.9149
 4626SOL    HW225341   1.192   2.197  15.446  1.0494 -0.5723  1.7343
 4627SOL     OW25342   4.436   0.995   5.716 -0.3188  0.0344 -0.0963
 4627SOL    HW125343   4.415   1.085   5.740 -0.3986  0.5460 -2.1332
 4627SOL    HW225344   4.492   0.969   5.790 -0.2039  0.9172  0.1292
 4628SOL     OW25345   2.045   4.013   1.777 -0.0201  0.6998  0.7170
 4628SOL    HW125346   2.098   4.026   1.856  1.2824 -0.3310  0.0349
 4628SOL    HW225347   2.090   4.076   1.721 -0.4847  0.1221 -0.2990
 4629SOL     OW25348   3.853   2.029  12.173 -0.2385  0.4856 -0.3921
 4629SOL    HW125349   3.848   1.944  12.217  1.3149  1.9706  2.6746
 4629SOL    HW225350   3.946   2.036  12.153 -0.2024  2.3708  0.4220
 4630SOL     OW25351   3.374   0.363   4.774  1.1301  0.3674 -0.3735
 4630SOL    HW125352   3.457   0.406   4.753  1.1072  0.2955 -0.6101
 4630SOL    HW225353   3.376   0.348   4.868 -0.2002  0.7835 -0.2774
 4631SOL     OW25354   1.235   2.742   4.621  0.0198 -0.0253  0.0461
 4631SOL    HW125355   1.189   2.740   4.705  0.6863  0.8478  0.4382
 4631SOL    HW225356   1.282   2.659   4.620 -1.1085 -0.6381 -1.2964
 4632SOL     OW25357   0.235   2.381  16.890 -0.2330 -0.2226 -0.3178
 4632SOL    HW125358   0.180   2.454  16.860 -0.8352 -0.2929  0.6193
 4632SOL    HW225359   0.315   2.419  16.854 -1.0315 -0.2425 -2.1133
 4633SOL     OW25360   2.271   1.597   7.901 -0.4720 -0.4662  0.9738
 4633SOL    HW125361   2.186   1.630   7.874  0.3625  0.0107 -1.0547
 4633SOL    HW225362   2.277   1.640   7.987 -0.6138  0.0991  0.6976
 4634SOL     OW25363   1.071   3.450   6.514  0.3396  0.4557 -0.7762
 4634SOL    HW125364   0.999   3.506   6.543  0.0902 -0.8994  1.2085
 4634SOL    HW225365   1.087   3.412   6.600  1.9017 -0.5744 -1.5184
 4635SOL     OW25366   0.039   2.169   9.125  0.5284  0.0727  0.6615
 4635SOL    HW125367   0.037   2.138   9.034  0.3223  2.3686 -0.1144
 4635SOL    HW225368   4.709   2.249   9.119  1.4258  0.7579  2.2437
 4636SOL     OW25369   1.095   0.392  13.551  0.1459  0.3744 -0.0434
 4636SOL    HW125370   1.069   0.466  13.607 -4.5042 -0.3276 -1.2765
 4636SOL    HW225371   1.014   0.356  13.515  0.7956  0.3418 -1.4494
 4637SOL     OW25372   2.866   1.644   3.571  0.2476 -0.2912 -0.1441
 4637SOL    HW125373   2.793   1.689   3.613  0.3198 -0.2805 -0.0319
 4637SOL    HW225374   2.937   1.649   3.635  0.6859  0.1064 -0.6591
 4638SOL     OW25375   1.968   0.914  12.967 -0.2405 -0.2167  0.1872
 4638SOL    HW125376   2.011   0.999  12.957 -1.5202  0.4623  0.3552
 4638SOL    HW225377   1.905   0.939  13.035 -0.7166 -1.5514  0.2455
 4639SOL     OW25378   2.998   1.041  13.561 -0.0102 -0.1824 -0.0329
 4639SOL    HW125379   3.020   0.994  13.641 -0.4790 -1.8612 -0.9013
 4639SOL    HW225380   3.026   0.974  13.499  0.2753  0.1772 -0.2886
 4640SOL     OW25381   2.283   3.212  10.988  0.0761  0.2991  0.0846
 4640SOL    HW125382   2.209   3.178  10.938  0.9785 -2.1262  0.4298
 4640SOL    HW225383   2.299   3.135  11.041  0.2275  1.0366  1.1009
 4641SOL     OW25384   1.061   4.336   5.495  0.4268  0.2845 -0.0546
 4641SOL    HW125385   1.154   4.337   5.519  0.5046  0.5389 -0.3745
 4641SOL    HW225386   1.043   4.244   5.513  0.2016  0.7297  2.0985
 4642SOL     OW25387   3.532   2.053   8.845  0.0440 -0.3365 -0.1828
 4642SOL    HW125388   3.555   1.972   8.890  1.6692  1.1786  1.7473
 4642SOL    HW225389   3.496   2.110   8.913 -3.2471 -0.9377 -1.4448
 4643SOL     OW25390   1.353   2.152  13.672  0.0340  0.3206 -0.5259
 4643SOL    HW125391   1.376   2.063  13.699  1.5630  1.1929  1.0124
 4643SOL    HW225392   1.357   2.129  13.579  1.4600  1.3174 -0.7129
 4644SOL     OW25393   1.399   3.242   0.728  0.1268  0.2877  0.3098
 4644SOL    HW125394   1.463   3.305   0.761  0.0747  0.3315  0.3266
 4644SOL    HW225395   1.320   3.276   0.770  0.4127 -0.7196  1.6570
 4645SOL     OW25396   0.778   1.323   9.610  0.0928  0.7437  0.4872
 4645SOL    HW125397   0.755   1.381   9.538 -1.0743  0.1486  0.3899
 4645SOL    HW225398   0.864   1.365   9.609  0.9905 -1.1197 -0.8403
 4646SOL     OW25399   4.011   1.922  13.438 -0.5718  0.7072 -0.2337
 4646SOL    HW125400   4.105   1.915  13.421 -0.1576  0.0029  2.4946
 4646SOL    HW225401   4.002   2.013  13.410 -0.8222  1.0739  1.0641
 4647SOL     OW25402   2.586   3.758  12.116 -0.3202 -0.3178 -1.0798
 4647SOL    HW125403   2.583   3.794  12.027  1.7481  0.9042 -0.6645
 4647SOL    HW225404   2.510   3.703  12.134  0.5871 -0.9208  0.8610
 4648SOL     OW25405   0.249   3.897   3.430 -0.5153  0.2768 -0.1601
 4648SOL    HW125406   0.326   3.898   3.373 -0.9991  1.2246 -0.7895
 4648SOL    HW225407   0.187   3.899   3.357  0.6255 -0.9409 -1.1745
 4649SOL     OW25408   3.913   0.603   4.930 -0.2061 -0.6246 -0.3319
 4649SOL    HW125409   3.907   0.665   5.003  0.3462 -1.3576  0.3322
 4649SOL    HW225410   3.908   0.669   4.861 -0.0701  1.8374  1.9884
 4650SOL     OW25411   1.782   4.254   7.248 -0.0131 -0.3938  0.3540
 4650SOL    HW125412   1.705   4.200   7.232  0.1595 -0.0619 -1.6245
 4650SOL    HW225413   1.798   4.231   7.339  0.9393  1.3321  0.6208
 4651SOL     OW25414   2.838   4.363   1.798  0.7061 -0.3861  0.2228
 4651SOL    HW125415   2.918   4.416   1.796 -1.4253  2.7776 -1.7090
 4651SOL    HW225416   2.871   4.273   1.795  1.7056 -0.0111  0.0332
 4652SOL     OW25417   2.982   2.402  15.058 -0.5012  0.6290 -0.3620
 4652SOL    HW125418   3.028   2.386  15.140 -1.4096  0.0959  0.0443
 4652SOL    HW225419   2.982   2.310  15.031  2.6252  0.3787  0.5096
 4653SOL     OW25420   0.875   2.291   5.167  0.5903 -0.1809 -0.3823
 4653SOL    HW125421   0.840   2.203   5.154 -1.2462  0.5076  0.0074
 4653SOL    HW225422   0.813   2.347   5.121 -2.1797 -2.5313  0.4897
 4654SOL     OW25423   3.797   2.579  11.165  0.0397  0.2463  0.1732
 4654SOL    HW125424   3.737   2.524  11.115  0.8222 -1.5008  1.1638
 4654SOL    HW225425   3.791   2.533  11.249  0.4486 -1.0497 -0.5228
 4655SOL     OW25426   2.762   1.248  17.604 -0.3231 -0.6508 -0.4535
 4655SOL    HW125427   2.750   1.312  17.534  0.3578  1.0624  1.0013
 4655SOL    HW225428   2.793   1.302  17.677 -1.7925 -0.3152 -0.0768
 4656SOL     OW25429   0.009   1.829   6.241 -0.1751  0.2698 -0.8683
 4656SOL    HW125430   4.660   1.783   6.195 -0.1571  0.7254 -1.3520
 4656SOL    HW225431   4.670   1.863   6.308  0.0494 -0.6187 -0.2102
 4657SOL     OW25432   0.666   4.623   5.196  0.0169  0.6050 -0.0605
 4657SOL    HW125433   0.639   4.532   5.185  1.0856  0.3277 -0.3919
 4657SOL    HW225434   0.759   4.611   5.178  0.2636  1.0100  0.9326
 4658SOL     OW25435   2.216   1.834   2.690  0.1626 -0.4997  0.0347
 4658SOL    HW125436   2.132   1.841   2.645 -1.0215  2.2255  2.6679
 4658SOL    HW225437   2.261   1.779   2.626 -1.3154 -0.1257 -1.3344
 4659SOL     OW25438   3.509   1.881   2.751  0.2067  0.3684 -0.3249
 4659SOL    HW125439   3.561   1.962   2.750  1.4287 -0.4096 -0.3130
 4659SOL    HW225440   3.553   1.833   2.821  0.7417  0.6515 -0.4677
 4660SOL     OW25441   1.105   1.744   3.291  0.6373 -0.2445  0.1369
 4660SOL    HW125442   1.191   1.786   3.298  0.7383 -0.2461 -1.1043
 4660SOL    HW225443   1.115   1.690   3.212  0.0091 -1.9127  1.1903
 4661SOL     OW25444   2.064   1.753   4.722  0.3160 -0.1610  0.0900
 4661SOL    HW125445   2.149   1.770   4.764  0.4657  3.1084 -1.4650
 4661SOL    HW225446   2.071   1.660   4.702  0.1107  0.0592 -1.0319
 4662SOL     OW25447   2.191   2.673   5.638  0.0348 -0.1078 -0.2444
 4662SOL    HW125448   2.112   2.621   5.622 -0.9192  1.1660  0.3246
 4662SOL    HW225449   2.170   2.750   5.586  3.1052  1.0149  0.2204
 4663SOL     OW25450   2.634   2.357  13.121 -0.7360 -0.1078 -0.3935
 4663SOL    HW125451   2.578   2.294  13.166 -1.4915  1.1887  0.4982
 4663SOL    HW225452   2.615   2.354  13.027  1.7643 -1.0833 -0.8618
 4664SOL     OW25453   4.374   2.544  12.120 -0.6499  0.2018 -0.8646
 4664SOL    HW125454   4.406   2.584  12.200  1.9306 -0.7065 -1.4350
 4664SOL    HW225455   4.365   2.451  12.141 -0.3497  0.4673  0.4082
 4665SOL     OW25456   3.940   0.987   3.559  0.1045 -0.0196  0.6643
 4665SOL    HW125457   3.956   0.896   3.532  0.5085  0.4023 -0.5421
 4665SOL    HW225458   3.845   0.992   3.552 -0.0411 -0.8237  2.0505
 4666SOL     OW25459   2.601   0.452   9.336  0.1972  0.0720 -0.4715
 4666SOL    HW125460   2.626   0.367   9.300 -0.2177  0.0746 -0.7739
 4666SOL    HW225461   2.685   0.498   9.330 -0.3765  1.3279  1.1341
 4667SOL     OW25462   0.790   2.724   3.325 -0.1417 -0.1323  0.1219
 4667SOL    HW125463   0.716   2.707   3.267  0.7429  0.7176 -1.2541
 4667SOL    HW225464   0.864   2.693   3.273 -1.2638 -1.2625 -0.8060
 4668SOL     OW25465   3.201   3.022   6.143  0.2667  0.1177  0.4932
 4668SOL    HW125466   3.240   3.029   6.230  1.1274 -1.3016  0.2194
 4668SOL    HW225467   3.277   3.041   6.088  1.3494  0.8504  2.2465
 4669SOL     OW25468   4.671   1.018   9.848 -0.6879  0.1137  0.8981
 4669SOL    HW125469   4.620   1.005   9.768 -1.5812  1.4483  1.2362
 4669SOL    HW225470   4.688   0.929   9.876  1.1537  1.4942  4.1134
 4670SOL     OW25471   2.377   3.543   5.340 -0.4783 -0.1895  0.1335
 4670SOL    HW125472   2.433   3.546   5.262  0.6403 -2.1524  0.8751
 4670SOL    HW225473   2.290   3.543   5.299 -0.4021  1.1578 -0.0410
 4671SOL     OW25474   0.313   3.414   3.584  0.9692 -0.0080  0.4194
 4671SOL    HW125475   0.303   3.508   3.594  1.1455 -0.0233  0.7197
 4671SOL    HW225476   0.395   3.391   3.628  2.2763  0.8358 -1.6028
 4672SOL     OW25477   4.060   0.161   0.920  0.1479  0.1067 -0.2948
 4672SOL    HW125478   4.045   0.155   0.825  0.5152 -0.2093 -0.3353
 4672SOL    HW225479   4.007   0.083   0.940  0.2038  0.3296  0.7061
 4673SOL     OW25480   4.171   3.561   9.418 -0.0125 -0.5061  0.0824
 4673SOL    HW125481   4.082   3.527   9.432 -0.3188  0.3127  0.1198
 4673SOL    HW225482   4.206   3.499   9.354 -0.7720 -1.1822  0.3091
 4674SOL     OW25483   4.203   2.530  16.149  0.2899 -0.3496  0.8770
 4674SOL    HW125484   4.167   2.462  16.207 -2.0093 -1.0792 -1.4355
 4674SOL    HW225485   4.122   2.560  16.109  0.6232 -0.0546  0.4298
 4675SOL     OW25486   4.633   0.461   3.198  0.1810  0.0454 -0.2973
 4675SOL    HW125487   4.718   0.504   3.206  1.2893 -1.8187 -1.7631
 4675SOL    HW225488   4.607   0.470   3.106 -2.1994  1.8521  0.5503
 4676SOL     OW25489   2.312   2.357  11.259  0.0793  0.5177 -0.7578
 4676SOL    HW125490   2.227   2.335  11.298  1.1357 -3.1018 -0.4567
 4676SOL    HW225491   2.369   2.285  11.288  0.7314  1.2319 -0.2662
 4677SOL     OW25492   0.550   2.283   9.908  0.2013  0.6221 -0.0253
 4677SOL    HW125493   0.624   2.258   9.964  0.3265  1.1660  0.0484
 4677SOL    HW225494   0.588   2.342   9.843  0.9472  0.2322  0.0565
 4678SOL     OW25495   0.966   4.367   4.383  0.2550 -0.8077  0.1486
 4678SOL    HW125496   0.932   4.347   4.470  0.2969  1.1757  0.6262
 4678SOL    HW225497   0.962   4.275   4.357  2.2538 -0.4178 -1.5027
 4679SOL     OW25498   0.356   3.568  16.603 -0.1713  0.0319  0.1537
 4679SOL    HW125499   0.313   3.609  16.528 -1.3618 -2.4275 -0.5113
 4679SOL    HW225500   0.302   3.591  16.678 -1.4412 -0.3334 -0.6430
 4680SOL     OW25501   2.956   3.730  16.317 -0.1744 -0.3551  0.1888
 4680SOL    HW125502   2.924   3.800  16.260 -1.6800  0.1854  1.6987
 4680SOL    HW225503   2.904   3.657  16.282  0.8042 -1.1031  0.3099
 4681SOL     OW25504   2.413   0.448   2.769  0.3948 -0.4815  0.1461
 4681SOL    HW125505   2.495   0.461   2.722  0.9305 -2.1219  0.6184
 4681SOL    HW225506   2.363   0.526   2.745  1.0144 -1.5056 -4.4995
 4682SOL     OW25507   1.933   4.329  13.149 -0.2058  0.4341 -0.0975
 4682SOL    HW125508   2.020   4.368  13.154 -1.1151  2.1406  2.1008
 4682SOL    HW225509   1.893   4.405  13.108  0.0656  1.6340  1.8647
 4683SOL     OW25510   3.244   3.214   1.169 -0.6900 -0.2402 -0.2271
 4683SOL    HW125511   3.150   3.214   1.153 -0.2053 -1.0548 -3.0446
 4683SOL    HW225512   3.267   3.212   1.076  1.9995  2.8100  0.3681
 4684SOL     OW25513   1.537   4.139  14.973  0.9869  0.3131 -0.0597
 4684SOL    HW125514   1.473   4.107  14.910  0.6707  1.0608 -0.1175
 4684SOL    HW225515   1.537   4.231  14.947  0.6628  0.3440  0.0447
 4685SOL     OW25516   0.499   3.289  17.598 -0.0075 -0.4861 -0.3716
 4685SOL    HW125517   0.573   3.235  17.627 -1.1910 -1.5073  0.7481
 4685SOL    HW225518   0.541   3.368  17.564 -1.7983  0.6859  0.0984
 4686SOL     OW25519   2.444   3.409   7.720  0.1818  0.5707 -0.9662
 4686SOL    HW125520   2.497   3.356   7.660 -0.4999 -0.7052 -0.4392
 4686SOL    HW225521   2.361   3.418   7.674  0.3168  0.1003 -1.3086
 4687SOL     OW25522   1.280   1.220  11.656 -0.2096  0.1410 -0.3813
 4687SOL    HW125523   1.375   1.221  11.665 -0.2894 -0.4729  0.5332
 4687SOL    HW225524   1.255   1.244  11.745  0.1099 -2.3052  0.3731
 4688SOL     OW25525   0.020   3.275   8.481  0.7463 -0.3098  0.1288
 4688SOL    HW125526   0.043   3.310   8.567 -0.3790  1.0226 -0.0976
 4688SOL    HW225527   4.680   3.345   8.456  1.2262 -0.2590 -0.9274
 4689SOL     OW25528   4.399   1.360  17.596  0.1175 -0.4170  0.3998
 4689SOL    HW125529   4.485   1.320  17.582 -0.6861 -2.2040  0.6271
 4689SOL    HW225530   4.355   1.300  17.655 -0.1318 -2.2121 -1.6034
 4690SOL     OW25531   4.567   2.882   4.016 -0.3689  0.0618 -0.5850
 4690SOL    HW125532   4.660   2.868   4.038  0.2597  1.4517 -2.3494
 4690SOL    HW225533   4.562   2.789   3.995  0.2055 -0.0658 -0.1771
 4691SOL     OW25534   4.168   4.487   4.966  0.3147 -0.4040 -0.0684
 4691SOL    HW125535   4.077   4.514   4.979  0.9780  1.6905  0.2791
 4691SOL    HW225536   4.159   4.393   4.953 -0.7665 -0.3907  0.6494
 4692SOL     OW25537   2.869   4.598   4.066  0.2913 -0.2432  0.0286
 4692SOL    HW125538   2.813   4.534   4.023 -1.2682  0.7707  0.5558
 4692SOL    HW225539   2.830   4.684   4.052  0.2131 -0.3239 -0.2646
 4693SOL     OW25540   2.243   3.639  11.569 -0.2269  0.3337  0.3573
 4693SOL    HW125541   2.333   3.647  11.601  0.0427  2.8940 -1.0772
 4693SOL    HW225542   2.253   3.646  11.474 -0.1689  0.1731  0.3512
 4694SOL     OW25543   0.294   3.128   1.206 -0.4921 -0.0683 -0.0949
 4694SOL    HW125544   0.278   3.041   1.242  2.6660 -1.0416 -1.0931
 4694SOL    HW225545   0.352   3.152   1.278 -0.1307  0.8682 -0.6876
 4695SOL     OW25546   2.145   3.676  11.855  0.2061 -0.4184  0.4372
 4695SOL    HW125547   2.150   3.771  11.844  1.7818 -0.2654  2.4872
 4695SOL    HW225548   2.157   3.646  11.765  1.2907 -0.3078  0.5404
 4696SOL     OW25549   0.554   3.332   7.786 -1.3844  0.2248 -0.5067
 4696SOL    HW125550   0.560   3.385   7.707 -2.3018  0.8294 -0.1632
 4696SOL    HW225551   0.490   3.383   7.835 -0.5440  0.2835  0.5404
 4697SOL     OW25552   4.180   1.920   4.048 -0.1287 -0.3578 -0.2017
 4697SOL    HW125553   4.202   2.013   4.038  0.6227 -0.1947  3.1456
 4697SOL    HW225554   4.254   1.869   4.014 -0.3128 -0.0963 -1.0072
 4698SOL     OW25555   4.305   2.461   9.510 -0.3777 -0.4089  0.4272
 4698SOL    HW125556   4.230   2.410   9.478  0.6159 -0.5474 -1.6651
 4698SOL    HW225557   4.264   2.519   9.574 -1.5600 -0.7907  0.0286
 4699SOL     OW25558   4.028   3.099   6.477  0.1464  0.5494  0.3867
 4699SOL    HW125559   4.054   3.007   6.466 -2.3086  0.1485 -1.9854
 4699SOL    HW225560   3.970   3.115   6.402 -0.0294  0.5474  0.5213
 4700SOL     OW25561   2.433   2.046   6.493  0.6493  0.1183 -0.0208
 4700SOL    HW125562   2.399   2.019   6.408  1.5884  2.0704 -1.0031
 4700SOL    HW225563   2.521   2.010   6.492  0.4144 -0.4546 -0.0943
 4701SOL     OW25564   4.637   1.922   6.930 -0.1783  0.5718  0.1126
 4701SOL    HW125565   4.619   2.016   6.929  1.7010  0.9267  0.4736
 4701SOL    HW225566   4.687   1.908   6.850  0.0210 -1.3362  0.5889
 4702SOL     OW25567   0.564   3.079   4.490  0.0118  0.1146  0.7125
 4702SOL    HW125568   0.502   3.066   4.562 -0.1636 -0.3461  0.4809
 4702SOL    HW225569   0.505   3.086   4.415 -0.1100  0.3978  0.8371
 4703SOL     OW25570   2.225   2.588   2.087 -0.1873  0.1944 -0.2492
 4703SOL    HW125571   2.305   2.623   2.127  0.0678 -0.7255  0.0583
 4703SOL    HW225572   2.148   2.627   2.128  0.3525 -0.3232  1.2512
 4704SOL     OW25573   4.639   1.658   6.998  0.1134  0.4223 -0.3200
 4704SOL    HW125574   4.630   1.749   6.968  2.3566  0.7841  0.1607
 4704SOL    HW225575   4.615   1.681   7.088  0.4438 -1.5853  0.2734
 4705SOL     OW25576   0.498   4.570   3.486  0.3215 -0.2519  0.4033
 4705SOL    HW125577   0.560   4.642   3.469  0.7423 -0.4523  1.0756
 4705SOL    HW225578   0.417   4.616   3.509  0.8387  1.3755 -0.9773
 4706SOL     OW25579   0.748   2.107  11.576 -0.2536  0.1754  0.3874
 4706SOL    HW125580   0.797   2.190  11.579 -2.7183  1.6878 -1.2466
 4706SOL    HW225581   0.784   2.059  11.650  0.9599 -0.6234 -0.7147
 4707SOL     OW25582   4.423   1.038  17.607 -0.1407 -0.2250  0.2037
 4707SOL    HW125583   4.424   1.054  17.513  3.3639  2.4958  0.7142
 4707SOL    HW225584   4.394   0.949  17.627  0.9088 -0.1316  2.1811
 4708SOL     OW25585   3.792   4.407   9.317 -0.0578  0.4389 -0.7034
 4708SOL    HW125586   3.725   4.391   9.250  0.3942 -0.5805 -0.9169
 4708SOL    HW225587   3.869   4.415   9.260 -0.4349  1.1487 -1.1123
 4709SOL     OW25588   4.207   3.189  16.591  0.3584  0.6382  0.5191
 4709SOL    HW125589   4.168   3.276  16.591  2.2240  1.4590 -0.7146
 4709SOL    HW225590   4.293   3.194  16.549 -0.6925 -0.1968 -1.7359
 4710SOL     OW25591   0.311   1.390  12.655 -0.3788  0.5249 -0.2137
 4710SOL    HW125592   0.405   1.407  12.650 -0.4332  1.1934  1.2848
 4710SOL    HW225593   0.297   1.297  12.636  0.2177  0.4784 -0.4484
 4711SOL     OW25594   1.810   1.696   1.098 -0.2129 -0.7466  0.3994
 4711SOL    HW125595   1.794   1.740   1.014  0.6398 -1.3040 -0.0547
 4711SOL    HW225596   1.823   1.772   1.154 -0.5281 -1.5535  1.5713
 4712SOL     OW25597   3.054   0.022   8.877 -0.3172 -0.4567 -0.3854
 4712SOL    HW125598   2.963   0.041   8.854 -0.6997 -2.7879 -0.8150
 4712SOL    HW225599   3.093   0.016   8.789 -0.2421 -1.5727 -0.2757
 4713SOL     OW25600   2.693   3.532   0.562  0.0625 -0.4933  0.3855
 4713SOL    HW125601   2.648   3.577   0.491  0.8181 -0.8611 -0.3245
 4713SOL    HW225602   2.631   3.502   0.629  1.2742 -0.5131  1.4980
 4714SOL     OW25603   4.646   2.901   7.878  0.4263 -0.8085 -0.1553
 4714SOL    HW125604   4.668   2.889   7.970  0.3182 -0.6094 -0.1038
 4714SOL    HW225605   4.703   2.973   7.848  0.0675 -0.1853  0.6714
 4715SOL     OW25606   4.422   2.737   8.438  0.4481 -0.0162  0.4777
 4715SOL    HW125607   4.462   2.693   8.514  0.7829 -0.0164  0.3010
 4715SOL    HW225608   4.336   2.701   8.459 -0.0902  0.7946 -0.3518
 4716SOL     OW25609   1.451   0.368   8.176 -0.3068  0.4045 -0.2822
 4716SOL    HW125610   1.357   0.356   8.192  0.0330  1.0077  2.2963
 4716SOL    HW225611   1.459   0.435   8.244 -1.9332  0.5557 -0.2300
 4717SOL     OW25612   2.622   3.050  15.840  0.1533 -0.4404 -0.4085
 4717SOL    HW125613   2.661   2.975  15.795  1.5207  0.4156 -0.6265
 4717SOL    HW225614   2.540   3.060  15.790  0.0804 -1.7685 -0.5772
 4718SOL     OW25615   0.984   3.233  12.503  0.4034  0.0772 -0.0740
 4718SOL    HW125616   1.005   3.294  12.432 -2.5486 -0.4523 -1.3972
 4718SOL    HW225617   0.890   3.238  12.489  0.0006 -1.5222  2.0645
 4719SOL     OW25618   0.461   4.586  13.557 -0.2100  0.3392 -0.1924
 4719SOL    HW125619   0.447   4.596  13.651 -1.7336  2.1144 -0.5918
 4719SOL    HW225620   0.372   4.568  13.525 -0.6187 -0.5692  1.4479
 4720SOL     OW25621   0.531   4.620   4.306  0.0247  0.0800  0.1891
 4720SOL    HW125622   0.528   4.712   4.279 -3.5047  0.0773  0.5751
 4720SOL    HW225623   0.523   4.625   4.401 -0.8148 -1.3508  0.1880
 4721SOL     OW25624   1.751   1.025   4.069 -0.2516  0.4234  0.5364
 4721SOL    HW125625   1.807   1.103   4.070  1.0577 -0.5017  0.1831
 4721SOL    HW225626   1.733   1.027   4.163 -1.5240  0.4490  0.2945
 4722SOL     OW25627   0.063   2.391   2.977 -0.4452 -0.1395 -0.3108
 4722SOL    HW125628   0.155   2.369   2.985 -0.9570 -1.8503  0.8897
 4722SOL    HW225629   0.051   2.464   3.039  2.5199  1.8309 -2.0615
 4723SOL     OW25630   2.677   0.129   4.324 -0.4246  0.3316 -0.1288
 4723SOL    HW125631   2.606   0.191   4.304 -0.7949  0.8188  2.7112
 4723SOL    HW225632   2.701   0.144   4.415 -0.9768  5.2210 -0.8041
 4724SOL     OW25633   3.768   4.521   4.603  0.7216 -0.2825 -0.5218
 4724SOL    HW125634   3.675   4.526   4.583  0.8683 -0.2088 -1.1819
 4724SOL    HW225635   3.756   4.494   4.694 -0.9510 -1.8733 -1.1895
 4725SOL     OW25636   3.818   0.702   1.115 -0.2837  0.1678  0.6050
 4725SOL    HW125637   3.843   0.718   1.025  1.2444 -2.0990  0.6199
 4725SOL    HW225638   3.859   0.616   1.125 -0.6484 -0.3942 -2.6667
 4726SOL     OW25639   1.551   0.091   1.623 -0.6016 -0.3740 -0.3884
 4726SOL    HW125640   1.540   0.006   1.580  1.1698 -1.2858  0.9543
 4726SOL    HW225641   1.477   0.093   1.683  0.5860  0.2431  1.0395
 4727SOL     OW25642   0.346   0.310  17.022  0.4446  0.0980  0.0838
 4727SOL    HW125643   0.332   0.280  17.112 -0.0358 -1.2510 -0.4463
 4727SOL    HW225644   0.415   0.254  16.986 -0.8753 -0.2553 -1.9077
 4728SOL     OW25645   3.292   2.347   4.296  0.1392  0.0914  0.7011
 4728SOL    HW125646   3.203   2.364   4.328 -0.4957 -3.4378  0.8310
 4728SOL    HW225647   3.263   2.280   4.234 -0.0412  0.3344  0.5240
 4729SOL     OW25648   2.530   3.433   1.512 -0.4913 -0.4018  0.2546
 4729SOL    HW125649   2.557   3.367   1.576  2.6227  2.6388  2.0589
 4729SOL    HW225650   2.524   3.384   1.430 -1.5830 -0.0192  0.1063
 4730SOL     OW25651   2.162   4.508  13.189 -0.2630 -0.2141 -0.3914
 4730SOL    HW125652   2.242   4.456  13.186 -0.0441  0.1723 -1.1069
 4730SOL    HW225653   2.207   4.580  13.233 -0.9554  0.5241 -0.8950
 4731SOL     OW25654   3.181   2.142   4.142  0.1404 -0.4834 -0.2025
 4731SOL    HW125655   3.209   2.051   4.153 -1.4128 -0.8779  0.4843
 4731SOL    HW225656   3.104   2.126   4.088  0.5306  3.2732 -1.8656
 4732SOL     OW25657   2.431   4.292  10.020  0.0461  0.3525  0.0325
 4732SOL    HW125658   2.379   4.352  10.073 -0.1981 -0.2534  0.4887
 4732SOL    HW225659   2.463   4.225  10.081  1.9117  0.5642 -0.7161
 4733SOL     OW25660   1.642   3.539   9.030 -0.6079  0.0124 -0.9692
 4733SOL    HW125661   1.581   3.465   9.029  1.0026 -1.3380  0.5124
 4733SOL    HW225662   1.585   3.602   8.987  0.3098  3.4142  2.8622
 4734SOL     OW25663   3.963   2.881   5.955 -0.5826 -0.2997  0.2446
 4734SOL    HW125664   4.032   2.826   5.919 -2.1122  0.1084 -3.2577
 4734SOL    HW225665   3.995   2.870   6.045 -0.1553 -0.4370  0.0761
 4735SOL     OW25666   3.886   4.657   6.153  0.0883 -0.2265 -0.1665
 4735SOL    HW125667   3.973   4.619   6.148 -0.3984 -1.2674 -0.8207
 4735SOL    HW225668   3.831   4.603   6.096 -0.4587 -0.2125  0.3476
 4736SOL     OW25669   2.639   4.344   4.085 -0.3091  0.4150  0.7477
 4736SOL    HW125670   2.627   4.399   4.163 -0.1282  1.6366 -0.0927
 4736SOL    HW225671   2.554   4.333   4.044  1.0903  1.7230 -2.4887
 4737SOL     OW25672   0.387   0.817   6.459  0.2007 -0.0719 -0.2947
 4737SOL    HW125673   0.451   0.851   6.522 -0.7756 -0.5413  0.9509
 4737SOL    HW225674   0.334   0.763   6.518  0.4438  0.6943  0.6289
 4738SOL     OW25675   4.406   2.814   0.446 -0.1269 -0.0066  0.0732
 4738SOL    HW125676   4.393   2.781   0.535  1.0625  0.3966  0.4013
 4738SOL    HW225677   4.439   2.743   0.390 -1.8800  0.3103 -1.3247
 4739SOL     OW25678   4.261   3.982   0.516 -0.3930 -0.4109 -0.6348
 4739SOL    HW125679   4.266   4.015   0.606  0.1011  0.4613 -0.9793
 4739SOL    HW225680   4.168   3.984   0.492 -0.3002 -1.0624 -1.0237
 4740SOL     OW25681   1.058   3.674   1.565 -0.3279  0.2403  0.3739
 4740SOL    HW125682   1.074   3.583   1.540 -0.1684  0.1515  0.7910
 4740SOL    HW225683   1.005   3.666   1.645  0.0244 -0.2316  0.5599
 4741SOL     OW25684   2.315   2.798   6.291 -0.3031 -0.5537 -0.1780
 4741SOL    HW125685   2.389   2.738   6.307 -0.8873 -1.0855  0.5219
 4741SOL    HW225686   2.356   2.877   6.256 -0.3547 -0.2321  0.4816
 4742SOL     OW25687   3.841   0.633  15.823  0.2241  0.1799 -0.3500
 4742SOL    HW125688   3.915   0.684  15.857  2.4735 -1.6712 -2.4707
 4742SOL    HW225689   3.838   0.563  15.888  0.1067 -1.0057 -1.6391
 4743SOL     OW25690   1.170   2.449   7.067 -0.1230 -0.0137 -0.0823
 4743SOL    HW125691   1.121   2.517   7.022  0.0246 -0.7161 -1.2978
 4743SOL    HW225692   1.137   2.377   7.014  1.3125 -2.0363  1.7275
 4744SOL     OW25693   3.981   1.796   4.950 -0.2779 -0.1298 -0.4521
 4744SOL    HW125694   3.886   1.795   4.941 -0.1457 -2.2672 -1.6465
 4744SOL    HW225695   3.997   1.888   4.968 -0.8374  0.0145 -0.6825
 4745SOL     OW25696   2.567   1.811   0.713  0.1706  0.2749  0.9789
 4745SOL    HW125697   2.577   1.777   0.624  1.7632 -1.1900  1.7038
 4745SOL    HW225698   2.521   1.748   0.769  1.9996  0.1901  2.3988
 4746SOL     OW25699   4.115   4.006   4.242  0.0912 -0.1577  0.5850
 4746SOL    HW125700   4.067   3.935   4.199  1.2137 -0.1125 -0.7440
 4746SOL    HW225701   4.065   4.078   4.202 -0.0228 -1.5727 -1.8583
 4747SOL     OW25702   2.466   4.319   8.339 -0.2384  0.3233 -0.0998
 4747SOL    HW125703   2.430   4.337   8.252 -2.0747  0.2588  0.6512
 4747SOL    HW225704   2.528   4.247   8.326  2.3224  2.6515 -0.8206
 4748SOL     OW25705   2.831   3.087   6.180  0.5478 -0.1135 -0.7124
 4748SOL    HW125706   2.860   3.000   6.152  0.5678 -0.6989  1.1469
 4748SOL    HW225707   2.903   3.112   6.238  0.2032  4.4611 -2.2245
 4749SOL     OW25708   0.220   0.972   2.940 -0.3002 -0.2885 -0.5223
 4749SOL    HW125709   0.175   0.964   3.024  2.9025  1.3343  1.3271
 4749SOL    HW225710   0.211   0.882   2.910  0.7277 -0.7201  0.4931
 4750SOL     OW25711   1.346   2.932   7.688  0.3476  0.3666 -0.1510
 4750SOL    HW125712   1.251   2.921   7.683 -0.1255  1.9892  5.0258
 4750SOL    HW225713   1.375   2.847   7.722  0.6384 -0.5635 -2.7835
 4751SOL     OW25714   3.090   1.849  11.289 -0.7490 -0.0114  0.3860
 4751SOL    HW125715   3.066   1.928  11.240 -1.2358 -0.7573 -0.5784
 4751SOL    HW225716   3.186   1.854  11.295 -0.6371 -0.0789 -1.2508
 4752SOL     OW25717   1.117   2.878  12.721 -1.0959  0.2878  0.7583
 4752SOL    HW125718   1.158   2.906  12.639  0.1522 -1.7067  0.6867
 4752SOL    HW225719   1.037   2.930  12.716  0.0373  2.0524  0.6134
 4753SOL     OW25720   3.213   1.316   9.282 -0.0980 -0.0685 -0.1637
 4753SOL    HW125721   3.126   1.299   9.320  0.2229  0.4019  0.7897
 4753SOL    HW225722   3.234   1.230   9.248 -0.5119 -0.3616  0.3189
 4754SOL     OW25723   3.444   2.340   9.264 -0.1177 -0.0624 -0.5134
 4754SOL    HW125724   3.457   2.412   9.202  2.2852 -1.9606 -2.1608
 4754SOL    HW225725   3.520   2.357   9.319  0.2240  1.0901 -1.3286
 4755SOL     OW25726   3.369   4.658  12.642  0.4822  0.7200  0.2679
 4755SOL    HW125727   3.418   4.635  12.721  0.1113  2.6791  1.0716
 4755SOL    HW225728   3.286   4.697  12.669  0.1924 -0.8210  1.6174
 4756SOL     OW25729   2.823   3.979  15.413 -0.1300 -0.5842 -0.1040
 4756SOL    HW125730   2.779   3.955  15.495  1.1714 -0.9745  0.4842
 4756SOL    HW225731   2.904   3.929  15.424  0.1641  0.3110  1.8416
 4757SOL     OW25732   2.665   1.918   2.648  0.1147  0.1050  0.0211
 4757SOL    HW125733   2.612   1.838   2.641  0.6419 -0.3323  0.9423
 4757SOL    HW225734   2.719   1.903   2.726 -2.2303 -1.7973  1.2717
 4758SOL     OW25735   1.258   2.178   1.894 -0.8359 -0.8989 -0.1826
 4758SOL    HW125736   1.270   2.123   1.817  2.4122 -2.6726  1.5794
 4758SOL    HW225737   1.179   2.137   1.931 -1.0317 -1.1972 -0.9473
 4759SOL     OW25738   0.527   3.484   2.705  0.3645 -0.1131 -0.6562
 4759SOL    HW125739   0.550   3.549   2.638 -1.1788 -0.8329 -1.8778
 4759SOL    HW225740   0.431   3.492   2.710  0.4603  0.7364 -0.0343
 4760SOL     OW25741   0.390   3.999   4.260 -0.0016  0.1517 -0.4623
 4760SOL    HW125742   0.420   4.063   4.195 -2.1963  0.6808 -0.9485
 4760SOL    HW225743   0.365   4.060   4.329  1.8988 -0.7246  1.0132
 4761SOL     OW25744   1.872   1.275   4.062 -0.0324  0.0667 -0.3047
 4761SOL    HW125745   1.806   1.342   4.043 -0.2970 -0.3302 -0.7814
 4761SOL    HW225746   1.908   1.307   4.145 -0.7679 -0.7841  0.3540
 4762SOL     OW25747   4.294   4.473  15.059  0.3113 -0.1675 -0.3732
 4762SOL    HW125748   4.293   4.504  14.969 -0.9963  1.7364  0.2912
 4762SOL    HW225749   4.204   4.491  15.086  1.8577  1.6164  3.5848
 4763SOL     OW25750   1.387   1.151  15.617 -0.1805  0.1436 -0.0548
 4763SOL    HW125751   1.416   1.189  15.534  3.6893  1.6144  1.9625
 4763SOL    HW225752   1.395   1.056  15.608 -2.0152 -0.1311  1.3451
 4764SOL     OW25753   2.498   3.326   6.391 -0.0596 -0.2556  0.2135
 4764SOL    HW125754   2.430   3.393   6.391 -0.9692 -1.1846 -0.9859
 4764SOL    HW225755   2.455   3.268   6.455  0.7547 -0.0460  0.9440
 4765SOL     OW25756   3.439   2.675   6.049 -0.2281 -0.3995  0.3263
 4765SOL    HW125757   3.496   2.660   5.973  0.0537 -0.8210  0.6273
 4765SOL    HW225758   3.367   2.725   6.010  0.8205  1.8799  1.3132
 4766SOL     OW25759   0.888   4.615  16.865 -0.1787  0.2211 -0.0721
 4766SOL    HW125760   0.831   4.684  16.833 -0.6624  1.3064  3.0969
 4766SOL    HW225761   0.972   4.638  16.826 -0.3230 -0.1917 -0.6198
 4767SOL     OW25762   1.138   3.119   7.988 -0.5737  0.1584  0.2834
 4767SOL    HW125763   1.201   3.069   8.040 -0.8840 -1.1388 -0.6043
 4767SOL    HW225764   1.123   3.187   8.054  0.6931 -1.6047  2.3692
 4768SOL     OW25765   0.306   4.314   5.177 -0.6089 -0.3746  0.5157
 4768SOL    HW125766   0.214   4.338   5.188 -0.2127  1.9168 -1.3641
 4768SOL    HW225767   0.315   4.232   5.226  0.2895 -0.5278  0.0887
 4769SOL     OW25768   1.874   1.513   7.773 -0.3102  0.5547  0.0073
 4769SOL    HW125769   1.882   1.494   7.679 -1.2161 -0.1704  0.0789
 4769SOL    HW225770   1.937   1.450   7.807 -0.9202  0.8356  1.6369
 4770SOL     OW25771   4.679   0.285   5.545 -0.6912  0.1865 -0.5874
 4770SOL    HW125772   0.041   0.248   5.516 -0.5589 -1.4849  1.9169
 4770SOL    HW225773   4.623   0.261   5.472 -2.8642 -1.9909  1.7914
 4771SOL     OW25774   3.257   1.837   5.674 -0.2201 -0.0322 -0.1716
 4771SOL    HW125775   3.251   1.896   5.600  0.6373  0.6219  0.2791
 4771SOL    HW225776   3.323   1.884   5.725 -0.7806 -0.1302  0.6589
 4772SOL     OW25777   1.067   3.587   5.730 -0.2568  0.1555 -0.1994
 4772SOL    HW125778   1.093   3.606   5.640 -0.1861  1.6699  0.1429
 4772SOL    HW225779   1.143   3.533   5.750 -1.4030 -0.9446  1.2483
 4773SOL     OW25780   4.699   0.604  11.284  0.2608  0.7879  0.3157
 4773SOL    HW125781   4.665   0.517  11.305 -2.4019  2.1578  1.6489
 4773SOL    HW225782   0.064   0.589  11.322  0.6105 -0.3503 -0.9331
 4774SOL     OW25783   1.023   2.897   1.462  0.4863  0.2715 -0.1389
 4774SOL    HW125784   0.946   2.888   1.517  2.2475 -2.1563  1.9097
 4774SOL    HW225785   0.994   2.840   1.390  2.2303  1.3694 -1.7116
 4775SOL     OW25786   4.409   0.335  16.702  0.4312  0.2635  0.0380
 4775SOL    HW125787   4.460   0.341  16.621  0.8759 -1.1191  0.2013
 4775SOL    HW225788   4.425   0.248  16.741 -1.9528 -0.3749 -0.3878
 4776SOL     OW25789   0.965   4.493   7.897 -0.3654  0.5913  0.3421
 4776SOL    HW125790   0.895   4.530   7.843 -2.0927 -4.1845 -0.6748
 4776SOL    HW225791   0.994   4.578   7.932  1.9367 -0.1599  0.3168
 4777SOL     OW25792   2.880   4.128   0.917 -0.3893  0.1559  0.1363
 4777SOL    HW125793   2.846   4.099   1.002  0.0287 -0.2742  0.1587
 4777SOL    HW225794   2.974   4.126   0.937 -0.4738  3.3949  0.8603
 4778SOL     OW25795   1.451   2.874  14.920 -0.2109 -0.0104 -0.4235
 4778SOL    HW125796   1.535   2.849  14.879  0.1607  4.0432 -2.0885
 4778SOL    HW225797   1.445   2.825  15.002 -2.0736 -1.1213 -1.2266
 4779SOL     OW25798   1.667   2.525   7.879 -0.2384 -0.4317 -0.0787
 4779SOL    HW125799   1.641   2.433   7.875  0.4819 -0.6472  0.2443
 4779SOL    HW225800   1.601   2.580   7.836 -0.1271  0.8125  1.3213
 4780SOL     OW25801   2.651   3.688   4.811 -0.8465  0.1368  0.5169
 4780SOL    HW125802   2.726   3.636   4.841 -0.9087  0.3032  0.9594
 4780SOL    HW225803   2.663   3.716   4.720  0.6675 -1.6149  0.1851
 4781SOL     OW25804   2.049   0.712   6.198 -0.3088 -0.1825  0.1594
 4781SOL    HW125805   1.992   0.783   6.228  1.6112  1.2280  0.4455
 4781SOL    HW225806   2.084   0.687   6.283 -0.4445  3.3780  1.2253
 4782SOL     OW25807   0.207   4.118  11.671  0.7464  0.1002  0.4358
 4782SOL    HW125808   0.247   4.051  11.614 -1.3515 -0.1597 -0.7473
 4782SOL    HW225809   0.242   4.084  11.753 -0.6765 -1.4424  0.3899
 4783SOL     OW25810   4.354   4.446   4.419  0.2309  0.3033  0.0322
 4783SOL    HW125811   4.293   4.374   4.432 -0.2241  0.5274 -0.9109
 4783SOL    HW225812   4.344   4.473   4.510 -0.4125 -0.0298  0.0594
 4784SOL     OW25813   4.071   0.572   5.264  0.2219  0.2753 -0.1942
 4784SOL    HW125814   4.114   0.490   5.240  0.7040  1.1157 -2.1724
 4784SOL    HW225815   4.132   0.595   5.335 -2.1167  1.7154  1.3664
 4785SOL     OW25816   2.041   1.053   4.862  0.6824  0.4211 -0.4718
 4785SOL    HW125817   1.981   1.121   4.890  1.5471  0.7967  0.4781
 4785SOL    HW225818   1.985   1.022   4.791 -0.9226  0.0278  0.9552
 4786SOL     OW25819   3.144   4.574   7.104  0.3823  0.0680 -0.3616
 4786SOL    HW125820   3.092   4.654   7.101 -1.7490 -1.2557  1.3628
 4786SOL    HW225821   3.172   4.555   7.193  1.9169 -0.0420 -0.8608
 4787SOL     OW25822   3.331   3.655  12.703 -0.1504 -0.3985 -0.2419
 4787SOL    HW125823   3.424   3.667  12.726 -0.2681  3.0209 -1.5853
 4787SOL    HW225824   3.311   3.561  12.706  0.4310 -0.5009  0.5702
 4788SOL     OW25825   4.348   0.155   8.687  0.0659  0.4624  0.1399
 4788SOL    HW125826   4.254   0.158   8.670  0.4338 -1.3957 -2.1630
 4788SOL    HW225827   4.394   0.128   8.608 -1.4496 -0.4353 -0.4458
 4789SOL     OW25828   4.420   1.844   6.786 -0.7316  0.2375  0.5142
 4789SOL    HW125829   4.397   1.754   6.809  1.2852 -0.2353  0.6223
 4789SOL    HW225830   4.503   1.857   6.832 -0.8118  1.3477  0.3419
 4790SOL     OW25831   0.927   2.985   7.943  0.5292 -0.0985 -0.1432
 4790SOL    HW125832   1.009   3.030   7.967  0.7085 -0.0459 -0.8695
 4790SOL    HW225833   0.867   3.060   7.943  0.0843 -0.4588 -0.2587
 4791SOL     OW25834   2.146   3.979   2.759 -0.3947  0.1494 -0.2918
 4791SOL    HW125835   2.193   3.994   2.841  0.1083 -1.4421 -0.2971
 4791SOL    HW225836   2.190   3.901   2.725 -0.3679  0.4162 -0.8673
 4792SOL     OW25837   0.196   3.190   6.744  0.6063  0.0718  0.0029
 4792SOL    HW125838   0.227   3.100   6.731 -0.0511 -0.0836 -0.5133
 4792SOL    HW225839   0.116   3.167   6.792  0.6295 -0.3047 -0.1364
 4793SOL     OW25840   2.397   2.592   8.626 -0.1083 -0.1920  0.4423
 4793SOL    HW125841   2.354   2.535   8.562 -2.5473  0.5535  1.4121
 4793SOL    HW225842   2.351   2.676   8.623 -1.8892 -1.2256 -1.5757
 4794SOL     OW25843   4.097   0.466   1.906 -0.1799  0.6208  0.3095
 4794SOL    HW125844   4.135   0.544   1.865  1.6662  0.0650  0.9647
 4794SOL    HW225845   4.172   0.406   1.912 -0.2637  0.4928  0.0615
 4795SOL     OW25846   2.487   1.248  15.121 -0.2655 -0.0398  0.4302
 4795SOL    HW125847   2.513   1.184  15.054 -1.6281 -0.2902  0.1325
 4795SOL    HW225848   2.429   1.188  15.167 -0.5696 -0.7439 -0.8783
 4796SOL     OW25849   3.899   0.244   6.945  0.2276 -0.7495  0.0193
 4796SOL    HW125850   3.862   0.311   7.003  0.0378  0.0435 -1.0324
 4796SOL    HW225851   3.827   0.231   6.883  0.4426 -1.1514 -0.1463
 4797SOL     OW25852   3.663   3.013  12.797 -0.3313  0.1342 -0.0464
 4797SOL    HW125853   3.713   2.936  12.821  1.9932  1.4320 -0.7220
 4797SOL    HW225854   3.733   3.079  12.787 -1.6863  1.7818  1.2557
 4798SOL     OW25855   1.808   0.882   3.418  0.2495 -0.4752  0.5174
 4798SOL    HW125856   1.897   0.914   3.407 -0.9898  1.0502 -5.0753
 4798SOL    HW225857   1.815   0.853   3.509 -0.0642  0.5231  0.8609
 4799SOL     OW25858   0.639   3.680   6.193 -0.1268 -0.1528  0.4834
 4799SOL    HW125859   0.646   3.696   6.287  1.7438  1.4562  0.0775
 4799SOL    HW225860   0.606   3.767   6.172  0.6917  0.2535  0.8542
 4800SOL     OW25861   3.898   1.004   8.307 -0.2864  0.3955  0.7319
 4800SOL    HW125862   3.978   1.027   8.259 -0.5584 -1.4812 -0.6417
 4800SOL    HW225863   3.918   1.038   8.394  2.1095 -0.6591  0.5936
 4801SOL     OW25864   1.468   3.601  11.867 -0.2669 -0.1502 -0.1043
 4801SOL    HW125865   1.498   3.574  11.781 -2.4183 -0.0244 -0.8961
 4801SOL    HW225866   1.389   3.647  11.837  0.9187  1.6430 -0.4709
 4802SOL     OW25867   0.954   1.962   4.593  0.3622 -0.1871 -0.0719
 4802SOL    HW125868   1.030   1.920   4.633 -1.7454 -2.5790  1.3886
 4802SOL    HW225869   1.006   2.039   4.570  0.6060 -0.8594 -1.7354
 4803SOL     OW25870   3.331   0.048   6.855 -0.2657  0.3977 -0.1654
 4803SOL    HW125871   3.302   4.682   6.880 -1.8749  1.1710  0.6868
 4803SOL    HW225872   3.272   0.072   6.783  1.6860  0.3313 -1.7769
 4804SOL     OW25873   2.523   0.646   3.899 -0.0627  0.1767  0.4797
 4804SOL    HW125874   2.606   0.693   3.894 -0.3280  0.5123 -0.6423
 4804SOL    HW225875   2.517   0.601   3.815 -2.7716  0.2445  0.6347
 4805SOL     OW25876   0.181   3.347   1.063 -0.3008  0.0397 -0.4576
 4805SOL    HW125877   0.236   3.390   1.129 -0.8874  1.9480 -1.2180
 4805SOL    HW225878   0.208   3.256   1.078  0.1900  0.1423 -0.7376
 4806SOL     OW25879   3.029   3.664   9.254 -0.0091  0.1550 -0.6023
 4806SOL    HW125880   3.092   3.631   9.318  0.4063  1.5683 -0.2866
 4806SOL    HW225881   2.989   3.736   9.302 -2.0890 -0.4534 -1.4034
 4807SOL     OW25882   2.076   0.549   9.994 -0.3852  0.1244 -0.1567
 4807SOL    HW125883   2.070   0.504  10.078 -1.1535  0.0273 -0.2632
 4807SOL    HW225884   1.990   0.592   9.991 -1.2054 -1.7131 -2.4450
 4808SOL     OW25885   1.475   2.046   8.997  0.7184  0.5944 -0.0174
 4808SOL    HW125886   1.459   2.116   9.060  1.9060  0.3026  0.6150
 4808SOL    HW225887   1.439   1.972   9.046  0.9917  0.4345 -0.0609
 4809SOL     OW25888   3.108   4.608  10.192  0.0062 -0.1919  0.0080
 4809SOL    HW125889   3.035   4.623  10.132 -1.7205 -2.4934  1.5263
 4809SOL    HW225890   3.131   4.523  10.154 -1.4496 -0.6520  0.1469
 4810SOL     OW25891   2.881   0.408   7.197  0.0927 -0.2986  0.9189
 4810SOL    HW125892   2.907   0.385   7.286  1.9733  0.4638  0.5691
 4810SOL    HW225893   2.826   0.333   7.175  0.0433  0.6921 -2.3760
 4811SOL     OW25894   2.470   2.142  13.184  0.1737  0.2042  0.0619
 4811SOL    HW125895   2.398   2.175  13.131  0.9276  0.8325 -0.5628
 4811SOL    HW225896   2.488   2.057  13.144  1.3392  0.8441 -0.7570
 4812SOL     OW25897   2.083   0.954   3.322 -0.8211  0.1430  0.2769
 4812SOL    HW125898   2.128   0.899   3.258 -0.8493  0.4842 -0.0365
 4812SOL    HW225899   2.057   1.028   3.268  0.7589 -0.7085 -1.6421
 4813SOL     OW25900   1.819   3.105   0.594 -0.4471 -0.8478 -0.1373
 4813SOL    HW125901   1.742   3.078   0.643 -0.8106 -1.2524 -0.9379
 4813SOL    HW225902   1.868   3.023   0.586 -0.7827 -0.7266 -3.4440
 4814SOL     OW25903   1.785   3.090   7.723 -0.3262 -0.5261 -0.2972
 4814SOL    HW125904   1.776   3.185   7.735  0.2606 -0.6568  1.1141
 4814SOL    HW225905   1.743   3.076   7.638 -0.6961  0.1635 -0.2307
 4815SOL     OW25906   3.403   2.113   2.411  0.2214  0.0121  0.3056
 4815SOL    HW125907   3.494   2.142   2.409  0.8940 -2.1992 -1.0624
 4815SOL    HW225908   3.368   2.173   2.476  0.4674 -1.7214  2.0368
 4816SOL     OW25909   1.445   2.184   5.681  0.6038  0.3080  0.3580
 4816SOL    HW125910   1.398   2.267   5.695 -1.0450 -0.7165  0.8939
 4816SOL    HW225911   1.415   2.159   5.594  0.4484  1.2935  0.1234
 4817SOL     OW25912   3.372   3.420   5.198 -0.1740 -0.1850 -0.2811
 4817SOL    HW125913   3.314   3.345   5.181 -1.4329  0.4846  1.0989
 4817SOL    HW225914   3.424   3.415   5.117 -0.4417  0.0546 -0.4633
 4818SOL     OW25915   4.435   4.552  10.028  0.0216 -0.2603 -0.4183
 4818SOL    HW125916   4.416   4.643  10.009 -1.8191 -1.0040 -2.1237
 4818SOL    HW225917   4.518   4.561  10.076  0.1237 -0.1935 -0.6083
 4819SOL     OW25918   4.271   0.011   3.876 -0.2243 -0.2923 -0.0467
 4819SOL    HW125919   4.320   4.677   3.937  0.1989  1.3922  1.1517
 4819SOL    HW225920   4.309   4.707   3.792 -0.9019  1.7602 -0.9881
 4820SOL     OW25921   0.727   1.861   4.259  0.2610 -0.5833 -0.5107
 4820SOL    HW125922   0.683   1.840   4.177  0.4423 -2.0808 -0.2243
 4820SOL    HW225923   0.722   1.956   4.259  2.3753 -0.4821  1.1834
 4821SOL     OW25924   3.274   0.697   1.836  0.2005 -0.6205 -0.4304
 4821SOL    HW125925   3.275   0.695   1.740  3.2713 -1.8574 -0.3844
 4821SOL    HW225926   3.213   0.769   1.849 -0.5061 -0.9115 -2.1350
 4822SOL     OW25927   2.875   4.568   0.413 -0.1085 -0.2955 -0.1005
 4822SOL    HW125928   2.937   4.512   0.366 -3.0693 -2.7897 -0.9683
 4822SOL    HW225929   2.845   4.500   0.473  0.9143  1.3067  2.2539
 4823SOL     OW25930   2.277   1.618   4.296 -0.6212  0.1444 -0.1406
 4823SOL    HW125931   2.232   1.560   4.234 -0.9038 -0.8573  1.0010
 4823SOL    HW225932   2.347   1.561   4.328  2.9415  3.8294 -1.2597
 4824SOL     OW25933   3.374   4.627   6.544 -0.2370 -0.2008 -0.7854
 4824SOL    HW125934   3.308   4.697   6.550 -0.9018 -0.7054 -2.1976
 4824SOL    HW225935   3.376   4.598   6.453 -0.1949  0.4971 -1.0125
 4825SOL     OW25936   2.657   1.129  14.185 -0.0400  0.3285  0.1214
 4825SOL    HW125937   2.572   1.174  14.190 -1.0626 -1.6679  0.8732
 4825SOL    HW225938   2.636   1.045  14.227 -1.0946  0.6411  0.2252
 4826SOL     OW25939   3.796   4.634  15.295 -0.4360  0.3998 -0.0629
 4826SOL    HW125940   3.828   4.650  15.206  3.0609  0.8221  1.2394
 4826SOL    HW225941   3.866   4.576  15.326 -0.8775  0.3581  0.8586
 4827SOL     OW25942   4.592   0.689   6.796  0.0701 -0.8292 -0.0939
 4827SOL    HW125943   4.524   0.696   6.729 -1.5716  0.9376  1.7601
 4827SOL    HW225944   4.550   0.634   6.862 -0.9170  1.8565  1.5151
 4828SOL     OW25945   0.804   0.114   4.334  0.5005  0.0181 -0.1883
 4828SOL    HW125946   0.882   0.064   4.311 -0.7195 -0.9298 -2.3250
 4828SOL    HW225947   0.768   0.129   4.247  0.3555 -2.7821 -0.5968
 4829SOL     OW25948   3.761   1.069  16.962  0.8936 -0.0996 -0.2045
 4829SOL    HW125949   3.718   1.070  17.048 -0.7449  0.5132 -1.0413
 4829SOL    HW225950   3.685   1.032  16.918  2.4586 -0.8995 -2.2191
 4830SOL     OW25951   4.583   0.802   3.723  0.2415  0.4791 -0.3546
 4830SOL    HW125952   4.559   0.894   3.711  0.7889  0.7693  0.8315
 4830SOL    HW225953   4.616   0.803   3.812  0.3695 -2.5731 -0.3588
 4831SOL     OW25954   1.499   2.026   5.044 -0.1876  0.0018 -0.4453
 4831SOL    HW125955   1.497   1.936   5.079 -1.1554 -0.0598 -0.6684
 4831SOL    HW225956   1.584   2.029   4.999  0.0419 -1.0341 -0.1045
 4832SOL     OW25957   4.131   2.739   4.293  0.5657 -0.1609  0.1333
 4832SOL    HW125958   4.078   2.787   4.358  1.6250  2.0376 -0.6263
 4832SOL    HW225959   4.168   2.667   4.344 -1.5172  0.0635  2.0090
 4833SOL     OW25960   3.363   4.283   8.065  0.0986 -0.3937  0.2780
 4833SOL    HW125961   3.408   4.367   8.076  2.3923 -1.7281  1.0319
 4833SOL    HW225962   3.353   4.287   7.970  3.0619  2.4662  0.0931
 4834SOL     OW25963   2.094   4.575  13.955 -0.2350  0.0711 -0.3549
 4834SOL    HW125964   2.048   4.499  13.993 -0.2531  1.0605  1.5954
 4834SOL    HW225965   2.024   4.640  13.965  0.6447  0.8243  0.8207
 4835SOL     OW25966   1.960   2.616  17.645 -0.7194  0.3875 -0.4945
 4835SOL    HW125967   2.046   2.646  17.675 -0.5509  1.5657 -2.1266
 4835SOL    HW225968   1.910   2.697  17.638 -0.8438  0.1560 -2.2212
 4836SOL     OW25969   3.352   2.151   9.444  0.0177  0.5281  0.3931
 4836SOL    HW125970   3.392   2.226   9.400 -0.8697  1.0185  0.4320
 4836SOL    HW225971   3.267   2.191   9.459  0.5406  1.7296  0.1518
 4837SOL     OW25972   1.709   4.422   7.779  0.1679 -0.4818 -0.4624
 4837SOL    HW125973   1.716   4.496   7.840  2.2600 -0.1498 -1.1060
 4837SOL    HW225974   1.616   4.403   7.790  0.1213 -0.7429 -1.3399
 4838SOL     OW25975   3.254   3.348   7.935 -0.5029  0.3149 -0.3725
 4838SOL    HW125976   3.298   3.430   7.957 -2.2267  1.2174 -0.3217
 4838SOL    HW225977   3.162   3.375   7.931 -1.2901 -2.3967 -0.2185
 4839SOL     OW25978   0.356   3.062   3.448 -0.0186 -0.3017  0.1840
 4839SOL    HW125979   0.297   2.988   3.435 -0.3167  0.1102 -0.8648
 4839SOL    HW225980   0.321   3.118   3.378  2.3524  2.1800  0.9727
 4840SOL     OW25981   3.572   2.441   9.029 -0.3728 -0.7405  0.2276
 4840SOL    HW125982   3.624   2.491   8.965  0.0301 -0.5311  0.7194
 4840SOL    HW225983   3.640   2.383   9.063 -2.2611 -2.8572  0.3633
 4841SOL     OW25984   0.317   4.467   9.220 -0.5724  0.9469  0.0103
 4841SOL    HW125985   0.395   4.423   9.254  0.1892  2.0642 -0.2689
 4841SOL    HW225986   0.293   4.418   9.142  1.2226 -1.1264  0.7450
 4842SOL     OW25987   2.795   4.554   2.545  0.3716  0.0760 -0.3526
 4842SOL    HW125988   2.712   4.594   2.570 -0.3368 -1.2835 -0.5079
 4842SOL    HW225989   2.766   4.504   2.468  0.6417  0.1379 -0.4969
 4843SOL     OW25990   1.638   0.923   5.593  0.4172  0.1155  0.2828
 4843SOL    HW125991   1.643   0.885   5.506 -0.5315 -2.8124  1.5013
 4843SOL    HW225992   1.728   0.913   5.626  1.1501  1.7234 -1.2808
 4844SOL     OW25993   2.656   1.138   6.771  0.4590  0.5027 -0.1975
 4844SOL    HW125994   2.606   1.199   6.825 -0.6578  1.9973 -2.8740
 4844SOL    HW225995   2.711   1.200   6.723  0.7875  0.7175  0.4584
 4845SOL     OW25996   4.340   2.825   4.927 -0.5441 -0.6750 -0.3130
 4845SOL    HW125997   4.277   2.775   4.978  0.3978 -0.9557  0.5623
 4845SOL    HW225998   4.419   2.809   4.978 -0.3245  0.6245 -0.2617
 4846SOL     OW25999   4.028   1.610  13.203  0.0649  0.7102 -0.0816
 4846SOL    HW126000   4.095   1.588  13.268  0.5603 -1.5554 -1.3776
 4846SOL    HW226001   4.067   1.561  13.131 -0.0799  0.4923 -0.0117
 4847SOL     OW26002   1.450   3.829   6.629  0.1683 -0.3550  0.1491
 4847SOL    HW126003   1.422   3.749   6.674  1.6734 -1.0749 -0.1845
 4847SOL    HW226004   1.374   3.887   6.638  0.3796 -0.1251  0.4867
 4848SOL     OW26005   0.562   1.931  14.592  0.2602 -0.0685 -0.4561
 4848SOL    HW126006   0.480   1.896  14.559  1.3666  2.2254 -5.5781
 4848SOL    HW226007   0.600   1.945  14.505  2.2927 -0.7081  0.3133
 4849SOL     OW26008   4.350   3.838   3.255  0.4660 -0.2720  0.1235
 4849SOL    HW126009   4.418   3.776   3.283  0.4995 -0.1624  0.2862
 4849SOL    HW226010   4.386   3.873   3.174 -2.4914 -0.6970 -1.3532
 4850SOL     OW26011   3.236   3.918  16.893  0.3480 -0.6115 -0.0007
 4850SOL    HW126012   3.165   3.899  16.953  0.5686 -1.4355 -0.0068
 4850SOL    HW226013   3.237   3.836  16.844  1.1260  0.9145 -2.5291
 4851SOL     OW26014   2.713   1.672   3.296  0.2402  0.3651  0.6656
 4851SOL    HW126015   2.710   1.605   3.364  0.1541  0.0842  0.3871
 4851SOL    HW226016   2.629   1.665   3.252  0.2976  0.8006  0.4832
 4852SOL     OW26017   4.005   2.736   4.666  0.1449  0.1555  0.1035
 4852SOL    HW126018   4.013   2.784   4.584  0.0361  2.0406  1.1992
 4852SOL    HW226019   3.932   2.677   4.645  0.4980  0.3001 -1.4711
 4853SOL     OW26020   3.152   3.760   4.155  0.3301 -0.1544  0.1299
 4853SOL    HW126021   3.061   3.786   4.141  0.7489  1.2385 -0.0026
 4853SOL    HW226022   3.180   3.823   4.222  0.1393  0.5870 -0.4925
 4854SOL     OW26023   0.745   2.069   6.566 -0.0291  0.4984  0.1473
 4854SOL    HW126024   0.744   2.046   6.474  0.3200  0.6302  0.1089
 4854SOL    HW226025   0.831   2.105   6.589  0.5204 -0.7455  0.0453
 4855SOL     OW26026   1.198   0.547   9.176  0.0266 -0.3405  0.5962
 4855SOL    HW126027   1.270   0.532   9.238 -0.9269 -0.3715  1.6799
 4855SOL    HW226028   1.195   0.468   9.122  0.5306 -0.3286  0.5488
 4856SOL     OW26029   3.649   2.266   3.747  0.2058  0.2804  0.0798
 4856SOL    HW126030   3.576   2.223   3.792  0.7032 -0.6628  0.0005
 4856SOL    HW226031   3.714   2.197   3.759  0.8491  1.2099  1.9521
 4857SOL     OW26032   3.462   2.052   0.168  0.5171 -0.2291 -0.7621
 4857SOL    HW126033   3.374   2.069   0.137  0.3670 -1.3944 -0.9811
 4857SOL    HW226034   3.458   2.128   0.226  1.9246  0.4706 -1.5832
 4858SOL     OW26035   2.624   3.888   5.589 -0.1487 -0.1061 -0.0453
 4858SOL    HW126036   2.560   3.818   5.573 -0.6328  0.2303  0.4519
 4858SOL    HW226037   2.554   3.944   5.623  0.5788  1.4235 -1.0785
 4859SOL     OW26038   4.368   1.318   7.930 -0.1736  0.3821  0.4587
 4859SOL    HW126039   4.354   1.345   7.839  1.9085 -0.1387 -0.0246
 4859SOL    HW226040   4.444   1.371   7.955 -0.1766 -0.2147  1.7273
 4860SOL     OW26041   3.573   3.555   5.870 -0.1809  0.3562 -0.4042
 4860SOL    HW126042   3.602   3.632   5.821  2.9605 -0.5877 -0.0159
 4860SOL    HW226043   3.515   3.505   5.813 -0.4842  1.8136 -1.3963
 4861SOL     OW26044   3.011   1.924  16.268  1.1014 -0.8670  0.2208
 4861SOL    HW126045   2.941   1.979  16.302  0.4495 -1.7586  0.2981
 4861SOL    HW226046   3.063   1.990  16.222 -0.1536 -0.2133 -0.2659
 4862SOL     OW26047   2.418   1.951   7.086  0.1074  0.4324 -0.0455
 4862SOL    HW126048   2.394   2.033   7.044  0.8235  0.7188  0.1147
 4862SOL    HW226049   2.502   1.931   7.044 -0.9585 -2.3453 -0.8987
 4863SOL     OW26050   2.125   4.369   7.301 -0.0157  0.2824  0.0691
 4863SOL    HW126051   2.044   4.383   7.350 -0.1017 -0.9828  0.2952
 4863SOL    HW226052   2.145   4.283   7.338  0.2475  0.7508  1.0171
 4864SOL     OW26053   1.821   2.106   9.259  0.1953  0.1478 -0.0172
 4864SOL    HW126054   1.808   2.117   9.165  0.2122  0.5135  0.0211
 4864SOL    HW226055   1.818   2.012   9.276  0.9082 -0.0143 -0.7621
 4865SOL     OW26056   2.461   2.458   8.857  0.0251 -0.3810 -0.0460
 4865SOL    HW126057   2.437   2.487   8.769  0.0754 -0.8790 -0.2257
 4865SOL    HW226058   2.429   2.537   8.901  0.7832  0.5291 -1.1320
 4866SOL     OW26059   3.715   3.656   7.464  0.5882 -0.3560 -0.0006
 4866SOL    HW126060   3.679   3.716   7.399  1.4742  1.5171  1.2371
 4866SOL    HW226061   3.808   3.674   7.452 -0.0481  2.8652 -0.0970
 4867SOL     OW26062   2.316   1.928   5.803 -0.1485  0.5041  0.0099
 4867SOL    HW126063   2.305   2.015   5.841  2.6492  0.8361  0.0926
 4867SOL    HW226064   2.331   1.967   5.717  2.4469 -2.7305 -1.0005
 4868SOL     OW26065   3.823   1.799  13.282  0.3896  0.6424 -0.0619
 4868SOL    HW126066   3.885   1.727  13.267  0.1438  0.3012  0.5749
 4868SOL    HW226067   3.861   1.846  13.356  1.0351 -0.3720  0.2503
 4869SOL     OW26068   4.352   2.852   6.690 -0.4399 -0.2308 -0.3242
 4869SOL    HW126069   4.356   2.780   6.752 -2.3001  1.0759  1.3281
 4869SOL    HW226070   4.283   2.911   6.720  0.0456  0.3696 -0.3990
 4870SOL     OW26071   4.678   0.116   5.251 -0.5471 -0.3543 -0.6193
 4870SOL    HW126072   0.052   0.114   5.256 -0.4531  0.1654 -2.4108
 4870SOL    HW226073   4.659   0.080   5.165  1.3372  1.8696 -1.9631
 4871SOL     OW26074   4.156   3.348  10.648  0.4192 -0.3760 -0.3783
 4871SOL    HW126075   4.090   3.279  10.660 -1.6171  1.1268 -2.9801
 4871SOL    HW226076   4.200   3.320  10.568  1.1508 -1.1915  0.3092
 4872SOL     OW26077   3.171   4.067   8.180  0.3006  0.2080 -0.1663
 4872SOL    HW126078   3.163   4.157   8.150  0.1300  0.4096  0.4785
 4872SOL    HW226079   3.080   4.058   8.210  0.6064 -2.5675 -0.1221
 4873SOL     OW26080   1.192   0.098  14.602  0.3126  0.6561 -0.5020
 4873SOL    HW126081   1.133   0.098  14.526  0.5839  0.0864 -0.7137
 4873SOL    HW226082   1.229   0.018  14.565  1.5180  0.6883  0.6318
 4874SOL     OW26083   2.891   1.656   4.629 -0.6240  0.5408  0.2510
 4874SOL    HW126084   2.913   1.581   4.574 -0.1208  0.6258  0.3379
 4874SOL    HW226085   2.803   1.642   4.664 -1.9004  2.9410 -1.9786
 4875SOL     OW26086   2.225   1.762  13.843 -0.1456 -0.0277 -0.2632
 4875SOL    HW126087   2.228   1.713  13.761 -0.5628  2.1379 -1.5458
 4875SOL    HW226088   2.291   1.831  13.835 -0.6094  0.3035 -1.2058
 4876SOL     OW26089   0.498   0.913   6.096  0.2081  0.1503 -0.2941
 4876SOL    HW126090   0.425   0.938   6.153 -1.2477 -0.5457 -1.8565
 4876SOL    HW226091   0.512   0.819   6.106 -0.5238  0.2313  1.5258
 4877SOL     OW26092   1.816   0.592   6.090  0.2198  0.1203  0.0904
 4877SOL    HW126093   1.903   0.609   6.126  0.1158 -1.6569  1.1656
 4877SOL    HW226094   1.767   0.560   6.165  1.0574  1.0430  1.0415
 4878SOL     OW26095   2.605   0.536  12.687 -0.7316  0.0520  0.5108
 4878SOL    HW126096   2.634   0.457  12.641 -2.1960  1.8271 -3.4118
 4878SOL    HW226097   2.686   0.586  12.676  0.7423 -2.4262  0.0224
 4879SOL     OW26098   1.498   2.068  16.066 -0.0972  0.6912  0.1533
 4879SOL    HW126099   1.586   2.102  16.081  0.1643  0.7274 -1.5294
 4879SOL    HW226100   1.512   1.977  16.039 -0.2199  0.5038  0.7073
 4880SOL     OW26101   0.702   0.583   7.107 -0.0063  0.0443 -0.1584
 4880SOL    HW126102   0.786   0.537   7.110  0.1601  0.3542 -0.0671
 4880SOL    HW226103   0.725   0.650   7.043  0.7252  0.6259  0.7178
 4881SOL     OW26104   1.502   0.386  13.936  0.3248  0.2793 -0.5129
 4881SOL    HW126105   1.547   0.449  13.993 -0.1219  0.8034 -0.7408
 4881SOL    HW226106   1.455   0.336  14.003  2.8566 -0.8400  0.4306
 4882SOL     OW26107   1.788   0.018  10.105  0.6260  0.0668  0.5422
 4882SOL    HW126108   1.696   0.017  10.080  1.0824  0.4932 -1.1413
 4882SOL    HW226109   1.809   4.647  10.117 -0.7730 -0.0649  2.0951
 4883SOL     OW26110   4.148   2.479   4.796 -0.3868  0.2426 -0.3131
 4883SOL    HW126111   4.141   2.538   4.721  0.5448 -0.2422 -0.7817
 4883SOL    HW226112   4.060   2.444   4.804 -0.3521  0.2296  0.0098
 4884SOL     OW26113   3.540   4.016   9.524 -0.4208 -0.4338  0.4891
 4884SOL    HW126114   3.519   4.002   9.432 -1.0728 -1.2614  0.7619
 4884SOL    HW226115   3.629   4.049   9.513 -0.4690 -0.5678 -0.2697
 4885SOL     OW26116   4.098   0.056   5.251  0.0494  0.0419 -0.0225
 4885SOL    HW126117   4.151   0.112   5.307  1.0070 -0.0816 -0.8232
 4885SOL    HW226118   4.141   0.079   5.170  1.3279  1.6511  1.1169
 4886SOL     OW26119   4.161   2.215   5.571 -0.4549  0.1512  0.0840
 4886SOL    HW126120   4.181   2.245   5.482 -1.0526 -0.0604 -0.1225
 4886SOL    HW226121   4.237   2.231   5.626  1.4564 -0.6800 -2.3423
 4887SOL     OW26122   2.863   2.305  16.437 -0.1364  0.1878 -0.4530
 4887SOL    HW126123   2.881   2.287  16.529 -2.2459  1.2227  0.1578
 4887SOL    HW226124   2.941   2.356  16.412 -1.2070  1.4353 -1.2222
 4888SOL     OW26125   2.098   2.880   5.472 -0.6038  0.0761  0.3133
 4888SOL    HW126126   2.144   2.929   5.404  1.7652 -0.4877  1.5025
 4888SOL    HW226127   2.039   2.824   5.422  0.1084 -0.2171 -0.1972
 4889SOL     OW26128   0.592   4.576   4.586 -0.8910 -0.0061  0.1735
 4889SOL    HW126129   0.581   4.536   4.672  1.5280 -4.0864 -1.4038
 4889SOL    HW226130   0.598   4.671   4.600 -0.1265 -0.2224  1.3375
 4890SOL     OW26131   3.396   1.000   8.346 -0.8767 -0.4617 -0.5530
 4890SOL    HW126132   3.399   1.056   8.269  0.1970  2.3174  1.4792
 4890SOL    HW226133   3.430   0.918   8.311  2.1777 -0.5734  2.5983
 4891SOL     OW26134   4.526   2.863  11.045  0.5398 -0.3745  0.6799
 4891SOL    HW126135   4.581   2.812  10.986  0.0388  0.1114 -0.2065
 4891SOL    HW226136   4.436   2.837  11.026  1.0632  0.2325 -2.5961
 4892SOL     OW26137   2.027   3.425  16.742  0.6598 -0.1635 -0.1383
 4892SOL    HW126138   2.089   3.418  16.814 -0.4845 -1.4010  0.7330
 4892SOL    HW226139   2.044   3.515  16.714  0.3422 -0.2401 -0.5868
 4893SOL     OW26140   1.231   2.550   7.685 -0.0902 -0.2874 -0.1028
 4893SOL    HW126141   1.145   2.592   7.680  1.3777  2.9615  2.1555
 4893SOL    HW226142   1.207   2.459   7.701  0.0219  0.2725  3.1540
 4894SOL     OW26143   1.438   2.926   1.093  0.3270 -0.0391 -0.3005
 4894SOL    HW126144   1.518   2.874   1.100  1.4981  1.4219 -2.9437
 4894SOL    HW226145   1.396   2.893   1.014  0.6202 -0.0672 -0.4407
 4895SOL     OW26146   2.600   3.949   1.830 -0.1158 -0.1601 -0.1585
 4895SOL    HW126147   2.540   3.878   1.853 -0.2500 -0.3884 -1.2394
 4895SOL    HW226148   2.631   3.921   1.744  1.9596 -2.5984  1.3650
 4896SOL     OW26149   0.011   1.974   7.182  0.5859 -0.0095  0.3849
 4896SOL    HW126150   4.679   1.937   7.252 -1.4770 -0.2727 -1.3258
 4896SOL    HW226151   4.692   1.950   7.098  0.8642  1.3532 -0.1429
 4897SOL     OW26152   4.460   0.450  17.674  0.0231  0.2266  0.6226
 4897SOL    HW126153   4.400   0.375  17.678 -2.2543  2.0192  0.1149
 4897SOL    HW226154   4.530   0.417  17.616 -1.5671 -1.3511 -0.3983
 4898SOL     OW26155   1.421   4.465   7.006 -0.4472 -0.5688  0.1356
 4898SOL    HW126156   1.475   4.542   6.987 -0.5903 -0.0828  1.6855
 4898SOL    HW226157   1.336   4.475   6.963 -0.5715 -0.3311  0.4389
 4899SOL     OW26158   3.351   1.129   5.314  0.1806 -0.6009 -0.2524
 4899SOL    HW126159   3.308   1.139   5.398  3.0244 -1.0837  1.2578
 4899SOL    HW226160   3.421   1.190   5.336  1.0995 -1.5611 -0.4738
 4900SOL     OW26161   1.845   1.801   6.837 -0.6309  0.3662  0.1400
 4900SOL    HW126162   1.814   1.838   6.754  0.0593  0.5847 -0.0239
 4900SOL    HW226163   1.798   1.858   6.897 -1.2005  0.6586 -0.5891
 4901SOL     OW26164   4.082   0.394   4.854 -0.0013  0.2152  0.2670
 4901SOL    HW126165   4.009   0.415   4.912 -0.0872  1.1075 -0.1574
 4901SOL    HW226166   4.094   0.483   4.821  0.1456 -0.0404 -0.3823
 4902SOL     OW26167   4.202   4.326  14.587  0.3768 -0.0506 -0.0988
 4902SOL    HW126168   4.234   4.313  14.498 -1.9814  2.3490 -1.3034
 4902SOL    HW226169   4.195   4.421  14.582 -1.8448 -0.2113  0.1996
 4903SOL     OW26170   4.189   2.342   6.319 -0.1291 -0.3771  0.4524
 4903SOL    HW126171   4.187   2.436   6.302 -0.3024 -0.5999 -0.6975
 4903SOL    HW226172   4.099   2.341   6.352 -0.8881  2.7969 -1.5522
 4904SOL     OW26173   0.175   4.587   8.584 -0.4922 -0.3801  0.8772
 4904SOL    HW126174   0.233   4.531   8.635  1.9486 -1.2854 -2.9327
 4904SOL    HW226175   0.225   4.590   8.503  0.1266 -0.5946  1.2540
 4905SOL     OW26176   4.614   2.399  16.471  0.5669 -0.0715 -0.4817
 4905SOL    HW126177   4.615   2.383  16.565 -0.6985  1.0917 -0.2774
 4905SOL    HW226178   4.642   2.490  16.481 -1.0657  0.0073  3.4199
 4906SOL     OW26179   3.416   3.045   4.412 -0.4556  0.1046 -0.5816
 4906SOL    HW126180   3.488   3.107   4.402  0.7950 -1.3605 -0.7346
 4906SOL    HW226181   3.409   2.991   4.333  1.9038 -1.9689  0.6191
 4907SOL     OW26182   1.641   3.363   4.903  0.0952 -0.4236 -0.0264
 4907SOL    HW126183   1.600   3.287   4.946 -3.5756  2.2106  1.1685
 4907SOL    HW226184   1.680   3.326   4.824 -2.5377 -0.9672 -1.0607
 4908SOL     OW26185   1.852   1.497   7.031 -0.1520 -0.0731  0.1184
 4908SOL    HW126186   1.909   1.465   7.101  0.3173 -0.9481 -0.6529
 4908SOL    HW226187   1.783   1.539   7.082 -0.9075  1.0330 -1.8114
 4909SOL     OW26188   0.555   1.597  17.591  0.2866  0.0439  0.8472
 4909SOL    HW126189   0.648   1.576  17.582  0.3059  0.4959  0.0821
 4909SOL    HW226190   0.541   1.621  17.500  1.5442 -2.5951 -0.0549
 4910SOL     OW26191   0.470   4.163  13.523  0.6059 -0.7956 -0.2279
 4910SOL    HW126192   0.395   4.108  13.544 -0.1786  0.2755 -0.2110
 4910SOL    HW226193   0.486   4.219  13.599  0.2810 -1.7132  0.5260
 4911SOL     OW26194   0.101   4.111   7.287  0.3247  0.1501  0.0295
 4911SOL    HW126195   0.152   4.157   7.354 -1.0023  1.6383  0.0030
 4911SOL    HW226196   0.158   4.097   7.212  1.3367 -1.8032  1.1732
 4912SOL     OW26197   4.438   1.186  11.029 -0.3367  0.2974  0.4784
 4912SOL    HW126198   4.527   1.169  10.998 -0.6563 -2.0394  0.8602
 4912SOL    HW226199   4.408   1.209  10.941  0.0622 -0.2765  0.1888
 4913SOL     OW26200   4.100   1.952   1.972 -0.0543 -0.2891 -0.1347
 4913SOL    HW126201   4.160   1.884   1.940 -0.9219 -1.8508  1.5563
 4913SOL    HW226202   4.150   2.032   1.956 -1.2235  0.0730 -1.9392
 4914SOL     OW26203   4.006   2.713   3.013 -0.3999  0.5863 -0.0230
 4914SOL    HW126204   3.999   2.620   2.990 -2.1178  1.3930 -2.8428
 4914SOL    HW226205   3.915   2.743   3.009 -0.3765  0.7644  0.9488
 4915SOL     OW26206   3.423   1.430  12.656  0.8769 -0.3976 -0.7250
 4915SOL    HW126207   3.392   1.520  12.668  0.2117 -0.5497 -1.3474
 4915SOL    HW226208   3.492   1.457  12.595  0.9387 -5.5280 -2.8979
 4916SOL     OW26209   4.546   4.205   4.076  0.7384 -0.4861 -0.9277
 4916SOL    HW126210   4.500   4.149   4.139 -1.3510  0.2595 -1.8110
 4916SOL    HW226211   4.501   4.203   3.992  0.6505  0.6069 -0.9021
 4917SOL     OW26212   0.631   2.660   3.880  0.1860 -0.5639  0.1025
 4917SOL    HW126213   0.576   2.582   3.874  0.7769 -0.8444 -1.6504
 4917SOL    HW226214   0.718   2.620   3.885 -0.4112 -2.0383 -1.5945
 4918SOL     OW26215   3.768   4.050   3.650 -0.2064 -0.4033  0.0002
 4918SOL    HW126216   3.673   4.060   3.647 -0.1636  0.5562  1.9257
 4918SOL    HW226217   3.783   3.983   3.716 -1.3830 -0.1595  0.5223
 4919SOL     OW26218   4.086   4.287   2.607  0.0235  0.2964 -0.6992
 4919SOL    HW126219   4.087   4.212   2.666 -0.4008  1.0800  0.3101
 4919SOL    HW226220   4.094   4.248   2.521 -1.1124 -2.1551  0.3117
 4920SOL     OW26221   2.964   0.492   1.378 -0.0230 -0.1476  0.4229
 4920SOL    HW126222   3.044   0.464   1.421 -0.2831 -0.6971  0.5527
 4920SOL    HW226223   2.904   0.420   1.397  0.5193 -0.9067 -0.7420
 4921SOL     OW26224   3.759   3.597   1.715  0.8152 -0.3219  0.0291
 4921SOL    HW126225   3.705   3.664   1.758 -0.2671 -1.2622  0.1529
 4921SOL    HW226226   3.838   3.598   1.769  0.2894 -0.3814  0.7960
 4922SOL     OW26227   3.179   2.174   2.950  0.1447 -0.5853 -0.2373
 4922SOL    HW126228   3.134   2.133   2.877 -0.4364  0.3468 -0.4010
 4922SOL    HW226229   3.165   2.106   3.017 -0.3954  0.5012  0.7627
 4923SOL     OW26230   0.033   0.755   6.234 -0.2891 -0.2227 -0.1595
 4923SOL    HW126231   4.661   0.748   6.251 -0.3281  0.5406 -0.0615
 4923SOL    HW226232   0.071   0.668   6.220  1.2392  0.3333  0.5182
 4924SOL     OW26233   1.854   2.534   6.564 -0.0789 -0.2673 -0.2477
 4924SOL    HW126234   1.831   2.454   6.516 -1.3121  1.6988 -2.9211
 4924SOL    HW226235   1.918   2.565   6.500 -0.5842 -0.0064 -0.6270
 4925SOL     OW26236   2.424   4.054   2.026 -0.2890  0.4333 -0.0964
 4925SOL    HW126237   2.373   3.991   2.077  0.5147 -0.0446  0.1107
 4925SOL    HW226238   2.478   4.001   1.968  0.5269  0.8305  0.2976
 4926SOL     OW26239   4.021   0.892   4.072  0.2883 -0.2362 -0.2757
 4926SOL    HW126240   3.949   0.830   4.060 -1.3325  1.4520  0.6863
 4926SOL    HW226241   4.020   0.936   3.987 -2.8115  1.2939  0.5635
 4927SOL     OW26242   0.138   3.898   5.929  0.6515  0.0638  0.0023
 4927SOL    HW126243   0.126   3.950   5.850 -1.2996  0.1488  0.3488
 4927SOL    HW226244   0.128   3.972   5.990  1.1336  0.1992 -0.0825
 4928SOL     OW26245   3.056   1.308   8.602 -0.3137  0.2055  0.1988
 4928SOL    HW126246   3.001   1.387   8.601  0.8895  1.0556  0.8754
 4928SOL    HW226247   3.135   1.347   8.641  0.5678 -0.4535 -0.9166
 4929SOL     OW26248   0.983   4.631   5.743 -0.2317  0.4892 -0.4345
 4929SOL    HW126249   0.962   4.607   5.653 -1.6008 -0.3771  0.1018
 4929SOL    HW226250   1.051   4.567   5.765 -0.6462 -0.2276 -1.2169
 4930SOL     OW26251   4.307   4.090   9.658  0.0199  0.2266  0.3232
 4930SOL    HW126252   4.386   4.095   9.604  1.0590  2.3680  2.0438
 4930SOL    HW226253   4.239   4.134   9.606 -0.6803  2.8951  3.4795
 4931SOL     OW26254   0.603   1.814   4.040  0.7222 -0.4705 -0.1016
 4931SOL    HW126255   0.560   1.731   4.020 -1.2608  0.5740 -0.2017
 4931SOL    HW226256   0.554   1.883   3.995  0.1137 -0.5826  0.3968
 4932SOL     OW26257   0.662   0.783   1.841  0.4042 -0.8041  0.3042
 4932SOL    HW126258   0.754   0.759   1.830  1.1355  1.6352  1.0340
 4932SOL    HW226259   0.651   0.801   1.934  0.0092  0.4861  0.0168
 4933SOL     OW26260   0.025   1.850   6.701 -0.4342  0.5246 -0.6746
 4933SOL    HW126261   0.046   1.866   6.609  0.0978  1.0572 -0.4600
 4933SOL    HW226262   0.046   1.757   6.688  0.1086  0.5181  0.3004
 4934SOL     OW26263   1.443   3.892   0.519  0.3974 -0.0573  0.2297
 4934SOL    HW126264   1.378   3.875   0.588 -0.7535 -0.4705 -0.9626
 4934SOL    HW226265   1.444   3.802   0.485  0.7581 -0.2735  0.8137
 4935SOL     OW26266   1.572   3.193  12.374  0.0951  0.1680 -0.2395
 4935SOL    HW126267   1.557   3.193  12.469 -1.3895 -1.3153 -0.4847
 4935SOL    HW226268   1.591   3.285  12.355  1.8519 -0.4461 -1.4590
 4936SOL     OW26269   1.919   0.711   4.743  0.3895 -0.6133 -0.5846
 4936SOL    HW126270   1.841   0.664   4.772 -1.0379  2.0633 -0.1300
 4936SOL    HW226271   1.921   0.695   4.649  1.8093  3.0504 -1.1949
 4937SOL     OW26272   3.139   3.458  16.417 -0.6616 -0.3171  0.4802
 4937SOL    HW126273   3.082   3.534  16.414 -3.0356 -2.1178 -0.0550
 4937SOL    HW226274   3.102   3.413  16.341  1.7307 -1.1476 -0.2053
 4938SOL     OW26275   1.568   0.960  15.008 -0.4480  0.3636  0.1043
 4938SOL    HW126276   1.606   0.882  15.049 -1.2644  0.0940  0.3511
 4938SOL    HW226277   1.644   0.984  14.956 -0.1745 -2.2603 -0.7372
 4939SOL     OW26278   1.709   0.049   0.153  0.4099 -0.2597 -0.0818
 4939SOL    HW126279   1.669   0.131   0.181  0.2299 -0.4415  0.1977
 4939SOL    HW226280   1.758   0.012   0.227  0.2391  1.1974  0.7574
 4940SOL     OW26281   3.324   1.415  14.167  0.3305  0.5168  0.2566
 4940SOL    HW126282   3.336   1.361  14.089 -0.1465  0.9470 -0.1190
 4940SOL    HW226283   3.351   1.494  14.120  1.0692  0.7598  1.1027
 4941SOL     OW26284   2.664   2.405   6.347  0.1086 -0.1999  0.1856
 4941SOL    HW126285   2.631   2.491   6.375 -0.0713 -0.6400  1.3013
 4941SOL    HW226286   2.603   2.389   6.276 -0.8610 -2.0550  1.4447
 4942SOL     OW26287   3.995   1.460   3.379 -0.2801 -0.1769  0.3044
 4942SOL    HW126288   3.903   1.457   3.353  0.2042 -1.8088 -1.1849
 4942SOL    HW226289   4.025   1.369   3.383  0.4509  0.0853  0.8796
 4943SOL     OW26290   3.306   1.267   1.921  0.2381  0.2934 -0.1838
 4943SOL    HW126291   3.338   1.224   1.841  1.9242  1.4811 -0.1518
 4943SOL    HW226292   3.345   1.200   1.977  1.6265  0.0448 -1.4164
 4944SOL     OW26293   2.847   4.433   1.141 -0.1611 -0.1036 -0.4194
 4944SOL    HW126294   2.919   4.432   1.078  0.4421 -1.7299  0.2942
 4944SOL    HW226295   2.794   4.363   1.103 -0.4250  1.1905 -2.4602
 4945SOL     OW26296   3.153   3.094  13.188  0.3000  0.6700  0.6641
 4945SOL    HW126297   3.141   3.011  13.143 -0.0974  0.3775  1.3133
 4945SOL    HW226298   3.125   3.071  13.277  2.1499 -2.4035  0.4544
 4946SOL     OW26299   4.518   3.688   4.192 -0.3794  0.4121  0.1860
 4946SOL    HW126300   4.527   3.602   4.234 -0.6658  0.9874  1.4403
 4946SOL    HW226301   4.435   3.681   4.145 -0.1588  1.9296 -0.4351
 4947SOL     OW26302   0.218   3.506   7.322 -0.1277  0.0777  0.3905
 4947SOL    HW126303   0.249   3.597   7.318 -0.8731  0.3442  0.6840
 4947SOL    HW226304   0.295   3.472   7.368 -0.2649 -0.2905  0.3481
 4948SOL     OW26305   3.915   2.433  16.460 -0.0741  0.3570 -0.4479
 4948SOL    HW126306   3.954   2.411  16.545 -3.7365 -0.0752  1.1150
 4948SOL    HW226307   3.822   2.424  16.481  0.1151  0.9093  0.6299
 4949SOL     OW26308   2.275   2.407   4.626 -0.0054 -0.7407 -0.0482
 4949SOL    HW126309   2.321   2.428   4.707  1.4829  1.4272 -1.4518
 4949SOL    HW226310   2.253   2.492   4.588  0.5865 -0.7731 -0.4672
 4950SOL     OW26311   0.444   1.829   7.349 -0.1469  0.0323 -0.0708
 4950SOL    HW126312   0.422   1.854   7.259  3.0011  0.7931 -0.6372
 4950SOL    HW226313   0.387   1.756   7.371 -0.2548 -0.2843 -1.4047
 4951SOL     OW26314   3.816   3.776   9.444  0.6365 -0.5192  0.3340
 4951SOL    HW126315   3.851   3.786   9.355  1.0381 -1.8427  0.3512
 4951SOL    HW226316   3.889   3.821   9.487  0.1401  0.1415  0.4904
 4952SOL     OW26317   3.173   0.543  16.892  0.8198  0.3513 -0.1123
 4952SOL    HW126318   3.123   0.528  16.811 -2.3865  0.4256  1.8545
 4952SOL    HW226319   3.106   0.535  16.960  2.9373 -0.5497  1.8393
 4953SOL     OW26320   2.286   3.303   2.837  0.6022  0.2532 -0.6460
 4953SOL    HW126321   2.364   3.273   2.883  0.4279 -0.4469 -0.8084
 4953SOL    HW226322   2.238   3.221   2.824  1.9928 -0.8300  1.1300
 4954SOL     OW26323   4.543   1.420   6.646 -0.2321 -0.2685  0.2536
 4954SOL    HW126324   4.555   1.502   6.598 -1.3970 -0.5338 -0.4571
 4954SOL    HW226325   4.620   1.419   6.703 -0.0039 -0.5581 -0.0602
 4955SOL     OW26326   2.178   3.083   9.005 -0.4953 -0.2719  0.3688
 4955SOL    HW126327   2.130   3.125   9.075  0.4551 -0.4932  1.1555
 4955SOL    HW226328   2.218   3.011   9.054  1.2048  0.0419 -0.5589
 4956SOL     OW26329   4.650   1.069  16.390  0.3597 -0.1137  0.2483
 4956SOL    HW126330   4.568   1.053  16.436 -0.6176 -0.1478 -1.5083
 4956SOL    HW226331   4.637   1.158  16.357  1.4865 -0.9989 -2.5846
 4957SOL     OW26332   3.758   4.421   1.752 -0.4103 -0.2328  0.2623
 4957SOL    HW126333   3.846   4.416   1.789  0.3874  0.3067 -1.5595
 4957SOL    HW226334   3.701   4.427   1.828  0.4944  0.3448  0.8961
 4958SOL     OW26335   3.664   3.375   6.047  0.5511  0.0490  0.6739
 4958SOL    HW126336   3.724   3.429   6.098  1.3990  0.5447 -0.8617
 4958SOL    HW226337   3.667   3.431   5.970 -1.1474  0.3915  0.8511
 4959SOL     OW26338   2.731   0.895   6.533  0.0058  0.4524 -0.1399
 4959SOL    HW126339   2.816   0.928   6.564  0.2039 -0.6901  0.5551
 4959SOL    HW226340   2.720   0.951   6.457 -2.2035 -0.8357 -0.7477
 4960SOL     OW26341   3.434   4.121   7.021 -0.5980  0.1228 -0.0562
 4960SOL    HW126342   3.466   4.191   7.079  3.0359 -0.9122 -0.8270
 4960SOL    HW226343   3.416   4.052   7.085 -1.6225 -0.0622 -0.5445
 4961SOL     OW26344   1.014   2.612   4.857  0.0575  0.0183 -0.8353
 4961SOL    HW126345   0.924   2.632   4.881 -1.3198 -2.6610 -3.7922
 4961SOL    HW226346   1.004   2.548   4.786 -2.0555  0.7552 -1.1842
 4962SOL     OW26347   2.569   2.677   6.336 -0.4512  0.1953 -0.4084
 4962SOL    HW126348   2.623   2.706   6.263 -0.9576 -1.2430 -1.3485
 4962SOL    HW226349   2.642   2.685   6.397 -1.3876  0.1505  0.7263
 4963SOL     OW26350   3.305   0.194  12.244  0.2987  0.1570  0.6112
 4963SOL    HW126351   3.263   0.119  12.285 -2.8592  0.8307 -1.3582
 4963SOL    HW226352   3.227   0.242  12.216 -0.6600 -1.6836  0.1142
 4964SOL     OW26353   1.054   3.980   8.398 -0.8564  0.0192 -0.6193
 4964SOL    HW126354   1.005   4.020   8.470 -2.7500  0.1573 -1.9808
 4964SOL    HW226355   1.047   3.890   8.431  1.3665  0.5705  1.3480
 4965SOL     OW26356   4.097   1.267  14.413  0.1604 -0.0899 -0.3383
 4965SOL    HW126357   4.033   1.273  14.342 -1.2915 -3.1505  0.7074
 4965SOL    HW226358   4.176   1.296  14.366  1.3078 -2.0865  0.3485
 4966SOL     OW26359   2.806   2.630   5.828  0.1890 -0.4766 -0.0883
 4966SOL    HW126360   2.819   2.619   5.922  0.5938  0.6500 -0.0215
 4966SOL    HW226361   2.835   2.716   5.800  0.0118 -0.6508 -0.8126
 4967SOL     OW26362   1.310   0.247  13.591  0.0973  0.3137 -0.3991
 4967SOL    HW126363   1.263   0.164  13.601  0.1473  0.2301 -0.8414
 4967SOL    HW226364   1.233   0.303  13.580 -0.6099 -0.4312  0.6956
 4968SOL     OW26365   0.414   2.005   4.621  0.0133  0.0232 -0.4389
 4968SOL    HW126366   0.347   2.068   4.595  1.1639  1.4506  0.0294
 4968SOL    HW226367   0.493   2.059   4.614 -1.0310  1.5618 -0.4544
 4969SOL     OW26368   1.335   1.250  10.015  0.0067  0.1303  0.2496
 4969SOL    HW126369   1.428   1.231  10.021  0.0693  0.2762 -0.2698
 4969SOL    HW226370   1.322   1.285  10.103  1.2929 -0.1398  0.5424
 4970SOL     OW26371   4.625   0.189   9.755 -0.4553  0.0772  0.3486
 4970SOL    HW126372   4.611   0.241   9.834 -3.1139 -0.9895  0.5781
 4970SOL    HW226373   4.543   0.143   9.740 -0.0939 -1.1921  2.3095
 4971SOL     OW26374   0.723   1.852   7.302  0.5635 -0.2102  0.6510
 4971SOL    HW126375   0.756   1.869   7.390  2.3530 -0.4152 -0.0012
 4971SOL    HW226376   0.634   1.829   7.331 -0.1120  3.5199  1.5991
 4972SOL     OW26377   1.145   3.968   5.935 -0.2642 -0.6656 -0.2490
 4972SOL    HW126378   1.137   3.917   6.016 -1.3507  0.2690  0.2318
 4972SOL    HW226379   1.216   3.919   5.894  0.7756  0.2302  0.5025
 4973SOL     OW26380   2.489   0.105   0.981  0.3422  0.1691  0.2005
 4973SOL    HW126381   2.466   0.040   1.046 -1.1953  0.6567  0.1439
 4973SOL    HW226382   2.425   0.082   0.913  1.4394  1.6728 -1.3545
 4974SOL     OW26383   2.986   0.229   5.503 -0.3813  0.4071  0.4404
 4974SOL    HW126384   3.053   0.162   5.518  1.3574  1.6528 -1.6735
 4974SOL    HW226385   2.997   0.237   5.408 -2.1671 -2.5320 -0.0178
 4975SOL     OW26386   3.094   2.167   7.196  0.4141  0.0145  0.0232
 4975SOL    HW126387   3.061   2.215   7.272 -0.0773  2.1764 -1.5623
 4975SOL    HW226388   3.188   2.182   7.186  0.3713  0.3974  0.2251
 4976SOL     OW26389   0.425   4.287   8.183 -0.0153  0.3052  0.1776
 4976SOL    HW126390   0.330   4.291   8.195 -0.1947  4.2727 -2.6418
 4976SOL    HW226391   0.444   4.379   8.201 -0.2861  0.1989  1.0254
 4977SOL     OW26392   3.267   1.340   2.340  0.2395  0.1293  0.2153
 4977SOL    HW126393   3.319   1.304   2.268  0.1353  1.9368 -0.7521
 4977SOL    HW226394   3.207   1.265   2.349  0.0235  0.2500 -0.2200
 4978SOL     OW26395   3.907   1.202  13.624  0.5542 -0.0050  0.0868
 4978SOL    HW126396   3.937   1.290  13.646  1.3263 -0.4786  0.9027
 4978SOL    HW226397   3.814   1.223  13.611 -0.1157 -1.9642  1.6593
 4979SOL     OW26398   4.502   4.417  16.592  0.6582 -0.2653  0.2888
 4979SOL    HW126399   4.569   4.484  16.609 -0.8792  1.5574 -0.8719
 4979SOL    HW226400   4.419   4.464  16.594  0.5902 -0.2516 -2.5287
 4980SOL     OW26401   2.773   0.571   3.714 -0.1239 -0.6581 -0.2113
 4980SOL    HW126402   2.771   0.640   3.648  2.3286 -0.5392 -0.1919
 4980SOL    HW226403   2.865   0.545   3.716 -0.0740 -0.5634 -1.7962
 4981SOL     OW26404   3.534   1.825   8.005 -0.0032  0.0050  0.1322
 4981SOL    HW126405   3.596   1.884   7.961 -0.7346  0.8821  0.2599
 4981SOL    HW226406   3.603   1.773   8.047 -0.2152  1.0338  1.7286
 4982SOL     OW26407   0.439   0.728  12.689 -0.8418  0.4200 -0.6275
 4982SOL    HW126408   0.416   0.706  12.598  0.7997  2.1495 -1.4866
 4982SOL    HW226409   0.492   0.807  12.678 -1.2273  0.3478 -3.1201
 4983SOL     OW26410   4.267   2.311   7.699  0.0877 -0.0563  0.0176
 4983SOL    HW126411   4.187   2.270   7.667  0.0166 -0.2713  0.4732
 4983SOL    HW226412   4.234   2.400   7.705  4.2715  1.5745 -1.1703
 4984SOL     OW26413   2.585   3.969  13.187 -0.1878  0.8700  0.3640
 4984SOL    HW126414   2.495   3.991  13.165  0.0381  1.5275  0.0924
 4984SOL    HW226415   2.626   3.986  13.102 -0.0566 -1.6174 -0.0626
 4985SOL     OW26416   4.692   1.094   8.967  0.1327  0.2552 -0.5998
 4985SOL    HW126417   4.695   1.154   8.893  1.1284 -1.6233 -2.0724
 4985SOL    HW226418   0.064   1.074   8.972  0.5630  2.1649 -0.8163
 4986SOL     OW26419   1.070   0.130   7.290 -0.0597 -0.6190  0.2453
 4986SOL    HW126420   1.090   0.040   7.267 -1.1819 -0.9051  0.3934
 4986SOL    HW226421   1.116   0.142   7.373  0.7495  1.5159 -0.5114
 4987SOL     OW26422   4.083   1.674   1.243 -0.1421 -0.0264 -0.4740
 4987SOL    HW126423   4.155   1.707   1.296  0.2862 -1.0674 -0.4082
 4987SOL    HW226424   4.038   1.756   1.221 -0.3530  0.1612  0.6582
 4988SOL     OW26425   3.236   0.894   7.286  0.1015 -0.4704 -0.3510
 4988SOL    HW126426   3.265   0.981   7.313 -1.1825 -0.2576  0.3948
 4988SOL    HW226427   3.142   0.898   7.307  0.4131  0.2433  0.9498
 4989SOL     OW26428   4.493   0.053   9.436  0.2842 -0.3841 -0.4178
 4989SOL    HW126429   4.510   0.018   9.348  0.4481  0.3472 -0.6722
 4989SOL    HW226430   4.539   4.706   9.485 -2.4432 -2.1532 -0.2742
 4990SOL     OW26431   3.074   3.345  16.172 -0.2255  0.3197 -0.3321
 4990SOL    HW126432   3.093   3.333  16.079  1.1658 -0.7698  0.0945
 4990SOL    HW226433   3.151   3.299  16.207  0.0845  0.9431 -0.2074
 4991SOL     OW26434   0.605   1.083   7.084 -0.6775  0.1994 -0.2487
 4991SOL    HW126435   0.622   1.044   7.170  2.6322  0.9906 -0.5611
 4991SOL    HW226436   0.638   1.018   7.023  1.2173  0.4601  0.5232
 4992SOL     OW26437   2.051   2.359   8.658  0.2043 -0.5734  0.0234
 4992SOL    HW126438   2.135   2.328   8.622  0.0629 -0.6519 -0.2400
 4992SOL    HW226439   2.081   2.362   8.749 -2.0434 -1.3939  0.7815
 4993SOL     OW26440   1.873   1.549  15.282  0.6067  0.0307 -0.0793
 4993SOL    HW126441   1.816   1.474  15.264  1.3086 -0.5036 -0.0329
 4993SOL    HW226442   1.921   1.504  15.351 -2.8081  0.2279  2.4300
 4994SOL     OW26443   1.421   1.249   9.563 -0.3879  0.6536  0.0317
 4994SOL    HW126444   1.400   1.169   9.610  2.5057  0.1754  0.5430
 4994SOL    HW226445   1.402   1.319   9.626 -1.3876 -0.2340  0.7076
 4995SOL     OW26446   2.078   3.096   2.544 -0.7893 -0.1763  0.0925
 4995SOL    HW126447   2.096   3.041   2.467  0.1051 -0.6753  0.6449
 4995SOL    HW226448   2.093   3.181   2.504  0.3964 -0.6306 -0.4272
 4996SOL     OW26449   2.031   0.230  16.567  0.0669 -0.3443  0.3444
 4996SOL    HW126450   2.120   0.255  16.543 -0.8359  1.5511 -1.0042
 4996SOL    HW226451   2.032   0.235  16.663  0.2591  0.4364  0.2983
 4997SOL     OW26452   1.009   0.211   8.652  0.4163 -0.0821 -0.0416
 4997SOL    HW126453   0.993   0.168   8.736  0.1094 -0.6386 -0.3816
 4997SOL    HW226454   0.920   0.221   8.619  0.2665  0.8004  0.6432
 4998SOL     OW26455   4.547   2.907   7.022 -0.2674 -0.1294 -0.0761
 4998SOL    HW126456   4.601   2.915   7.101 -1.0336  0.2350  0.4077
 4998SOL    HW226457   4.552   2.992   6.979 -1.4734  0.6219  1.2576
 4999SOL     OW26458   2.739   3.982   2.062  0.3641 -0.3248  0.3002
 4999SOL    HW126459   2.693   3.966   1.980 -0.2549 -0.7799  0.7419
 4999SOL    HW226460   2.775   4.067   2.037 -0.0460 -0.6789 -1.5135
 5000SOL     OW26461   1.565   1.158   7.098 -0.3136  0.0991  0.1770
 5000SOL    HW126462   1.648   1.195   7.067  1.0776 -1.6471  1.8106
 5000SOL    HW226463   1.600   1.106   7.170 -1.2152 -1.1204 -0.2743
 5001SOL     OW26464   3.584   3.648   9.765 -0.5337 -0.0023  0.9142
 5001SOL    HW126465   3.674   3.677   9.779 -0.2471 -0.5332  0.1437
 5001SOL    HW226466   3.533   3.728   9.777  0.7030  0.7123  1.4462
 5002SOL     OW26467   3.196   0.621   0.839 -0.1956  0.1022 -0.1463
 5002SOL    HW126468   3.104   0.644   0.853 -0.1576 -0.1768  0.5588
 5002SOL    HW226469   3.221   0.701   0.793  2.1735 -0.4516  0.1641
 5003SOL     OW26470   1.916   0.364   7.793 -0.2004 -0.1448  0.0285
 5003SOL    HW126471   1.845   0.427   7.803 -1.3450 -1.2162 -1.3640
 5003SOL    HW226472   1.908   0.329   7.705  2.0297 -2.6333  0.8041
 5004SOL     OW26473   2.721   1.762   8.856 -0.8576  0.3799 -0.1475
 5004SOL    HW126474   2.694   1.842   8.810  1.3182  0.8840 -0.5270
 5004SOL    HW226475   2.811   1.759   8.824 -0.2424 -0.4677  1.6599
 5005SOL     OW26476   1.461   0.678   7.397  0.1190 -0.0393  0.3970
 5005SOL    HW126477   1.405   0.753   7.417 -0.2305 -0.2681  0.2938
 5005SOL    HW226478   1.544   0.707   7.434 -1.0461  3.4803  0.2070
 5006SOL     OW26479   1.121   4.350   6.175  0.1743 -0.4055 -0.2861
 5006SOL    HW126480   1.199   4.325   6.126 -0.4152  1.2335 -2.0845
 5006SOL    HW226481   1.071   4.269   6.179  1.5228 -1.3985 -3.0477
 5007SOL     OW26482   2.416   3.842  13.508 -0.0912  0.1730  0.6255
 5007SOL    HW126483   2.320   3.833  13.505 -0.1978  1.3938  0.1143
 5007SOL    HW226484   2.440   3.778  13.442 -2.8909 -1.6610  1.3841
 5008SOL     OW26485   1.745   4.686   0.450 -0.5772 -0.4786  0.1294
 5008SOL    HW126486   1.771   0.056   0.447  1.7238 -1.1567 -1.1357
 5008SOL    HW226487   1.775   4.663   0.538  1.2786  0.0416 -0.3728
 5009SOL     OW26488   3.185   0.491   9.349 -0.4796 -0.6051  1.0042
 5009SOL    HW126489   3.196   0.580   9.313 -1.7625 -0.0656  1.9659
 5009SOL    HW226490   3.131   0.505   9.426 -0.1344  2.0567  0.7719
 5010SOL     OW26491   4.346   3.183   9.431  0.1797  0.0492 -0.1599
 5010SOL    HW126492   4.438   3.159   9.440  0.2711  0.6773  0.5949
 5010SOL    HW226493   4.332   3.249   9.499 -1.9752 -0.6787  0.1184
 5011SOL     OW26494   3.092   1.757  12.910 -0.0488 -0.1838  0.7180
 5011SOL    HW126495   3.054   1.679  12.870 -0.7036 -0.3028  1.5816
 5011SOL    HW226496   3.077   1.822  12.841 -0.9919 -0.0086  1.0880
 5012SOL     OW26497   2.727   3.334  15.956  0.7401  0.0126 -0.0484
 5012SOL    HW126498   2.659   3.339  15.889  1.0480  3.3395 -0.1044
 5012SOL    HW226499   2.769   3.419  15.942 -0.0260  0.4214  0.1817
 5013SOL     OW26500   0.523   2.056  12.078  0.3048  0.2292  0.2443
 5013SOL    HW126501   0.472   2.090  12.005  1.2507  0.2894 -0.3835
 5013SOL    HW226502   0.496   1.964  12.074 -1.0582  0.6191  0.5240
 5014SOL     OW26503   3.115   1.278   8.098  0.1082 -0.1623 -0.1719
 5014SOL    HW126504   3.020   1.291   8.101  0.2696  0.8227  0.5343
 5014SOL    HW226505   3.156   1.362   8.077  0.0825  0.7888  3.6303
 5015SOL     OW26506   3.254   0.637   9.639  0.3227  0.4732  0.3315
 5015SOL    HW126507   3.213   0.650   9.553  0.5611  0.0759  0.1560
 5015SOL    HW226508   3.193   0.694   9.686  0.5993  0.7479  0.3520
 5016SOL     OW26509   2.311   2.259   1.680  0.2615  0.0528  0.0432
 5016SOL    HW126510   2.331   2.298   1.594  2.9248  0.5022  0.8791
 5016SOL    HW226511   2.241   2.201   1.651  0.0866  0.4235 -0.2854
 5017SOL     OW26512   0.171   0.452   3.033 -0.4944  0.2097 -0.0650
 5017SOL    HW126513   0.206   0.516   3.095  0.9556  0.4445 -1.1113
 5017SOL    HW226514   0.100   0.499   2.989 -0.2942  1.1270  0.5918
 5018SOL     OW26515   2.906   3.373   3.057  0.3605  0.6230 -0.0904
 5018SOL    HW126516   2.967   3.383   2.984  0.1077 -0.3210 -0.4278
 5018SOL    HW226517   2.953   3.322   3.123  1.6005  1.8541 -0.0208
 5019SOL     OW26518   0.771   3.212  10.502  0.0782  0.2605 -0.0378
 5019SOL    HW126519   0.793   3.120  10.515 -0.6541  0.1820  0.6464
 5019SOL    HW226520   0.690   3.210  10.554 -0.6371 -3.1502 -1.3055
 5020SOL     OW26521   3.863   0.303   0.651 -0.3277  0.1507  0.3179
 5020SOL    HW126522   3.901   0.216   0.665  0.4475  0.4835  0.3052
 5020SOL    HW226523   3.782   0.300   0.702 -0.0770 -3.8100  0.5311
 5021SOL     OW26524   1.051   1.957  11.073 -0.5522  0.4335 -0.4244
 5021SOL    HW126525   1.008   1.995  11.149 -2.2381  0.4654 -1.3997
 5021SOL    HW226526   1.068   1.868  11.103  0.1545  1.7773  3.0877
 5022SOL     OW26527   3.674   2.756   5.779 -0.1210  0.1487  0.1477
 5022SOL    HW126528   3.751   2.742   5.723  0.2494 -0.5093  0.8349
 5022SOL    HW226529   3.607   2.768   5.711  0.4604 -1.7873 -0.7652
 5023SOL     OW26530   0.658   0.224  14.635  0.1944 -0.9443 -0.3672
 5023SOL    HW126531   0.616   0.154  14.685  0.4363 -0.7936  0.0473
 5023SOL    HW226532   0.621   0.301  14.678  1.1061 -1.4245  1.2686
 5024SOL     OW26533   2.179   3.115   4.991  0.1373 -0.2417 -0.1302
 5024SOL    HW126534   2.200   3.038   4.937 -0.4425 -1.3535  1.2202
 5024SOL    HW226535   2.114   3.163   4.940  0.3222  0.9778  0.7886
 5025SOL     OW26536   2.376   4.589   6.382 -0.2697 -0.0003 -0.8517
 5025SOL    HW126537   2.356   4.504   6.419  0.1677 -0.8466 -2.5597
 5025SOL    HW226538   2.470   4.584   6.368  0.1313 -1.5577  2.5265
 5026SOL     OW26539   2.235   2.415  12.847 -0.9204  0.1970 -0.4642
 5026SOL    HW126540   2.179   2.389  12.774 -0.5612 -0.3216 -0.5584
 5026SOL    HW226541   2.282   2.332  12.856  0.5376  1.0194 -0.6407
 5027SOL     OW26542   0.087   2.500   2.317  0.4077 -0.0975 -0.0984
 5027SOL    HW126543   0.125   2.554   2.248 -1.9737  0.4458 -0.9743
 5027SOL    HW226544   0.100   2.411   2.285 -2.4760 -0.8398  0.7863
 5028SOL     OW26545   1.531   4.500   5.332  0.4300 -0.4877  0.1928
 5028SOL    HW126546   1.611   4.524   5.379  0.5356 -1.1723  0.3630
 5028SOL    HW226547   1.513   4.579   5.281 -1.2060 -0.9248  0.0954
 5029SOL     OW26548   1.203   1.652   7.331  0.4722 -0.1253  0.2884
 5029SOL    HW126549   1.227   1.588   7.397  3.5980 -2.0630 -2.7431
 5029SOL    HW226550   1.243   1.731   7.367 -0.2173 -0.1053  1.0025
 5030SOL     OW26551   2.273   2.381   2.457  0.1688  0.5313  0.2810
 5030SOL    HW126552   2.230   2.387   2.371 -0.6263 -1.6906  0.5381
 5030SOL    HW226553   2.326   2.461   2.454  0.7702  0.0976 -0.6885
 5031SOL     OW26554   0.941   0.841   3.530 -0.2946 -0.5156  0.0750
 5031SOL    HW126555   0.876   0.791   3.481  0.9086  0.1815 -2.2551
 5031SOL    HW226556   0.893   0.917   3.561  1.3662  1.1483 -1.4003
 5032SOL     OW26557   4.279   0.462  16.058 -0.0380  0.0629 -0.2632
 5032SOL    HW126558   4.185   0.455  16.045 -0.4347  3.1696  0.8491
 5032SOL    HW226559   4.306   0.416  15.979 -1.2063 -0.9163 -0.0862
 5033SOL     OW26560   2.961   0.074   8.582  0.6748  0.0801 -0.3878
 5033SOL    HW126561   2.952   0.165   8.555 -1.5075  0.6535  2.2571
 5033SOL    HW226562   2.868   0.057   8.597  0.9604 -0.9819  0.2220
 5034SOL     OW26563   0.086   0.244   7.344 -0.3826 -0.5931 -0.0422
 5034SOL    HW126564   0.091   0.338   7.326 -2.1701 -0.2848  1.1383
 5034SOL    HW226565   0.182   0.237   7.343 -0.2817  0.3318  1.6501
 5035SOL     OW26566   4.111   1.399   8.337 -0.1833 -0.2904  0.0116
 5035SOL    HW126567   4.128   1.336   8.267 -0.9858 -0.5571  0.0529
 5035SOL    HW226568   4.184   1.373   8.393  0.1928 -1.0051 -0.8158
 5036SOL     OW26569   1.848   1.087  14.985  0.7698  0.2748 -0.0073
 5036SOL    HW126570   1.913   1.125  14.925  1.4027  3.5858  2.7660
 5036SOL    HW226571   1.847   0.992  14.980  4.5058  0.2472  0.2528
 5037SOL     OW26572   0.438   0.092   3.068  0.1699  0.2152 -0.6601
 5037SOL    HW126573   0.491   0.118   2.993  1.0288  0.3284 -0.0180
 5037SOL    HW226574   0.350   0.125   3.051  1.2319  3.0660 -0.6292
 5038SOL     OW26575   0.428   2.133  13.963  0.0364 -0.5763  0.5158
 5038SOL    HW126576   0.464   2.193  14.028  0.7493  2.0251 -2.2718
 5038SOL    HW226577   0.365   2.080  14.012 -0.3614 -2.1162 -1.6352
 5039SOL     OW26578   3.323   3.018   1.454  0.1116 -0.2353  0.0110
 5039SOL    HW126579   3.401   2.993   1.406 -0.6865 -0.8724 -0.9512
 5039SOL    HW226580   3.301   2.940   1.505  0.8600  2.0828  3.9327
 5040SOL     OW26581   2.048   1.797  16.959 -0.2203 -0.2825 -0.1452
 5040SOL    HW126582   1.983   1.852  17.003  0.8241  0.1420  0.8843
 5040SOL    HW226583   2.013   1.796  16.870  0.1590  1.4531 -0.3079
 5041SOL     OW26584   3.514   2.550   8.634  0.0664 -0.0112  0.1552
 5041SOL    HW126585   3.456   2.583   8.703  0.1000  1.1820 -0.3923
 5041SOL    HW226586   3.481   2.614   8.572  0.6179 -0.4662 -0.6161
 5042SOL     OW26587   0.491   3.353  17.256  0.0706 -0.0615 -0.2106
 5042SOL    HW126588   0.515   3.439  17.290 -1.3006  0.8532 -1.5551
 5042SOL    HW226589   0.571   3.335  17.207 -1.3266 -3.0553 -1.3868
 5043SOL     OW26590   2.022   4.433  11.666  0.2315 -0.2598 -0.0787
 5043SOL    HW126591   1.986   4.351  11.631 -0.2799 -0.4275  0.8272
 5043SOL    HW226592   2.100   4.446  11.612  1.5807  1.0690  2.2291
 5044SOL     OW26593   4.490   1.736   1.752  0.0401 -0.0582  0.3222
 5044SOL    HW126594   4.402   1.758   1.782 -0.0878 -1.0926  0.7139
 5044SOL    HW226595   4.481   1.762   1.660 -0.5116 -1.7889 -0.1176
 5045SOL     OW26596   0.005   3.044   9.125 -0.4156  0.1249 -0.1567
 5045SOL    HW126597   4.632   3.057   9.122 -0.4159  1.7021  5.1031
 5045SOL    HW226598   0.036   3.128   9.090  2.0107 -0.7613 -0.0910
 5046SOL     OW26599   2.676   3.613   7.694  0.5037 -0.4589  0.3920
 5046SOL    HW126600   2.719   3.607   7.609 -0.0754  0.7134  0.0147
 5046SOL    HW226601   2.625   3.533   7.711  0.5772 -1.0083 -2.0290
 5047SOL     OW26602   1.740   1.531   8.533 -0.2886  0.6050 -0.2790
 5047SOL    HW126603   1.832   1.532   8.562  0.2577  2.8034 -2.1556
 5047SOL    HW226604   1.711   1.473   8.604  1.3291  1.2388  0.9084
 5048SOL     OW26605   1.469   3.658   4.595 -0.0404 -0.1802 -0.0282
 5048SOL    HW126606   1.443   3.681   4.684  1.7354  1.5129  0.0656
 5048SOL    HW226607   1.411   3.584   4.577  0.0568 -0.0509 -0.8658
 5049SOL     OW26608   4.622   4.181   5.988  0.5671 -0.0473 -0.4388
 5049SOL    HW126609   4.671   4.167   6.069  3.1456  0.8856 -1.8330
 5049SOL    HW226610   4.685   4.238   5.944 -0.5588  0.7088 -1.0955
 5050SOL     OW26611   1.184   3.658   4.965  0.3076  0.0595 -0.2201
 5050SOL    HW126612   1.258   3.597   4.963 -0.3639 -0.7401 -0.7150
 5050SOL    HW226613   1.120   3.605   4.918  0.9895 -1.1845  0.2592
 5051SOL     OW26614   1.328   2.383   4.383  0.0154 -0.0534 -0.1114
 5051SOL    HW126615   1.354   2.384   4.475 -0.0189 -1.0747 -0.0927
 5051SOL    HW226616   1.360   2.472   4.371 -0.8709  0.2359 -0.3353
 5052SOL     OW26617   2.351   0.253   4.387 -0.4866  0.2963  0.1570
 5052SOL    HW126618   2.422   0.266   4.324  0.4191  0.4858  1.2359
 5052SOL    HW226619   2.289   0.319   4.355 -2.2585 -1.3111  0.2656
 5053SOL     OW26620   4.468   0.144   2.876  0.5531 -0.0702  0.4885
 5053SOL    HW126621   4.542   0.156   2.817  0.9566  1.5518  1.3234
 5053SOL    HW226622   4.394   0.152   2.815  0.7736 -0.6760  0.1372
 5054SOL     OW26623   1.380   1.126   4.133 -0.0268  0.4690  0.3655
 5054SOL    HW126624   1.451   1.154   4.076 -1.0204 -0.2769 -1.2511
 5054SOL    HW226625   1.334   1.210   4.129 -3.0890 -1.1663  0.9746
 5055SOL     OW26626   3.177   3.613  15.784 -0.0891  0.0904  0.1749
 5055SOL    HW126627   3.125   3.682  15.742 -0.7783 -0.2955  0.3901
 5055SOL    HW226628   3.267   3.628  15.757 -0.1600 -0.8832 -0.6101
 5056SOL     OW26629   3.077   0.876  13.792  0.5923 -0.2535 -0.0484
 5056SOL    HW126630   3.038   0.789  13.806  0.7263 -0.2885  0.1119
 5056SOL    HW226631   3.127   0.880  13.874 -2.4596 -2.4509  1.9503
 5057SOL     OW26632   3.810   0.568   9.252  0.1798  0.2416  0.2194
 5057SOL    HW126633   3.795   0.608   9.167  0.4704  0.3318  0.2109
 5057SOL    HW226634   3.750   0.610   9.314  1.2684  2.9034 -0.5533
 5058SOL     OW26635   2.242   3.272  13.157 -0.2635  0.3019  0.1697
 5058SOL    HW126636   2.224   3.244  13.067 -0.7488 -0.3349  0.4695
 5058SOL    HW226637   2.335   3.273  13.135 -0.4246 -0.7940 -0.5696
 5059SOL     OW26638   2.441   1.433   4.382 -0.4918  0.2086 -0.5333
 5059SOL    HW126639   2.500   1.360   4.360 -0.8937  0.4160 -2.3046
 5059SOL    HW226640   2.374   1.389   4.434  0.6270 -1.5665 -0.5849
 5060SOL     OW26641   4.608   3.112   9.437  0.3693  0.0078  0.4590
 5060SOL    HW126642   4.655   3.168   9.375 -0.6639 -0.2278 -0.5210
 5060SOL    HW226643   4.605   3.028   9.391  0.9535  0.9555 -1.3108
 5061SOL     OW26644   1.095   3.302   8.187  0.5853 -0.0600 -0.0485
 5061SOL    HW126645   1.191   3.303   8.189  0.5014  0.1146  3.2912
 5061SOL    HW226646   1.072   3.314   8.279  0.7368  1.9301 -0.2611
 5062SOL     OW26647   4.134   1.703   6.237 -0.2090  0.2235 -0.1883
 5062SOL    HW126648   4.113   1.792   6.267  1.9775  0.9423 -0.7962
 5062SOL    HW226649   4.214   1.706   6.184 -0.8964  0.0346 -1.2333
 5063SOL     OW26650   2.694   4.572  16.222  0.3583  0.3413 -0.1941
 5063SOL    HW126651   2.599   4.562  16.214  0.6064 -2.0761 -0.2215
 5063SOL    HW226652   2.714   4.508  16.290  1.9484  0.0998 -0.8879
 5064SOL     OW26653   1.461   2.628   5.290 -0.1491 -0.0554  0.1352
 5064SOL    HW126654   1.487   2.576   5.214 -1.5218 -0.8769  0.2200
 5064SOL    HW226655   1.506   2.574   5.356  0.6284 -0.1064 -0.4396
 5065SOL     OW26656   2.461   2.965   3.123 -0.1949  0.0945  0.4942
 5065SOL    HW126657   2.384   2.908   3.122 -1.5624  1.9739 -0.9971
 5065SOL    HW226658   2.531   2.908   3.155  0.2834 -0.8201 -2.1501
 5066SOL     OW26659   1.480   3.362   5.309 -0.1642  0.1558  0.8939
 5066SOL    HW126660   1.395   3.331   5.278  0.8031 -4.1031  2.6388
 5066SOL    HW226661   1.529   3.284   5.283 -0.4810  0.5260 -0.8147
 5067SOL     OW26662   1.846   1.150   5.358 -0.2060 -0.2718  0.2375
 5067SOL    HW126663   1.870   1.195   5.439 -1.0818 -0.5169  0.6276
 5067SOL    HW226664   1.752   1.139   5.369 -0.4213 -0.1063 -1.4824
 5068SOL     OW26665   4.654   1.879   3.221  0.5550  0.1567 -0.2213
 5068SOL    HW126666   4.640   1.921   3.306 -0.6789 -1.1677  0.2270
 5068SOL    HW226667   4.662   1.962   3.173  0.9841 -0.8482 -1.8634
 5069SOL     OW26668   2.863   0.690  13.811  0.1698 -0.0315 -0.2090
 5069SOL    HW126669   2.884   0.599  13.832  1.2740  0.5862  1.3535
 5069SOL    HW226670   2.774   0.679  13.777 -0.4851  0.1668  1.4020
 5070SOL     OW26671   1.488   0.057  11.283 -0.1224  0.5758 -0.4712
 5070SOL    HW126672   1.484   0.153  11.291  0.4458  0.3931  2.1674
 5070SOL    HW226673   1.526   0.029  11.366  0.0453  1.0699 -0.3783
 5071SOL     OW26674   3.094   2.072   2.683  0.8390  0.5669 -0.0925
 5071SOL    HW126675   3.079   2.008   2.614 -1.2620  1.9355 -0.8797
 5071SOL    HW226676   3.022   2.131   2.661  1.6235  2.1415  1.5670
 5072SOL     OW26677   1.142   3.420   1.771  0.8907  0.1564 -0.3981
 5072SOL    HW126678   1.112   3.337   1.808 -1.2175 -0.1942 -2.8746
 5072SOL    HW226679   1.102   3.406   1.685 -4.3660  0.2661  2.0491
 5073SOL     OW26680   2.315   3.668   4.231 -0.5298 -0.1131 -0.3256
 5073SOL    HW126681   2.368   3.705   4.159  3.2452 -2.4434  1.2333
 5073SOL    HW226682   2.284   3.586   4.193 -0.5568  0.9313 -2.5658
 5074SOL     OW26683   2.892   1.546   7.976 -0.0299 -0.0335 -0.0118
 5074SOL    HW126684   2.827   1.571   7.910 -1.1997 -2.8109  0.0775
 5074SOL    HW226685   2.972   1.570   7.930 -0.2438 -2.7309 -1.7975
 5075SOL     OW26686   4.467   2.589   5.236  0.2649  0.1164 -0.1414
 5075SOL    HW126687   4.415   2.610   5.314  0.1747  1.0964 -0.4596
 5075SOL    HW226688   4.400   2.584   5.169  0.5143 -3.3736 -0.1301
 5076SOL     OW26689   2.286   0.498  11.911 -0.3141  0.8622 -0.6703
 5076SOL    HW126690   2.253   0.408  11.907  0.4843  0.4671  1.2858
 5076SOL    HW226691   2.368   0.482  11.958  0.2908  1.6800 -1.4376
 5077SOL     OW26692   2.525   0.924   1.402  0.1496  0.8040  0.1999
 5077SOL    HW126693   2.485   1.003   1.441  1.0505  0.4239  1.8638
 5077SOL    HW226694   2.617   0.937   1.423  0.5896 -1.6283 -0.3204
 5078SOL     OW26695   2.993   3.833   6.513  0.7127  0.3831 -0.4124
 5078SOL    HW126696   2.932   3.759   6.508  1.5287 -0.1536 -2.2451
 5078SOL    HW226697   3.046   3.830   6.593 -0.8393  0.6327  0.6260
 5079SOL     OW26698   3.883   2.577   7.043  0.1504  0.2839 -0.8029
 5079SOL    HW126699   3.883   2.609   7.133 -0.0357  0.7650 -0.9739
 5079SOL    HW226700   3.950   2.625   6.994  0.8416  2.6250  2.4710
 5080SOL     OW26701   2.208   0.295   2.644  0.7749 -0.3357 -0.0123
 5080SOL    HW126702   2.249   0.323   2.725  1.3186  0.6035 -0.6139
 5080SOL    HW226703   2.137   0.359   2.635  1.8899  0.7881 -0.7988
 5081SOL     OW26704   3.128   3.683   8.394  0.3907 -0.2396 -0.5484
 5081SOL    HW126705   3.072   3.758   8.378  0.1244 -0.4316 -0.5197
 5081SOL    HW226706   3.067   3.613   8.418  0.1964  1.1601  3.0057
 5082SOL     OW26707   3.177   1.514   6.971 -0.3493 -0.6769 -0.1334
 5082SOL    HW126708   3.272   1.511   6.960 -0.3244  1.4145 -0.5598
 5082SOL    HW226709   3.149   1.552   6.888 -1.4579 -1.5247 -0.1402
 5083SOL     OW26710   0.466   3.435   1.121  0.1318 -0.1491  0.3107
 5083SOL    HW126711   0.505   3.378   1.054  0.7964  2.0410 -1.1421
 5083SOL    HW226712   0.407   3.481   1.061  1.6239 -1.0159 -1.8333
 5084SOL     OW26713   4.572   1.295   2.760  0.0205 -0.6339 -0.4163
 5084SOL    HW126714   4.651   1.305   2.707 -0.6563  1.8917 -0.9582
 5084SOL    HW226715   4.567   1.374   2.814  0.3628 -1.8840  1.4675
 5085SOL     OW26716   2.881   1.080   2.496  0.2172  0.7659  0.0603
 5085SOL    HW126717   2.873   1.174   2.512 -0.7738  0.7789 -0.5105
 5085SOL    HW226718   2.813   1.065   2.430  0.1516 -0.9649  0.5251
 5086SOL     OW26719   0.777   3.262  15.600 -0.0425 -0.3005 -0.2102
 5086SOL    HW126720   0.868   3.233  15.602 -0.1700 -0.6894 -0.0013
 5086SOL    HW226721   0.744   3.200  15.665  2.5792 -1.8716 -0.3677
 5087SOL     OW26722   2.553   2.017   0.354 -0.3610 -0.7864 -0.1242
 5087SOL    HW126723   2.598   2.092   0.315  0.6563 -0.8936  0.8588
 5087SOL    HW226724   2.466   2.034   0.318 -0.3898 -1.3246 -0.3125
 5088SOL     OW26725   4.220   1.160   2.986 -0.5053  0.0460  0.4509
 5088SOL    HW126726   4.207   1.173   2.892 -1.5391  1.7205  0.8164
 5088SOL    HW226727   4.314   1.160   3.000 -0.4672  1.1179  0.2220
 5089SOL     OW26728   4.627   2.504   8.174  0.0022  0.7311  0.2153
 5089SOL    HW126729   4.552   2.563   8.159 -0.2252  0.9079  2.0234
 5089SOL    HW226730   4.600   2.462   8.256 -2.9662  0.9515 -0.6464
 5090SOL     OW26731   0.189   3.919   2.968  0.5104  0.2703  0.2833
 5090SOL    HW126732   0.158   3.882   2.885  0.8999 -0.3001  0.3946
 5090SOL    HW226733   0.164   4.007   2.940  0.5481  0.9663  2.4475
 5091SOL     OW26734   3.697   1.652   8.132 -0.0488  0.2230  0.0998
 5091SOL    HW126735   3.645   1.587   8.179  1.6229  1.4821  3.6461
 5091SOL    HW226736   3.776   1.603   8.110  0.8809  2.0222 -0.6158
 5092SOL     OW26737   0.555   3.321   3.693  0.1264 -0.0898 -0.1047
 5092SOL    HW126738   0.513   3.237   3.675 -1.5387  0.5754  0.6469
 5092SOL    HW226739   0.644   3.301   3.721 -0.5785 -3.0018  0.0637
 5093SOL     OW26740   1.819   4.626  11.472  0.2632 -0.1479 -0.1309
 5093SOL    HW126741   1.903   4.610  11.428 -0.9072 -0.2129 -2.3696
 5093SOL    HW226742   1.796   4.548  11.522  2.9765 -1.2749 -0.6247
 5094SOL     OW26743   3.435   3.202   9.425 -0.3054  0.6731 -0.6864
 5094SOL    HW126744   3.406   3.274   9.481  1.6711  1.5706 -0.8252
 5094SOL    HW226745   3.525   3.226   9.403 -0.8430  2.2512 -1.1568
 5095SOL     OW26746   1.874   2.619  17.367 -0.6057 -0.2499  0.1441
 5095SOL    HW126747   1.918   2.701  17.390 -0.0148 -1.1870  2.2971
 5095SOL    HW226748   1.877   2.643  17.274 -0.9468  1.0726  0.4714
 5096SOL     OW26749   2.501   0.189   7.047 -0.4245  0.1582  0.1996
 5096SOL    HW126750   2.513   0.094   7.055 -0.5869  0.0897 -0.4392
 5096SOL    HW226751   2.516   0.214   7.139 -0.9619  2.5446 -0.3784
 5097SOL     OW26752   1.267   4.459   2.096  0.2348  0.2040 -0.0805
 5097SOL    HW126753   1.176   4.477   2.075  0.4370  1.2022 -0.0795
 5097SOL    HW226754   1.299   4.425   2.012 -2.5499 -0.6393 -0.7865
 5098SOL     OW26755   2.525   1.807   7.474 -0.3128 -0.0289 -0.2690
 5098SOL    HW126756   2.446   1.778   7.521 -1.1419  2.5991 -0.0326
 5098SOL    HW226757   2.512   1.754   7.396 -0.0881  1.8375 -1.5578
 5099SOL     OW26758   0.811   3.867   4.620 -0.2786  0.0385  0.3055
 5099SOL    HW126759   0.779   3.898   4.536  0.2860  1.3767  0.5899
 5099SOL    HW226760   0.794   3.946   4.672 -0.5686  1.6057 -2.1968
 5100SOL     OW26761   4.208   0.347   5.181 -0.0312  0.0578 -0.5214
 5100SOL    HW126762   4.292   0.333   5.225  0.4039  0.6710 -1.1527
 5100SOL    HW226763   4.224   0.288   5.108 -0.1605 -0.3873 -0.1877
 5101SOL     OW26764   3.168   0.465  10.453 -0.2789  0.6724  0.5278
 5101SOL    HW126765   3.255   0.502  10.437 -0.1526  1.4190  3.0152
 5101SOL    HW226766   3.178   0.388  10.508 -1.4971  0.0547 -0.1131
 5102SOL     OW26767   0.008   2.673   4.417 -0.3228  0.4377 -0.0445
 5102SOL    HW126768   0.012   2.693   4.510 -0.6126  1.6256 -0.2879
 5102SOL    HW226769   0.078   2.732   4.387  0.9507 -0.6462  0.7992
 5103SOL     OW26770   2.505   3.593   6.520 -0.0939 -0.2673 -0.2342
 5103SOL    HW126771   2.535   3.535   6.591  0.0802  0.0143 -0.0788
 5103SOL    HW226772   2.415   3.590   6.553  0.2964  2.0037  1.0626
 5104SOL     OW26773   0.500   3.416   1.642  0.3504 -0.1265  0.5955
 5104SOL    HW126774   0.458   3.398   1.726  0.0504  0.9402  0.6760
 5104SOL    HW226775   0.457   3.350   1.588  3.3990 -0.4359 -1.4675
 5105SOL     OW26776   1.412   2.807  15.877 -0.1259  0.4271  0.0612
 5105SOL    HW126777   1.485   2.761  15.836 -0.3990 -2.2230  2.5739
 5105SOL    HW226778   1.403   2.752  15.954 -0.7878 -0.2789 -0.5248
 5106SOL     OW26779   0.189   2.667  16.710  0.1853 -0.3780  0.2621
 5106SOL    HW126780   0.259   2.714  16.664 -0.2518 -3.5289 -3.6112
 5106SOL    HW226781   0.218   2.664  16.802  0.0823 -0.3289  0.2955
 5107SOL     OW26782   2.376   2.140   4.907  0.2709 -0.2937 -0.3424
 5107SOL    HW126783   2.287   2.170   4.926  0.5273  0.7775 -0.8266
 5107SOL    HW226784   2.413   2.207   4.964 -0.2248  2.6665 -3.5169
 5108SOL     OW26785   3.797   3.945  14.230 -0.3306  0.2633 -0.2426
 5108SOL    HW126786   3.716   3.954  14.281 -1.1963 -2.9543 -1.0512
 5108SOL    HW226787   3.855   3.947  14.306  0.6921 -1.5707 -0.9869
 5109SOL     OW26788   2.501   2.060  14.234  0.9100 -0.2730  0.0478
 5109SOL    HW126789   2.517   2.051  14.140 -0.1562 -1.1375 -0.0565
 5109SOL    HW226790   2.560   2.133  14.251  0.1893  0.0178  1.2817
 5110SOL     OW26791   2.213   4.232  12.888 -0.2917 -0.7419  0.3849
 5110SOL    HW126792   2.245   4.158  12.836 -0.6722 -0.8424  0.2938
 5110SOL    HW226793   2.296   4.274  12.910 -0.1516 -0.7286 -0.1541
 5111SOL     OW26794   1.758   3.908   6.325  0.0445 -0.8765 -0.3612
 5111SOL    HW126795   1.674   3.954   6.329  1.7890  2.2384  0.9215
 5111SOL    HW226796   1.721   3.827   6.292  0.5208 -2.6503  3.4387
 5112SOL     OW26797   3.786   0.832   1.355  0.1011 -0.7592  0.5239
 5112SOL    HW126798   3.830   0.805   1.274 -3.3736  0.0044 -1.5704
 5112SOL    HW226799   3.695   0.849   1.332  0.1854 -0.4184  0.4387
 5113SOL     OW26800   3.670   0.757   1.702 -0.2772 -0.9727 -0.0593
 5113SOL    HW126801   3.711   0.710   1.775 -1.0665  0.8536  1.5787
 5113SOL    HW226802   3.671   0.686   1.638 -1.9999  1.1466 -2.4364
 5114SOL     OW26803   1.962   0.369   8.515  0.3100 -0.1824  0.3169
 5114SOL    HW126804   2.001   0.448   8.553 -1.1102  0.9485 -0.5962
 5114SOL    HW226805   2.007   0.302   8.567  2.4807 -0.4144 -1.8556
 5115SOL     OW26806   3.893   3.776  16.897 -0.3509 -0.4469  0.0292
 5115SOL    HW126807   3.860   3.860  16.929 -0.3151 -1.9417  4.0292
 5115SOL    HW226808   3.816   3.724  16.876 -2.0626  2.3183 -0.5561
 5116SOL     OW26809   0.242   0.066   3.506 -0.3201  0.4215  0.3706
 5116SOL    HW126810   0.190   0.111   3.572  0.6684  1.0138  0.7455
 5116SOL    HW226811   0.267   0.135   3.444  0.2114  0.2788  0.4205
 5117SOL     OW26812   1.889   1.356   2.253 -0.2136 -0.5517 -0.0072
 5117SOL    HW126813   1.879   1.263   2.274 -3.9894 -0.2514 -0.4272
 5117SOL    HW226814   1.978   1.360   2.218 -0.0205  0.6762  0.6338
 5118SOL     OW26815   3.581   3.179   6.180  0.2158  0.4270 -0.6295
 5118SOL    HW126816   3.586   3.110   6.114  2.7277  0.6586 -0.6762
 5118SOL    HW226817   3.615   3.248   6.123 -1.5886 -1.1128 -3.5806
 5119SOL     OW26818   3.391   3.237   8.846  0.0851  0.3799  0.1918
 5119SOL    HW126819   3.447   3.175   8.894  2.0077  1.2971 -0.9025
 5119SOL    HW226820   3.422   3.315   8.891  0.4172  0.7703 -0.7123
 5120SOL     OW26821   0.614   4.540   1.479 -0.0656 -0.1918  0.3841
 5120SOL    HW126822   0.707   4.552   1.461  0.1610 -2.2196  0.1530
 5120SOL    HW226823   0.570   4.550   1.394 -1.0304  1.0418  1.0306
 5121SOL     OW26824   2.390   4.482   0.837  0.7140  0.3798 -0.0235
 5121SOL    HW126825   2.419   4.481   0.928  1.8464  0.3636 -0.3904
 5121SOL    HW226826   2.329   4.409   0.841 -0.5606  1.4213 -0.5576
 5122SOL     OW26827   2.418   1.911  17.675 -0.1633  0.0110 -0.0256
 5122SOL    HW126828   2.469   1.924   0.066 -0.5472 -2.5405  0.6377
 5122SOL    HW226829   2.476   1.883  17.604 -0.2920  1.9616 -0.8925
 5123SOL     OW26830   0.838   0.324   9.273  0.2212 -0.3092 -0.1831
 5123SOL    HW126831   0.764   0.318   9.333  0.3064  2.0092  0.1814
 5123SOL    HW226832   0.868   0.413   9.294  0.8003 -0.3958 -0.6449
 5124SOL     OW26833   0.573   1.840  12.407 -0.3958  0.5910  0.2793
 5124SOL    HW126834   0.628   1.764  12.426 -2.1519 -1.4974 -2.9730
 5124SOL    HW226835   0.492   1.790  12.413  0.3126 -0.8046 -1.9357
 5125SOL     OW26836   0.774   0.219   5.805  0.1873 -0.0653  0.2179
 5125SOL    HW126837   0.736   0.137   5.834  2.1530 -1.4926 -1.2754
 5125SOL    HW226838   0.719   0.283   5.852  0.5677 -1.3876  2.4803
 5126SOL     OW26839   1.382   1.656   7.107  0.2587 -0.3608 -0.6485
 5126SOL    HW126840   1.465   1.638   7.152  0.9918  0.9274 -1.4906
 5126SOL    HW226841   1.319   1.656   7.179 -0.0041  1.5192 -0.8763
 5127SOL     OW26842   4.306   2.358   8.463  0.3446  0.5037  0.0163
 5127SOL    HW126843   4.220   2.394   8.442  0.5070  1.2899  0.7085
 5127SOL    HW226844   4.295   2.361   8.558 -1.0394 -0.7988 -0.1046
 5128SOL     OW26845   3.902   1.658   2.202 -0.7586 -0.1369  0.7472
 5128SOL    HW126846   3.983   1.679   2.248 -1.1950 -2.2925  2.4510
 5128SOL    HW226847   3.834   1.671   2.268 -1.4074 -2.4379  0.5248
 5129SOL     OW26848   2.905   1.739   3.081 -0.0286  0.3500  0.1115
 5129SOL    HW126849   2.969   1.811   3.082 -1.0283  1.2524 -0.4532
 5129SOL    HW226850   2.865   1.723   3.166  0.4562 -0.8069  0.1183
 5130SOL     OW26851   3.036   0.891  15.953 -0.4842 -0.2303  0.4676
 5130SOL    HW126852   2.976   0.963  15.974 -1.0998 -1.5050  3.0229
 5130SOL    HW226853   3.012   0.873  15.862  1.1288  0.5700 -0.1115
 5131SOL     OW26854   0.052   3.405   2.411 -0.7640  0.6190 -0.3291
 5131SOL    HW126855   4.707   3.402   2.480 -0.1945 -0.4166  0.1889
 5131SOL    HW226856   0.070   3.311   2.405  1.1088  0.9641  0.0522
 5132SOL     OW26857   0.949   3.986   1.689 -0.0580  0.2721  0.2452
 5132SOL    HW126858   0.939   3.892   1.697  0.8665 -0.0138 -2.1364
 5132SOL    HW226859   0.952   3.997   1.594 -1.4506 -0.6753  0.1093
 5133SOL     OW26860   0.588   3.509  17.478 -0.4593 -0.3819  0.2076
 5133SOL    HW126861   0.667   3.524  17.426 -0.8675  0.2615 -0.2238
 5133SOL    HW226862   0.546   3.594  17.489  1.9703  0.6293  1.6129
 5134SOL     OW26863   1.988   4.119  12.194 -0.3234 -0.0052  0.3524
 5134SOL    HW126864   2.075   4.079  12.196 -0.5771 -0.6863 -2.1673
 5134SOL    HW226865   1.937   4.062  12.136  0.7190 -0.5754 -0.0050
 5135SOL     OW26866   3.271   1.329   5.850  0.5205 -0.0882  0.1721
 5135SOL    HW126867   3.302   1.328   5.940  2.0529 -1.0770 -0.3792
 5135SOL    HW226868   3.238   1.419   5.853  2.1335  0.5756 -1.8915
 5136SOL     OW26869   1.379   4.715   6.435 -0.8331  0.6410  0.3041
 5136SOL    HW126870   1.376   4.661   6.356  0.3644 -0.9538  1.3489
 5136SOL    HW226871   1.430   0.066   6.399 -0.3216 -0.1261 -0.5246
 5137SOL     OW26872   0.955   3.515  15.103  0.0233 -0.1239 -0.2841
 5137SOL    HW126873   0.923   3.452  15.168  0.0490 -1.6721 -1.7576
 5137SOL    HW226874   1.021   3.463  15.056  0.2062  1.4984 -1.7996
 5138SOL     OW26875   0.700   4.660   8.749 -0.1066 -0.1995  0.4420
 5138SOL    HW126876   0.793   4.641   8.760  0.5209  1.8125 -1.2123
 5138SOL    HW226877   0.671   4.643   8.838  1.3997  1.0080  1.1365
 5139SOL     OW26878   3.476   4.032  16.937 -0.4966  0.1129 -0.0883
 5139SOL    HW126879   3.384   4.006  16.926 -1.0949  2.2006 -0.0988
 5139SOL    HW226880   3.469   4.110  16.992  0.1111  0.8284 -1.0381
 5140SOL     OW26881   3.578   2.363   7.984 -0.2469 -0.5042 -0.0659
 5140SOL    HW126882   3.592   2.296   8.050  0.9272 -1.1848 -1.0195
 5140SOL    HW226883   3.658   2.415   7.995  0.6169 -1.9299  0.3249
 5141SOL     OW26884   3.813   0.162   4.998 -0.6557 -0.2569  0.0885
 5141SOL    HW126885   3.784   0.079   4.961 -1.4500 -0.2235  0.6263
 5141SOL    HW226886   3.846   0.119   5.077  0.7592  0.5973 -0.0292
 5142SOL     OW26887   1.630   2.768   8.124  0.0464 -0.1600  0.0254
 5142SOL    HW126888   1.673   2.843   8.083 -1.1792  1.1105  1.0452
 5142SOL    HW226889   1.604   2.799   8.211  2.3150  1.0028  0.2804
 5143SOL     OW26890   3.562   0.799  10.310 -0.0764  0.0559 -0.0587
 5143SOL    HW126891   3.531   0.774  10.223  0.3342 -1.5742  0.2503
 5143SOL    HW226892   3.639   0.742  10.319 -0.5467 -0.5226  0.3548
 5144SOL     OW26893   0.139   2.077   2.694  0.2235 -0.6645 -0.2688
 5144SOL    HW126894   0.159   1.985   2.676 -0.0349 -1.1219  1.7187
 5144SOL    HW226895   0.070   2.079   2.760  0.9127  1.9218  0.3760
 5145SOL     OW26896   2.669   1.706  11.438 -0.0888 -0.0919 -0.5709
 5145SOL    HW126897   2.614   1.782  11.419 -1.0434 -1.0636 -1.7032
 5145SOL    HW226898   2.759   1.738  11.437  0.4604 -1.6423  0.5383
 5146SOL     OW26899   3.646   2.085   6.805  0.1166 -0.0602 -0.6119
 5146SOL    HW126900   3.621   2.176   6.824 -1.1891 -0.1398 -1.8629
 5146SOL    HW226901   3.714   2.087   6.737  1.6545  0.4068  0.9475
 5147SOL     OW26902   3.554   2.531   1.993 -0.1439 -0.1560 -0.0806
 5147SOL    HW126903   3.510   2.462   1.943 -1.1457 -0.5874  1.3947
 5147SOL    HW226904   3.604   2.478   2.056 -0.9870 -0.1427  0.6009
 5148SOL     OW26905   1.791   0.539   3.213 -0.0263  0.3471  0.9159
 5148SOL    HW126906   1.835   0.519   3.296 -1.9516  0.2850  1.9265
 5148SOL    HW226907   1.744   0.620   3.234  0.4421  0.7512  0.3719
 5149SOL     OW26908   1.258   3.579   2.536 -0.2693  0.4111 -0.6960
 5149SOL    HW126909   1.306   3.529   2.470  3.1888 -0.1322  2.2251
 5149SOL    HW226910   1.165   3.555   2.526 -0.4301  0.0379  1.6651
 5150SOL     OW26911   0.202   4.636   5.660 -0.2113 -0.3707  0.0638
 5150SOL    HW126912   0.192   4.663   5.751 -0.6090  2.1607 -0.7540
 5150SOL    HW226913   0.251   4.554   5.669 -0.1552 -0.4231 -0.6857
 5151SOL     OW26914   3.655   2.886  15.097  0.0391 -0.0453  0.2589
 5151SOL    HW126915   3.663   2.795  15.068  0.4504  0.0097  0.2028
 5151SOL    HW226916   3.561   2.901  15.091 -0.0223 -0.1149  1.0987
 5152SOL     OW26917   4.299   4.456   4.706  0.0624 -0.0397 -0.0795
 5152SOL    HW126918   4.258   4.463   4.793  0.2063  1.5439 -0.1524
 5152SOL    HW226919   4.254   4.376   4.678  0.2558  0.1181 -0.8354
 5153SOL     OW26920   0.183   0.032  10.714 -0.3015 -0.0185 -0.4897
 5153SOL    HW126921   0.205   0.042  10.621 -0.3166  1.1363 -0.3747
 5153SOL    HW226922   0.179   4.659  10.725 -2.2850  0.1631  0.3777
 5154SOL     OW26923   4.698   2.177   5.569  0.5004  0.2411  0.0924
 5154SOL    HW126924   4.653   2.260   5.551  3.6944  2.4970  2.4820
 5154SOL    HW226925   0.056   2.175   5.515  0.5649 -0.4591  0.2180
 5155SOL     OW26926   3.078   0.763   5.482  0.6262 -0.0440 -0.2027
 5155SOL    HW126927   2.983   0.760   5.489  0.4983  0.9801 -1.3799
 5155SOL    HW226928   3.080   0.671   5.508  2.8581 -0.1127 -0.6174
 5156SOL     OW26929   3.088   4.175   5.100  0.1927 -0.2446  0.4788
 5156SOL    HW126930   3.072   4.269   5.093  0.4001 -0.2754 -0.3800
 5156SOL    HW226931   3.015   4.140   5.151 -0.6958 -0.1793 -0.7650
 5157SOL     OW26932   2.530   0.837   6.704 -0.0741 -0.6193  0.1501
 5157SOL    HW126933   2.592   0.861   6.634  1.0656 -1.7814  0.7572
 5157SOL    HW226934   2.449   0.873   6.668  0.6968  1.3591  0.3605
 5158SOL     OW26935   0.614   1.138   3.680  0.1022 -0.4571  0.0677
 5158SOL    HW126936   0.574   1.225   3.675 -2.6079 -1.8055 -1.5595
 5158SOL    HW226937   0.614   1.115   3.587  3.9713  1.1296 -0.3147
 5159SOL     OW26938   2.235   2.751   3.545 -0.2629 -0.0034 -0.3801
 5159SOL    HW126939   2.211   2.784   3.631  0.9748 -2.2253  0.8288
 5159SOL    HW226940   2.199   2.662   3.550  1.4304 -0.7877 -2.2272
 5160SOL     OW26941   2.653   1.925  14.460 -0.5115 -0.4459 -0.0055
 5160SOL    HW126942   2.610   1.960  14.382 -2.8696  0.0043  1.5018
 5160SOL    HW226943   2.570   1.908  14.505  0.4589 -0.3892  1.8162
 5161SOL     OW26944   0.512   2.708   8.394  0.6073  0.4202 -0.8896
 5161SOL    HW126945   0.457   2.746   8.462  0.7670  2.9233 -2.1745
 5161SOL    HW226946   0.520   2.781   8.332 -0.5389  0.9991 -0.3506
 5162SOL     OW26947   2.395   1.406  16.416  0.4537 -0.5953 -0.2107
 5162SOL    HW126948   2.346   1.469  16.364 -1.6018 -0.4253  1.9653
 5162SOL    HW226949   2.390   1.326  16.363 -1.5695 -2.1104  2.2583
 5163SOL     OW26950   1.212   3.683   1.858 -0.2996  0.0049 -0.0668
 5163SOL    HW126951   1.168   3.600   1.838  2.0152 -1.3085  0.3523
 5163SOL    HW226952   1.163   3.725   1.929 -2.1573  0.0549 -1.3639
 5164SOL     OW26953   3.879   1.521   5.499 -0.0217 -0.2873  0.4688
 5164SOL    HW126954   3.934   1.518   5.577  0.7047  0.5822 -0.0104
 5164SOL    HW226955   3.907   1.607   5.467  0.8935 -1.1592 -1.0868
 5165SOL     OW26956   2.483   1.504   0.191 -0.4756  0.1493  0.1371
 5165SOL    HW126957   2.460   1.460   0.109  3.2238 -0.2081 -0.7378
 5165SOL    HW226958   2.397   1.495   0.232 -1.2623  0.7783 -1.3736
 5166SOL     OW26959   0.812   4.020   3.353 -0.3353  0.2946 -0.4719
 5166SOL    HW126960   0.902   4.046   3.371 -0.1475 -0.1703 -0.7434
 5166SOL    HW226961   0.766   4.094   3.315 -1.8638  0.9507  2.5784
 5167SOL     OW26962   0.170   4.612   4.953 -0.4160  0.3662 -0.2064
 5167SOL    HW126963   0.099   4.672   4.931 -0.5895  0.3623  0.3441
 5167SOL    HW226964   0.126   4.548   5.009  2.7912 -2.7893 -1.2571
 5168SOL     OW26965   0.834   3.353   4.407  0.6187  0.2441  0.1342
 5168SOL    HW126966   0.772   3.421   4.382 -1.5798 -2.6110 -2.2739
 5168SOL    HW226967   0.812   3.352   4.500 -1.4098 -0.9397 -0.3414
 5169SOL     OW26968   4.131   2.546   7.930  0.6169  0.0963 -0.2954
 5169SOL    HW126969   4.141   2.592   8.013 -2.1037 -1.3067  0.8275
 5169SOL    HW226970   4.145   2.618   7.870  1.6184  1.2960  1.3811
 5170SOL     OW26971   0.216   2.251   8.187  0.3581 -0.2297  0.0293
 5170SOL    HW126972   0.291   2.207   8.146  0.2674  0.9026 -1.3625
 5170SOL    HW226973   0.232   2.221   8.277 -0.2499  4.8497  1.8562
 5171SOL     OW26974   3.091   2.486   5.162  0.2712  0.1139 -0.4990
 5171SOL    HW126975   3.106   2.533   5.080 -2.2926  0.4504 -0.7651
 5171SOL    HW226976   3.177   2.444   5.171  0.3786  0.6170  0.7274
 5172SOL     OW26977   2.693   1.341   5.158  0.2467 -0.3888  0.5549
 5172SOL    HW126978   2.638   1.348   5.236  0.2550  1.7256  0.3482
 5172SOL    HW226979   2.635   1.368   5.087  1.7934 -0.1098 -0.6010
 5173SOL     OW26980   3.262   4.655   9.370 -0.3897  0.4604 -0.0218
 5173SOL    HW126981   3.357   4.662   9.359 -0.3193 -2.6582 -1.5672
 5173SOL    HW226982   3.260   4.561   9.348  0.8219  0.6254 -0.8621
 5174SOL     OW26983   1.358   2.667   5.576 -0.1578 -0.1454  0.2991
 5174SOL    HW126984   1.382   2.656   5.483 -1.5728  0.0606 -0.0834
 5174SOL    HW226985   1.389   2.758   5.585  0.9652 -0.4650 -0.2670
 5175SOL     OW26986   0.773   2.482   8.912  0.6779 -0.2790 -0.0545
 5175SOL    HW126987   0.713   2.410   8.893 -2.3530  2.8861 -2.3849
 5175SOL    HW226988   0.755   2.542   8.840 -3.2784 -0.0524  1.1419
 5176SOL     OW26989   0.083   3.584   3.347  0.1726  0.1203  0.2461
 5176SOL    HW126990   0.094   3.632   3.429  2.5232 -0.3163  0.1825
 5176SOL    HW226991   0.018   3.519   3.376  1.4757 -1.0686  0.4999
 5177SOL     OW26992   4.216   3.979   7.757  0.4386  0.2461 -0.3596
 5177SOL    HW126993   4.147   3.948   7.816  1.1701  1.7233  1.2660
 5177SOL    HW226994   4.189   3.939   7.674  1.9756  1.1914 -1.3266
 5178SOL     OW26995   4.038   2.828   5.459  0.9550 -0.2348 -0.2312
 5178SOL    HW126996   3.953   2.872   5.462  0.9248 -0.3146  0.0974
 5178SOL    HW226997   4.026   2.755   5.519  0.4742 -2.2052 -2.7449
 5179SOL     OW26998   3.426   4.383   1.301 -0.3360 -0.3804 -0.5316
 5179SOL    HW126999   3.458   4.436   1.374 -0.4562 -0.9644 -0.0577
 5179SOL    HW227000   3.434   4.443   1.227  1.4922 -0.2970 -0.2597
 5180SOL     OW27001   4.619   3.395   0.010  0.2734  0.2975 -0.2462
 5180SOL    HW127002   4.613   3.301  17.681 -1.1836  0.3180  0.2041
 5180SOL    HW227003   4.544   3.425  17.648  0.9479  3.1638  0.4844
 5181SOL     OW27004   4.701   4.307   8.801 -0.3640  0.0127  0.0227
 5181SOL    HW127005   4.651   4.230   8.830 -0.4145  0.3508  0.8277
 5181SOL    HW227006   4.677   4.317   8.708  1.2030  1.6577 -0.2050
 5182SOL     OW27007   3.137   3.304   1.472  0.4020  0.4168  0.2105
 5182SOL    HW127008   3.063   3.337   1.421 -0.9889 -1.5964  0.9101
 5182SOL    HW227009   3.090   3.258   1.542  2.4221 -1.1532  0.5298
 5183SOL     OW27010   0.293   0.366   2.804  0.1020  0.1738 -0.2730
 5183SOL    HW127011   0.220   0.395   2.749 -0.4019  0.6571  0.6591
 5183SOL    HW227012   0.260   0.386   2.891  1.7333  1.5957  0.0261
 5184SOL     OW27013   3.233   2.144   1.391 -0.3948  0.0542  0.5616
 5184SOL    HW127014   3.281   2.062   1.402  0.1837  0.3432  0.2274
 5184SOL    HW227015   3.304   2.200   1.359 -0.4051  0.5730  1.4266
 5185SOL     OW27016   1.802   2.426   5.130 -0.2317  0.7010 -0.3367
 5185SOL    HW127017   1.839   2.340   5.112 -1.8413 -0.2013  0.5958
 5185SOL    HW227018   1.728   2.426   5.069  0.4562  2.0066 -1.1493
 5186SOL     OW27019   2.695   0.392   2.932  0.4223  0.3185  0.3733
 5186SOL    HW127020   2.627   0.455   2.957 -0.7614 -1.0259  0.5364
 5186SOL    HW227021   2.639   0.315   2.935 -2.3350  2.2904  0.3115
 5187SOL     OW27022   1.039   3.322   7.327  0.1177 -0.0334 -0.5261
 5187SOL    HW127023   1.044   3.318   7.231  0.5898 -1.4117 -0.4514
 5187SOL    HW227024   0.953   3.363   7.333 -0.7213 -2.3258  3.3097
 5188SOL     OW27025   0.983   3.866   0.839 -0.0928  0.0907  0.2168
 5188SOL    HW127026   1.037   3.846   0.763 -0.4134  2.1051 -0.5485
 5188SOL    HW227027   1.015   3.805   0.904  2.3756 -0.1128 -1.2175
 5189SOL     OW27028   2.835   0.194   3.374  0.0045  0.2684  0.3312
 5189SOL    HW127029   2.856   0.211   3.283  1.0287 -1.0057  0.3312
 5189SOL    HW227030   2.921   0.205   3.414 -0.2978 -1.8120  1.5683
 5190SOL     OW27031   1.366   2.225   5.151  0.0296  0.2703  0.0488
 5190SOL    HW127032   1.277   2.259   5.142 -0.8821 -1.7376  1.3686
 5190SOL    HW227033   1.380   2.155   5.087  0.0430 -1.6427  2.1330
 5191SOL     OW27034   2.813   2.767  10.253 -0.1543 -0.6407 -0.6418
 5191SOL    HW127035   2.792   2.682  10.213 -1.6849 -0.6279  0.1606
 5191SOL    HW227036   2.891   2.742  10.302 -0.1167 -0.7007 -0.7308
 5192SOL     OW27037   3.989   1.288   1.652 -0.3679 -0.2580  0.1118
 5192SOL    HW127038   4.053   1.236   1.700  1.3906  1.1789 -0.6813
 5192SOL    HW227039   3.908   1.298   1.703 -1.4260 -2.3537 -1.2054
 5193SOL     OW27040   2.257   4.136   3.650 -0.1282 -0.2365  0.0837
 5193SOL    HW127041   2.263   4.073   3.722 -0.6390 -0.9939 -0.5420
 5193SOL    HW227042   2.164   4.136   3.627 -1.3992 -0.9912  5.1302
 5194SOL     OW27043   0.648   2.878   5.282  0.3512  0.1832 -0.3824
 5194SOL    HW127044   0.614   2.945   5.222 -0.0716  1.7726  1.6494
 5194SOL    HW227045   0.580   2.810   5.287  0.8845 -0.4177 -1.2062
 5195SOL     OW27046   2.414   1.950  14.548  0.5966  0.1834  0.0683
 5195SOL    HW127047   2.350   1.939  14.619 -1.5963  1.0413 -1.7726
 5195SOL    HW227048   2.370   1.889  14.488  0.4147 -0.0532  0.4409
 5196SOL     OW27049   3.080   0.492   5.478 -0.6911 -0.0434 -0.1453
 5196SOL    HW127050   3.015   0.422   5.484 -0.2880 -0.4499 -0.4417
 5196SOL    HW227051   3.067   0.523   5.388 -3.1779 -1.7377 -0.3530
 5197SOL     OW27052   2.179   2.411   6.819  0.0406 -0.6246  0.0935
 5197SOL    HW127053   2.189   2.325   6.778  1.2273 -0.3391 -0.2246
 5197SOL    HW227054   2.167   2.465   6.741 -2.0622 -0.7294  0.3485
 5198SOL     OW27055   1.962   2.034   7.151  0.1828  0.6060  0.4444
 5198SOL    HW127056   2.021   1.979   7.099 -2.6026 -1.6671 -0.2957
 5198SOL    HW227057   1.918   1.963   7.197  2.8239 -0.8772  0.6877
 5199SOL     OW27058   0.255   0.184  13.370  0.3571  0.0146  0.4798
 5199SOL    HW127059   0.337   0.133  13.370  0.3861  0.0616 -0.0133
 5199SOL    HW227060   0.263   0.232  13.288 -3.6906 -0.2303 -0.0552
 5200SOL     OW27061   4.196   1.265   8.120 -0.3874  0.0130 -0.0984
 5200SOL    HW127062   4.258   1.300   8.056  1.6592 -0.7477  1.4457
 5200SOL    HW227063   4.152   1.197   8.069  2.4344 -1.0620 -1.1054
 5201SOL     OW27064   3.183   4.217   9.270  0.1626 -0.0626 -0.4224
 5201SOL    HW127065   3.095   4.234   9.303  1.0713  0.6895  1.6281
 5201SOL    HW227066   3.177   4.123   9.251  0.6355 -0.0693 -0.5328
 5202SOL     OW27067   0.030   2.244   9.702  0.3010 -0.1766  0.6462
 5202SOL    HW127068   0.022   2.319   9.761  0.1534 -0.8108  1.4236
 5202SOL    HW227069   0.122   2.224   9.719  0.0420  0.4868  2.8058
 5203SOL     OW27070   0.439   4.676   0.284  0.3093 -0.0781  0.1977
 5203SOL    HW127071   0.439   0.040   0.243  3.1453 -0.3506 -0.3332
 5203SOL    HW227072   0.524   4.683   0.327 -0.5707  1.4837  1.6650
 5204SOL     OW27073   3.386   0.027   9.071  0.0303  0.1963 -0.1581
 5204SOL    HW127074   3.305   0.079   9.079 -2.1708 -3.1374 -0.6837
 5204SOL    HW227075   3.425   0.054   9.154  0.0027 -2.5915  0.7781
 5205SOL     OW27076   4.594   1.304   7.661  0.4515  0.0286  0.5644
 5205SOL    HW127077   4.507   1.309   7.621  0.7009  0.3053  0.0633
 5205SOL    HW227078   4.646   1.273   7.587 -0.2941  0.4264 -0.1258
 5206SOL     OW27079   2.077   0.386   7.264 -0.0380 -0.2899 -0.3099
 5206SOL    HW127080   2.163   0.399   7.225 -0.3247  1.2587 -0.4291
 5206SOL    HW227081   2.089   0.392   7.358  2.0355 -2.9092 -0.4076
 5207SOL     OW27082   2.749   2.011   4.188 -0.5729  0.2239 -0.7812
 5207SOL    HW127083   2.747   2.104   4.212 -2.2912 -0.3402  1.2549
 5207SOL    HW227084   2.716   2.013   4.098  2.2235 -3.3655 -1.8436
 5208SOL     OW27085   1.547   2.966   9.219  0.1405 -0.2357 -0.2483
 5208SOL    HW127086   1.554   2.896   9.154 -0.7785  0.6600 -1.2995
 5208SOL    HW227087   1.482   3.014   9.169 -0.9581 -3.1143 -1.5673
 5209SOL     OW27088   0.531   2.859   1.744  0.3370 -0.0572  0.6290
 5209SOL    HW127089   0.552   2.931   1.804 -2.2740  0.2487  1.1713
 5209SOL    HW227090   0.450   2.894   1.706  0.3381 -0.1683  0.5256
 5210SOL     OW27091   3.927   1.923   7.485  0.1954  0.0844 -0.7241
 5210SOL    HW127092   3.988   1.850   7.483 -0.5328 -0.5408 -0.2062
 5210SOL    HW227093   3.917   1.952   7.394 -1.6082 -0.1825 -0.6203
 5211SOL     OW27094   1.342   0.391   2.745  0.5103 -0.4603 -0.1456
 5211SOL    HW127095   1.364   0.476   2.784 -2.0489 -0.7883  2.0296
 5211SOL    HW227096   1.250   0.379   2.768  0.9552  0.5469  2.0946
 5212SOL     OW27097   2.901   2.846   5.723  0.1461 -0.9861  0.0511
 5212SOL    HW127098   2.809   2.870   5.707  1.1424  3.0583  0.2951
 5212SOL    HW227099   2.951   2.925   5.702  0.8927 -1.8474 -1.3002
 5213SOL     OW27100   1.928   1.422   8.049 -0.4934  0.2362  0.2365
 5213SOL    HW127101   1.954   1.494   8.107  1.3228 -1.3045  1.3205
 5213SOL    HW227102   1.890   1.367   8.117  0.0022 -2.0667 -1.3750
 5214SOL     OW27103   1.069   2.932   8.764 -0.6783 -0.0446 -0.2796
 5214SOL    HW127104   1.161   2.913   8.781 -0.8567 -0.5016  0.1784
 5214SOL    HW227105   1.061   2.914   8.670  1.0468 -4.0410  0.3325
 5215SOL     OW27106   1.079   0.462   2.801 -0.4720 -0.5399  0.1340
 5215SOL    HW127107   0.997   0.469   2.752 -1.6838 -0.1285  2.2222
 5215SOL    HW227108   1.065   0.375   2.839 -0.0270 -0.2094  1.0299
 5216SOL     OW27109   2.320   1.334   2.714  0.1820  0.1765  0.1207
 5216SOL    HW127110   2.381   1.368   2.779  1.3996 -1.8669  0.0632
 5216SOL    HW227111   2.284   1.409   2.666 -0.8003 -0.2467  0.2020
 5217SOL     OW27112   1.757   2.631   2.960 -0.2077  0.1195 -0.0886
 5217SOL    HW127113   1.772   2.706   2.903 -3.1272 -0.0330 -1.0727
 5217SOL    HW227114   1.702   2.589   2.894  0.3152  0.9662 -1.0669
 5218SOL     OW27115   4.613   2.141   6.399 -0.9455  0.4972 -0.3355
 5218SOL    HW127116   4.605   2.179   6.312  0.2767 -2.3305 -1.6918
 5218SOL    HW227117   4.593   2.220   6.449  1.3484 -0.5274  2.1768
 5219SOL     OW27118   0.223   2.859   3.776  0.5216  0.3135 -0.0603
 5219SOL    HW127119   0.268   2.818   3.701 -0.0181  1.4135 -0.9857
 5219SOL    HW227120   0.203   2.785   3.834 -0.1323 -0.5614 -1.3811
 5220SOL     OW27121   0.919   0.907  14.657 -0.1967 -0.2308  0.0813
 5220SOL    HW127122   0.911   0.966  14.582  0.7596  1.1711  1.0756
 5220SOL    HW227123   0.837   0.921  14.704  0.2131  3.6213 -0.3204
 5221SOL     OW27124   0.940   3.201   8.917  0.5144 -0.2626 -0.7337
 5221SOL    HW127125   0.908   3.204   8.827 -0.1392 -1.8096 -0.5485
 5221SOL    HW227126   0.986   3.117   8.914  2.3500  0.7128 -0.2148
 5222SOL     OW27127   0.634   0.592   3.749 -0.0713  0.0423 -0.0699
 5222SOL    HW127128   0.632   0.680   3.712  0.1924 -0.1839 -0.6258
 5222SOL    HW227129   0.543   0.590   3.779  0.5865 -1.5282  1.7723
 5223SOL     OW27130   3.362   1.158  12.638  0.4724  0.1695  0.1869
 5223SOL    HW127131   3.371   1.144  12.733  2.0062  1.9479  0.3027
 5223SOL    HW227132   3.368   1.253  12.638  1.5109  0.1000  3.4112
 5224SOL     OW27133   0.971   1.876   8.667 -0.0705  0.0728  0.2338
 5224SOL    HW127134   1.003   1.808   8.726  0.4544  0.5882  0.5403
 5224SOL    HW227135   1.055   1.895   8.625 -0.7872  0.0740 -1.2016
 5225SOL     OW27136   2.141   2.329   8.924  0.4314 -0.0925 -0.0522
 5225SOL    HW127137   2.211   2.315   8.988  0.1872  2.9509  0.9020
 5225SOL    HW227138   2.075   2.263   8.948  1.7345 -0.8705  1.3839
 5226SOL     OW27139   0.719   4.274   7.648 -0.0003 -0.0516  0.2908
 5226SOL    HW127140   0.692   4.182   7.652  0.8872 -0.3342 -0.3836
 5226SOL    HW227141   0.783   4.272   7.719 -1.2663 -3.2048  1.3340
 5227SOL     OW27142   4.704   2.343   7.935 -0.6036 -0.0123  0.0984
 5227SOL    HW127143   4.633   2.376   7.880  1.8323 -0.0807 -3.0550
 5227SOL    HW227144   0.019   2.429   7.958  1.4600 -0.9969  0.4607
 5228SOL     OW27145   3.726   2.036   0.265  0.2488  0.4490  0.8361
 5228SOL    HW127146   3.635   2.059   0.283  0.0693  0.7206 -0.4478
 5228SOL    HW227147   3.744   1.968   0.330  0.3114  0.1729  0.5300
 5229SOL     OW27148   4.538   1.992   9.596 -0.6508  0.1484 -0.0332
 5229SOL    HW127149   4.457   2.021   9.554 -1.5420 -0.8016  1.0135
 5229SOL    HW227150   4.593   2.066   9.573 -1.2088 -0.3467 -2.8775
 5230SOL     OW27151   3.228   4.145   2.050  0.0211  0.1309  0.2021
 5230SOL    HW127152   3.246   4.099   2.133  0.0944 -1.3708 -0.6507
 5230SOL    HW227153   3.283   4.101   1.986  1.3453  0.4497  1.1142
 5231SOL     OW27154   3.345   4.665   5.787  0.3266 -0.4097  0.0913
 5231SOL    HW127155   3.266   4.719   5.790  0.1828 -0.7041  1.9199
 5231SOL    HW227156   3.390   4.690   5.868  0.8594 -1.3211  0.0807
 5232SOL     OW27157   0.847   0.155  10.665  0.0290 -0.1305  0.0437
 5232SOL    HW127158   0.905   0.135  10.738 -1.2209  3.8825  2.1469
 5232SOL    HW227159   0.765   0.161  10.713  0.2969 -0.1886  0.5075
 5233SOL     OW27160   2.913   3.649   7.825  0.3493 -0.4377 -0.3915
 5233SOL    HW127161   2.893   3.695   7.905  0.8338 -0.3999 -0.2907
 5233SOL    HW227162   2.830   3.642   7.778 -0.8830  2.1360  1.4830
 5234SOL     OW27163   2.079   3.562   9.078 -0.3315  0.8777 -0.7041
 5234SOL    HW127164   2.125   3.549   8.995 -0.8778  2.0643 -1.1996
 5234SOL    HW227165   2.151   3.577   9.138 -0.5531  1.0714 -0.4856
 5235SOL     OW27166   4.405   1.065   1.498 -0.3850 -0.3411 -0.3023
 5235SOL    HW127167   4.426   1.004   1.427  0.6250 -1.1081  0.6647
 5235SOL    HW227168   4.367   1.135   1.444 -1.2584 -0.0441  0.6977
 5236SOL     OW27169   3.975   2.140   4.653  0.3609 -0.2822 -0.7920
 5236SOL    HW127170   4.065   2.127   4.685 -0.6823  0.0547  2.2890
 5236SOL    HW227171   3.980   2.088   4.573  0.6974  0.4021 -1.2160
 5237SOL     OW27172   4.281   1.042   8.250  0.1533 -0.2358  0.8747
 5237SOL    HW127173   4.279   1.070   8.341 -1.1390  0.1989  0.7046
 5237SOL    HW227174   4.251   1.123   8.209 -2.1342 -2.5388 -2.0081
 5238SOL     OW27175   1.465   4.617   3.025 -0.1500  0.3199  0.5440
 5238SOL    HW127176   1.450   4.591   2.934 -1.1097  0.1600  0.7510
 5238SOL    HW227177   1.557   4.591   3.029 -0.2214  0.2005  1.3882
 5239SOL     OW27178   3.736   2.153   0.839 -0.0050  0.2983 -0.0928
 5239SOL    HW127179   3.783   2.072   0.859  1.8034  1.2328 -0.6224
 5239SOL    HW227180   3.815   2.207   0.845 -0.5567  0.8577  2.2633
 5240SOL     OW27181   2.262   2.831   7.650  0.1560  0.1710  0.3585
 5240SOL    HW127182   2.233   2.921   7.658 -0.3059  0.0329  0.2441
 5240SOL    HW227183   2.179   2.786   7.666 -0.4947  0.8802 -1.0042
 5241SOL     OW27184   2.320   2.137   7.950  0.5978 -0.6210  0.7430
 5241SOL    HW127185   2.248   2.123   8.012  1.5866  2.1534  2.5388
 5241SOL    HW227186   2.310   2.060   7.895 -0.5578 -1.7743  2.5873
 5242SOL     OW27187   1.111   0.556   3.179 -0.3139  0.6378 -0.6801
 5242SOL    HW127188   1.120   0.598   3.264  1.2612 -2.3049  0.6000
 5242SOL    HW227189   1.016   0.553   3.164 -0.3570  3.1184 -0.9041
 5243SOL     OW27190   3.964   1.989   0.511 -0.3506  0.0859 -0.2053
 5243SOL    HW127191   3.895   2.054   0.503 -1.4389 -1.0228  0.1608
 5243SOL    HW227192   3.969   1.978   0.606 -2.6346 -3.1236 -0.4634
 5244SOL     OW27193   3.557   4.425   1.945  0.8121 -0.0715 -0.3090
 5244SOL    HW127194   3.540   4.428   2.040  1.5238 -1.9827 -0.1250
 5244SOL    HW227195   3.470   4.432   1.907 -0.4851 -1.5203  2.3784
 5245SOL     OW27196   2.948   2.637   9.037 -0.0805 -0.1257 -0.1478
 5245SOL    HW127197   2.898   2.584   8.976 -1.6495  0.0136  1.0328
 5245SOL    HW227198   2.902   2.719   9.020  0.8666  0.1287 -1.5079
 5246SOL     OW27199   4.312   3.231   3.513 -0.1509  0.0760  0.2253
 5246SOL    HW127200   4.383   3.166   3.504  0.3392  0.7506 -0.7627
 5246SOL    HW227201   4.319   3.257   3.605 -1.5442 -1.1170  0.6745
 5247SOL     OW27202   2.900   1.282  16.831 -0.0527  0.1581 -0.0498
 5247SOL    HW127203   2.891   1.320  16.743  2.0826 -0.3837 -0.5038
 5247SOL    HW227204   2.816   1.300  16.875  0.6166 -1.3227  1.8007
 5248SOL     OW27205   3.887   0.904   2.690 -0.3505 -0.0242 -0.3523
 5248SOL    HW127206   3.843   0.846   2.628  0.2836 -1.1088  0.2133
 5248SOL    HW227207   3.829   0.916   2.764  1.0310 -0.1826  0.7629
 5249SOL     OW27208   3.676   3.649  10.913  0.2252  0.5478 -0.3545
 5249SOL    HW127209   3.591   3.633  10.952  1.3071 -1.7656  1.0819
 5249SOL    HW227210   3.701   3.557  10.901 -1.6904 -0.6223  4.7374
 5250SOL     OW27211   1.057   2.358   4.246  0.1737 -0.4713 -0.1784
 5250SOL    HW127212   1.145   2.386   4.218  0.2416 -1.6015 -1.1072
 5250SOL    HW227213   1.013   2.442   4.259  1.5007  0.4150 -1.4019
 5251SOL     OW27214   0.512   3.625   5.274  0.3812  0.7244 -0.2595
 5251SOL    HW127215   0.484   3.622   5.182 -1.4092 -1.4179  0.3715
 5251SOL    HW227216   0.524   3.536   5.306 -2.2324  0.4176 -0.1400
 5252SOL     OW27217   3.006   0.222   6.805  0.3434  0.1107  0.0009
 5252SOL    HW127218   2.911   0.225   6.816  0.4030  1.4143  0.1837
 5252SOL    HW227219   3.029   0.311   6.779 -0.8232 -0.1185 -1.7617
 5253SOL     OW27220   3.585   1.281   2.395  0.0662 -0.1890 -0.3429
 5253SOL    HW127221   3.673   1.303   2.423 -0.2900 -1.4486  1.7312
 5253SOL    HW227222   3.546   1.238   2.471 -2.8598  1.1994 -1.0240
 5254SOL     OW27223   4.292   0.166  10.315  0.4947  0.4178 -0.2511
 5254SOL    HW127224   4.222   0.204  10.368  0.5448 -0.6332  0.5681
 5254SOL    HW227225   4.354   0.125  10.375  0.4642 -0.8164 -1.0514
 5255SOL     OW27226   0.340   4.020  16.949  0.1637  0.2678  0.0918
 5255SOL    HW127227   0.358   4.100  16.900  1.3288 -0.1238 -0.1127
 5255SOL    HW227228   0.292   4.048  17.026 -0.7264 -0.4184 -0.2093
 5256SOL     OW27229   4.688   4.240   9.997  0.0634  0.1432  0.5600
 5256SOL    HW127230   0.061   4.235   9.982 -0.2215  0.0550 -1.1764
 5256SOL    HW227231   4.680   4.223  10.091 -1.9107  1.2651  0.5963
 5257SOL     OW27232   4.384   4.179  11.585 -0.2614  0.4405  0.4126
 5257SOL    HW127233   4.477   4.185  11.562  0.2586 -0.9833  2.1013
 5257SOL    HW227234   4.368   4.269  11.611 -2.2079 -0.1637  1.3339
 5258SOL     OW27235   3.946   3.368   3.495  0.5350  0.1825 -0.2631
 5258SOL    HW127236   4.022   3.347   3.440  0.3521  0.8392 -0.7748
 5258SOL    HW227237   3.984   3.406   3.575  0.8233  0.6823 -0.6364
 5259SOL     OW27238   0.466   4.613  15.881  0.4284  0.0795  0.8207
 5259SOL    HW127239   0.383   4.565  15.881 -0.9666  2.4696 -0.3397
 5259SOL    HW227240   0.447   4.676  15.951  2.2146  0.9355  0.5471
 5260SOL     OW27241   3.508   0.775   8.262  0.1723 -0.0571  0.1335
 5260SOL    HW127242   3.591   0.809   8.229 -0.4267  0.6217 -0.6719
 5260SOL    HW227243   3.504   0.698   8.206  0.8719 -0.3459  0.4775
 5261SOL     OW27244   2.045   1.154   3.612 -0.3615  0.4993 -0.5753
 5261SOL    HW127245   2.056   1.178   3.704  0.2936 -0.8488 -0.3049
 5261SOL    HW227246   1.964   1.193   3.580 -0.8187 -0.5212 -0.6633
 5262SOL     OW27247   0.780   3.215   7.895  0.1227 -0.4578 -0.1178
 5262SOL    HW127248   0.699   3.256   7.864  1.8352  1.4931 -2.0779
 5262SOL    HW227249   0.813   3.289   7.946  2.6545 -0.4126 -1.7934
 5263SOL     OW27250   3.578   4.228   3.122  0.3297  0.5168  0.6151
 5263SOL    HW127251   3.503   4.261   3.073  0.3284  0.2499  0.4362
 5263SOL    HW227252   3.637   4.279   3.068  0.5700 -0.7332 -0.3203
 5264SOL     OW27253   4.666   3.738  13.719  0.0957  0.5456 -0.2682
 5264SOL    HW127254   4.721   3.724  13.797 -0.0272 -2.1935 -0.6573
 5264SOL    HW227255   4.623   3.819  13.744  0.4451  1.2718 -2.0852
 5265SOL     OW27256   3.916   3.437   9.432  0.2661 -0.1312 -0.8296
 5265SOL    HW127257   3.905   3.443   9.337  1.6677  0.3866 -0.9681
 5265SOL    HW227258   3.855   3.509   9.443 -0.8615 -0.7608 -2.9217
 5266SOL     OW27259   0.382   2.544  15.684 -0.5085 -0.1756 -0.2156
 5266SOL    HW127260   0.396   2.457  15.647  0.3746 -0.1794  0.1340
 5266SOL    HW227261   0.455   2.590  15.644  0.1294  1.0293  2.3697
 5267SOL     OW27262   0.174   2.381   1.415  0.4122 -0.2225 -1.0424
 5267SOL    HW127263   0.224   2.325   1.355  1.8131  0.2603 -0.3378
 5267SOL    HW227264   0.089   2.351   1.385  0.5161 -0.3901 -1.1684
 5268SOL     OW27265   3.901   0.881   1.800 -0.6011  0.2476  0.4783
 5268SOL    HW127266   3.819   0.832   1.787  0.0364 -0.8076  0.4196
 5268SOL    HW227267   3.892   0.941   1.726 -2.1729 -0.2874  0.2250
 5269SOL     OW27268   1.994   1.619   8.235  0.4377  0.6848  0.6423
 5269SOL    HW127269   2.046   1.694   8.265  1.0584  0.8265 -0.7550
 5269SOL    HW227270   2.006   1.575   8.319 -1.2028  0.4521  0.7613
 5270SOL     OW27271   4.673   0.080  10.880  0.3541  0.1303  0.1163
 5270SOL    HW127272   4.713   0.016  10.939  2.2918 -0.4604 -1.8278
 5270SOL    HW227273   0.028   0.082  10.823 -1.8671  1.0710 -2.8088
 5271SOL     OW27274   1.507   2.455   0.078 -0.1282 -0.4137 -0.3297
 5271SOL    HW127275   1.479   2.542   0.107 -0.4171 -0.8380  0.6506
 5271SOL    HW227276   1.488   2.465  17.673 -1.3349  3.4540  0.3406
 5272SOL     OW27277   1.271   2.435   4.041 -0.1587 -0.0526 -0.1568
 5272SOL    HW127278   1.349   2.461   3.993 -0.5849 -0.4455 -1.0762
 5272SOL    HW227279   1.211   2.478   3.980  0.8027  0.0184 -1.0500
 5273SOL     OW27280   4.261   1.104   8.531 -0.3661 -0.1890  0.0019
 5273SOL    HW127281   4.281   1.196   8.515  3.4387 -0.9450  0.4952
 5273SOL    HW227282   4.310   1.091   8.612  0.0590  2.8598  0.2341
 5274SOL     OW27283   3.565   3.694   9.490 -0.4565  0.5292  0.1606
 5274SOL    HW127284   3.654   3.720   9.466  0.5661 -1.3680  1.8883
 5274SOL    HW227285   3.567   3.717   9.583  1.4581 -0.5594  0.3687
 5275SOL     OW27286   1.686   0.843   3.881  0.4328  0.0275  0.6231
 5275SOL    HW127287   1.608   0.816   3.928  0.0196  0.5676  0.2414
 5275SOL    HW227288   1.721   0.902   3.947  0.1880  1.3394 -0.4263
 5276SOL     OW27289   2.251   1.440   9.925 -0.1047  0.4886  0.0635
 5276SOL    HW127290   2.309   1.365   9.907 -0.0925  0.7907 -1.1977
 5276SOL    HW227291   2.181   1.415   9.985 -0.0639 -1.4676 -0.6890
 5277SOL     OW27292   2.763   2.482   8.896  0.7796  0.4228  0.2901
 5277SOL    HW127293   2.701   2.442   8.957 -0.6567 -0.2625 -1.6242
 5277SOL    HW227294   2.706   2.499   8.822  0.9852  0.9276  0.2495
 5278SOL     OW27295   3.317   2.403   5.837 -0.4487 -0.4661  0.1452
 5278SOL    HW127296   3.289   2.402   5.746  0.5119  2.3832 -0.1860
 5278SOL    HW227297   3.251   2.461   5.876  1.3858  1.4289  0.4801
 5279SOL     OW27298   1.464   3.404   7.110  0.3907 -0.1240 -0.0450
 5279SOL    HW127299   1.386   3.457   7.126  1.2645  1.5416 -1.3068
 5279SOL    HW227300   1.437   3.312   7.110  0.0293 -0.0138 -0.4625
 5280SOL     OW27301   0.329   3.788   8.392  0.0962  0.1430  0.2451
 5280SOL    HW127302   0.383   3.829   8.459  0.1313 -2.0593  1.5442
 5280SOL    HW227303   0.308   3.859   8.330  0.5426 -2.0285 -2.4099
 5281SOL     OW27304   1.593   2.912   4.740  0.1229  0.2891 -0.1872
 5281SOL    HW127305   1.534   2.915   4.816  0.4223  0.5053  0.0355
 5281SOL    HW227306   1.660   2.974   4.768 -0.6129  1.3167 -0.7454
 5282SOL     OW27307   2.883   2.118   2.131 -0.4832  0.4276  0.3594
 5282SOL    HW127308   2.963   2.119   2.184 -0.7529 -0.8330  0.8055
 5282SOL    HW227309   2.832   2.056   2.183  0.2361  0.1652  0.7513
 5283SOL     OW27310   1.958   3.819   5.449  0.0320 -0.1330  0.5453
 5283SOL    HW127311   1.983   3.758   5.518 -2.2213 -1.6121  0.0556
 5283SOL    HW227312   1.971   3.755   5.379 -0.4647  1.6494 -1.1684
 5284SOL     OW27313   1.417   1.956   8.039 -0.1584 -0.6279 -0.9004
 5284SOL    HW127314   1.483   2.007   8.085 -0.2354 -0.0325 -1.4585
 5284SOL    HW227315   1.465   1.942   7.957 -0.9569 -1.7768 -1.1794
 5285SOL     OW27316   0.191   1.848  14.185 -0.0154  0.2159 -0.0637
 5285SOL    HW127317   0.273   1.885  14.218 -0.1139  1.7855 -1.6079
 5285SOL    HW227318   0.213   1.826  14.095 -0.8981  1.3265 -0.5503
 5286SOL     OW27319   1.095   0.215   2.877  0.6354 -0.7222  0.0813
 5286SOL    HW127320   1.078   0.123   2.856 -0.8025 -0.8919  2.0815
 5286SOL    HW227321   1.120   0.211   2.969 -0.5487 -1.3986  0.3734
 5287SOL     OW27322   1.605   3.490  12.332 -0.3305  0.1987 -0.2191
 5287SOL    HW127323   1.672   3.515  12.396 -1.4593  0.4963  0.8529
 5287SOL    HW227324   1.650   3.501  12.249 -0.0381  0.5448 -0.0194
 5288SOL     OW27325   2.103   3.551   6.740  0.8299 -0.8893 -0.0326
 5288SOL    HW127326   2.029   3.540   6.800  1.6479 -0.2049  1.1196
 5288SOL    HW227327   2.164   3.598   6.798  2.2378 -2.6650 -0.0753
 5289SOL     OW27328   2.632   0.986   1.145 -0.3728 -0.1529  0.4069
 5289SOL    HW127329   2.573   0.934   1.199  0.7479 -0.9185  0.9104
 5289SOL    HW227330   2.584   1.068   1.152 -0.7290 -0.3937  0.7918
 5290SOL     OW27331   1.101   1.252   3.329 -0.0433 -0.0577  0.4599
 5290SOL    HW127332   1.063   1.201   3.401 -0.1389 -0.8717 -0.1706
 5290SOL    HW227333   1.119   1.321   3.393 -1.6185  1.0278 -0.2367
 5291SOL     OW27334   3.072   4.176   7.429 -0.1509 -0.0876  0.0259
 5291SOL    HW127335   3.155   4.134   7.411  1.2536  2.6870  0.0564
 5291SOL    HW227336   3.022   4.103   7.465 -0.3175  0.2859  0.5651
 5292SOL     OW27337   0.021   0.967   0.403 -0.1294 -1.0016  0.3555
 5292SOL    HW127338   0.055   1.034   0.462 -0.7408 -1.4910  1.2741
 5292SOL    HW227339   0.101   0.915   0.395 -0.0588 -0.3452 -3.1426
 5293SOL     OW27340   4.308   3.262   0.167 -0.0255  0.5205 -0.1564
 5293SOL    HW127341   4.397   3.226   0.167  0.2613  1.2452  1.6060
 5293SOL    HW227342   4.315   3.353   0.196 -0.5556  0.9177 -1.2710
 5294SOL     OW27343   4.348   3.661  11.328  0.3068  0.1411 -0.1208
 5294SOL    HW127344   4.298   3.736  11.296 -0.2249  0.3348  1.1622
 5294SOL    HW227345   4.302   3.587  11.289  2.2428 -0.6253 -0.9350
 5295SOL     OW27346   0.053   4.156   4.413 -0.3131  0.2264 -0.0488
 5295SOL    HW127347   4.692   4.204   4.427 -1.1073 -0.7878 -1.2538
 5295SOL    HW227348   0.100   4.202   4.344 -0.4213  1.6431  0.8157
 5296SOL     OW27349   1.163   3.077   1.631 -0.0850 -0.0282  0.1045
 5296SOL    HW127350   1.114   3.021   1.571  2.6937 -1.4391 -0.8437
 5296SOL    HW227351   1.155   3.035   1.716  0.0397  0.8055  0.5268
 5297SOL     OW27352   3.307   3.128   4.017 -0.1251  0.0363 -0.3446
 5297SOL    HW127353   3.380   3.188   4.032  0.6272 -0.1616 -3.2603
 5297SOL    HW227354   3.314   3.097   3.927  0.0714  0.9124 -0.6270
 5298SOL     OW27355   0.852   2.108   8.448 -0.5476  0.0962 -0.0946
 5298SOL    HW127356   0.834   2.088   8.539  1.0121 -0.7677  0.0161
 5298SOL    HW227357   0.764   2.131   8.418 -0.7173 -2.1984 -1.3871
 5299SOL     OW27358   4.410   3.516   6.111 -0.6267  0.9699  0.2024
 5299SOL    HW127359   4.343   3.584   6.110 -1.5279  0.0686  0.2411
 5299SOL    HW227360   4.494   3.561   6.099  0.0061  0.0889  1.3439
 5300SOL     OW27361   3.728   0.248   2.665  0.3005 -0.0843 -0.1580
 5300SOL    HW127362   3.676   0.236   2.744  1.1698  4.0122  1.0625
 5300SOL    HW227363   3.689   0.319   2.614 -1.4887 -0.9216  0.0413
 5301SOL     OW27364   2.804   0.156   4.085  0.1756 -0.9558 -0.3623
 5301SOL    HW127365   2.758   0.147   4.168  2.5831  0.1699  1.1089
 5301SOL    HW227366   2.781   0.244   4.055 -1.3837 -0.8235  1.2068
 5302SOL     OW27367   1.436   1.316   3.246 -0.2186 -0.2888 -0.3224
 5302SOL    HW127368   1.509   1.264   3.279  0.1804 -0.0991 -0.9216
 5302SOL    HW227369   1.354   1.274   3.274  0.0251 -1.0127 -0.6931
 5303SOL     OW27370   3.063   2.834  10.095  0.3175 -0.6626 -0.3869
 5303SOL    HW127371   2.971   2.848  10.071  1.0238  2.8502 -1.0390
 5303SOL    HW227372   3.096   2.922  10.112  1.0969 -1.1158  0.4784
 5304SOL     OW27373   3.486   3.318  12.910  0.1112 -0.0368 -0.4140
 5304SOL    HW127374   3.408   3.342  12.861  0.4434 -0.3635 -1.1079
 5304SOL    HW227375   3.454   3.249  12.969  0.6606 -1.7187 -2.0748
 5305SOL     OW27376   0.114   1.226   9.661 -0.3819  0.0204 -0.3768
 5305SOL    HW127377   0.083   1.313   9.634  1.3797  0.1808 -1.9083
 5305SOL    HW227378   0.195   1.229   9.610  0.1146  1.6348  0.5103
 5306SOL     OW27379   3.189   1.899   3.395  0.1678  0.0373 -0.0068
 5306SOL    HW127380   3.127   1.878   3.464 -1.0910  1.9320 -0.5708
 5306SOL    HW227381   3.251   1.829   3.415  1.0078  0.8641  0.2921
 5307SOL     OW27382   4.010   4.444   9.155  0.1776  0.0942 -0.2081
 5307SOL    HW127383   4.053   4.381   9.213  0.7550  0.4734 -0.2199
 5307SOL    HW227384   4.046   4.529   9.180 -0.7854  0.5681 -0.4295
 5308SOL     OW27385   2.100   1.864   6.027 -0.1448  0.4585  0.2163
 5308SOL    HW127386   2.171   1.813   6.067 -1.3948  0.0561  1.9510
 5308SOL    HW227387   2.141   1.885   5.944 -2.7706 -1.5758 -1.5772
 5309SOL     OW27388   4.213   3.987   9.076 -0.1442  0.1972  0.0193
 5309SOL    HW127389   4.278   4.042   9.033 -1.4714  1.3450 -0.4951
 5309SOL    HW227390   4.155   3.970   9.001 -1.4040 -0.1122  1.0656
 5310SOL     OW27391   4.228   2.364   1.579 -0.2538 -0.0266  0.1977
 5310SOL    HW127392   4.266   2.337   1.662 -1.1477 -1.0519  0.2713
 5310SOL    HW227393   4.233   2.277   1.539 -1.4357  0.0753 -0.1672
 5311SOL     OW27394   3.404   2.963   5.123 -0.3230 -0.8999 -0.5957
 5311SOL    HW127395   3.361   2.881   5.149 -0.5945 -0.3816  0.5835
 5311SOL    HW227396   3.498   2.949   5.135  0.0410  1.3020 -0.9850
 5312SOL     OW27397   1.739   2.311  15.352 -0.0933  0.6013  0.3278
 5312SOL    HW127398   1.783   2.232  15.382 -0.1555  0.7464  0.8045
 5312SOL    HW227399   1.669   2.274  15.299  0.1036  0.9867 -0.1981
 5313SOL     OW27400   3.050   0.651  12.950 -0.6964 -0.1661  0.0201
 5313SOL    HW127401   3.016   0.674  13.037  2.0945  0.9395  0.8280
 5313SOL    HW227402   3.143   0.629  12.962 -0.6987 -0.1979 -0.0202
 5314SOL     OW27403   1.817   2.979   9.478 -0.4396  0.2414  0.2068
 5314SOL    HW127404   1.821   2.887   9.454 -3.5144  0.6969 -1.9905
 5314SOL    HW227405   1.870   3.009   9.404  0.5487 -0.4265  0.6449
 5315SOL     OW27406   1.806   4.613   4.250 -0.0069 -0.1588  0.0937
 5315SOL    HW127407   1.780   4.654   4.332 -0.8100  0.0299 -0.2569
 5315SOL    HW227408   1.898   4.604   4.277 -0.0102 -0.1185  0.1186
 5316SOL     OW27409   3.762   0.842   8.476  0.3357  0.4463 -0.6479
 5316SOL    HW127410   3.742   0.881   8.391  1.5173 -2.3819 -2.1952
 5316SOL    HW227411   3.857   0.836   8.475  0.1964 -2.1143  1.6943
 5317SOL     OW27412   4.138   0.770   8.739 -0.1987  0.1547  0.1836
 5317SOL    HW127413   4.167   0.852   8.701  3.3431 -1.3445 -0.3247
 5317SOL    HW227414   4.071   0.805   8.797 -0.3122  1.3383 -0.6709
 5318SOL     OW27415   3.263   4.514   6.856 -0.1282  0.0779 -0.2162
 5318SOL    HW127416   3.215   4.520   6.939 -1.5293 -1.2774 -0.9481
 5318SOL    HW227417   3.272   4.418   6.854  0.0267  0.0632  1.1236
 5319SOL     OW27418   3.421   3.547   3.713 -0.0544 -0.4347  0.4311
 5319SOL    HW127419   3.351   3.497   3.669 -0.6814 -0.3121  1.2922
 5319SOL    HW227420   3.400   3.518   3.802  0.5888 -0.2456  0.6463
 5320SOL     OW27421   2.255   4.715  13.336  0.1520  0.7635  0.1602
 5320SOL    HW127422   2.297   0.071  13.299  0.4086  0.0225 -1.0915
 5320SOL    HW227423   2.242   0.023  13.426  1.8001  1.7126  0.0911
 5321SOL     OW27424   2.937   2.747   8.610 -0.0299  0.2797 -0.3070
 5321SOL    HW127425   2.861   2.695   8.635  1.8546 -2.4247 -0.1558
 5321SOL    HW227426   2.937   2.808   8.685  0.5225  0.4361 -0.4364
 5322SOL     OW27427   3.896   3.280   4.977 -0.2677  0.1865 -0.1022
 5322SOL    HW127428   3.943   3.359   5.002 -1.2185  0.0440  2.1168
 5322SOL    HW227429   3.964   3.213   4.972  0.2638  0.5633  2.1669
 5323SOL     OW27430   2.267   2.876   9.155  0.1159 -0.1844 -0.1472
 5323SOL    HW127431   2.286   2.806   9.093  0.8818  1.3421 -1.6521
 5323SOL    HW227432   2.280   2.828   9.236 -2.3229 -0.5905  0.0026
 5324SOL     OW27433   3.042   0.564   4.164  0.2056  0.1376 -0.2675
 5324SOL    HW127434   3.065   0.478   4.129 -2.5431 -0.6567 -0.1494
 5324SOL    HW227435   3.095   0.614   4.103  1.0173 -1.7092 -1.0683
 5325SOL     OW27436   2.520   1.018   5.783  0.1904  0.1848 -0.6867
 5325SOL    HW127437   2.520   0.941   5.726  0.8777  0.0082 -0.4452
 5325SOL    HW227438   2.614   1.025   5.802  0.0905  2.1901 -0.9123
 5326SOL     OW27439   0.006   1.118   5.630  0.1134 -0.1446 -0.4632
 5326SOL    HW127440   0.043   1.092   5.546  1.0306 -0.2680 -0.0254
 5326SOL    HW227441   4.662   1.050   5.644 -1.1030  1.5892  2.1909
 5327SOL     OW27442   2.883   2.406  12.288 -0.0052 -0.2210 -0.0408
 5327SOL    HW127443   2.826   2.360  12.349  1.4257  1.6510  2.6845
 5327SOL    HW227444   2.966   2.372  12.322 -0.7824 -1.3401  0.7230
 5328SOL     OW27445   2.360   3.394  11.644  0.3701 -0.1279 -0.1311
 5328SOL    HW127446   2.412   3.473  11.661 -1.3986  0.5832  2.0269
 5328SOL    HW227447   2.281   3.432  11.605 -0.0370 -1.2203 -0.3661
 5329SOL     OW27448   3.109   2.475  12.722  0.1556 -0.5849 -0.6033
 5329SOL    HW127449   3.191   2.514  12.751  0.4216 -1.4904 -0.1345
 5329SOL    HW227450   3.083   2.542  12.659  2.3044  2.4333  1.7824
 5330SOL     OW27451   0.043   3.702  12.055  0.2170 -0.2741 -0.8051
 5330SOL    HW127452   4.678   3.743  12.058  0.2818  0.0582 -3.5516
 5330SOL    HW227453   0.020   3.636  11.990  0.3447 -1.2265  0.1083
 5331SOL     OW27454   0.964   1.467  10.325 -0.1647 -0.3695  0.5262
 5331SOL    HW127455   0.963   1.483  10.420  1.6698  0.1249  0.4508
 5331SOL    HW227456   0.932   1.554  10.302  1.8768  0.6544  1.6180
 5332SOL     OW27457   4.108   4.324  14.876  0.0611  0.0961  0.1067
 5332SOL    HW127458   4.090   4.395  14.814 -1.1217 -1.5842 -1.4568
 5332SOL    HW227459   4.020   4.300  14.904 -1.1713  0.7212 -3.2977
 5333SOL     OW27460   2.518   3.422   0.779 -0.4134  0.1017 -0.1458
 5333SOL    HW127461   2.429   3.444   0.805  0.0831  2.4683 -0.3808
 5333SOL    HW227462   2.554   3.394   0.864 -2.8464  0.3742  0.9777
 5334SOL     OW27463   4.358   0.254  17.386 -0.5897 -0.4241 -0.1998
 5334SOL    HW127464   4.421   0.184  17.370 -1.3022 -1.6374  2.2743
 5334SOL    HW227465   4.403   0.325  17.341  0.2670  0.6174  2.3025
 5335SOL     OW27466   2.892   0.605   4.996  0.1171  0.4210 -0.0717
 5335SOL    HW127467   2.894   0.700   5.006 -3.2166  0.2998  1.6296
 5335SOL    HW227468   2.927   0.594   4.908  4.2239  1.1201  1.4446
 5336SOL     OW27469   0.615   2.134  12.536 -0.0483  0.3066  0.0680
 5336SOL    HW127470   0.665   2.212  12.562 -0.4649  0.0722  1.5515
 5336SOL    HW227471   0.576   2.102  12.617 -0.4397 -0.3870 -0.3972
 5337SOL     OW27472   3.751   0.032  13.293  0.0298  0.0794  0.3145
 5337SOL    HW127473   3.726   0.094  13.224 -0.5649  0.3419  0.7689
 5337SOL    HW227474   3.669   4.705  13.285  0.2678 -0.4417  1.0738
 5338SOL     OW27475   0.428   4.370  17.306  0.2127  0.2824  0.0258
 5338SOL    HW127476   0.481   4.320  17.243 -0.2016  1.2576 -1.0898
 5338SOL    HW227477   0.474   4.346  17.386 -0.6247 -1.3906  0.0103
 5339SOL     OW27478   3.633   0.082   5.899  0.1913  0.5298 -0.1763
 5339SOL    HW127479   3.684   0.029   5.838 -2.3586 -2.2287  0.1047
 5339SOL    HW227480   3.579   0.143   5.848  1.6502  1.8809 -0.1107
 5340SOL     OW27481   1.145   3.767  11.314 -0.0111 -0.0088  0.2700
 5340SOL    HW127482   1.193   3.774  11.396 -0.2709  1.8195  0.2574
 5340SOL    HW227483   1.140   3.671  11.312  1.6757 -0.0834 -0.5382
 5341SOL     OW27484   3.051   3.203   0.670 -0.3501 -0.2753  0.0275
 5341SOL    HW127485   3.032   3.118   0.630  2.0071 -0.7941  0.0363
 5341SOL    HW227486   3.123   3.229   0.613 -1.5662 -2.8931 -2.6998
 5342SOL     OW27487   2.349   3.359   9.180 -0.0497 -0.4622  0.0964
 5342SOL    HW127488   2.287   3.424   9.215  0.1499 -0.0112 -0.3797
 5342SOL    HW227489   2.354   3.307   9.260  4.6104  0.5582  0.4814
 5343SOL     OW27490   2.175   2.900   2.352  0.1193  0.4406 -0.7391
 5343SOL    HW127491   2.227   2.865   2.425 -0.1583  1.5758  0.0009
 5343SOL    HW227492   2.123   2.823   2.326  2.4764 -1.3950  0.0360
 5344SOL     OW27493   0.831   3.884   6.615  0.1583 -0.9104 -0.1048
 5344SOL    HW127494   0.866   3.885   6.526  2.8135 -0.6593  0.9262
 5344SOL    HW227495   0.743   3.918   6.599  1.5394  1.0368 -3.4682
 5345SOL     OW27496   4.674   4.159   6.741 -0.0135 -0.1840  0.0826
 5345SOL    HW127497   0.012   4.114   6.800 -0.2571 -0.3280  0.2215
 5345SOL    HW227498   4.631   4.081   6.705  0.3307 -0.6654  0.7089
 5346SOL     OW27499   3.918   3.445  15.080 -0.2462 -0.0847 -0.0270
 5346SOL    HW127500   3.879   3.453  15.167  0.9051  0.9542  0.3933
 5346SOL    HW227501   3.885   3.367  15.036  1.2423  0.6309 -2.4193
 5347SOL     OW27502   0.906   2.992   4.004 -0.0447 -0.0724  0.6750
 5347SOL    HW127503   0.897   3.083   4.032  0.0432  0.3869 -0.8129
 5347SOL    HW227504   0.861   2.994   3.919  0.2645  2.6070  0.5826
 5348SOL     OW27505   2.682   3.020   4.950  0.0765  0.5017  0.2365
 5348SOL    HW127506   2.742   3.053   5.017 -1.8493 -0.4881  2.4398
 5348SOL    HW227507   2.600   3.064   4.973 -0.0403  0.2133  0.3653
 5349SOL     OW27508   3.443   1.393   4.707  0.5666 -0.2095  0.0748
 5349SOL    HW127509   3.406   1.412   4.794 -0.6948  1.2403 -0.7741
 5349SOL    HW227510   3.419   1.300   4.711  2.5144 -0.6524  1.4506
 5350SOL     OW27511   1.504   3.251  12.633  0.0306 -0.1190 -0.4089
 5350SOL    HW127512   1.414   3.280  12.649  0.5280  0.8297  0.7124
 5350SOL    HW227513   1.548   3.335  12.646  0.3017 -0.6008  1.8144
 5351SOL     OW27514   1.219   4.411   4.280 -0.3528  0.5029  0.2012
 5351SOL    HW127515   1.147   4.357   4.311  0.3306 -0.8988 -0.6214
 5351SOL    HW227516   1.202   4.414   4.186 -4.5747 -0.6457  0.9332
 5352SOL     OW27517   3.005   3.544   0.280 -0.4472 -0.6353 -0.3607
 5352SOL    HW127518   2.995   3.502   0.194 -1.6114 -0.6098 -0.2371
 5352SOL    HW227519   2.964   3.630   0.279  0.8561 -0.0279 -1.2156
 5353SOL     OW27520   3.610   1.204   7.521 -0.0126 -0.2110  0.3387
 5353SOL    HW127521   3.566   1.285   7.495  0.0671 -0.4398 -0.5300
 5353SOL    HW227522   3.695   1.201   7.477 -1.7723  0.1021 -3.1426
 5354SOL     OW27523   4.649   4.226   8.332 -0.3231 -0.1902  0.1736
 5354SOL    HW127524   4.600   4.266   8.403 -0.0963 -4.1680  2.5391
 5354SOL    HW227525   4.611   4.138   8.341 -1.3707  0.4039  1.5045
 5355SOL     OW27526   4.693   2.392   4.377  0.4580  0.2548  0.2989
 5355SOL    HW127527   0.063   2.367   4.390  0.6118  0.5510 -0.2008
 5355SOL    HW227528   4.698   2.487   4.380  1.7468  0.2400 -1.5016
 5356SOL     OW27529   1.474   1.563   4.824  0.1762 -0.2042 -0.3873
 5356SOL    HW127530   1.407   1.498   4.845 -0.9227  0.7681 -0.8001
 5356SOL    HW227531   1.472   1.558   4.728  1.0668 -0.5462 -0.3801
 5357SOL     OW27532   0.554   2.283   5.097 -0.4349  0.5929  0.7848
 5357SOL    HW127533   0.492   2.259   5.165  0.2665  1.9641  1.9272
 5357SOL    HW227534   0.539   2.377   5.110  0.8853  1.2291 -2.1563
 5358SOL     OW27535   0.200   2.192  12.128 -0.3159 -0.0162 -0.3067
 5358SOL    HW127536   0.208   2.285  12.108 -2.0473  0.4104  1.0132
 5358SOL    HW227537   0.289   2.159  12.145 -0.5684 -0.3392  0.3714
 5359SOL     OW27538   0.669   3.003  17.345  0.7681  0.2909 -0.0398
 5359SOL    HW127539   0.707   3.064  17.283 -0.0421  1.2371  0.3926
 5359SOL    HW227540   0.583   3.045  17.355  0.2018 -0.7186 -0.7134
 5360SOL     OW27541   0.775   3.613   3.525 -0.2132  0.4702 -0.1350
 5360SOL    HW127542   0.778   3.546   3.457 -0.8295 -3.2008  3.4165
 5360SOL    HW227543   0.861   3.654   3.524  0.7547 -1.5333  1.6223
 5361SOL     OW27544   3.428   3.203  11.058  0.2773  0.5081  0.4907
 5361SOL    HW127545   3.366   3.131  11.046 -1.1012  2.0411 -1.4311
 5361SOL    HW227546   3.509   3.166  11.022 -0.0700 -0.1581  0.3825
 5362SOL     OW27547   3.532   2.828   8.819 -0.0434  0.3318 -0.0871
 5362SOL    HW127548   3.442   2.834   8.851 -0.4888 -0.8190 -1.1261
 5362SOL    HW227549   3.576   2.891   8.876 -2.3449  0.3225  1.6758
 5363SOL     OW27550   2.025   3.414   7.169  0.0828  0.6592  0.0981
 5363SOL    HW127551   2.112   3.418   7.129 -1.3781 -2.1882 -3.3661
 5363SOL    HW227552   2.025   3.319   7.178  1.0685  0.5751 -0.7377
 5364SOL     OW27553   2.542   2.830  10.253 -0.0063 -0.2326  0.0900
 5364SOL    HW127554   2.635   2.812  10.239 -0.0537 -1.3022  1.1627
 5364SOL    HW227555   2.534   2.793  10.341 -1.3799  0.8616  0.4342
 5365SOL     OW27556   0.617   0.315  13.331 -0.1225  0.5495  0.2673
 5365SOL    HW127557   0.546   0.345  13.275 -0.4095 -0.0069  0.3294
 5365SOL    HW227558   0.595   0.223  13.348  1.2437  0.3822  1.2095
 5366SOL     OW27559   3.016   4.569   3.187 -0.7417  0.0586 -0.1451
 5366SOL    HW127560   3.072   4.551   3.262 -2.0347  0.0732  0.8295
 5366SOL    HW227561   3.073   4.630   3.140  0.5279 -1.9382 -1.2031
 5367SOL     OW27562   1.567   3.706   8.055  0.2238  0.5509  0.2608
 5367SOL    HW127563   1.507   3.762   8.104 -1.6773 -1.4351  0.2097
 5367SOL    HW227564   1.541   3.618   8.081  0.2323 -0.0179 -1.6491
 5368SOL     OW27565   3.977   3.411   6.780 -1.1951 -0.6419 -0.0869
 5368SOL    HW127566   3.902   3.442   6.831 -0.8325  1.1452 -0.6308
 5368SOL    HW227567   3.971   3.470   6.705 -1.2731  1.6490  1.6988
 5369SOL     OW27568   2.937   0.768  16.189  0.0526 -0.5332 -0.3618
 5369SOL    HW127569   2.945   0.838  16.124  0.1979  0.3642  0.6234
 5369SOL    HW227570   2.981   0.808  16.264 -0.8238  0.1358 -0.2071
 5370SOL     OW27571   1.513   1.714  15.216  0.4208 -0.3271  0.9514
 5370SOL    HW127572   1.548   1.649  15.154 -0.6145 -1.7280  1.8521
 5370SOL    HW227573   1.429   1.671  15.229 -0.1935 -0.1559 -2.5019
 5371SOL     OW27574   0.190   2.501   6.708  0.0310  0.4656 -0.0706
 5371SOL    HW127575   0.198   2.464   6.796 -2.2845  0.9123  0.3426
 5371SOL    HW227576   0.105   2.543   6.695 -1.1043 -0.9565  2.8062
 5372SOL     OW27577   2.230   2.880   7.997 -0.1620 -0.3265  0.0394
 5372SOL    HW127578   2.296   2.938   7.957 -1.8085  0.6305 -1.2853
 5372SOL    HW227579   2.149   2.924   7.972 -1.0316 -2.8335 -1.6224
 5373SOL     OW27580   3.512   0.133   0.493  0.0004  0.2342 -0.4272
 5373SOL    HW127581   3.452   0.198   0.458  0.8923  0.8913 -0.7356
 5373SOL    HW227582   3.594   0.181   0.499 -0.9113  1.7933 -0.6378
 5374SOL     OW27583   2.010   2.677   4.168 -0.1397 -0.6899  0.1410
 5374SOL    HW127584   2.011   2.765   4.130  0.7259  0.0172  1.8165
 5374SOL    HW227585   1.919   2.674   4.199  0.3105 -0.4375  1.4929
 5375SOL     OW27586   1.114   1.924  11.568  0.0722 -0.8130  0.1703
 5375SOL    HW127587   1.098   1.830  11.557  1.9557 -1.0305 -0.6968
 5375SOL    HW227588   1.064   1.932  11.649 -1.5046 -1.4728 -0.7403
 5376SOL     OW27589   1.418   2.101  12.604 -0.0931  0.6446 -0.1043
 5376SOL    HW127590   1.508   2.130  12.619  0.2121 -0.2380 -0.1948
 5376SOL    HW227591   1.409   2.136  12.515  0.3865  1.0227 -0.0030
 5377SOL     OW27592   4.033   1.872   8.226 -0.2047  0.6108  0.0921
 5377SOL    HW127593   4.054   1.963   8.245  2.7734 -0.6741  2.8170
 5377SOL    HW227594   4.087   1.860   8.148  3.6519  4.6292  2.1594
 5378SOL     OW27595   3.250   0.927   3.635  0.2607  0.0175 -0.4557
 5378SOL    HW127596   3.268   0.979   3.557 -1.9109  1.7887  0.2287
 5378SOL    HW227597   3.262   0.847   3.584 -0.1550 -0.6100  0.4246
 5379SOL     OW27598   2.375   1.022   6.590 -0.6980  0.5718  0.3995
 5379SOL    HW127599   2.392   0.959   6.520  0.9820  2.7172 -1.1446
 5379SOL    HW227600   2.313   1.078   6.542 -0.4338 -0.0561 -0.6734
 5380SOL     OW27601   2.064   2.103   4.365 -0.6286 -0.5655 -0.6249
 5380SOL    HW127602   1.973   2.098   4.397 -0.3303 -0.6450  0.2229
 5380SOL    HW227603   2.097   2.013   4.363  0.2131 -0.3082  2.0809
 5381SOL     OW27604   4.474   0.186   6.168  0.2878  0.0084  0.1231
 5381SOL    HW127605   4.410   0.162   6.101  0.6197  0.8390 -0.4932
 5381SOL    HW227606   4.420   0.170   6.245  0.5984 -2.9818 -0.2986
 5382SOL     OW27607   4.633   3.592   7.008 -0.1356  0.0205  0.8403
 5382SOL    HW127608   4.571   3.521   6.991  0.6356 -0.7715  1.3453
 5382SOL    HW227609   4.658   3.573   7.098 -0.1992 -0.9391  0.6561
 5383SOL     OW27610   1.968   1.607  15.030  0.2245  0.5473  0.1536
 5383SOL    HW127611   2.046   1.658  15.054  2.2099 -1.7112 -1.5918
 5383SOL    HW227612   1.923   1.581  15.110  0.3559  1.1440  0.4258
 5384SOL     OW27613   2.230   4.007  12.226 -0.7457 -0.4360  0.2025
 5384SOL    HW127614   2.194   4.023  12.314 -1.6213  1.0411 -0.4185
 5384SOL    HW227615   2.253   3.914  12.231  3.2805  0.6432  1.8045
 5385SOL     OW27616   3.099   2.667  10.311  0.0724  0.0010  0.1832
 5385SOL    HW127617   3.084   2.721  10.234  0.6992  0.0429  0.0888
 5385SOL    HW227618   3.186   2.702  10.331 -0.0979  0.5113  0.0288
 5386SOL     OW27619   4.148   3.007   7.675  0.0027  0.3349 -0.0284
 5386SOL    HW127620   4.168   3.094   7.711 -0.0658  0.2839  0.1351
 5386SOL    HW227621   4.067   3.025   7.628 -0.4207 -0.9478  0.2057
 5387SOL     OW27622   1.350   2.600   6.391 -0.2841  0.2037 -0.0569
 5387SOL    HW127623   1.292   2.664   6.432  0.4947  0.8132  0.0992
 5387SOL    HW227624   1.296   2.559   6.324 -1.8407  0.4910  1.0176
 5388SOL     OW27625   0.499   2.280  12.292  0.5874 -0.2574 -0.0022
 5388SOL    HW127626   0.410   2.315  12.296 -0.4598 -2.9718  0.7301
 5388SOL    HW227627   0.542   2.323  12.366  0.1805 -0.3982  0.3247
 5389SOL     OW27628   0.989   2.635   4.235  0.4562  0.2877 -0.1021
 5389SOL    HW127629   1.022   2.665   4.151  0.5882 -1.6769 -0.7518
 5389SOL    HW227630   1.041   2.694   4.290  0.4685  0.7878 -0.6567
 5390SOL     OW27631   2.411   2.693   3.336 -0.0557  0.1814 -0.1500
 5390SOL    HW127632   2.343   2.734   3.282  0.9936 -0.0970 -1.6814
 5390SOL    HW227633   2.379   2.702   3.425 -3.3484  0.8984 -1.3985
 5391SOL     OW27634   0.019   0.869   3.932  0.0433 -0.4438  0.0447
 5391SOL    HW127635   4.717   0.961   3.940 -0.4611 -0.5688 -0.0245
 5391SOL    HW227636   0.073   0.861   4.011  0.0654  0.1337  0.0896
 5392SOL     OW27637   0.062   3.443   7.605  0.4281 -1.1286 -0.4769
 5392SOL    HW127638   0.105   3.523   7.636 -0.3967 -1.1336  0.6942
 5392SOL    HW227639   0.129   3.379   7.581  0.8295 -1.0179  0.3317
 5393SOL     OW27640   4.306   0.169   1.029  0.4189 -0.3578  0.3223
 5393SOL    HW127641   4.291   0.229   1.101  0.5802 -0.1677  0.1959
 5393SOL    HW227642   4.222   0.174   0.983  1.1046 -1.6155 -1.0957
 5394SOL     OW27643   2.681   3.769   7.972  0.0647 -0.6503  0.4009
 5394SOL    HW127644   2.678   3.673   7.974  1.5034 -0.6869  1.1159
 5394SOL    HW227645   2.597   3.797   8.006 -1.6453 -3.7240 -1.3147
 5395SOL     OW27646   2.436   3.477  16.408  0.4878  0.1176  0.0032
 5395SOL    HW127647   2.503   3.462  16.341  0.4922  1.0703 -0.2094
 5395SOL    HW227648   2.442   3.397  16.460  1.2602  0.2510  0.1186
 5396SOL     OW27649   0.570   2.546  10.093  0.1337  0.0371 -0.4276
 5396SOL    HW127650   0.500   2.607  10.119  0.5873  1.7561 -3.3072
 5396SOL    HW227651   0.520   2.480  10.046  1.0530  0.4918 -2.0456
 5397SOL     OW27652   4.670   1.829   0.229  0.0954 -0.2847 -0.1604
 5397SOL    HW127653   0.027   1.821   0.177 -0.5736  2.2504 -1.5750
 5397SOL    HW227654   4.639   1.738   0.224  0.9409 -0.7064  2.2149
 5398SOL     OW27655   0.384   1.717   5.367 -0.0047 -0.2500 -0.1944
 5398SOL    HW127656   0.420   1.805   5.353  0.3652 -0.0168  2.2166
 5398SOL    HW227657   0.450   1.682   5.426  0.1739  1.0086  0.3746
 5399SOL     OW27658   4.628   3.774   7.817  0.5941  0.3211  0.9511
 5399SOL    HW127659   4.579   3.855   7.805  0.4140 -0.1097 -1.2799
 5399SOL    HW227660   4.554   3.715   7.808  2.2453 -1.6459  0.2635
 5400SOL     OW27661   4.304   1.901   5.199  0.2065  0.2395  0.0738
 5400SOL    HW127662   4.260   1.828   5.242  0.7913 -1.2234 -1.8066
 5400SOL    HW227663   4.243   1.973   5.217 -1.0569 -1.0560  0.9814
 5401SOL     OW27664   3.846   4.618   3.574 -0.5513  0.7475  0.1567
 5401SOL    HW127665   3.753   4.623   3.595 -0.5025 -1.5779  0.9034
 5401SOL    HW227666   3.887   4.629   3.660  2.1004 -0.0705 -1.0097
 5402SOL     OW27667   0.741   3.664   7.184 -0.0082 -0.0266  0.0706
 5402SOL    HW127668   0.656   3.620   7.180  0.6789 -1.3674  0.2721
 5402SOL    HW227669   0.779   3.657   7.096  1.7000 -1.8828  0.9621
 5403SOL     OW27670   2.195   0.147   5.353  0.0965 -0.0824  0.5658
 5403SOL    HW127671   2.204   0.165   5.447  0.4117  0.8543  0.3599
 5403SOL    HW227672   2.231   0.228   5.317 -1.0837  0.8432  1.4800
 5404SOL     OW27673   0.635   2.728  16.118  0.0655 -0.0730  0.1221
 5404SOL    HW127674   0.702   2.727  16.049  0.5575 -0.5734  0.6069
 5404SOL    HW227675   0.602   2.639  16.107 -2.0333  0.6524  0.6963
 5405SOL     OW27676   3.902   2.019   9.107 -0.3620 -0.1885 -0.6342
 5405SOL    HW127677   3.947   1.951   9.157 -1.2933 -0.2301  0.1690
 5405SOL    HW227678   3.884   1.966   9.029  1.9044 -4.1365  1.5151
 5406SOL     OW27679   2.044   1.643   3.417 -0.1205  0.2206 -0.0498
 5406SOL    HW127680   2.113   1.580   3.396  0.5584  1.1480 -0.5508
 5406SOL    HW227681   2.009   1.672   3.333 -4.0567  1.3946  1.9785
 5407SOL     OW27682   1.443   3.319   6.077  0.1055  0.0775 -0.4928
 5407SOL    HW127683   1.531   3.296   6.049 -0.3192 -0.0936 -1.6910
 5407SOL    HW227684   1.390   3.256   6.028  0.4745 -1.4567  1.1021
 5408SOL     OW27685   4.599   3.743   3.195  0.6664  0.2178 -0.0989
 5408SOL    HW127686   4.647   3.817   3.157  0.3720  0.4861  0.0601
 5408SOL    HW227687   4.669   3.701   3.244 -0.0210 -3.3894 -2.1795
 5409SOL     OW27688   4.261   4.001  11.131 -0.2121 -0.3400 -0.2820
 5409SOL    HW127689   4.229   3.915  11.106 -0.6794  0.2176 -1.5815
 5409SOL    HW227690   4.219   4.050  11.060 -0.8752  1.7052  1.4904
 5410SOL     OW27691   3.482   3.899  13.557  0.2678  0.4258  0.4625
 5410SOL    HW127692   3.390   3.911  13.582 -0.5261  0.3116 -2.4382
 5410SOL    HW227693   3.531   3.952  13.621  0.4000 -3.2793  3.4278
 5411SOL     OW27694   2.001   2.980   3.753 -0.2318 -0.0410 -0.0655
 5411SOL    HW127695   1.948   2.908   3.720  1.6145 -0.5927 -1.7956
 5411SOL    HW227696   1.941   3.049   3.724  1.0455  1.4814  0.8678
 5412SOL     OW27697   4.719   1.151  12.669 -0.1357  0.2843  0.0171
 5412SOL    HW127698   4.701   1.062  12.700  1.2216  0.9310  2.6504
 5412SOL    HW227699   4.647   1.201  12.707  1.8071  1.1763  2.5988
 5413SOL     OW27700   2.381   1.982   8.789 -0.7261 -0.4236 -0.4241
 5413SOL    HW127701   2.471   1.969   8.758 -0.0286  2.1914  0.5511
 5413SOL    HW227702   2.403   2.051   8.851  1.4670 -1.7478  0.3095
 5414SOL     OW27703   0.162   3.131  12.736  0.5813 -1.1220  0.8471
 5414SOL    HW127704   0.214   3.117  12.815  3.2386 -1.5297 -0.9817
 5414SOL    HW227705   0.225   3.148  12.666 -1.7035  0.7111 -0.7803
 5415SOL     OW27706   0.979   0.978   2.801 -0.1941 -0.2821  0.8822
 5415SOL    HW127707   0.886   0.979   2.823  0.0240  0.4170  1.8109
 5415SOL    HW227708   1.009   0.912   2.864  1.4731  0.1834  0.5942
 5416SOL     OW27709   3.601   4.459   9.127  0.1515 -0.0604 -0.4783
 5416SOL    HW127710   3.523   4.432   9.174 -0.0081  0.1317 -0.6344
 5416SOL    HW227711   3.572   4.501   9.046  0.9748  0.4169 -0.5270
 5417SOL     OW27712   1.843   3.431   2.441  0.3270  0.3665 -0.2720
 5417SOL    HW127713   1.926   3.386   2.430  0.4389  0.8169 -1.2685
 5417SOL    HW227714   1.845   3.453   2.535 -1.8783  0.7795 -0.3094
 5418SOL     OW27715   0.669   4.167   8.250 -0.2724 -0.3713  0.1424
 5418SOL    HW127716   0.596   4.209   8.205 -1.5995 -0.0244  2.5882
 5418SOL    HW227717   0.735   4.199   8.189  0.4867 -2.7623 -0.2986
 5419SOL     OW27718   3.722   3.708   9.005 -0.4685 -0.5093  0.3308
 5419SOL    HW127719   3.790   3.700   8.937  0.8675  2.9922  1.2400
 5419SOL    HW227720   3.664   3.775   8.968  0.1079 -0.4984 -0.5823
 5420SOL     OW27721   2.783   0.091   8.828 -0.6577 -1.0244  0.5772
 5420SOL    HW127722   2.723   0.055   8.893  1.0555 -1.9648  1.6589
 5420SOL    HW227723   2.759   0.044   8.748  0.3924 -1.4503  0.5054
 5421SOL     OW27724   3.525   4.692   3.021  0.1692 -0.6795  0.0621
 5421SOL    HW127725   3.430   4.682   3.014  0.0913  1.1595 -1.5424
 5421SOL    HW227726   3.536   4.634   3.096 -1.4874 -1.3414 -0.1897
 5422SOL     OW27727   0.171   4.348   3.963 -0.3753  0.4145  0.0745
 5422SOL    HW127728   0.240   4.411   3.981  0.5749 -0.1348 -1.7079
 5422SOL    HW227729   0.098   4.406   3.944 -0.6770 -0.1625 -0.5419
 5423SOL     OW27730   1.528   0.684   2.705 -0.1122  0.7087 -0.8231
 5423SOL    HW127731   1.510   0.708   2.615 -2.0263  1.9626 -0.0927
 5423SOL    HW227732   1.439   0.674   2.740 -0.1169  0.6808 -0.8429
 5424SOL     OW27733   2.376   0.681   4.949  0.3074  0.2846  0.7633
 5424SOL    HW127734   2.419   0.765   4.963  0.5597 -0.0935  2.2516
 5424SOL    HW227735   2.289   0.710   4.922  0.2842  0.6851  1.2797
 5425SOL     OW27736   0.188   0.335   8.811  0.2967 -0.5941  0.0362
 5425SOL    HW127737   0.142   0.398   8.866  0.6665  0.0110 -0.3495
 5425SOL    HW227738   0.214   0.389   8.736 -2.6911  1.7065  0.6901
 5426SOL     OW27739   1.077   4.121   3.011 -0.0327  0.4377  0.1287
 5426SOL    HW127740   1.022   4.064   2.957 -0.0525  0.7326 -0.1615
 5426SOL    HW227741   1.158   4.073   3.027  0.3593  0.8583 -0.6082
 5427SOL     OW27742   3.742   0.283  14.529  0.0064 -0.1143  0.1162
 5427SOL    HW127743   3.823   0.310  14.485  0.0032 -0.1805  0.0689
 5427SOL    HW227744   3.711   0.366  14.564  1.1186 -0.6059  2.2327
 5428SOL     OW27745   1.715   1.464   5.667  0.2053 -0.0752  0.2040
 5428SOL    HW127746   1.803   1.437   5.642  0.3950 -0.8052  1.6608
 5428SOL    HW227747   1.691   1.386   5.718  4.1641 -0.3573  1.6150
 5429SOL     OW27748   4.267   1.327  12.390 -0.0013 -0.6477 -0.1878
 5429SOL    HW127749   4.321   1.406  12.402  0.5519 -1.5215  3.1800
 5429SOL    HW227750   4.193   1.353  12.444 -0.4641 -1.9180 -0.2256
 5430SOL     OW27751   2.907   1.042  10.271  0.2812 -0.5409  0.5900
 5430SOL    HW127752   2.987   0.991  10.279  1.0998  0.3559 -2.1273
 5430SOL    HW227753   2.867   1.025  10.356 -1.4494  2.8335  0.4711
 5431SOL     OW27754   2.398   3.793   0.616 -0.0030 -0.7076 -0.3964
 5431SOL    HW127755   2.490   3.776   0.597 -0.2813 -0.8035 -1.6266
 5431SOL    HW227756   2.412   3.821   0.707  0.2690  1.5689 -1.1212
 5432SOL     OW27757   4.162   3.606   4.680 -0.3912 -0.1141 -0.7239
 5432SOL    HW127758   4.076   3.645   4.670 -0.9969 -1.7319 -1.8796
 5432SOL    HW227759   4.151   3.520   4.640 -0.1381 -0.6441  0.3328
 5433SOL     OW27760   3.672   2.157   2.515  0.4533  0.1826 -0.1732
 5433SOL    HW127761   3.640   2.162   2.605  3.6497 -0.4568  0.9874
 5433SOL    HW227762   3.737   2.227   2.513 -1.6166  2.1015 -0.6287
 5434SOL     OW27763   2.435   3.654  13.052  0.6705 -0.4754  0.0219
 5434SOL    HW127764   2.432   3.718  12.981  1.5205 -1.3500 -0.7916
 5434SOL    HW227765   2.470   3.577  13.008  1.3503  0.1385 -0.5095
 5435SOL     OW27766   4.639   2.672   4.856  0.6870 -0.2192  0.4352
 5435SOL    HW127767   4.587   2.742   4.816 -0.1779  0.1928  2.2674
 5435SOL    HW227768   4.587   2.592   4.843  0.8773  0.0926 -2.4049
 5436SOL     OW27769   3.692   1.111   7.934 -0.1517  0.0412 -0.5423
 5436SOL    HW127770   3.657   1.195   7.904  0.0162 -0.5186 -2.3539
 5436SOL    HW227771   3.734   1.151   8.010  1.6623 -0.6159 -1.1968
 5437SOL     OW27772   2.917   3.806   4.637  0.3199  0.4534 -0.0432
 5437SOL    HW127773   2.835   3.855   4.634 -0.0806 -0.2831 -1.3703
 5437SOL    HW227774   2.975   3.868   4.680  1.5042  0.3485 -1.4841
 5438SOL     OW27775   2.490   2.895   5.368 -0.4590  0.0845  0.1868
 5438SOL    HW127776   2.407   2.936   5.345 -1.1498 -1.8815 -0.7609
 5438SOL    HW227777   2.473   2.801   5.364 -1.4913  0.4543 -4.0858
 5439SOL     OW27778   2.153   3.503  13.297 -0.2394 -0.0141  0.1800
 5439SOL    HW127779   2.067   3.477  13.264  0.7868 -1.4404 -1.3370
 5439SOL    HW227780   2.209   3.439  13.254  1.4399  0.6617  1.3630
 5440SOL     OW27781   0.441   2.466   4.675  0.8181 -0.9572 -0.3739
 5440SOL    HW127782   0.480   2.447   4.590 -1.3435  2.5019 -2.1363
 5440SOL    HW227783   0.414   2.378   4.701 -1.6712  0.0608  0.4713
 5441SOL     OW27784   2.921   1.789  11.493 -0.0161 -0.3371  0.3730
 5441SOL    HW127785   2.955   1.778  11.405  0.0098 -0.9590  0.4594
 5441SOL    HW227786   3.005   1.801  11.537  0.2930 -1.1196 -0.0123
 5442SOL     OW27787   3.089   3.218   3.187  0.2195  0.1616  0.0762
 5442SOL    HW127788   3.153   3.194   3.120 -0.1631 -0.6675  0.0029
 5442SOL    HW227789   3.071   3.136   3.234  1.2386 -1.1574 -1.8194
 5443SOL     OW27790   4.427   4.042   5.642 -0.1220 -0.6402 -0.4630
 5443SOL    HW127791   4.473   4.088   5.572 -1.1847 -0.5048 -1.0614
 5443SOL    HW227792   4.406   3.959   5.601 -1.4625 -0.2174 -0.6208
 5444SOL     OW27793   1.471   2.663   2.168  0.0330  0.1481 -0.1577
 5444SOL    HW127794   1.544   2.601   2.168 -1.4523 -1.5617  2.6562
 5444SOL    HW227795   1.480   2.689   2.260 -2.0935 -0.2020  0.1368
 5445SOL     OW27796   3.684   0.860  17.183 -0.0426 -0.3882 -0.1331
 5445SOL    HW127797   3.756   0.905  17.227  0.0735 -1.9683  1.2795
 5445SOL    HW227798   3.740   0.826  17.113  2.1456  2.9498 -0.0184
 5446SOL     OW27799   3.007   1.205   4.650  0.0772 -0.0496  0.1822
 5446SOL    HW127800   3.036   1.139   4.588  2.0111  0.5947  0.4006
 5446SOL    HW227801   3.029   1.177   4.739  0.5365 -0.5566 -0.0953
 5447SOL     OW27802   1.912   0.216  13.691  0.0258  0.2080  0.0949
 5447SOL    HW127803   1.878   0.127  13.695 -1.3526  0.7426  0.2164
 5447SOL    HW227804   1.842   0.256  13.741  1.7070  2.0861  0.9586
 5448SOL     OW27805   1.361   4.186   1.597  0.5456  0.2404 -0.4177
 5448SOL    HW127806   1.273   4.215   1.622 -0.4317 -2.4983 -0.6684
 5448SOL    HW227807   1.382   4.132   1.672 -0.9550  0.1144 -0.0932
 5449SOL     OW27808   3.217   0.575   4.997  0.1474 -0.0664  0.1991
 5449SOL    HW127809   3.301   0.578   4.951  0.3003 -0.8331  0.4371
 5449SOL    HW227810   3.216   0.665   5.030  1.3171 -0.0024  0.0476
 5450SOL     OW27811   1.678   4.704   8.783  0.1184  0.0399  0.1986
 5450SOL    HW127812   1.731   0.041   8.729 -1.0533  0.9832  0.0650
 5450SOL    HW227813   1.747   4.664   8.835 -0.7827  1.1951  2.2877
 5451SOL     OW27814   2.118   1.053  12.482 -0.0555 -0.6702  0.0037
 5451SOL    HW127815   2.131   1.109  12.559 -1.2512 -2.2819  1.3798
 5451SOL    HW227816   2.199   1.059  12.431 -0.3567 -0.4249 -0.4401
 5452SOL     OW27817   2.138   2.955   0.685 -0.2107  0.1927  0.4043
 5452SOL    HW127818   2.091   2.919   0.610 -2.6698  1.6947  1.2001
 5452SOL    HW227819   2.150   3.045   0.654  1.3637 -1.0035 -2.3553
 5453SOL     OW27820   3.761   1.083   5.536 -0.0398  0.0544  1.0896
 5453SOL    HW127821   3.704   1.006   5.530  0.8857 -0.5129 -0.5364
 5453SOL    HW227822   3.697   1.149   5.508 -0.5145 -2.6995 -4.3385
 5454SOL     OW27823   3.144   4.177   9.625  0.0143 -0.4090  0.6099
 5454SOL    HW127824   3.217   4.208   9.679 -0.0089 -0.3726  0.6209
 5454SOL    HW227825   3.084   4.252   9.619  1.0467  0.1871 -2.2527
 5455SOL     OW27826   3.813   0.039  15.790  0.0433 -0.0554  0.3336
 5455SOL    HW127827   3.744   4.706  15.752 -0.2670  0.3171  0.3630
 5455SOL    HW227828   3.803   0.122  15.744  3.3044 -0.0943 -0.4650
 5456SOL     OW27829   0.478   2.661   5.347 -0.4130  0.3837  0.0306
 5456SOL    HW127830   0.383   2.664   5.358 -0.3414 -1.1885  1.0572
 5456SOL    HW227831   0.505   2.669   5.438  1.3294  1.8183 -0.6127
 5457SOL     OW27832   1.421   4.487  14.004  0.2100  0.3177  0.0548
 5457SOL    HW127833   1.441   4.500  14.097 -0.9987 -1.3991  0.5518
 5457SOL    HW227834   1.497   4.441  13.966  0.1026  2.1571 -2.3665
 5458SOL     OW27835   1.830   1.867  11.559 -0.9561 -0.3559  0.0186
 5458SOL    HW127836   1.880   1.796  11.520 -1.1420 -0.0538 -0.7744
 5458SOL    HW227837   1.784   1.812  11.622 -1.9438 -0.6861 -0.9985
 5459SOL     OW27838   0.220   4.000   8.667 -0.3858 -0.3191  0.5843
 5459SOL    HW127839   0.243   4.071   8.607  2.1851 -0.0392  1.8605
 5459SOL    HW227840   0.134   3.977   8.634 -0.6476 -0.3310  1.2844
 5460SOL     OW27841   1.486   2.418   2.011  0.4205  0.3650  0.1887
 5460SOL    HW127842   1.412   2.416   1.950  0.0182 -2.6741  0.7557
 5460SOL    HW227843   1.545   2.479   1.967  1.9635  0.8061  2.8831
 5461SOL     OW27844   2.601   1.575  10.580  0.4231 -0.0369  0.0748
 5461SOL    HW127845   2.628   1.528  10.659 -1.3839 -0.7684  0.2664
 5461SOL    HW227846   2.684   1.609  10.547  1.1081  0.2522  2.0864
 5462SOL     OW27847   4.512   0.765   4.982  0.6359  0.5330 -0.8364
 5462SOL    HW127848   4.419   0.750   4.999  1.0428 -1.6708 -0.6570
 5462SOL    HW227849   4.539   0.774   5.073 -0.1212  1.6243 -0.7217
 5463SOL     OW27850   1.830   3.546   2.720 -0.0007  0.0773  0.1662
 5463SOL    HW127851   1.791   3.634   2.719  0.1475  0.1451  0.3748
 5463SOL    HW227852   1.915   3.570   2.755  0.6361 -1.5809 -0.2497
 5464SOL     OW27853   0.868   1.803   9.342  0.2133  0.2208  0.1467
 5464SOL    HW127854   0.917   1.767   9.417  1.1424 -0.0521 -0.5936
 5464SOL    HW227855   0.825   1.879   9.381  0.6345  0.7126 -0.3463
 5465SOL     OW27856   4.194   3.205   3.266 -0.1256  0.1504  0.1768
 5465SOL    HW127857   4.137   3.128   3.267 -1.4295  1.1376  3.2273
 5465SOL    HW227858   4.243   3.188   3.346 -2.6996 -3.4921  1.0030
 5466SOL     OW27859   4.044   3.383   3.741 -0.5712  0.0161  0.2049
 5466SOL    HW127860   4.041   3.287   3.740 -0.4375  0.0294 -2.7130
 5466SOL    HW227861   4.088   3.386   3.826 -0.2227  1.8332 -0.0375
 5467SOL     OW27862   0.153   1.290   4.286 -0.0645  0.3742 -0.2686
 5467SOL    HW127863   0.073   1.261   4.329  0.2524  0.0610  0.1054
 5467SOL    HW227864   0.178   1.361   4.346 -1.2434  2.2167 -1.9490
 5468SOL     OW27865   4.456   4.575   3.264 -0.1836  0.1967 -0.1271
 5468SOL    HW127866   4.389   4.567   3.196 -2.1868 -4.6322  2.4282
 5468SOL    HW227867   4.491   4.487   3.277 -1.5391 -0.1668  1.0303
 5469SOL     OW27868   2.701   2.935   4.302 -0.3181  0.2646 -0.3874
 5469SOL    HW127869   2.775   2.984   4.269 -0.0355  0.2439  0.2178
 5469SOL    HW227870   2.695   2.973   4.390 -0.2577 -1.9307  0.5742
 5470SOL     OW27871   3.623   2.593  13.294 -0.3502  0.1373  0.0148
 5470SOL    HW127872   3.539   2.576  13.250  0.1192  0.8924 -1.1621
 5470SOL    HW227873   3.590   2.655  13.359 -0.3391 -1.6254  1.7176
 5471SOL     OW27874   1.608   2.752   0.793 -0.1311 -0.5398 -0.2264
 5471SOL    HW127875   1.664   2.703   0.733 -0.4383 -0.9295 -0.1966
 5471SOL    HW227876   1.657   2.745   0.875 -1.6565  0.8894  0.8134
 5472SOL     OW27877   3.895   3.074   3.540 -0.0423 -0.4810  0.1192
 5472SOL    HW127878   3.939   3.101   3.621  1.6356 -0.4665 -0.8090
 5472SOL    HW227879   3.968   3.026   3.501 -1.2590 -0.9145 -1.5948
 5473SOL     OW27880   4.596   1.698   7.779  0.1795 -0.7544 -0.6832
 5473SOL    HW127881   4.641   1.623   7.740  1.1965 -0.7796  0.5490
 5473SOL    HW227882   4.549   1.672   7.859  2.2866 -0.9369  0.4904
 5474SOL     OW27883   1.703   1.816   8.421  0.1933 -0.4168 -0.2161
 5474SOL    HW127884   1.667   1.858   8.499 -2.4138 -0.2656 -1.4975
 5474SOL    HW227885   1.794   1.790   8.436  0.3957  1.7171  2.2976
 5475SOL     OW27886   0.603   3.656   3.211 -0.1977 -0.3276  0.2013
 5475SOL    HW127887   0.549   3.695   3.142  0.5336  0.1737 -0.0977
 5475SOL    HW227888   0.533   3.620   3.264  0.6606 -0.6079  1.1435
 5476SOL     OW27889   3.765   2.064   4.843 -0.5015 -0.3951 -0.4752
 5476SOL    HW127890   3.790   2.110   4.763 -1.3549  0.1558 -0.4258
 5476SOL    HW227891   3.849   2.057   4.889 -0.0022 -0.4179 -1.3965
 5477SOL     OW27892   0.772   2.243   6.984  0.1479  0.8673 -0.0539
 5477SOL    HW127893   0.821   2.271   7.061  1.6537 -0.1197 -0.6455
 5477SOL    HW227894   0.779   2.148   6.997  1.1648  1.0655  0.7436
 5478SOL     OW27895   2.869   4.343   8.805 -0.1530  0.0180 -0.5670
 5478SOL    HW127896   2.798   4.398   8.839 -1.2866 -0.8308 -1.5716
 5478SOL    HW227897   2.894   4.300   8.887  3.7966 -0.5040 -2.0724
 5479SOL     OW27898   3.968   3.571   3.151 -0.5202  0.5859 -0.0754
 5479SOL    HW127899   4.008   3.646   3.196 -0.5709  0.7882 -0.3675
 5479SOL    HW227900   4.037   3.507   3.168  0.9952  1.5925 -2.4998
 5480SOL     OW27901   4.548   0.942   3.083  0.3121 -0.7985  0.7819
 5480SOL    HW127902   4.512   0.855   3.064 -0.7171 -0.3201  0.5353
 5480SOL    HW227903   4.544   0.962   3.176 -1.2783 -0.5674  0.6658
 5481SOL     OW27904   2.426   1.845  12.645  0.0963  0.2434 -0.0519
 5481SOL    HW127905   2.438   1.795  12.565 -2.3922 -1.8396  0.8720
 5481SOL    HW227906   2.502   1.811  12.691  0.5245  0.7172 -0.4075
 5482SOL     OW27907   0.423   1.194  13.886  0.3339 -0.0345  0.2065
 5482SOL    HW127908   0.380   1.186  13.801  1.8099 -0.6879 -0.4850
 5482SOL    HW227909   0.346   1.215  13.939  0.7255  0.6156  0.5088
 5483SOL     OW27910   2.898   0.633   0.864  0.0193 -0.1510 -0.3857
 5483SOL    HW127911   2.843   0.707   0.887 -1.8549 -1.0727 -1.9180
 5483SOL    HW227912   2.850   0.584   0.796 -0.4596 -0.2126 -0.0009
 5484SOL     OW27913   4.155   0.641  10.118 -0.5372 -0.1138 -0.2273
 5484SOL    HW127914   4.206   0.721  10.132  0.4866 -0.4313 -2.2106
 5484SOL    HW227915   4.066   0.676  10.126 -0.8833 -0.3615 -3.1321
 5485SOL     OW27916   3.680   0.810  16.037  0.2272  0.4803 -0.2463
 5485SOL    HW127917   3.614   0.804  15.968  0.9763 -0.6836 -0.8730
 5485SOL    HW227918   3.751   0.851  15.987  2.0986  0.3889  2.3155
 5486SOL     OW27919   0.629   0.973   2.643 -0.6258 -0.2096 -0.4968
 5486SOL    HW127920   0.615   0.998   2.734  0.1358 -2.4686  0.2444
 5486SOL    HW227921   0.603   0.881   2.638  0.1782 -0.4695  0.1732
 5487SOL     OW27922   0.809   3.769   1.102  0.7656 -0.7675  0.1840
 5487SOL    HW127923   0.813   3.749   1.196  1.9285 -2.0034 -0.1074
 5487SOL    HW227924   0.879   3.709   1.074  0.8488 -1.2556  1.4399
 5488SOL     OW27925   1.046   1.987  10.798  0.7266  0.6073 -0.9030
 5488SOL    HW127926   1.013   1.901  10.773 -0.4357  0.6654  0.4011
 5488SOL    HW227927   1.063   1.972  10.891 -0.0619  0.6084 -0.7558
 5489SOL     OW27928   2.881   2.664   6.735 -0.1571  0.1534  0.3419
 5489SOL    HW127929   2.939   2.698   6.803 -0.2760  0.6124  0.2144
 5489SOL    HW227930   2.927   2.591   6.694  0.4626 -0.0382  1.3845
 5490SOL     OW27931   1.710   0.319   6.737 -0.1382  0.0543  0.4852
 5490SOL    HW127932   1.698   0.269   6.817  0.2909 -0.5191  0.1914
 5490SOL    HW227933   1.799   0.355   6.740 -1.1126  2.6949 -2.0754
 5491SOL     OW27934   4.504   2.381   9.684 -0.1014 -0.5203  0.3604
 5491SOL    HW127935   4.442   2.407   9.617 -1.1057 -0.7070  1.2233
 5491SOL    HW227936   4.447   2.336   9.747 -0.3872  0.1805  0.6031
 5492SOL     OW27937   1.317   3.151   2.165 -0.7129  0.3743 -0.2230
 5492SOL    HW127938   1.312   3.223   2.101  0.0402  0.2245 -0.4570
 5492SOL    HW227939   1.341   3.080   2.105 -0.5866  0.0364  0.2312
 5493SOL     OW27940   3.128   2.264   4.769 -0.4028  0.1171 -0.2420
 5493SOL    HW127941   3.130   2.360   4.769 -0.2540  0.1155 -0.5439
 5493SOL    HW227942   3.119   2.263   4.673 -1.1196 -0.1597 -0.1702
 5494SOL     OW27943   4.021   0.079   1.571  0.4538 -0.1182 -0.2437
 5494SOL    HW127944   3.994   0.077   1.479  1.1003 -1.1588 -0.4159
 5494SOL    HW227945   4.073   0.158   1.558 -0.0370 -0.3495 -3.4937
 5495SOL     OW27946   2.986   3.905   1.830 -0.5652  0.2046 -0.0774
 5495SOL    HW127947   2.959   3.840   1.895  2.8602 -1.0924  0.0124
 5495SOL    HW227948   2.935   3.882   1.752 -0.2402  0.7220 -0.4415
 5496SOL     OW27949   2.198   1.892   4.413  0.2037  0.4681  0.5913
 5496SOL    HW127950   2.244   1.910   4.496 -1.8480  2.5925  1.2841
 5496SOL    HW227951   2.250   1.820   4.378  0.5156  0.1460  1.7123
 5497SOL     OW27952   3.572   1.458   2.180 -0.3577 -0.1458 -0.1644
 5497SOL    HW127953   3.635   1.473   2.250  1.1745  1.2878 -1.8376
 5497SOL    HW227954   3.524   1.388   2.224  0.7020 -0.0605  1.1052
 5498SOL     OW27955   0.150   2.861   3.370  0.5163  0.2627 -0.3668
 5498SOL    HW127956   0.211   2.805   3.418 -1.5027 -1.0707  0.6506
 5498SOL    HW227957   0.069   2.840   3.417  1.1854  0.4305  0.8661
 5499SOL     OW27958   4.709   1.073  10.617  0.7223 -0.3640  0.4804
 5499SOL    HW127959   0.048   1.117  10.677  0.0422  1.0871  0.1041
 5499SOL    HW227960   4.654   1.028  10.681  0.6898 -1.1391 -0.0901
 5500SOL     OW27961   0.239   3.298   2.919  0.6738  0.1232  0.3043
 5500SOL    HW127962   0.260   3.220   2.868  1.0846 -0.9979  2.1902
 5500SOL    HW227963   0.147   3.306   2.894  0.8615 -0.3606 -0.5396
 5501SOL     OW27964   1.406   4.462   3.543 -0.2731  0.3070 -0.3782
 5501SOL    HW127965   1.471   4.446   3.611 -0.0646 -0.2241 -0.6975
 5501SOL    HW227966   1.466   4.498   3.477 -0.6314 -1.0109 -1.4322
 5502SOL     OW27967   3.583   3.174   8.254 -0.0712  0.1867 -0.3724
 5502SOL    HW127968   3.517   3.244   8.254  0.3116  0.5470 -0.2419
 5502SOL    HW227969   3.533   3.093   8.261 -0.6947  0.8572  2.6422
 5503SOL     OW27970   1.922   4.202  13.770 -0.0013  0.5456 -0.9613
 5503SOL    HW127971   2.014   4.173  13.774 -0.5919 -1.5287 -2.5275
 5503SOL    HW227972   1.869   4.123  13.770 -0.8337  1.1104  1.5799
 5504SOL     OW27973   3.623   0.917  10.533 -0.0369 -1.1796  0.2055
 5504SOL    HW127974   3.617   0.853  10.462 -1.6492 -0.0030 -0.7156
 5504SOL    HW227975   3.543   0.967  10.517 -0.1434 -1.1260  0.8968
 5505SOL     OW27976   4.433   0.719  17.615 -0.2913 -0.1026  0.0533
 5505SOL    HW127977   4.355   0.708  17.561  1.1685 -2.1530 -1.6441
 5505SOL    HW227978   4.450   0.628  17.638 -3.6789 -1.1780 -1.7686
 5506SOL     OW27979   1.179   3.137   3.962 -0.4421  0.5879  0.3337
 5506SOL    HW127980   1.274   3.151   3.956 -0.4467  0.4957  0.0482
 5506SOL    HW227981   1.168   3.164   4.053  0.1974  1.4115  0.1608
 5507SOL     OW27982   1.722   3.210   0.927 -0.2429 -0.0994  0.7043
 5507SOL    HW127983   1.673   3.148   0.873 -1.7404  0.5191  1.3512
 5507SOL    HW227984   1.747   3.257   0.848  3.4640 -2.6673  0.3448
 5508SOL     OW27985   0.165   4.589   0.374  0.3095 -0.4874  0.0517
 5508SOL    HW127986   0.152   4.635   0.456  0.4490  0.0532 -0.2256
 5508SOL    HW227987   0.257   4.608   0.354  0.2870 -2.0976 -1.6133
 5509SOL     OW27988   1.232   4.081   8.545  0.2397  0.6940 -0.2020
 5509SOL    HW127989   1.168   4.043   8.485  0.5190  0.1219 -0.1353
 5509SOL    HW227990   1.256   4.167   8.509  2.4238 -1.0421 -2.9102
 5510SOL     OW27991   2.599   4.185   7.213 -0.0472  0.3091  0.1158
 5510SOL    HW127992   2.685   4.145   7.204 -0.6490 -1.0076  0.2648
 5510SOL    HW227993   2.549   4.112   7.251 -1.0155 -0.3053 -2.3923
 5511SOL     OW27994   3.148   4.099   9.949  0.3596 -0.6801 -0.3153
 5511SOL    HW127995   3.167   4.130   9.861 -1.3390 -1.3322 -0.9144
 5511SOL    HW227996   3.080   4.038   9.919  0.4187 -1.2158  0.6475
 5512SOL     OW27997   2.318   0.063   2.665  0.1981 -0.1650 -0.6598
 5512SOL    HW127998   2.341   0.069   2.572 -0.7834 -1.7297 -0.9960
 5512SOL    HW227999   2.259   0.138   2.670  0.8665  0.2972  0.2404
 5513SOL     OW28000   0.039   4.391   5.156 -0.0189  0.3933  0.3040
 5513SOL    HW128001   0.026   4.300   5.128  0.6862 -0.4342  2.6551
 5513SOL    HW228002   4.694   4.398   5.226  0.0879  0.8941  0.3534
 5514SOL     OW28003   3.788   3.336   6.500 -0.0893  0.2417  0.0327
 5514SOL    HW128004   3.805   3.430   6.506  1.3383 -0.0289  0.2311
 5514SOL    HW228005   3.717   3.325   6.562  1.1112 -5.2611  0.4313
 5515SOL     OW28006   2.950   0.893   3.670  0.2685 -0.1767 -0.1875
 5515SOL    HW128007   2.888   0.885   3.597  0.4686  0.1585 -0.3947
 5515SOL    HW228008   3.004   0.817   3.648 -1.7515 -1.6692  0.0081
 5516SOL     OW28009   1.343   3.801   7.554  0.0374 -0.8451 -0.3656
 5516SOL    HW128010   1.374   3.888   7.582  0.3259 -1.4414  1.1928
 5516SOL    HW228011   1.365   3.744   7.628 -0.2439 -1.6793 -0.9260
 5517SOL     OW28012   4.613   0.120  14.377  0.1291 -0.0749 -0.0091
 5517SOL    HW128013   4.695   0.168  14.381  0.3850 -0.7045  2.0114
 5517SOL    HW228014   4.555   0.182  14.421 -0.7164 -0.3915 -0.6623
 5518SOL     OW28015   0.257   4.095   2.529  0.0715  0.7436 -0.0325
 5518SOL    HW128016   0.217   4.161   2.471 -0.1395 -1.3784 -2.3011
 5518SOL    HW228017   0.302   4.033   2.473  1.1324 -0.0781  1.7634
 5519SOL     OW28018   2.677   1.939   8.457  0.1805 -0.0372 -0.3703
 5519SOL    HW128019   2.688   2.024   8.414 -2.0554  1.3867  1.8749
 5519SOL    HW228020   2.657   1.978   8.542  1.8387 -0.4213  0.2027
 5520SOL     OW28021   3.802   0.656  13.181 -0.6012 -0.7949  0.4965
 5520SOL    HW128022   3.870   0.713  13.216 -0.9165  0.6905 -1.3048
 5520SOL    HW228023   3.793   0.694  13.093 -1.8662  1.7309  1.7189
 5521SOL     OW28024   0.149   1.638   5.854  0.0994 -0.1111  0.2321
 5521SOL    HW128025   0.244   1.651   5.855  0.1485 -0.5414  0.9747
 5521SOL    HW228026   0.125   1.710   5.912 -0.7260 -0.2969  0.1111
 5522SOL     OW28027   0.589   3.741   8.975 -0.0413 -0.2094 -0.7087
 5522SOL    HW128028   0.628   3.786   8.900  0.0584  0.8004 -0.0575
 5522SOL    HW228029   0.667   3.750   9.030 -0.7418 -0.2201  0.2813
 5523SOL     OW28030   1.824   3.517   1.853 -0.5584  0.5057 -0.7919
 5523SOL    HW128031   1.844   3.611   1.852  1.1726  0.1602  0.8344
 5523SOL    HW228032   1.829   3.497   1.759 -2.0580  1.9791 -1.1896
 5524SOL     OW28033   3.061   1.325   9.718 -0.1490  0.1883  0.2696
 5524SOL    HW128034   3.056   1.263   9.646  3.3714 -0.1535  0.3245
 5524SOL    HW228035   3.156   1.337   9.728 -0.4236  2.3272  0.3779
 5525SOL     OW28036   2.517   2.814   4.163 -0.2571  0.8744 -0.4951
 5525SOL    HW128037   2.588   2.862   4.206  0.7011 -0.6335 -0.3827
 5525SOL    HW228038   2.478   2.884   4.111 -0.8652 -0.3451 -1.6847
 5526SOL     OW28039   0.297   0.498   5.143  0.2943 -0.4731 -0.0091
 5526SOL    HW128040   0.339   0.561   5.202  0.1748  0.4851 -0.9465
 5526SOL    HW228041   0.334   0.416   5.176  0.5133 -0.8034 -1.0902
 5527SOL     OW28042   2.126   1.684   6.647 -0.4370 -0.3295 -0.1419
 5527SOL    HW128043   2.153   1.629   6.574 -1.2989 -1.4973  0.4117
 5527SOL    HW228044   2.047   1.639   6.677 -0.2736 -1.2756 -1.1297
 5528SOL     OW28045   3.140   3.463   4.224  0.0987 -0.7483 -0.0566
 5528SOL    HW128046   3.099   3.442   4.141  0.1536  0.1439 -0.3097
 5528SOL    HW228047   3.151   3.558   4.218 -1.3384 -0.5482  0.6597
 5529SOL     OW28048   2.306   1.089  15.869 -0.2845  0.2833  0.3678
 5529SOL    HW128049   2.287   1.038  15.791 -0.4708 -3.0224  2.5724
 5529SOL    HW228050   2.257   1.169  15.848  2.5417  2.1529  0.8222
 5530SOL     OW28051   0.240   3.710   6.879  0.3556 -0.3249 -0.1599
 5530SOL    HW128052   0.178   3.733   6.809  1.7621  1.5387 -0.7830
 5530SOL    HW228053   0.214   3.622   6.907 -2.2102  0.9085  1.3864
 5531SOL     OW28054   0.729   0.696   3.382 -0.1056 -0.1205  0.0323
 5531SOL    HW128055   0.665   0.695   3.311 -1.7034  4.5431  1.4223
 5531SOL    HW228056   0.744   0.604   3.400  2.2019 -0.0452 -1.4721
 5532SOL     OW28057   1.568   3.425  12.937  0.4052  0.1477 -0.7873
 5532SOL    HW128058   1.639   3.418  12.873  1.9239 -2.7903  1.1763
 5532SOL    HW228059   1.593   3.497  12.995 -2.5275 -0.6420  1.4507
 5533SOL     OW28060   0.106   0.341   1.277  0.5160  0.1728 -0.5520
 5533SOL    HW128061   0.114   0.249   1.304  1.2640  0.5128  0.4184
 5533SOL    HW228062   0.197   0.369   1.266  0.0970  1.8339  0.2956
 5534SOL     OW28063   0.905   1.277   6.452 -0.3588 -0.4877  0.4960
 5534SOL    HW128064   0.863   1.362   6.434  0.8559  0.1592  0.6710
 5534SOL    HW228065   0.999   1.291   6.469 -0.5822 -0.3907  1.6616
 5535SOL     OW28066   3.037   3.162  15.157 -0.1978 -0.0037  0.0154
 5535SOL    HW128067   2.995   3.081  15.127 -2.6418  1.6677 -1.0819
 5535SOL    HW228068   3.072   3.190  15.073 -0.8727  1.9473  0.3920
 5536SOL     OW28069   1.019   2.537   9.393  0.0333  0.0710  0.4324
 5536SOL    HW128070   1.083   2.468   9.409  0.8015  0.6167 -0.2911
 5536SOL    HW228071   1.085   2.599   9.363 -0.4187  1.5965  2.6010
 5537SOL     OW28072   3.808   3.784   9.815  0.0711 -0.1265 -0.2225
 5537SOL    HW128073   3.833   3.824   9.899 -0.0243  1.0941 -0.7735
 5537SOL    HW228074   3.888   3.764   9.767  0.8696  1.2555  0.5485
 5538SOL     OW28075   0.336   2.903   5.571  0.3747 -0.3920 -0.9923
 5538SOL    HW128076   0.411   2.926   5.626  0.4190  1.1234 -1.6576
 5538SOL    HW228077   0.298   2.987   5.544  0.5676 -1.0278 -3.2703
 5539SOL     OW28078   3.124   3.073   1.700 -0.2813 -0.4982 -0.5082
 5539SOL    HW128079   3.129   2.993   1.753 -0.9670 -0.9951 -1.1968
 5539SOL    HW228080   3.197   3.059   1.640  1.3387  0.2992  1.2533
 5540SOL     OW28081   2.490   3.822  11.335 -0.0133  0.0807  0.9159
 5540SOL    HW128082   2.505   3.757  11.267 -1.8469 -0.2822  0.8718
 5540SOL    HW228083   2.473   3.904  11.289 -1.0967  0.0886  1.3505
 5541SOL     OW28084   0.150   3.820   7.313  0.1628 -0.0686  0.0532
 5541SOL    HW128085   0.205   3.895   7.338 -0.6136  0.4810  0.1344
 5541SOL    HW228086   0.071   3.863   7.280  0.0380 -0.0553  0.3652
 5542SOL     OW28087   0.718   2.467  10.978  0.4101  0.0645 -0.8953
 5542SOL    HW128088   0.656   2.401  11.010  0.6880  0.0783 -0.3199
 5542SOL    HW228089   0.654   2.529  10.944  1.0731  2.1569  1.7059
 5543SOL     OW28090   3.647   1.321  10.601  0.0857 -0.2123  0.5353
 5543SOL    HW128091   3.701   1.374  10.543  0.6414 -0.2311  1.0322
 5543SOL    HW228092   3.666   1.357  10.688 -1.3070  0.9278  0.3677
 5544SOL     OW28093   1.124   4.189   1.723  0.6013  0.6944  0.2089
 5544SOL    HW128094   1.044   4.241   1.718 -1.4391 -2.4067  0.6502
 5544SOL    HW228095   1.082   4.103   1.715  1.9267  0.2876 -2.5029
 5545SOL     OW28096   4.528   0.945   8.156  0.1523 -0.4781 -0.0959
 5545SOL    HW128097   4.488   0.868   8.115 -0.5632  0.8264 -1.8400
 5545SOL    HW228098   4.449   0.980   8.198  0.9098  0.8510  0.2090
 5546SOL     OW28099   2.087   4.139   8.476 -0.3174 -0.4214 -0.1456
 5546SOL    HW128100   2.079   4.057   8.525 -0.2363 -0.4921 -0.2496
 5546SOL    HW228101   2.163   4.170   8.525 -0.7665 -0.1626  0.3887
 5547SOL     OW28102   0.949   2.704   7.225 -0.0289 -1.2855  0.2723
 5547SOL    HW128103   0.855   2.707   7.239  0.1321  0.5902  0.8657
 5547SOL    HW228104   0.980   2.766   7.290 -1.1514  0.0409 -0.4672
 5548SOL     OW28105   1.054   3.360   0.214 -0.3798  0.1367  0.0788
 5548SOL    HW128106   1.144   3.392   0.210 -0.6388  0.7508 -1.0091
 5548SOL    HW228107   1.049   3.311   0.132 -0.4045 -0.4850  0.4605
 5549SOL     OW28108   4.513   3.943  13.858 -0.5447 -0.2775  0.6302
 5549SOL    HW128109   4.503   3.961  13.952 -1.1865 -1.8621  0.8539
 5549SOL    HW228110   4.504   4.033  13.826  1.2388 -0.3873 -0.1974
 5550SOL     OW28111   4.447   0.501   2.362 -0.1046  0.4053 -0.8292
 5550SOL    HW128112   4.529   0.452   2.367 -1.0386 -1.0646  0.0640
 5550SOL    HW228113   4.391   0.458   2.427  1.6607  1.7902  1.6439
 5551SOL     OW28114   1.552   3.567  11.629  0.1692  0.3509 -0.4553
 5551SOL    HW128115   1.523   3.558  11.538  0.4691 -0.3874 -0.4807
 5551SOL    HW228116   1.636   3.521  11.629 -0.5019 -0.9105 -2.4153
 5552SOL     OW28117   0.779   3.714   5.156 -0.3589  0.1445 -0.3159
 5552SOL    HW128118   0.693   3.673   5.152 -0.6059  0.3534  2.9299
 5552SOL    HW228119   0.784   3.753   5.068 -0.0045  1.2540  0.1947
 5553SOL     OW28120   4.667   3.353  17.007 -0.0506  0.5256  0.5442
 5553SOL    HW128121   4.693   3.412  17.077  2.0346 -0.5233  0.6581
 5553SOL    HW228122   0.013   3.380  16.944  0.5360 -0.5583  0.7047
 5554SOL     OW28123   0.848   2.944  15.435 -0.3282 -0.1250 -0.2892
 5554SOL    HW128124   0.855   2.995  15.354 -1.2840 -1.9298 -1.5192
 5554SOL    HW228125   0.907   2.874  15.406  0.4969  0.2930  0.3696
 5555SOL     OW28126   4.016   2.750  15.759 -0.3391 -0.2047 -0.2360
 5555SOL    HW128127   3.937   2.796  15.787  1.3556  1.5905  1.7147
 5555SOL    HW228128   4.046   2.709  15.841  1.0830  1.8937  0.3089
 5556SOL     OW28129   1.023   3.259   5.048  0.7297  0.2694 -0.2714
 5556SOL    HW128130   1.095   3.231   4.991  0.6662 -0.4187 -0.0093
 5556SOL    HW228131   0.959   3.189   5.042 -1.1415  1.9107  0.5030
 5557SOL     OW28132   2.475   2.204  10.886  0.0179 -0.0572  0.0420
 5557SOL    HW128133   2.566   2.229  10.899  0.0098  1.5428 -2.9306
 5557SOL    HW228134   2.439   2.284  10.924  1.8840  1.5879 -1.7050
 5558SOL     OW28135   3.243   2.730   7.301  0.0585  0.0975 -0.7644
 5558SOL    HW128136   3.336   2.742   7.318 -0.5729  1.8519  1.4441
 5558SOL    HW228137   3.222   2.817   7.335 -0.2534 -0.7759  1.2530
 5559SOL     OW28138   2.604   3.387   1.038 -0.3909 -0.1812 -0.0482
 5559SOL    HW128139   2.582   3.342   1.119 -0.1236  1.9852  1.2135
 5559SOL    HW228140   2.581   3.474   1.068  4.4044  1.5804 -1.5288
 5560SOL     OW28141   1.901   0.789  13.506 -0.1643  0.3901 -0.4694
 5560SOL    HW128142   1.943   0.827  13.583 -0.8012 -0.0933  0.1181
 5560SOL    HW228143   1.897   0.698  13.534 -1.1541 -0.7013 -4.1442
 5561SOL     OW28144   3.709   0.878   0.746 -0.2964  0.2620  0.3072
 5561SOL    HW128145   3.695   0.966   0.781 -2.2974 -0.7237  1.9832
 5561SOL    HW228146   3.644   0.886   0.677  0.7236 -2.1362 -0.9270
 5562SOL     OW28147   2.874   1.753   4.163  0.8094  0.3471  0.1290
 5562SOL    HW128148   2.804   1.726   4.104 -0.3900  0.6700  1.4183
 5562SOL    HW228149   2.822   1.810   4.219  1.0216  0.5216  0.1496
 5563SOL     OW28150   0.144   3.060  11.330 -0.0843 -0.1178  0.0021
 5563SOL    HW128151   0.210   3.048  11.261 -1.4581 -0.2492 -1.3136
 5563SOL    HW228152   0.063   3.056  11.279 -0.2589  1.7492  0.1388
 5564SOL     OW28153   2.630   1.328  16.946  0.3619  0.1769 -0.2374
 5564SOL    HW128154   2.652   1.242  16.981  2.0300  0.7817  0.1860
 5564SOL    HW228155   2.546   1.351  16.985 -1.8083 -3.3982 -2.8060
 5565SOL     OW28156   0.596   0.246   3.241  0.3452 -0.0079 -0.3033
 5565SOL    HW128157   0.687   0.220   3.256  0.9286  1.9529 -0.4877
 5565SOL    HW228158   0.563   0.188   3.172  0.4079 -0.2730 -0.1130
 5566SOL     OW28159   1.292   3.720  17.645 -0.1688  0.1016  0.1431
 5566SOL    HW128160   1.307   3.796  17.590 -2.9248  1.2883  1.0510
 5566SOL    HW228161   1.200   3.712  17.619 -1.7119  1.7609  5.1201
 5567SOL     OW28162   3.958   0.366   4.089 -0.1861  0.5372  0.2748
 5567SOL    HW128163   3.934   0.312   4.165 -1.1504  0.8417  0.1729
 5567SOL    HW228164   4.016   0.302   4.047  3.3106  4.3248 -0.7202
 5568SOL     OW28165   2.754   4.485   5.933  0.1146  0.2609  0.0603
 5568SOL    HW128166   2.793   4.408   5.893 -3.2665 -1.2836 -0.3040
 5568SOL    HW228167   2.831   4.536   5.959  0.0992 -0.5530  1.6604
 5569SOL     OW28168   0.295   0.216  11.789 -0.2634  0.3253  0.0758
 5569SOL    HW128169   0.208   0.252  11.769 -0.3851  0.5212  0.9895
 5569SOL    HW228170   0.283   0.208  11.883 -2.5609  1.3636 -0.1094
 5570SOL     OW28171   2.737   2.357  11.322 -0.1871  0.2947  0.4226
 5570SOL    HW128172   2.756   2.427  11.384  2.1323  0.1714 -0.1507
 5570SOL    HW228173   2.644   2.335  11.314 -0.0625 -0.2431  0.4505
 5571SOL     OW28174   1.281   0.908   7.382  0.0679 -0.5111  0.1600
 5571SOL    HW128175   1.239   0.839   7.331 -0.7267  0.5554 -0.6101
 5571SOL    HW228176   1.279   0.976   7.315 -0.2602 -1.5421 -0.8707
 5572SOL     OW28177   2.917   3.171   8.871  0.3638 -0.2539  0.0923
 5572SOL    HW128178   2.979   3.229   8.914 -0.0657  0.2429  0.0430
 5572SOL    HW228179   2.830   3.211   8.879 -0.8318 -2.6671 -1.0373
 5573SOL     OW28180   3.006   3.187   8.607 -0.1089  0.3681  0.3259
 5573SOL    HW128181   3.094   3.160   8.633 -0.2952 -0.3985  0.1462
 5573SOL    HW228182   2.968   3.172   8.693 -1.5855 -1.2878 -0.6101
 5574SOL     OW28183   3.718   4.056   4.478 -0.0336  0.4903  0.1664
 5574SOL    HW128184   3.723   4.095   4.391 -2.3983 -0.6047 -0.4537
 5574SOL    HW228185   3.698   3.965   4.459  0.9920  0.2754  0.1178
 5575SOL     OW28186   1.730   0.540   2.559  0.3819 -0.1105 -0.3298
 5575SOL    HW128187   1.674   0.607   2.600  1.5394  0.9325 -0.4581
 5575SOL    HW228188   1.757   0.581   2.477  0.5351  0.5831  0.0661
 5576SOL     OW28189   1.265   1.344   5.122  0.2373 -0.4721 -0.2449
 5576SOL    HW128190   1.268   1.348   5.026  2.1380  0.7777 -0.1232
 5576SOL    HW228191   1.359   1.332   5.137  0.3130 -0.1910 -0.4892
 5577SOL     OW28192   3.861   3.002  10.079  0.0345 -0.4653  0.0415
 5577SOL    HW128193   3.829   3.081  10.036  1.0259 -1.2088 -2.0416
 5577SOL    HW228194   3.946   2.990  10.037  0.6466  1.5856  0.7303
 5578SOL     OW28195   1.551   0.783   3.653  0.0342 -0.0780  0.4131
 5578SOL    HW128196   1.608   0.808   3.726  0.2531 -0.9907  0.5530
 5578SOL    HW228197   1.587   0.698   3.629 -2.8836 -1.8328  2.2532
 5579SOL     OW28198   4.022   2.309   1.915  0.5372 -0.2834 -0.3096
 5579SOL    HW128199   4.026   2.317   2.010  2.6878 -0.0677 -0.4261
 5579SOL    HW228200   4.112   2.300   1.886  1.7028  2.2864  2.5167
 5580SOL     OW28201   1.760   2.696   6.801  0.5561 -0.0994 -0.8089
 5580SOL    HW128202   1.803   2.671   6.719 -0.0819 -0.0423 -1.1634
 5580SOL    HW228203   1.677   2.647   6.801  1.7515 -2.1202 -0.2551
 5581SOL     OW28204   2.863   0.690  12.322 -0.0821  0.5654  1.0164
 5581SOL    HW128205   2.886   0.611  12.274 -0.8227  0.6303  0.5653
 5581SOL    HW228206   2.850   0.759  12.258 -0.8113 -0.5814 -0.0595
 5582SOL     OW28207   0.992   2.135   3.271  0.6455 -0.2534  0.2743
 5582SOL    HW128208   1.061   2.101   3.213 -1.0035 -2.9765 -0.1008
 5582SOL    HW228209   1.039   2.145   3.354  2.9258  2.1338 -1.3098
 5583SOL     OW28210   2.181   4.348   9.212  0.6066 -0.4089 -0.1144
 5583SOL    HW128211   2.107   4.292   9.192  0.5470 -0.8095  1.2421
 5583SOL    HW228212   2.188   4.397   9.130  1.8144 -0.8989 -0.3001
 5584SOL     OW28213   3.035   3.454   8.506  0.6218  0.0317 -0.6799
 5584SOL    HW128214   3.058   3.441   8.597 -0.1460  2.9702 -0.0697
 5584SOL    HW228215   3.009   3.365   8.480  2.2274 -0.4869 -0.5103
 5585SOL     OW28216   1.107   2.129   5.479  0.0100  0.2874  0.0501
 5585SOL    HW128217   1.141   2.045   5.447  0.3482  0.5530 -0.2794
 5585SOL    HW228218   1.167   2.179   5.423 -0.9545  0.1104 -1.1463
 5586SOL     OW28219   0.157   2.507   7.520  0.1843  0.0688  0.1512
 5586SOL    HW128220   0.222   2.474   7.458  2.4847 -0.4589  2.8865
 5586SOL    HW228221   0.105   2.429   7.541 -1.6292  0.3052 -3.3654
 5587SOL     OW28222   4.480   3.341   6.960 -0.7654 -0.5333 -0.8347
 5587SOL    HW128223   4.406   3.301   6.915 -0.3081 -2.0198 -0.2754
 5587SOL    HW228224   4.549   3.301   6.908  2.0726  3.7346 -0.3085
 5588SOL     OW28225   1.042   1.396   1.082 -0.0633 -0.1687 -0.1754
 5588SOL    HW128226   0.971   1.334   1.067 -0.5827 -0.1246  2.0722
 5588SOL    HW228227   1.105   1.360   1.020  0.1397 -0.8233  0.4104
 5589SOL     OW28228   0.360   1.433   8.653 -0.0508  0.3741  0.1897
 5589SOL    HW128229   0.318   1.347   8.662 -0.1365  0.6042  1.9660
 5589SOL    HW228230   0.447   1.406   8.624 -0.0517 -0.6161  1.0884
 5590SOL     OW28231   0.377   1.248   5.377  0.9763  0.0633 -0.3661
 5590SOL    HW128232   0.338   1.169   5.340  3.4759 -1.1969 -0.3191
 5590SOL    HW228233   0.295   1.286   5.410 -0.9261 -3.5582 -0.8988
 5591SOL     OW28234   0.868   2.197  10.894 -0.4444  0.2335 -0.3320
 5591SOL    HW128235   0.932   2.175  10.826 -1.4012 -2.0797 -0.4903
 5591SOL    HW228236   0.816   2.118  10.879 -2.5017  1.6484 -0.6592
 5592SOL     OW28237   3.390   0.732   3.352 -0.9786  0.1808 -0.1362
 5592SOL    HW128238   3.363   0.670   3.284 -1.4971  0.9896 -0.6666
 5592SOL    HW228239   3.332   0.805   3.330  0.9559  1.9662  0.7477
 5593SOL     OW28240   2.881   0.367   8.694  0.4148 -0.2997 -0.5968
 5593SOL    HW128241   2.970   0.381   8.724 -0.3325  1.5857  0.7511
 5593SOL    HW228242   2.865   0.286   8.743  1.5019 -0.0897  0.0901
 5594SOL     OW28243   4.178   0.004  12.086 -0.3804 -0.3395 -0.2359
 5594SOL    HW128244   4.262   4.702  12.127 -0.0624  0.0645 -0.6504
 5594SOL    HW228245   4.140   0.068  12.146 -2.2664 -0.6640 -1.0956
 5595SOL     OW28246   1.952   1.003   9.213 -0.4190  0.7943  0.5797
 5595SOL    HW128247   1.985   1.066   9.277 -1.0238 -1.7953  3.4377
 5595SOL    HW228248   2.007   0.925   9.213 -0.8433  0.4980 -0.8295
 5596SOL     OW28249   1.195   1.897   5.397  0.1433  0.4407  0.4671
 5596SOL    HW128250   1.176   1.843   5.473 -0.9713 -0.0247 -0.1439
 5596SOL    HW228251   1.275   1.848   5.377  0.8192  2.1525 -1.0377
 5597SOL     OW28252   2.102   0.187   8.063  0.2729  0.1440 -0.0632
 5597SOL    HW128253   2.025   0.164   8.011  0.7267 -1.8778  0.1878
 5597SOL    HW228254   2.070   0.259   8.118 -1.2675 -1.8969  1.7401
 5598SOL     OW28255   4.134   1.694   2.352  0.9382 -0.0573  0.7878
 5598SOL    HW128256   4.198   1.764   2.367 -1.3876  1.4001  3.8060
 5598SOL    HW228257   4.132   1.652   2.438 -1.1820 -1.3394  0.0999
 5599SOL     OW28258   3.190   4.452  16.290 -0.5617  0.0104 -0.5882
 5599SOL    HW128259   3.275   4.473  16.251  0.6589 -0.8896  1.5556
 5599SOL    HW228260   3.169   4.529  16.343 -0.1912 -1.3292  1.5274
 5600SOL     OW28261   1.486   4.670  15.109  0.3083 -0.3730 -0.0846
 5600SOL    HW128262   1.424   4.600  15.088 -1.4336  1.1178  0.1401
 5600SOL    HW228263   1.465   0.019  15.048 -1.7566  0.2487  1.3600
 5601SOL     OW28264   1.987   1.914  13.910  0.1869  0.3752 -0.4288
 5601SOL    HW128265   2.026   2.001  13.905  0.2835  0.3144 -0.7421
 5601SOL    HW228266   2.062   1.867  13.948 -0.0955  0.4024  0.1643
 5602SOL     OW28267   3.298   0.431   1.014 -1.0675  0.2811 -0.3675
 5602SOL    HW128268   3.208   0.406   1.034 -1.4272  0.5718 -1.5873
 5602SOL    HW228269   3.286   0.507   0.958 -0.1880 -0.2112 -1.2243
 5603SOL     OW28270   2.130   1.477   4.093 -0.9549 -0.0407 -0.2281
 5603SOL    HW128271   2.082   1.546   4.048 -2.0581 -0.3721  0.4433
 5603SOL    HW228272   2.071   1.443   4.161 -0.8040 -3.7256 -1.9217
 5604SOL     OW28273   2.516   3.203   2.978 -0.3260  0.7686  0.0601
 5604SOL    HW128274   2.591   3.143   2.976  0.7410  2.0000  3.0031
 5604SOL    HW228275   2.473   3.160   3.051 -1.1700  2.3172  0.4676
 5605SOL     OW28276   1.882   4.383  12.102  0.1062  0.0019 -0.2105
 5605SOL    HW128277   1.919   4.300  12.134  0.8798  0.2912 -0.3737
 5605SOL    HW228278   1.809   4.391  12.163 -1.9077 -1.6556 -2.3802
 5606SOL     OW28279   4.642   4.667   7.494 -0.5604 -0.0264  0.6046
 5606SOL    HW128280   4.699   4.592   7.479 -1.5588 -0.9859  1.6331
 5606SOL    HW228281   4.666   4.669   7.587  2.2220 -0.3589 -0.1069
 5607SOL     OW28282   4.236   2.567   2.820 -0.8313  0.4133  0.3043
 5607SOL    HW128283   4.213   2.620   2.744 -0.0458  1.0335  0.4960
 5607SOL    HW228284   4.327   2.597   2.819 -0.3310 -1.1205  1.8211
 5608SOL     OW28285   3.032   2.430   8.317  0.1372  0.1088 -0.1980
 5608SOL    HW128286   3.051   2.428   8.410 -1.1606  0.2856  0.0757
 5608SOL    HW228287   3.018   2.336   8.301  2.2345 -0.1357 -0.6075
 5609SOL     OW28288   0.759   2.713   5.671 -0.3273  0.5404  0.5975
 5609SOL    HW128289   0.837   2.665   5.645 -1.5947 -1.2280  0.0875
 5609SOL    HW228290   0.691   2.652   5.644  0.0374  0.9808 -1.2692
 5610SOL     OW28291   0.303   3.487   6.629 -0.0825  0.2100  0.0092
 5610SOL    HW128292   0.225   3.477   6.684  0.5038 -1.7545  0.4654
 5610SOL    HW228293   0.282   3.419   6.565  2.3298  0.6569 -1.2576
 5611SOL     OW28294   2.691   2.459   7.020  0.3657  0.0860 -0.2999
 5611SOL    HW128295   2.686   2.476   7.114 -1.5318  0.9088 -0.5649
 5611SOL    HW228296   2.645   2.534   6.984  1.1549  0.2135 -1.0336
 5612SOL     OW28297   1.642   2.411   8.674  0.0505  0.8186  0.4168
 5612SOL    HW128298   1.618   2.327   8.634  1.3763  1.0305 -0.8128
 5612SOL    HW228299   1.596   2.425   8.757  0.6565 -4.4850  1.6369
 5613SOL     OW28300   0.260   2.616   4.831  0.7574  0.1285  0.0557
 5613SOL    HW128301   0.321   2.569   4.773  0.1672 -0.2488 -0.2634
 5613SOL    HW228302   0.222   2.671   4.763 -1.1020  0.6774  1.5526
 5614SOL     OW28303   2.326   1.654   6.855  0.2105 -0.4314  0.2274
 5614SOL    HW128304   2.376   1.734   6.838 -0.4296  0.5592  3.0017
 5614SOL    HW228305   2.244   1.670   6.808  1.1801  0.4908 -1.1468
 5615SOL     OW28306   3.773   3.862   8.416 -0.2368  0.0705  0.5528
 5615SOL    HW128307   3.769   3.802   8.491 -1.0227 -0.7932 -0.1809
 5615SOL    HW228308   3.686   3.867   8.379 -0.1059  1.0190  0.3868
 5616SOL     OW28309   1.341   4.693   5.702 -0.7014 -0.0793  0.2488
 5616SOL    HW128310   1.344   4.700   5.607  3.0017 -0.1193  0.3813
 5616SOL    HW228311   1.320   4.601   5.712 -0.2406 -0.2848 -0.7381
 5617SOL     OW28312   2.539   0.282   3.756 -0.6168 -0.2709 -0.1823
 5617SOL    HW128313   2.480   0.332   3.699 -1.1477 -1.9318 -1.0874
 5617SOL    HW228314   2.573   0.223   3.689  2.1765  0.7714  0.3152
 5618SOL     OW28315   3.432   3.085  15.571 -0.4284  0.2876 -0.0183
 5618SOL    HW128316   3.448   3.065  15.478  2.5174  2.6599 -0.0272
 5618SOL    HW228317   3.512   3.038  15.594 -1.3586 -0.8014  1.0013
 5619SOL     OW28318   1.828   4.148   4.522 -0.0858 -0.2595 -0.1926
 5619SOL    HW128319   1.868   4.134   4.608 -0.0859 -0.1919 -0.1815
 5619SOL    HW228320   1.763   4.214   4.544 -0.6732 -0.5124 -1.1928
 5620SOL     OW28321   0.853   3.473   8.057  0.0195 -0.1176 -0.4417
 5620SOL    HW128322   0.924   3.414   8.080 -1.6467 -0.1121  4.5349
 5620SOL    HW228323   0.831   3.507   8.143  0.9553 -2.9518  0.8951
 5621SOL     OW28324   0.956   2.284   8.075 -0.2537  0.6436 -0.1918
 5621SOL    HW128325   1.009   2.281   8.155 -0.8171  3.2493  0.2880
 5621SOL    HW228326   1.002   2.221   8.020  2.1312  0.2474  2.2376
 5622SOL     OW28327   3.502   1.011   3.753  0.5187 -0.0795 -0.3413
 5622SOL    HW128328   3.456   0.954   3.815  1.5390 -2.2626 -1.5609
 5622SOL    HW228329   3.426   1.054   3.717 -0.0670 -0.9337 -0.1333
 5623SOL     OW28330   0.723   3.454  12.611  0.5700 -0.1957 -1.0419
 5623SOL    HW128331   0.729   3.363  12.582 -1.7802 -0.7521  0.1825
 5623SOL    HW228332   0.680   3.449  12.697  1.3215 -2.9051 -0.8092
 5624SOL     OW28333   2.306   4.548   5.969  0.0679  0.1594 -0.1606
 5624SOL    HW128334   2.345   4.633   5.988  1.3999  0.0550 -2.4987
 5624SOL    HW228335   2.375   4.481   5.975  1.6751  1.8295 -0.0320
 5625SOL     OW28336   2.020   0.138   3.533  0.1815 -0.2856 -0.1054
 5625SOL    HW128337   1.945   0.165   3.587  1.0693 -0.5670  1.2736
 5625SOL    HW228338   1.993   0.171   3.447  0.0891  1.0311  0.4213
 5626SOL     OW28339   3.696   2.410  10.074 -0.2619 -0.3335  0.4823
 5626SOL    HW128340   3.692   2.505  10.070  4.0079 -0.1562  0.7594
 5626SOL    HW228341   3.792   2.408  10.077 -0.3899 -3.8601  1.8816
 5627SOL     OW28342   2.285   3.320   8.066  0.0094  0.2946  0.6815
 5627SOL    HW128343   2.327   3.275   7.993  0.3295  1.0726  0.3834
 5627SOL    HW228344   2.358   3.372   8.099  0.0928 -0.0234  1.0024
 5628SOL     OW28345   2.407   2.048   2.723  0.2553 -0.2457 -0.3984
 5628SOL    HW128346   2.338   1.984   2.705 -2.2027  2.0271  0.8957
 5628SOL    HW228347   2.440   2.049   2.634 -1.5720 -0.1067 -1.0643
 5629SOL     OW28348   3.079   4.060  15.190 -0.3766  0.4231  0.0918
 5629SOL    HW128349   3.055   4.119  15.262 -1.1704  0.8006 -0.4717
 5629SOL    HW228350   3.048   3.978  15.229 -0.0145  0.0463 -0.4230
 5630SOL     OW28351   3.606   3.555  11.545  0.9430 -0.0979  0.1224
 5630SOL    HW128352   3.528   3.579  11.595  0.2762  0.1714 -1.0572
 5630SOL    HW228353   3.670   3.536  11.614  0.9863  1.2652  0.4563
 5631SOL     OW28354   4.270   1.047   3.907 -0.1126  0.4341  0.1448
 5631SOL    HW128355   4.280   1.142   3.913 -0.6809  0.7095 -3.0592
 5631SOL    HW228356   4.343   1.021   3.962 -1.4613 -0.5050  1.4952
 5632SOL     OW28357   1.745   1.977   8.991  0.6757 -0.4506  0.5528
 5632SOL    HW128358   1.653   2.005   8.987  0.5933 -0.8677 -0.4152
 5632SOL    HW228359   1.732   1.919   9.066 -1.3484 -1.7598 -0.8127
 5633SOL     OW28360   3.639   1.911  13.054 -0.1956  0.7220 -0.6500
 5633SOL    HW128361   3.644   1.998  13.094 -0.3629  0.5720 -0.3019
 5633SOL    HW228362   3.695   1.864  13.116 -0.5348 -1.4076 -1.9617
 5634SOL     OW28363   2.079   2.147  11.812 -0.0344  0.0539  0.4004
 5634SOL    HW128364   2.089   2.056  11.786 -0.5765 -0.2110  1.1566
 5634SOL    HW228365   2.143   2.194  11.757  0.6928 -1.7236 -0.2839
 5635SOL     OW28366   0.404   4.072   5.325  0.4763 -0.3967  0.0532
 5635SOL    HW128367   0.490   4.116   5.323  1.3282 -2.1042 -0.7255
 5635SOL    HW228368   0.413   4.012   5.399  0.0104  0.0452  0.4630
 5636SOL     OW28369   1.517   4.671  11.895  0.0524 -0.6637 -0.4227
 5636SOL    HW128370   1.423   4.651  11.898 -0.1439  0.4017  0.5535
 5636SOL    HW228371   1.535   4.674  11.989  1.0430 -0.5670 -0.6210
 5637SOL     OW28372   3.002   4.432   5.135  0.0930 -0.9801  0.3614
 5637SOL    HW128373   2.996   4.486   5.056  0.3839 -1.4705  0.0042
 5637SOL    HW228374   2.944   4.486   5.188 -0.0386 -0.6561 -0.1110
 5638SOL     OW28375   3.707   1.818   3.663  0.4681 -0.2377  0.7406
 5638SOL    HW128376   3.653   1.786   3.735 -0.2364  2.7049  1.5339
 5638SOL    HW228377   3.763   1.742   3.646  2.1120  1.5452 -1.8463
 5639SOL     OW28378   1.696   0.712   8.606 -0.2728  0.1271  0.0336
 5639SOL    HW128379   1.607   0.684   8.587  0.0604 -1.6858  1.1281
 5639SOL    HW228380   1.678   0.760   8.687  1.5406  0.5983  0.1651
 5640SOL     OW28381   2.765   4.302   5.418  0.4750 -0.2146 -0.4265
 5640SOL    HW128382   2.699   4.312   5.487  0.2528 -0.0187 -0.6675
 5640SOL    HW228383   2.719   4.231   5.373  0.3261 -0.2634 -0.1957
 5641SOL     OW28384   1.785   2.364   1.011  0.1456 -0.2922 -0.4473
 5641SOL    HW128385   1.822   2.444   0.974 -0.5693  0.7252  1.0318
 5641SOL    HW228386   1.825   2.296   0.958 -2.1332 -0.8915 -1.4045
 5642SOL     OW28387   3.665   2.342  12.893 -0.3621  0.0788  0.5195
 5642SOL    HW128388   3.662   2.410  12.825  0.8343  0.4127  0.7985
 5642SOL    HW228389   3.723   2.389  12.952 -0.0671 -0.1050  0.3776
 5643SOL     OW28390   0.715   3.734   2.301  0.2462 -0.0540 -0.3872
 5643SOL    HW128391   0.761   3.785   2.234  0.1662  0.1499 -0.2887
 5643SOL    HW228392   0.644   3.683   2.261  0.3319 -0.9827  0.6608
 5644SOL     OW28393   2.550   0.673  16.509  0.1391 -0.3001 -0.2909
 5644SOL    HW128394   2.513   0.672  16.421 -2.0344  1.4411  0.6150
 5644SOL    HW228395   2.602   0.754  16.517  0.4060 -0.6530  1.5183
 5645SOL     OW28396   2.946   4.440   8.297  0.0918  0.8581 -0.2076
 5645SOL    HW128397   3.013   4.486   8.349 -2.0417  1.6767  1.7961
 5645SOL    HW228398   2.877   4.426   8.362 -0.6329  1.3011 -0.8777
 5646SOL     OW28399   2.807   1.987   4.456  0.3669  0.2073  0.3493
 5646SOL    HW128400   2.778   2.011   4.368 -1.4448  3.1258  1.7701
 5646SOL    HW228401   2.722   2.005   4.496 -0.0986 -1.1994 -0.0162
 5647SOL     OW28402   0.627   0.022   6.176 -0.0995  0.2872  0.0734
 5647SOL    HW128403   0.589   4.669   6.223 -0.5884 -1.2351 -2.7833
 5647SOL    HW228404   0.713   4.715   6.146  0.3549  0.4071  1.2438
 5648SOL     OW28405   0.707   1.960  17.363  0.6171  0.0465 -0.5222
 5648SOL    HW128406   0.652   2.037  17.348 -3.4507 -3.4566 -3.2401
 5648SOL    HW228407   0.791   1.976  17.319  0.3706 -0.4071 -1.1549
 5649SOL     OW28408   1.569   3.467   0.769 -0.3301  0.3705  0.4671
 5649SOL    HW128409   1.593   3.455   0.677 -0.3644  1.0892  0.3592
 5649SOL    HW228410   1.621   3.544   0.793  1.2811 -0.4805 -0.3336
 5650SOL     OW28411   3.532   0.522   8.179 -0.3478  0.0883 -0.5748
 5650SOL    HW128412   3.438   0.521   8.164  0.2420  2.3164 -4.3868
 5650SOL    HW228413   3.563   0.537   8.090  0.3869 -0.3112 -0.3908
 5651SOL     OW28414   0.454   1.064   2.206  0.2451 -0.1086  0.4920
 5651SOL    HW128415   0.487   1.092   2.291 -1.0958  2.5938  0.1110
 5651SOL    HW228416   0.441   1.147   2.160 -0.6336 -0.1773  0.6288
 5652SOL     OW28417   3.635   3.761   8.079 -0.0050  0.4394  0.1077
 5652SOL    HW128418   3.650   3.777   7.986  0.6251 -2.8801 -0.3461
 5652SOL    HW228419   3.559   3.816   8.099 -0.2321 -0.2139  1.0161
 5653SOL     OW28420   4.038   1.615   3.140 -0.6610  0.0145  0.0768
 5653SOL    HW128421   4.009   1.575   3.222 -2.2242 -1.2053 -1.0732
 5653SOL    HW228422   4.008   1.705   3.153  0.2250  0.3235  0.0189
 5654SOL     OW28423   1.056   3.633   4.266  0.3776  0.1110 -0.1580
 5654SOL    HW128424   1.108   3.659   4.190  3.0021  1.5501  2.1181
 5654SOL    HW228425   0.966   3.637   4.232  0.6393  0.7798 -0.7912
 5655SOL     OW28426   0.884   0.552   8.251 -0.2036 -0.4861  0.0144
 5655SOL    HW128427   0.874   0.623   8.187  1.8378 -0.7685 -0.6072
 5655SOL    HW228428   0.800   0.552   8.297  0.2443  1.9833  0.8346
 5656SOL     OW28429   3.179   0.363   8.803  0.3156 -0.5596 -0.2240
 5656SOL    HW128430   3.222   0.295   8.750  1.1839  1.4200 -2.0888
 5656SOL    HW228431   3.157   0.305   8.876  1.3468  1.4073  1.6355
 5657SOL     OW28432   1.723   4.386  11.547 -0.0096  0.3226  0.1259
 5657SOL    HW128433   1.760   4.305  11.512  1.8196  0.8096  0.9778
 5657SOL    HW228434   1.642   4.384  11.496  1.2726  2.2730 -1.9645
 5658SOL     OW28435   0.493   1.003   7.590 -0.0167  0.3722 -0.6045
 5658SOL    HW128436   0.571   0.953   7.615 -0.3021  0.6978  0.9963
 5658SOL    HW228437   0.512   1.096   7.606  0.5352  0.8804 -4.3181
 5659SOL     OW28438   4.418   0.905  11.753  0.0271 -0.4427  0.1727
 5659SOL    HW128439   4.473   0.981  11.775 -2.6882  0.5304  3.6587
 5659SOL    HW228440   4.335   0.944  11.779  1.0919  2.6662 -1.0264
 5660SOL     OW28441   2.333   4.711   4.441  0.3891 -0.2262  0.0765
 5660SOL    HW128442   2.388   0.015   4.515 -1.3533 -0.0602  1.3134
 5660SOL    HW228443   2.324   0.078   4.407 -0.4663  0.0677  1.0520
 5661SOL     OW28444   1.016   0.094   8.896 -0.0600  0.0700 -0.1061
 5661SOL    HW128445   1.091   0.042   8.865 -0.5460  0.5879 -2.1112
 5661SOL    HW228446   0.959   0.036   8.946  1.1426 -0.2790  0.8689
 5662SOL     OW28447   1.099   2.128   7.907 -0.6407  0.7636  0.6234
 5662SOL    HW128448   1.114   2.036   7.932  0.6052  1.6962  3.3115
 5662SOL    HW228449   1.189   2.155   7.926  0.2813 -2.8424  1.3808
 5663SOL     OW28450   3.895   1.456   1.240 -0.0127 -0.2325  0.1343
 5663SOL    HW128451   3.873   1.480   1.150  0.1037 -0.7785 -0.0368
 5663SOL    HW228452   3.926   1.541   1.271  0.7069  0.4061 -2.3193
 5664SOL     OW28453   0.640   2.937   9.740  0.2427  0.7821 -0.2348
 5664SOL    HW128454   0.638   2.858   9.793  0.1967  0.7747 -0.2478
 5664SOL    HW228455   0.603   3.012   9.786 -0.5990 -0.9084  1.8312
 5665SOL     OW28456   3.684   0.777  15.634  0.5079  0.6999 -0.2718
 5665SOL    HW128457   3.736   0.737  15.703 -0.2882  1.5007  0.8131
 5665SOL    HW228458   3.667   0.697  15.583 -2.1220  0.5132  0.8777
 5666SOL     OW28459   0.339   1.418  15.114  0.2540  0.1707  0.8772
 5666SOL    HW128460   0.418   1.427  15.060 -0.5596  0.1361 -0.2982
 5666SOL    HW228461   0.283   1.367  15.055 -0.2252  0.5685  0.9928
 5667SOL     OW28462   3.630   1.103   0.837  0.1523 -0.1800  0.6687
 5667SOL    HW128463   3.643   1.169   0.905 -0.3417  0.6097 -0.0055
 5667SOL    HW228464   3.585   1.157   0.773 -0.0680  1.7850  2.4720
 5668SOL     OW28465   2.256   2.284   4.146  0.4215  0.3405 -0.3189
 5668SOL    HW128466   2.329   2.248   4.197  2.1296  1.4094 -1.9906
 5668SOL    HW228467   2.192   2.315   4.210  0.5584  0.4546 -0.2368
 5669SOL     OW28468   1.033   0.954  13.685 -0.1043 -0.4267  0.1850
 5669SOL    HW128469   1.121   0.934  13.718  0.7608  2.4627 -0.3481
 5669SOL    HW228470   1.056   0.998  13.603  0.3486  0.7694  0.9450
 5670SOL     OW28471   0.327   2.267   8.869  0.3919 -0.3695  0.6056
 5670SOL    HW128472   0.256   2.211   8.838  0.1277  0.1176  0.3343
 5670SOL    HW228473   0.281   2.325   8.929  1.6332  0.8663  0.3594
 5671SOL     OW28474   0.725   4.240   1.655 -0.1700 -0.1611  0.2133
 5671SOL    HW128475   0.774   4.322   1.652  2.0773 -1.4147  2.1648
 5671SOL    HW228476   0.740   4.215   1.746 -1.1804 -0.4779  0.2981
 5672SOL     OW28477   0.467   4.518  15.178  0.4160 -0.7894  0.5558
 5672SOL    HW128478   0.498   4.454  15.115 -0.1851  0.0979 -0.6274
 5672SOL    HW228479   0.521   4.596  15.187  0.4505 -1.0508  2.8110
 5673SOL     OW28480   3.037   0.728   0.552  0.0620  0.2266 -0.3950
 5673SOL    HW128481   2.976   0.756   0.483 -0.9075 -1.3743 -0.1925
 5673SOL    HW228482   3.016   0.636   0.567  1.1842  0.0395 -0.0376
 5674SOL     OW28483   4.474   3.941   8.089 -0.3915 -0.0412  0.4415
 5674SOL    HW128484   4.460   4.016   8.031  1.7904 -0.2713 -0.3437
 5674SOL    HW228485   4.397   3.887   8.069  1.4818 -2.4583 -0.1594
 5675SOL     OW28486   2.393   1.126   0.227  0.4204 -0.4481 -0.2631
 5675SOL    HW128487   2.323   1.186   0.253  0.6909  0.2029 -1.0601
 5675SOL    HW228488   2.434   1.111   0.312 -0.4916  1.0984  0.4488
 5676SOL     OW28489   3.862   2.211   2.889  0.2113  0.1454 -0.2775
 5676SOL    HW128490   3.912   2.292   2.899 -0.3280  0.5693 -0.9953
 5676SOL    HW228491   3.925   2.168   2.831  0.5082  1.0253 -0.6009
 5677SOL     OW28492   1.256   2.466   2.345  0.2085 -0.0610  0.2548
 5677SOL    HW128493   1.300   2.544   2.380 -0.6335  1.2500 -1.6589
 5677SOL    HW228494   1.314   2.429   2.279  0.4858 -1.1738  1.1127
 5678SOL     OW28495   3.605   1.857  13.433 -0.0036 -0.0799  0.3604
 5678SOL    HW128496   3.621   1.821  13.520 -1.6267 -1.6533  0.0081
 5678SOL    HW228497   3.668   1.820  13.372  2.0734  0.6720  2.0687
 5679SOL     OW28498   0.382   0.375   1.217 -0.0158  0.0841  0.5668
 5679SOL    HW128499   0.405   0.415   1.134  0.9486 -0.9240  0.3531
 5679SOL    HW228500   0.462   0.379   1.270 -0.8880 -0.8147  1.9725
 5680SOL     OW28501   0.210   2.791   8.163  0.0097  0.1571 -0.3333
 5680SOL    HW128502   0.214   2.696   8.170 -3.0594 -0.1185 -2.3880
 5680SOL    HW228503   0.118   2.810   8.179  0.4760  1.5392  0.7838
 5681SOL     OW28504   0.621   4.111   8.689  0.0852 -0.2579 -0.2382
 5681SOL    HW128505   0.578   4.183   8.734  1.4878  0.5019 -0.1227
 5681SOL    HW228506   0.692   4.160   8.647 -0.9282  0.9281 -0.5521
 5682SOL     OW28507   2.556   0.771   0.752  0.4008 -0.3304 -0.5240
 5682SOL    HW128508   2.586   0.753   0.841 -1.1717  2.9484  0.6720
 5682SOL    HW228509   2.556   0.866   0.764 -2.2599 -0.2677 -1.2322
 5683SOL     OW28510   2.142   3.544   5.213 -0.0491 -0.0070 -0.0420
 5683SOL    HW128511   2.047   3.541   5.198 -0.2960  1.3372  1.2077
 5683SOL    HW228512   2.186   3.527   5.130  1.5145  1.0546  0.5757
 5684SOL     OW28513   1.402   2.574   2.897  0.2285  0.2789 -0.0440
 5684SOL    HW128514   1.473   2.535   2.846  0.6905 -0.6765  1.3167
 5684SOL    HW228515   1.437   2.660   2.876  0.5145 -0.4346 -2.5315
 5685SOL     OW28516   3.294   1.607  12.360 -0.5338 -0.2446 -0.2109
 5685SOL    HW128517   3.354   1.622  12.287  1.3198  0.2860  1.4112
 5685SOL    HW228518   3.322   1.517  12.379  1.2082  0.5913  1.2256
 5686SOL     OW28519   0.992   3.022   3.267 -0.3902  0.2676 -0.2640
 5686SOL    HW128520   0.975   3.116   3.268 -0.9499  0.1886 -1.6020
 5686SOL    HW228521   0.906   2.992   3.237 -0.5188 -0.4980  0.8658
 5687SOL     OW28522   2.164   3.307   3.220 -0.7686  0.5192 -0.8764
 5687SOL    HW128523   2.091   3.272   3.270 -0.4917 -0.2555 -1.0223
 5687SOL    HW228524   2.228   3.311   3.291 -2.6762  0.7059  0.8238
 5688SOL     OW28525   0.044   1.106  10.126  0.0374 -0.3641 -0.0735
 5688SOL    HW128526   0.103   1.034  10.150 -1.1650 -1.3324  0.0050
 5688SOL    HW228527   4.715   1.119  10.206  0.2807 -2.1838  0.3803
 5689SOL     OW28528   1.090   1.058   2.563 -0.2570  0.0525  0.2833
 5689SOL    HW128529   1.063   1.017   2.645 -1.5345  0.2041 -0.0612
 5689SOL    HW228530   1.002   1.088   2.540  0.8439  2.6338 -0.6203
 5690SOL     OW28531   2.621   3.453  11.993 -0.1547  0.0028  0.3080
 5690SOL    HW128532   2.673   3.419  11.920 -0.3134  0.4406 -0.0031
 5690SOL    HW228533   2.687   3.516  12.021  0.7144  0.5125 -2.9784
 5691SOL     OW28534   2.559   3.999   9.266  0.6325 -0.2072  0.3981
 5691SOL    HW128535   2.587   4.088   9.245  1.1441 -0.3207  0.6006
 5691SOL    HW228536   2.484   3.992   9.207  1.7378 -0.9337 -0.9376
 5692SOL     OW28537   1.585   3.602   7.289 -0.3502  0.1929 -0.0779
 5692SOL    HW128538   1.608   3.664   7.219  2.4325 -0.2570  0.4126
 5692SOL    HW228539   1.572   3.524   7.236  2.1530  0.0966 -0.5663
 5693SOL     OW28540   1.399   3.151   4.568  0.6621 -0.1717  0.2592
 5693SOL    HW128541   1.493   3.163   4.583  0.9228 -1.3666 -0.4050
 5693SOL    HW228542   1.380   3.108   4.652  1.3665  0.1196  0.5656
 5694SOL     OW28543   1.199   2.075   3.116 -0.2577 -0.7587 -0.0079
 5694SOL    HW128544   1.182   2.084   3.022 -1.3683  1.2414  0.3866
 5694SOL    HW228545   1.293   2.058   3.108 -0.2051 -0.4538 -0.0581
 5695SOL     OW28546   4.345   3.845   2.922 -0.0134 -0.0251 -0.6881
 5695SOL    HW128547   4.270   3.808   2.968 -0.2258  0.7569 -0.4038
 5695SOL    HW228548   4.303   3.919   2.878  1.8872  1.4999  0.0758
 5696SOL     OW28549   2.423   3.079   4.325 -0.9009  0.3234 -0.2151
 5696SOL    HW128550   2.413   3.053   4.233 -0.9922  0.7224 -0.3157
 5696SOL    HW228551   2.478   3.015   4.370 -0.6880  0.7864  0.1785
 5697SOL     OW28552   1.634   0.975   1.898 -0.7884  0.0592 -0.2461
 5697SOL    HW128553   1.677   0.976   1.983 -0.7618  1.3766 -0.2744
 5697SOL    HW228554   1.699   0.935   1.840 -1.6481  0.4320 -1.4748
 5698SOL     OW28555   3.524   0.985   1.624  0.6677  0.0188 -0.3590
 5698SOL    HW128556   3.521   0.977   1.529  2.6575  0.7036 -0.4707
 5698SOL    HW228557   3.573   0.909   1.656  1.9893  0.1604 -2.0575
 5699SOL     OW28558   0.596   1.251  12.664  0.8231 -0.9422 -0.1318
 5699SOL    HW128559   0.642   1.321  12.618 -2.3672 -0.0775 -2.0087
 5699SOL    HW228560   0.628   1.279  12.750  0.9871 -1.2509 -0.0940
 5700SOL     OW28561   4.207   3.172   8.562 -0.6176  0.0858 -0.1557
 5700SOL    HW128562   4.255   3.255   8.571  0.8773 -1.1936  3.9741
 5700SOL    HW228563   4.266   3.121   8.506  1.7340  0.5402  1.9140
 5701SOL     OW28564   2.316   0.935   6.269  0.4302  0.2010 -0.4232
 5701SOL    HW128565   2.354   0.976   6.192  0.2376  2.3097  0.6084
 5701SOL    HW228566   2.331   0.840   6.268 -0.0921  0.1640 -3.1633
 5702SOL     OW28567   3.516   3.428  12.012  1.1640  0.0934 -0.0980
 5702SOL    HW128568   3.447   3.369  11.982  1.7904  0.9560 -3.2314
 5702SOL    HW228569   3.463   3.504  12.035  0.6507 -0.5949  0.9959
 5703SOL     OW28570   1.454   3.630   5.752  0.8046  0.0623  0.0689
 5703SOL    HW128571   1.549   3.626   5.756  0.6112 -0.0270  3.8110
 5703SOL    HW228572   1.440   3.579   5.672 -0.9530 -0.5430  0.7446
 5704SOL     OW28573   4.205   2.216  12.893  0.2111  0.0102  0.0979
 5704SOL    HW128574   4.300   2.225  12.891  0.2743 -0.9177 -1.2805
 5704SOL    HW228575   4.181   2.308  12.888 -2.8826 -0.8277 -0.9100
 5705SOL     OW28576   1.229   0.971  12.156  0.0634  0.3943 -0.2049
 5705SOL    HW128577   1.245   1.053  12.203  0.7967 -0.4507  0.9956
 5705SOL    HW228578   1.323   0.962  12.146 -0.0602  0.4462 -1.4927
 5706SOL     OW28579   2.465   2.416   8.227 -0.3115 -0.7979 -0.2267
 5706SOL    HW128580   2.443   2.425   8.134  0.0990  2.4368 -0.0382
 5706SOL    HW228581   2.466   2.504   8.265  0.5803 -1.2769  0.8592
 5707SOL     OW28582   1.194   0.376   4.589 -0.1723 -0.2438  0.1064
 5707SOL    HW128583   1.215   0.329   4.670  0.8393 -1.4846 -0.8754
 5707SOL    HW228584   1.274   0.376   4.536 -1.9203 -1.1195 -2.5128
 5708SOL     OW28585   2.869   2.847   3.016 -0.2186  0.4389 -0.3854
 5708SOL    HW128586   2.961   2.827   3.029 -0.9235 -3.9450 -1.8448
 5708SOL    HW228587   2.824   2.790   3.079  0.3514  0.1805 -0.2081
 5709SOL     OW28588   1.546   1.412  11.974  0.5499  0.6936  0.0110
 5709SOL    HW128589   1.478   1.449  12.029  0.1257  0.7351 -0.5432
 5709SOL    HW228590   1.616   1.450  12.027  0.7411 -0.8609  0.8795
 5710SOL     OW28591   1.416   3.762   4.229 -0.1309 -0.5058 -0.6811
 5710SOL    HW128592   1.367   3.782   4.149 -0.5351  2.1165  0.2354
 5710SOL    HW228593   1.434   3.668   4.223  1.2539 -0.0854 -3.1884
 5711SOL     OW28594   4.539   2.905   4.647  0.1399  0.2812 -0.0949
 5711SOL    HW128595   4.493   2.982   4.683  0.4373  0.2049  0.4486
 5711SOL    HW228596   4.508   2.913   4.557  0.4917 -1.3476 -0.3511
 5712SOL     OW28597   0.340   0.346  13.152 -0.2669 -0.0221 -0.4216
 5712SOL    HW128598   0.391   0.383  13.079  2.2843 -0.5629  1.1086
 5712SOL    HW228599   0.314   0.432  13.186  0.4187  0.0908 -0.1749
 5713SOL     OW28600   1.899   1.362   3.500 -0.1457 -0.1275  0.6709
 5713SOL    HW128601   1.992   1.349   3.478 -0.5622 -0.1990 -1.0677
 5713SOL    HW228602   1.880   1.455   3.492 -1.6333 -0.8396 -4.4221
 5714SOL     OW28603   0.342   4.647  17.544  0.5051 -0.3493 -0.6097
 5714SOL    HW128604   0.250   4.669  17.554  0.4836 -0.0663 -1.4564
 5714SOL    HW228605   0.346   4.647  17.448  0.8115 -0.1573 -0.5968
 5715SOL     OW28606   2.685   0.802   9.040  0.1886 -0.2048 -0.6760
 5715SOL    HW128607   2.762   0.817   8.986  0.3004 -1.6547 -0.9199
 5715SOL    HW228608   2.619   0.794   8.971 -0.5871  0.6771 -0.0422
 5716SOL     OW28609   3.093   1.773   1.424 -0.1985  0.7204 -0.3058
 5716SOL    HW128610   3.048   1.697   1.459  1.2004  0.3732  0.7584
 5716SOL    HW228611   3.039   1.841   1.464 -0.2466  0.0658  0.7361
 5717SOL     OW28612   2.243   4.303   7.600  0.5563  0.1197  0.0437
 5717SOL    HW128613   2.270   4.395   7.596  0.3689  0.1873  0.3327
 5717SOL    HW228614   2.150   4.304   7.624  0.6510  2.1602  0.3219
 5718SOL     OW28615   2.608   3.446  16.205  0.4266 -0.9626 -0.5021
 5718SOL    HW128616   2.625   3.354  16.188  1.1758 -0.9855  0.3488
 5718SOL    HW228617   2.694   3.489  16.199 -0.1522  0.6507  2.7196
 5719SOL     OW28618   2.218   1.258   5.652  0.3042  0.0552 -0.0577
 5719SOL    HW128619   2.224   1.168   5.620 -0.5604 -0.9904  2.7249
 5719SOL    HW228620   2.152   1.247   5.720  2.2485  1.5951  2.0425
 5720SOL     OW28621   4.636   4.247   9.280  0.7313  0.5243 -0.0289
 5720SOL    HW128622   4.692   4.322   9.299  0.2306  0.8466  0.1625
 5720SOL    HW228623   4.697   4.193   9.229  1.7961 -0.1286  1.9421
 5721SOL     OW28624   3.709   0.969   8.697  0.0754 -0.1029 -0.4304
 5721SOL    HW128625   3.713   0.908   8.623  0.1536  0.2122 -0.6870
 5721SOL    HW228626   3.616   0.991   8.703  0.3738  0.6967  1.2021
 5722SOL     OW28627   3.545   3.249  16.688 -0.9378  0.5174  0.1025
 5722SOL    HW128628   3.574   3.315  16.751 -0.7156  2.0454 -1.6128
 5722SOL    HW228629   3.453   3.240  16.712 -1.2272 -1.5744 -1.8080
 5723SOL     OW28630   0.343   1.928   3.594  0.1162  0.2112 -0.0891
 5723SOL    HW128631   0.271   1.988   3.611  1.3509  2.1027 -1.6603
 5723SOL    HW228632   0.322   1.897   3.506  3.0517  0.7791 -1.0022
 5724SOL     OW28633   4.617   2.404  13.105  0.5454  0.4641  0.0306
 5724SOL    HW128634   4.677   2.388  13.178 -0.7087 -5.7024 -0.2319
 5724SOL    HW228635   4.537   2.425  13.152  0.9485  1.4597  0.2629
 5725SOL     OW28636   1.439   0.255   3.215  0.4278 -0.5171  0.6769
 5725SOL    HW128637   1.403   0.329   3.166  1.1134 -0.3189  0.4703
 5725SOL    HW228638   1.478   0.205   3.144  0.4487 -0.7291  0.8377
 5726SOL     OW28639   0.819   3.833  15.875  0.4082  0.0942 -0.4244
 5726SOL    HW128640   0.740   3.779  15.878 -0.0749  0.7987 -0.4313
 5726SOL    HW228641   0.813   3.877  15.960 -1.4302  1.6893 -1.3702
 5727SOL     OW28642   4.370   4.315  12.565 -0.3543 -0.1634  0.0746
 5727SOL    HW128643   4.415   4.252  12.508 -0.3389  0.7614 -0.9305
 5727SOL    HW228644   4.325   4.265  12.633  1.0059 -1.1602  0.2547
 5728SOL     OW28645   0.651   0.857   4.397  0.1926 -0.2678  0.0457
 5728SOL    HW128646   0.582   0.798   4.366  1.1522 -0.9133 -0.9052
 5728SOL    HW228647   0.734   0.813   4.377  0.9258  1.4638 -0.7288
 5729SOL     OW28648   2.996   4.308  14.130  0.3463 -0.6856  0.3070
 5729SOL    HW128649   3.053   4.347  14.063  0.0809 -1.2175 -0.2285
 5729SOL    HW228650   2.963   4.243  14.069  3.2336 -2.2514  0.3978
 5730SOL     OW28651   3.173   4.034   3.146 -0.4186  0.4975  0.2075
 5730SOL    HW128652   3.193   3.941   3.160 -0.3402  0.1011 -2.5923
 5730SOL    HW228653   3.255   4.045   3.097 -0.9852  3.4990 -0.0133
 5731SOL     OW28654   0.483   2.128  11.639 -0.3622 -0.9366  0.1503
 5731SOL    HW128655   0.460   2.076  11.562 -0.4430 -2.0322  0.9099
 5731SOL    HW228656   0.576   2.148  11.631 -0.9172  0.8078 -1.9302
 5732SOL     OW28657   1.015   0.347   5.709  0.1785 -0.3457 -0.3272
 5732SOL    HW128658   1.008   0.259   5.673 -0.7135 -0.6738  0.6574
 5732SOL    HW228659   0.984   0.340   5.799  0.7673 -0.5646 -0.1419
 5733SOL     OW28660   0.302   1.601   4.370  0.6812  0.2510 -0.5413
 5733SOL    HW128661   0.243   1.556   4.431 -0.0928  0.5784 -1.0556
 5733SOL    HW228662   0.389   1.574   4.401 -0.6647 -0.7508  2.3672
 5734SOL     OW28663   3.563   2.578   3.039 -0.0903  0.1901 -0.6139
 5734SOL    HW128664   3.619   2.604   2.965 -0.1816 -0.2150 -0.8249
 5734SOL    HW228665   3.476   2.567   3.000 -0.9919 -3.1047  2.3403
 5735SOL     OW28666   4.058   4.213   6.195 -0.5103  0.3342 -0.0271
 5735SOL    HW128667   4.100   4.212   6.281 -1.2444 -1.2764  0.3124
 5735SOL    HW228668   4.106   4.147   6.146  0.7196  1.4516 -0.3199
 5736SOL     OW28669   3.170   3.433   1.986  0.5963  0.2351  0.1302
 5736SOL    HW128670   3.239   3.393   1.933  1.9500  1.5748  0.8636
 5736SOL    HW228671   3.215   3.427   2.071 -0.6403 -1.3382  0.6696
 5737SOL     OW28672   2.991   0.651  15.144  0.5947 -0.5492 -0.1890
 5737SOL    HW128673   2.991   0.584  15.213 -0.6246 -0.6977 -0.3441
 5737SOL    HW228674   3.077   0.632  15.106  1.1933 -2.0190  1.8802
 5738SOL     OW28675   4.206   3.737   5.721 -0.4697 -0.7460 -0.2471
 5738SOL    HW128676   4.280   3.763   5.666 -1.4306  1.2064 -0.6114
 5738SOL    HW228677   4.249   3.682   5.786  0.7025  1.4705  0.8770
 5739SOL     OW28678   4.598   0.954   2.016 -0.2424 -0.8471  0.4938
 5739SOL    HW128679   4.617   1.006   1.938  1.5181 -0.2371  1.3367
 5739SOL    HW228680   4.684   0.920   2.039  0.5400  0.2917 -0.7642
 5740SOL     OW28681   4.285   1.409   3.313  0.1773  0.2194  0.0361
 5740SOL    HW128682   4.294   1.500   3.286  0.0491  0.8991  2.2762
 5740SOL    HW228683   4.217   1.386   3.249  0.7200 -1.5965  0.0932
 5741SOL     OW28684   3.459   4.364  10.043 -0.3696  0.1872  0.6060
 5741SOL    HW128685   3.525   4.425  10.075  0.9710 -1.1112  0.3242
 5741SOL    HW228686   3.401   4.418   9.990  0.0265 -0.7847 -0.8177
 5742SOL     OW28687   0.186   2.454   9.064 -0.1343  0.4995 -0.3026
 5742SOL    HW128688   0.229   2.400   9.130  0.4224  0.8674 -0.3655
 5742SOL    HW228689   0.152   2.520   9.125 -1.5265 -1.9633  1.6010
 5743SOL     OW28690   1.658   1.551   3.581 -0.0420 -0.8031 -0.6194
 5743SOL    HW128691   1.691   1.635   3.610  0.4985 -1.4106  0.5287
 5743SOL    HW228692   1.583   1.560   3.521  1.1157  0.2833 -1.8906
 5744SOL     OW28693   4.150   0.110   5.814 -0.0786 -0.7312 -0.1332
 5744SOL    HW128694   4.173   0.110   5.906 -0.4375 -0.8199 -0.0449
 5744SOL    HW228695   4.065   0.152   5.809  0.0920 -0.1873  1.6941
 5745SOL     OW28696   3.335   4.477   6.144 -0.2044 -0.0725  0.3128
 5745SOL    HW128697   3.406   4.488   6.208 -0.8742 -0.3926  1.1148
 5745SOL    HW228698   3.272   4.535   6.185 -0.5094  0.4327 -0.8774
 5746SOL     OW28699   3.968   0.021   0.636  0.2129  0.1086  0.0426
 5746SOL    HW128700   3.922   4.660   0.618  1.4279 -0.4263 -0.6085
 5746SOL    HW228701   4.026   0.023   0.560 -0.3839 -2.0578 -0.4815
 5747SOL     OW28702   0.658   4.149   6.108 -0.4437  0.2066 -0.6723
 5747SOL    HW128703   0.566   4.172   6.124 -0.1915  0.9241 -0.2484
 5747SOL    HW228704   0.675   4.177   6.018  0.1733  1.1821 -0.2523
 5748SOL     OW28705   3.455   2.967   4.774 -0.0270  0.7326 -0.0227
 5748SOL    HW128706   3.530   2.944   4.718 -1.0608  0.6960 -1.3838
 5748SOL    HW228707   3.502   3.037   4.819  0.5131 -0.4139  1.2075
 5749SOL     OW28708   0.762   1.243  15.297 -0.4916 -0.0239  0.3532
 5749SOL    HW128709   0.740   1.184  15.369 -0.9983 -0.1057  0.1296
 5749SOL    HW228710   0.841   1.199  15.265 -0.7169  0.0050 -0.2422
 5750SOL     OW28711   0.778   3.156   9.617 -0.2716  0.2880  0.0255
 5750SOL    HW128712   0.723   3.091   9.661  0.5396 -0.4078  0.0257
 5750SOL    HW228713   0.769   3.131   9.525 -0.9129  0.0241  0.1622
 5751SOL     OW28714   4.579   0.194  12.128 -0.3040  0.4096  0.5737
 5751SOL    HW128715   4.615   0.214  12.041  0.3458  1.2158  1.0262
 5751SOL    HW228716   4.512   0.263  12.135 -1.4734 -0.4810 -1.8290
 5752SOL     OW28717   3.108   3.463   2.839  0.3492  0.4683 -0.1794
 5752SOL    HW128718   3.055   3.486   2.763 -0.2437 -1.7605 -0.4281
 5752SOL    HW228719   3.084   3.370   2.840  1.0051  0.2845 -1.8961
 5753SOL     OW28720   1.474   3.222  15.367  0.5381  0.1838 -1.0055
 5753SOL    HW128721   1.445   3.251  15.453  0.6614 -0.8396 -0.6259
 5753SOL    HW228722   1.390   3.186  15.337 -0.1821  0.7465  0.3585
 5754SOL     OW28723   2.724   3.995   9.473  0.3764 -0.4475  0.3502
 5754SOL    HW128724   2.653   3.998   9.409  0.7839  0.0262 -0.0886
 5754SOL    HW228725   2.728   3.901   9.489 -0.5390 -1.0794 -3.1795
 5755SOL     OW28726   0.836   3.059   5.030  0.0599  0.0842 -0.3234
 5755SOL    HW128727   0.773   3.105   5.086  0.6662 -0.9739  1.2486
 5755SOL    HW228728   0.774   2.993   5.003 -0.7591  0.8685 -0.3631
 5756SOL     OW28729   4.641   3.733   3.541 -0.2736  0.0538 -0.0977
 5756SOL    HW128730   4.555   3.703   3.571 -0.0305  1.8930  2.4336
 5756SOL    HW228731   4.674   3.775   3.621  2.7235 -0.3800 -1.0905
 5757SOL     OW28732   0.740   0.774   5.495 -0.1615  0.1651  0.1703
 5757SOL    HW128733   0.772   0.692   5.531 -1.1845 -0.5158 -0.4882
 5757SOL    HW228734   0.698   0.810   5.573 -0.4195 -1.4329  0.7505
 5758SOL     OW28735   1.154   0.902   5.959 -0.4185 -0.3480 -0.2901
 5758SOL    HW128736   1.137   0.831   5.897 -0.7050 -1.1995  0.7573
 5758SOL    HW228737   1.244   0.929   5.942 -0.2270 -1.6039 -1.2435
 5759SOL     OW28738   3.349   2.455   5.150 -0.2748  0.0392  0.1512
 5759SOL    HW128739   3.437   2.489   5.132 -0.3314 -0.1514 -0.4542
 5759SOL    HW228740   3.348   2.370   5.106 -2.2639  0.7974 -1.2634
 5760SOL     OW28741   1.874   2.425  11.104 -0.5565  0.1474 -0.0338
 5760SOL    HW128742   1.831   2.350  11.145 -2.7536  0.7823 -1.1765
 5760SOL    HW228743   1.799   2.468  11.064 -2.4396 -1.4946  1.7166
 5761SOL     OW28744   2.395   0.468  13.866 -0.5340 -0.2029  0.2957
 5761SOL    HW128745   2.437   0.495  13.784 -2.9842  1.9086 -0.2895
 5761SOL    HW228746   2.334   0.417  13.814  1.0464 -1.2031 -0.5558
 5762SOL     OW28747   3.946   1.746   5.380 -0.0287 -0.6004  0.3281
 5762SOL    HW128748   3.956   1.818   5.443  0.0667  0.6975 -1.1586
 5762SOL    HW228749   3.931   1.796   5.300  2.7613  1.3607  1.0080
 5763SOL     OW28750   1.582   3.823   4.803 -0.4446 -0.4061 -0.0963
 5763SOL    HW128751   1.580   3.908   4.847  0.9491 -0.2393 -0.3463
 5763SOL    HW228752   1.606   3.845   4.713 -0.9185 -0.8524 -0.3331
 5764SOL     OW28753   3.769   3.490   1.163 -0.2587  0.7771  0.0941
 5764SOL    HW128754   3.757   3.449   1.248  1.0040  0.6705  0.2250
 5764SOL    HW228755   3.710   3.565   1.168  0.6745  1.4693  0.7053
 5765SOL     OW28756   3.193   4.137   2.630  0.3456  0.1356  0.0593
 5765SOL    HW128757   3.260   4.193   2.670  0.4167 -2.0297  2.9676
 5765SOL    HW228758   3.254   4.064   2.617  1.5072  0.5450  3.1506
 5766SOL     OW28759   3.250   1.454   8.703 -0.2554  0.9571  0.0447
 5766SOL    HW128760   3.343   1.477   8.697  0.0565 -0.2304  0.3349
 5766SOL    HW228761   3.210   1.528   8.657 -2.5945 -0.6474 -0.4456
 5767SOL     OW28762   3.119   2.089  12.264  0.2685  0.2405 -0.0819
 5767SOL    HW128763   3.082   2.168  12.304 -1.6080  0.4908 -2.2622
 5767SOL    HW228764   3.206   2.078  12.302  0.2628  0.7618  0.0795
 5768SOL     OW28765   1.416   2.111   5.391 -0.2934  0.3548 -0.4692
 5768SOL    HW128766   1.399   2.123   5.297  0.8290  0.1576 -0.7041
 5768SOL    HW228767   1.438   2.018   5.400 -2.2585 -0.0031  0.5778
 5769SOL     OW28768   3.715   0.841   3.039 -0.4048  0.3030 -0.1650
 5769SOL    HW128769   3.750   0.816   3.125  0.1509 -0.4101 -0.5996
 5769SOL    HW228770   3.626   0.851   3.072 -0.5786 -1.3822 -0.1530
 5770SOL     OW28771   1.303   1.889  14.946 -0.7849 -0.2031  0.2611
 5770SOL    HW128772   1.395   1.912  14.959 -1.1525  0.0369  2.3965
 5770SOL    HW228773   1.273   1.898  15.036 -2.0077  2.6660 -0.4536
 5771SOL     OW28774   0.845   1.394   3.294 -0.7451 -0.3677 -0.5038
 5771SOL    HW128775   0.888   1.479   3.286  2.0233 -1.3979  3.7503
 5771SOL    HW228776   0.795   1.409   3.374 -0.4520  0.5163 -0.4850
 5772SOL     OW28777   2.341   4.084  13.131  0.1759  0.5036  0.2818
 5772SOL    HW128778   2.329   4.056  13.040 -0.6950  2.5405 -0.2351
 5772SOL    HW228779   2.274   4.045  13.186 -0.1958  1.6920  0.6774
 5773SOL     OW28780   4.257   2.163   6.982 -0.4367 -0.3623 -0.0628
 5773SOL    HW128781   4.177   2.215   6.976 -0.5631 -0.6449 -0.8527
 5773SOL    HW228782   4.256   2.132   7.073  0.4956 -1.5154 -0.4366
 5774SOL     OW28783   1.746   2.291   9.967 -0.0980  0.3871  0.3580
 5774SOL    HW128784   1.665   2.279  10.017 -0.1131  0.5240  0.3654
 5774SOL    HW228785   1.730   2.225   9.900  0.3692 -0.3620  0.9804
 5775SOL     OW28786   4.606   4.201  12.361 -0.3691  0.4016 -0.2715
 5775SOL    HW128787   4.522   4.166  12.331  0.0808  0.3851 -1.5427
 5775SOL    HW228788   4.657   4.157  12.293 -1.3480 -0.4189 -0.4682
 5776SOL     OW28789   2.048   2.920   7.401  0.8329  0.2029  0.1738
 5776SOL    HW128790   2.087   2.988   7.456  0.9128  1.9252 -2.0168
 5776SOL    HW228791   2.025   2.986   7.336  0.1516 -0.3515 -0.1432
 5777SOL     OW28792   0.702   1.349   4.408  0.1123 -0.5480 -0.4183
 5777SOL    HW128793   0.791   1.320   4.387  1.1232  1.3414  1.3442
 5777SOL    HW228794   0.654   1.268   4.391  1.5182 -1.9294  2.1872
 5778SOL     OW28795   0.280   0.546  12.823 -0.4346 -0.1757 -0.7843
 5778SOL    HW128796   0.366   0.514  12.850 -0.6384 -0.8636 -0.9666
 5778SOL    HW228797   0.309   0.632  12.792 -0.9748 -0.3183 -1.6918
 5779SOL     OW28798   3.168   1.754   8.175 -0.3267 -0.4945  0.0110
 5779SOL    HW128799   3.219   1.757   8.256  1.0299 -1.2235 -0.8056
 5779SOL    HW228800   3.094   1.807   8.202  0.9162  1.2272  0.0356
 5780SOL     OW28801   4.213   0.519   8.831  0.7822  0.2963  0.3068
 5780SOL    HW128802   4.213   0.604   8.787 -1.2895 -1.1067 -2.4523
 5780SOL    HW228803   4.145   0.470   8.785  0.6328 -1.5168  2.4715
 5781SOL     OW28804   1.366   3.083   5.967  0.5220 -0.2857  0.0578
 5781SOL    HW128805   1.287   3.092   5.915 -0.2927  1.0111  1.5175
 5781SOL    HW228806   1.354   2.992   5.995  0.9259  0.0909  1.4737
 5782SOL     OW28807   1.532   4.593  10.200  0.2155 -0.2030  0.3790
 5782SOL    HW128808   1.507   4.685  10.213  3.2023  0.5093  1.2644
 5782SOL    HW228809   1.582   4.575  10.280 -0.4319  1.1227  1.0826
 5783SOL     OW28810   3.812   4.329   2.191 -0.1342  0.4413  0.2738
 5783SOL    HW128811   3.723   4.348   2.222  0.1951 -1.1790  2.2316
 5783SOL    HW228812   3.805   4.241   2.153  0.1709  0.9758 -1.0320
 5784SOL     OW28813   3.778   0.587   0.203  0.1764 -0.2784 -0.0690
 5784SOL    HW128814   3.793   0.521   0.271 -0.8580 -0.7327 -0.2880
 5784SOL    HW228815   3.829   0.564   0.125 -0.2424 -2.3185  0.2499
 5785SOL     OW28816   3.096   4.670   6.245  0.2121  0.3352 -0.1791
 5785SOL    HW128817   3.079   0.042   6.238 -2.4559 -0.1857 -0.7308
 5785SOL    HW228818   3.026   4.662   6.310 -2.2622 -0.6068 -2.9620
 5786SOL     OW28819   2.152   3.722  13.098 -0.2385 -0.3993 -0.1392
 5786SOL    HW128820   2.220   3.703  13.033  0.4849 -1.4060  0.9154
 5786SOL    HW228821   2.170   3.662  13.170 -0.6183 -0.9004 -0.4574
 5787SOL     OW28822   0.050   1.999   9.910  0.4346  0.3598 -0.1158
 5787SOL    HW128823   0.021   2.051   9.985 -1.0532 -0.9832  0.2424
 5787SOL    HW228824   0.067   2.072   9.850 -0.4501  0.4941 -0.1972
 5788SOL     OW28825   4.587   1.011   6.670  0.5544  0.1883 -0.0280
 5788SOL    HW128826   4.678   1.030   6.694 -0.1030  0.9794  1.9026
 5788SOL    HW228827   4.588   0.995   6.576 -1.0341  0.6686 -0.1153
 5789SOL     OW28828   0.733   2.167   0.624  0.2493 -0.8177 -0.6599
 5789SOL    HW128829   0.818   2.184   0.665 -0.8006 -0.3565  1.3360
 5789SOL    HW228830   0.756   2.090   0.571 -0.0193 -0.0818 -1.8404
 5790SOL     OW28831   2.185   4.406  13.480  0.2486  0.3820  0.3202
 5790SOL    HW128832   2.225   4.481  13.437  0.4720  0.8749  1.3750
 5790SOL    HW228833   2.131   4.440  13.552  1.0733 -1.9029  2.0365
 5791SOL     OW28834   2.088   3.739   1.472  0.0899  0.5196 -0.1252
 5791SOL    HW128835   2.155   3.680   1.437 -0.1843  1.0127 -1.5028
 5791SOL    HW228836   2.141   3.818   1.479  1.1286 -0.2022  0.1311
 5792SOL     OW28837   1.539   1.497   9.732  0.1694  0.4064  0.0039
 5792SOL    HW128838   1.571   1.585   9.753  1.1480  0.3072 -1.0859
 5792SOL    HW228839   1.621   1.462   9.699  0.1226  2.0660 -1.9080
 5793SOL     OW28840   2.720   0.258   9.198  0.0784  0.1084 -0.0141
 5793SOL    HW128841   2.788   0.197   9.224 -0.7045 -0.6420  0.2635
 5793SOL    HW228842   2.772   0.307   9.134 -0.4645  2.4012  1.2795
 5794SOL     OW28843   2.045   4.101  13.063  0.0068  0.5333  0.3982
 5794SOL    HW128844   2.006   4.175  13.109  0.0038 -0.1302  1.4738
 5794SOL    HW228845   2.090   4.150  12.994 -0.9410  0.3713 -0.3427
 5795SOL     OW28846   3.245   0.991   9.145  0.1196  0.2882  0.3486
 5795SOL    HW128847   3.215   0.993   9.055  0.5884  0.8620  0.1998
 5795SOL    HW228848   3.337   0.967   9.134  0.4898  2.0329 -0.4182
 5796SOL     OW28849   0.225   2.074   6.838 -0.2374 -0.1967 -0.1311
 5796SOL    HW128850   0.218   2.123   6.756  2.5284  0.1601 -0.1521
 5796SOL    HW228851   0.161   2.003   6.831 -1.6357  0.7899  2.2025
 5797SOL     OW28852   0.865   4.244  17.432  0.1201 -0.2597  0.0026
 5797SOL    HW128853   0.820   4.254  17.348 -2.2644  0.5081  1.3725
 5797SOL    HW228854   0.936   4.307  17.426 -2.0410  2.0930 -0.5884
 5798SOL     OW28855   0.638   0.831   3.634 -0.2102  0.2849  0.5278
 5798SOL    HW128856   0.659   0.796   3.547  1.2197  1.2420  0.4839
 5798SOL    HW228857   0.625   0.923   3.613 -1.4330 -0.0184 -0.0139
 5799SOL     OW28858   2.381   1.754   9.160 -0.3720  0.6118 -0.0697
 5799SOL    HW128859   2.330   1.701   9.220 -0.3524 -1.0240 -1.4988
 5799SOL    HW228860   2.387   1.839   9.204 -0.4104  0.8793 -0.5778
 5800SOL     OW28861   0.408   0.074   0.886 -0.7378 -0.3521  0.1505
 5800SOL    HW128862   0.404   0.161   0.925  0.0334  0.0319 -0.6237
 5800SOL    HW228863   0.319   0.046   0.907 -0.5191 -0.1471  1.3705
 5801SOL     OW28864   1.544   2.335   6.675 -0.2143 -0.5172  0.0030
 5801SOL    HW128865   1.493   2.398   6.726 -0.8749  0.6947 -2.1462
 5801SOL    HW228866   1.636   2.357   6.689 -0.4228 -0.0367  0.6330
 5802SOL     OW28867   4.206   3.917   6.777  0.2350  0.1406  0.2349
 5802SOL    HW128868   4.184   4.010   6.772 -0.5105 -0.0573 -0.2855
 5802SOL    HW228869   4.183   3.883   6.863 -4.3477  0.4344 -0.8640
 5803SOL     OW28870   2.467   2.247  12.483 -0.0989  0.9018 -0.4466
 5803SOL    HW128871   2.430   2.199  12.558  0.3042  2.7737  0.9383
 5803SOL    HW228872   2.434   2.206  12.403  1.9579 -0.8652 -0.3716
 5804SOL     OW28873   3.761   1.936   8.262 -0.3230 -0.0007  0.2426
 5804SOL    HW128874   3.736   1.844   8.250 -2.7970  0.7182 -0.0120
 5804SOL    HW228875   3.853   1.922   8.284 -0.4722  1.7113  1.9715
 5805SOL     OW28876   4.446   0.813  11.294 -0.4871 -0.1354  0.4156
 5805SOL    HW128877   4.354   0.832  11.310 -1.0175 -2.6376  0.4103
 5805SOL    HW228878   4.473   0.797  11.385 -1.7060 -1.2862  0.5651
 5806SOL     OW28879   2.673   2.796  12.548 -0.0810 -0.4649 -0.2946
 5806SOL    HW128880   2.742   2.805  12.482 -2.4928  0.9103 -2.6326
 5806SOL    HW228881   2.664   2.701  12.548 -3.4859 -0.1556  1.5381
 5807SOL     OW28882   1.579   3.306   8.006  0.0855  0.0800  0.0322
 5807SOL    HW128883   1.508   3.263   7.958  0.9176  1.5215 -2.5007
 5807SOL    HW228884   1.532   3.381   8.043  2.1297  0.6400  1.5415
 5808SOL     OW28885   2.651   4.514  11.321 -0.1896 -0.0609 -0.1387
 5808SOL    HW128886   2.636   4.552  11.407 -0.2002  1.5171 -0.8394
 5808SOL    HW228887   2.671   4.583  11.258  2.1855 -0.0038  0.6830
 5809SOL     OW28888   4.560   1.414  13.689 -0.2129 -0.2425 -0.3877
 5809SOL    HW128889   4.512   1.338  13.657 -0.9762  0.4242 -0.8391
 5809SOL    HW228890   4.642   1.400  13.641  0.2565 -1.3560  0.7347
 5810SOL     OW28891   1.027   1.040   4.094  0.0610  0.1865  0.3071
 5810SOL    HW128892   0.952   0.988   4.064 -0.2281  0.6414  0.2427
 5810SOL    HW228893   1.010   1.114   4.037  2.0594 -0.8242 -1.5781
 5811SOL     OW28894   3.751   4.172   9.498 -0.1290 -0.2513 -0.7094
 5811SOL    HW128895   3.752   4.228   9.421 -1.6003  0.8863  0.0927
 5811SOL    HW228896   3.844   4.175   9.519  0.1904 -1.8792 -1.8887
 5812SOL     OW28897   4.674   2.724   3.525  0.1859 -0.2437  0.6355
 5812SOL    HW128898   4.633   2.717   3.611 -2.0093  1.2373 -0.2832
 5812SOL    HW228899   4.697   2.631   3.525  1.1873  0.0113  0.8355
 5813SOL     OW28900   1.788   1.807   7.743  0.1114  0.0556  0.8433
 5813SOL    HW128901   1.820   1.719   7.764 -0.5162 -0.7399 -1.5500
 5813SOL    HW228902   1.842   1.864   7.798  1.4779 -0.7592  0.3401
 5814SOL     OW28903   1.195   4.438   8.851 -0.5122 -0.2371 -0.1024
 5814SOL    HW128904   1.164   4.348   8.845 -0.3236 -0.3165  0.1008
 5814SOL    HW228905   1.159   4.483   8.927 -0.8404 -1.2282  0.3270
 5815SOL     OW28906   1.703   1.181   5.870  0.3263  0.1369 -0.8024
 5815SOL    HW128907   1.610   1.203   5.865  0.2527 -0.5421 -2.4127
 5815SOL    HW228908   1.707   1.086   5.860 -3.1477  0.0357 -1.1750
 5816SOL     OW28909   4.404   0.718  13.341  0.0625 -0.4457 -0.1195
 5816SOL    HW128910   4.354   0.671  13.274 -0.9593  1.0315 -0.3951
 5816SOL    HW228911   4.459   0.649  13.377  1.3034  0.6318  0.0762
 5817SOL     OW28912   2.377   3.905   6.904  0.4980  0.6383 -0.1630
 5817SOL    HW128913   2.296   3.954   6.923 -0.5231 -0.9827 -0.3946
 5817SOL    HW228914   2.346   3.818   6.929 -1.7982  1.3752 -0.4712
 5818SOL     OW28915   0.329   1.224  13.378 -0.0696 -0.5941 -0.0084
 5818SOL    HW128916   0.364   1.231  13.467 -0.0243 -0.6420 -0.0220
 5818SOL    HW228917   0.390   1.275  13.326 -0.0855  0.1686  0.7275
 5819SOL     OW28918   3.750   2.033  10.681  0.0709  0.1078 -0.0834
 5819SOL    HW128919   3.727   2.004  10.770  4.6478 -3.1489  0.0335
 5819SOL    HW228920   3.796   1.956  10.647  0.1682  1.1505 -2.2621
 5820SOL     OW28921   2.833   1.339   4.142 -0.2318  0.6165 -0.3187
 5820SOL    HW128922   2.804   1.345   4.051  0.6222  2.0715 -0.4750
 5820SOL    HW228923   2.790   1.416   4.178 -1.3838 -0.7668  1.3164
 5821SOL     OW28924   3.024   0.316   9.600 -0.5815  0.0380 -0.1038
 5821SOL    HW128925   2.933   0.298   9.624 -0.1670  0.5535  1.8355
 5821SOL    HW228926   3.036   0.248   9.534 -1.8366 -0.6280  0.3556
 5822SOL     OW28927   4.394   4.058  12.312  0.8664  0.8310 -0.4600
 5822SOL    HW128928   4.327   4.031  12.375  2.1267  0.3183  0.6313
 5822SOL    HW228929   4.340   4.038  12.235 -0.1850 -0.4644  0.6084
 5823SOL     OW28930   2.317   4.397   5.352 -0.3976  0.4073  0.9022
 5823SOL    HW128931   2.263   4.467   5.388 -1.8123 -0.4162  0.3798
 5823SOL    HW228932   2.264   4.330   5.308  1.1231  0.6608 -1.3563
 5824SOL     OW28933   3.086   2.045   6.350  0.6514  0.5652 -0.0256
 5824SOL    HW128934   3.029   2.119   6.371  1.2328  0.6409  1.2907
 5824SOL    HW228935   3.116   2.012   6.435  0.5114 -0.5310 -0.3954
 5825SOL     OW28936   1.819   3.635   7.407  0.0791  0.6520 -0.7138
 5825SOL    HW128937   1.814   3.626   7.502  2.3008 -1.3616 -0.7779
 5825SOL    HW228938   1.725   3.623   7.393 -0.3634  3.1761  0.0166
 5826SOL     OW28939   0.637   2.210   5.914  0.5056  0.1812  0.6384
 5826SOL    HW128940   0.697   2.146   5.953 -0.5499 -0.6776  0.8351
 5826SOL    HW228941   0.703   2.270   5.877  0.7025 -0.3988  0.0473
 5827SOL     OW28942   3.679   3.055   4.348 -0.7571 -0.4070 -0.5078
 5827SOL    HW128943   3.704   3.130   4.403  1.0341 -0.1817 -1.5973
 5827SOL    HW228944   3.758   3.000   4.342  0.3642  1.0756  0.4684
 5828SOL     OW28945   2.066   0.903  15.243  0.1455  0.0311  0.9341
 5828SOL    HW128946   2.086   0.862  15.159 -0.6246 -1.3325  1.4125
 5828SOL    HW228947   2.002   0.840  15.275  1.4221 -2.4519 -1.4103
 5829SOL     OW28948   0.835   2.833   8.314 -0.0791 -0.5349 -0.2247
 5829SOL    HW128949   0.787   2.874   8.242 -0.7061  0.9020  1.0167
 5829SOL    HW228950   0.821   2.741   8.293 -1.8390 -0.3096  0.0086
 5830SOL     OW28951   0.802   0.482   1.223 -0.2222 -0.1972 -0.5925
 5830SOL    HW128952   0.849   0.406   1.189  0.5487 -0.7872  1.8390
 5830SOL    HW228953   0.774   0.456   1.310  1.2965 -2.7559 -0.8935
 5831SOL     OW28954   3.133   2.799   7.964  0.2464  0.5336  0.0976
 5831SOL    HW128955   3.069   2.729   7.968 -0.0084  0.6842 -1.4897
 5831SOL    HW228956   3.191   2.761   7.898  2.4650  0.3483  2.1404
 5832SOL     OW28957   4.535   2.654   3.771 -0.4980 -0.0344 -0.3544
 5832SOL    HW128958   4.523   2.563   3.745  5.8756 -0.5850 -1.3915
 5832SOL    HW228959   4.449   2.685   3.800 -1.1411 -1.8283 -0.3641
 5833SOL     OW28960   0.980   2.091  15.645 -0.4038  0.4229  0.2406
 5833SOL    HW128961   1.010   2.150  15.575 -0.7447 -2.0876 -2.0128
 5833SOL    HW228962   1.022   2.009  15.620 -1.1941 -0.2577  1.1885
 5834SOL     OW28963   2.642   1.155   8.133 -0.1886  0.1835  0.1336
 5834SOL    HW128964   2.716   1.212   8.112  0.1231 -1.2206 -2.6440
 5834SOL    HW228965   2.665   1.071   8.093 -4.3256 -0.9678  0.2175
 5835SOL     OW28966   3.699   4.239  16.218  0.0682  0.0940  0.1661
 5835SOL    HW128967   3.751   4.222  16.297  2.1209 -1.2377 -1.4605
 5835SOL    HW228968   3.678   4.332  16.227  1.2547  0.4825 -1.0518
 5836SOL     OW28969   3.630   1.205   8.446 -0.1580  0.3243  0.1600
 5836SOL    HW128970   3.534   1.198   8.442 -0.2188  1.6900 -0.4578
 5836SOL    HW228971   3.645   1.154   8.526 -0.1459  0.6874  0.3885
 5837SOL     OW28972   2.499   3.505  11.285 -0.3546 -0.0959  0.2144
 5837SOL    HW128973   2.552   3.426  11.287  1.0254  0.8670  2.1797
 5837SOL    HW228974   2.464   3.511  11.196  0.4965  0.7409 -0.0717
 5838SOL     OW28975   2.279   3.964   6.033  0.0294 -0.2067  0.5397
 5838SOL    HW128976   2.242   3.891   6.082 -1.3919 -0.1185 -0.3778
 5838SOL    HW228977   2.248   3.951   5.943  1.2621  1.5281 -0.1431
 5839SOL     OW28978   2.818   3.335   0.458  0.3125 -0.0848 -0.0404
 5839SOL    HW128979   2.763   3.412   0.474  0.6817  0.0851  0.3959
 5839SOL    HW228980   2.909   3.361   0.472  0.4903 -0.1995 -0.9936
 5840SOL     OW28981   3.398   2.922  12.841 -0.0545  0.6153  0.5374
 5840SOL    HW128982   3.491   2.944  12.837 -0.1379  0.9711  0.5383
 5840SOL    HW228983   3.375   2.967  12.923  0.8154 -0.5220  1.4054
 5841SOL     OW28984   1.339   4.289   6.058 -0.4061 -0.2198  0.1366
 5841SOL    HW128985   1.360   4.306   5.966 -0.6198  0.9786  0.3020
 5841SOL    HW228986   1.378   4.202   6.060  1.6265  0.7081  0.4084
 5842SOL     OW28987   4.718   2.153   2.474  0.1840 -0.1577 -0.1131
 5842SOL    HW128988   0.040   2.176   2.392  0.1095  1.4133  0.2884
 5842SOL    HW228989   0.068   2.136   2.535 -0.7386  0.5138  1.1435
 5843SOL     OW28990   0.599   4.055   1.047  0.0762  0.5717  0.0009
 5843SOL    HW128991   0.620   3.995   1.119 -1.6367  0.9474  0.8043
 5843SOL    HW228992   0.649   4.131   1.078 -1.6015  1.7111 -0.1024
 5844SOL     OW28993   2.866   3.970  11.874 -0.4060 -0.1040  0.0444
 5844SOL    HW128994   2.875   3.908  11.802  0.0022  1.5197 -1.3031
 5844SOL    HW228995   2.953   4.001  11.901  0.5575 -1.3509 -1.6914
 5845SOL     OW28996   3.556   4.670   4.371  0.5677  0.3450  0.0770
 5845SOL    HW128997   3.540   0.040   4.349  0.2484  0.1785 -0.3839
 5845SOL    HW228998   3.544   4.667   4.466  2.2856 -0.9479  0.2501
 5846SOL     OW28999   3.362   0.744   5.531  0.4694  0.0495 -0.4051
 5846SOL    HW129000   3.280   0.792   5.531 -0.3999 -1.4744  1.6261
 5846SOL    HW229001   3.350   0.660   5.487  2.2272  0.1035 -0.9963
 5847SOL     OW29002   4.266   3.161   5.319  0.0773 -0.5408 -0.7155
 5847SOL    HW129003   4.280   3.238   5.264  0.2260  1.2799  1.8929
 5847SOL    HW229004   4.264   3.207   5.403 -1.2369  0.1250 -1.1134
 5848SOL     OW29005   2.510   0.444  12.343 -0.2800  0.1502  0.1791
 5848SOL    HW129006   2.508   0.365  12.288 -1.0274 -0.2445  0.7765
 5848SOL    HW229007   2.590   0.437  12.394  0.8754 -0.4782 -1.7207
 5849SOL     OW29008   3.670   1.771   4.432 -0.5353 -0.0377  0.1058
 5849SOL    HW129009   3.689   1.765   4.526 -0.1921  0.8531  0.0872
 5849SOL    HW229010   3.643   1.681   4.413  0.6791 -0.6334  1.1656
 5850SOL     OW29011   0.288   2.681   5.910  0.3193 -0.2219 -0.1277
 5850SOL    HW129012   0.229   2.691   5.836  0.2112 -1.8042 -0.2660
 5850SOL    HW229013   0.253   2.610   5.965 -0.6008  1.6490  1.6928
 5851SOL     OW29014   4.058   0.354   8.681 -0.0467  0.0842 -0.6415
 5851SOL    HW129015   3.964   0.334   8.678 -0.0098 -0.5363  2.8377
 5851SOL    HW229016   4.082   0.332   8.591 -0.3424 -4.5129  0.4291
 5852SOL     OW29017   4.139   4.390  15.365 -0.4205  0.0324 -0.6571
 5852SOL    HW129018   4.217   4.421  15.412  1.2465 -2.3064 -1.9055
 5852SOL    HW229019   4.073   4.400  15.433 -1.4906 -1.3035 -1.4939
 5853SOL     OW29020   2.130   1.872   8.748 -0.6206  0.1858 -0.0803
 5853SOL    HW129021   2.102   1.875   8.839 -1.7023 -0.0914 -0.4067
 5853SOL    HW229022   2.221   1.900   8.756 -0.6503  0.0063  0.8426
 5854SOL     OW29023   4.391   3.011   8.406  0.2668 -0.6273 -0.4740
 5854SOL    HW129024   4.399   2.917   8.423  3.8245 -0.1552  0.5877
 5854SOL    HW229025   4.477   3.037   8.439  0.2852 -1.5776  0.2299
 5855SOL     OW29026   1.984   1.243  12.281 -0.1649 -0.4641  0.3584
 5855SOL    HW129027   1.958   1.212  12.368 -0.3533  1.9322  1.1406
 5855SOL    HW229028   2.070   1.201  12.277  0.0091 -0.0705  0.0019
 5856SOL     OW29029   3.626   0.723   2.464  0.1804 -0.4863 -0.0447
 5856SOL    HW129030   3.676   0.799   2.434 -0.8014 -0.2498 -1.0986
 5856SOL    HW229031   3.694   0.659   2.443  0.3367 -0.1487 -0.5827
 5857SOL     OW29032   1.127   2.615   8.371 -0.0121 -0.3248 -0.0154
 5857SOL    HW129033   1.042   2.573   8.378 -0.3202  0.0587 -1.3943
 5857SOL    HW229034   1.141   2.608   8.277  0.2014  0.2100 -0.0256
 5858SOL     OW29035   2.777   0.850   4.808  0.0207  0.4920  0.0340
 5858SOL    HW129036   2.693   0.832   4.766 -0.9234  2.5571  1.0255
 5858SOL    HW229037   2.779   0.945   4.819  1.2011  0.4217  0.3512
 5859SOL     OW29038   1.396   2.581   8.103  0.6303 -0.6728 -0.1532
 5859SOL    HW129039   1.484   2.613   8.088 -0.0596  0.6747 -1.2790
 5859SOL    HW229040   1.351   2.595   8.020 -0.3205  3.3896  1.0340
 5860SOL     OW29041   2.290   2.302   3.841 -0.4267  0.3514 -0.3153
 5860SOL    HW129042   2.369   2.349   3.868 -1.1956  2.0856 -1.1229
 5860SOL    HW229043   2.239   2.299   3.922 -0.7198  2.3927 -0.4142
 5861SOL     OW29044   3.443   2.082   4.519 -0.5549 -0.0394 -0.7119
 5861SOL    HW129045   3.357   2.061   4.557 -1.8508  0.4915 -3.3918
 5861SOL    HW229046   3.498   2.004   4.534 -2.0311 -0.6063  1.8532
 5862SOL     OW29047   2.385   0.430   7.251 -0.2101  0.2949 -0.3202
 5862SOL    HW129048   2.420   0.502   7.303 -2.7194  1.6153 -0.4218
 5862SOL    HW229049   2.445   0.362   7.280 -1.9182 -1.6764 -1.4434
 5863SOL     OW29050   0.931   0.292   2.120  0.2148 -0.0486  0.3838
 5863SOL    HW129051   0.882   0.352   2.063 -0.3983 -2.3572 -1.5130
 5863SOL    HW229052   0.850   0.257   2.158  0.8396 -2.5682 -0.5998
 5864SOL     OW29053   3.203   1.515   2.992 -0.5578 -0.2893 -0.5025
 5864SOL    HW129054   3.272   1.505   2.926 -1.3431 -1.8474 -1.1020
 5864SOL    HW229055   3.215   1.609   3.006 -0.8623 -0.4922  1.0810
 5865SOL     OW29056   0.110   0.352  16.883  0.3105 -0.3028 -0.5012
 5865SOL    HW129057   0.166   0.371  16.808  0.8011 -0.1213 -0.0878
 5865SOL    HW229058   0.170   0.313  16.947  2.0073  2.0701 -0.6516
 5866SOL     OW29059   1.630   1.062  14.324  0.2161  0.3948 -0.1392
 5866SOL    HW129060   1.718   1.092  14.345 -0.8605  2.7977  0.8783
 5866SOL    HW229061   1.570   1.111  14.380  1.0966  0.9619  0.3069
 5867SOL     OW29062   3.110   2.767  13.424  0.1853  0.5103  0.3234
 5867SOL    HW129063   3.077   2.854  13.445  0.3434  0.7009 -0.1986
 5867SOL    HW229064   3.117   2.780  13.329 -0.8033 -0.5925  0.0975
 5868SOL     OW29065   3.221   2.109  15.150  0.2133 -0.4276 -0.0108
 5868SOL    HW129066   3.244   2.190  15.196 -1.8819  0.4124 -0.4502
 5868SOL    HW229067   3.136   2.131  15.112 -0.2259  0.4403  1.4895
 5869SOL     OW29068   0.701   1.279   6.250 -0.0331 -0.2928  0.0487
 5869SOL    HW129069   0.746   1.364   6.250 -1.1703  0.3072  1.4359
 5869SOL    HW229070   0.752   1.239   6.321  1.3437  1.7648  0.2142
 5870SOL     OW29071   2.654   3.608  14.194  0.2825 -0.3342 -0.2433
 5870SOL    HW129072   2.671   3.528  14.145 -1.2482  0.0386 -1.3636
 5870SOL    HW229073   2.578   3.586  14.248 -0.6834 -2.3135 -2.4334
 5871SOL     OW29074   1.285   2.912   8.150 -0.0568  0.4468 -0.3463
 5871SOL    HW129075   1.362   2.882   8.198  1.5239  0.6367 -2.7503
 5871SOL    HW229076   1.250   2.832   8.110 -1.2274  1.2427 -0.8800
 5872SOL     OW29077   0.333   1.205  10.781 -0.2007 -0.1241 -0.0048
 5872SOL    HW129078   0.238   1.198  10.786 -0.2756 -0.0363 -1.4910
 5872SOL    HW229079   0.350   1.180  10.690 -0.8127  0.9345 -0.3995
 5873SOL     OW29080   3.727   0.421   1.151  0.1467  0.0444 -0.0031
 5873SOL    HW129081   3.638   0.418   1.187  0.4428 -0.5521  0.6732
 5873SOL    HW229082   3.785   0.407   1.226 -0.3756  2.0059  0.7889
 5874SOL     OW29083   2.873   1.583   5.739 -0.1917  0.2447  0.3583
 5874SOL    HW129084   2.938   1.615   5.801  0.0059 -1.0456  0.8171
 5874SOL    HW229085   2.930   1.552   5.668 -0.4318  0.5205  0.0469
 5875SOL     OW29086   4.137   4.589  11.517 -0.1010 -0.1124  0.0585
 5875SOL    HW129087   4.068   4.642  11.478  0.1401  1.1438  1.3505
 5875SOL    HW229088   4.212   4.612  11.463  0.4138  1.0072  1.2514
 5876SOL     OW29089   0.572   0.059   8.154 -0.1307  0.3561  0.4782
 5876SOL    HW129090   0.496   0.092   8.106  0.9156  2.0001 -0.0227
 5876SOL    HW229091   0.631   0.072   8.079 -0.6737  0.0225 -0.0136
 5877SOL     OW29092   4.613   1.008  12.410  0.3258 -0.4788 -0.2511
 5877SOL    HW129093   4.707   0.989  12.406  0.2618 -0.4129 -2.1066
 5877SOL    HW229094   4.606   1.103  12.395  1.2167  0.1131  3.0771
 5878SOL     OW29095   1.641   3.080   4.197 -0.3226  0.2146 -0.3977
 5878SOL    HW129096   1.547   3.063   4.204 -0.1424 -0.5810 -0.0066
 5878SOL    HW229097   1.660   3.066   4.104 -1.0320  1.2977 -0.7196
 5879SOL     OW29098   3.355   1.696   6.104 -0.2340  0.9451 -0.2570
 5879SOL    HW129099   3.376   1.711   6.011 -0.0949 -0.0214 -0.3849
 5879SOL    HW229100   3.341   1.784   6.139 -1.3796  0.4367  0.5511
 5880SOL     OW29101   3.997   4.535   2.378  0.3794 -0.0463  0.3630
 5880SOL    HW129102   3.977   4.611   2.323 -0.5851  0.5580  1.5322
 5880SOL    HW229103   3.920   4.482   2.358 -1.1083  2.7025 -1.3236
 5881SOL     OW29104   3.548   0.365   2.072 -1.1247  0.5732 -0.4076
 5881SOL    HW129105   3.474   0.415   2.108  1.2684  1.9244  2.6089
 5881SOL    HW229106   3.549   0.401   1.983  0.6158 -1.3067 -1.1456
 5882SOL     OW29107   1.332   0.885  13.029 -0.9194  0.2897 -0.0796
 5882SOL    HW129108   1.252   0.896  12.978 -1.2923 -1.5462  0.1152
 5882SOL    HW229109   1.390   0.885  12.952  0.3025  1.3613  0.8536
 5883SOL     OW29110   1.904   1.410   2.934 -0.1722 -0.9125 -0.2856
 5883SOL    HW129111   1.950   1.442   3.012 -1.1327  0.8212 -0.4060
 5883SOL    HW229112   1.849   1.341   2.972 -0.0410 -1.4504 -1.0820
 5884SOL     OW29113   3.995   2.709   3.707  0.7837  0.1341  1.0058
 5884SOL    HW129114   3.968   2.641   3.646  2.4332  1.7887 -1.5550
 5884SOL    HW229115   4.016   2.782   3.649 -3.1395 -0.5651 -1.2792
 5885SOL     OW29116   0.536   1.308   8.256  0.0430 -0.3810 -0.6896
 5885SOL    HW129117   0.485   1.270   8.185 -1.3464 -0.3688  0.2947
 5885SOL    HW229118   0.531   1.401   8.236  1.1633  0.2961  2.1091
 5886SOL     OW29119   2.767   3.459  17.526  0.2007 -0.0194  0.2466
 5886SOL    HW129120   2.761   3.440  17.432 -1.7771  2.0013 -0.0084
 5886SOL    HW229121   2.677   3.483  17.545  0.0653  0.1749 -0.6508
 5887SOL     OW29122   0.521   2.450   6.517  0.3665  0.6004 -0.3444
 5887SOL    HW129123   0.529   2.412   6.604 -1.5102  1.2219  0.1026
 5887SOL    HW229124   0.543   2.540   6.541  0.1104  0.2819  1.0575
 5888SOL     OW29125   2.904   2.618   3.269 -0.5536 -0.3787  0.0806
 5888SOL    HW129126   2.997   2.628   3.249 -0.7853  0.5565 -0.5084
 5888SOL    HW229127   2.894   2.549   3.336 -0.7819  0.7764  1.2419
 5889SOL     OW29128   0.791   2.627   6.406  0.0209 -0.2292 -0.1326
 5889SOL    HW129129   0.709   2.676   6.410  0.8605  1.0734  0.8024
 5889SOL    HW229130   0.792   2.621   6.310  0.0624 -2.1205 -0.0107
 5890SOL     OW29131   3.996   2.706   4.959 -0.0597  0.1728 -0.6734
 5890SOL    HW129132   3.996   2.695   4.864  1.1999  2.1716 -0.8982
 5890SOL    HW229133   3.902   2.721   4.950 -0.0150 -0.7843 -2.6536
 5891SOL     OW29134   1.829   3.635   6.070 -0.3500 -0.2006 -0.1954
 5891SOL    HW129135   1.855   3.567   6.132 -0.1710  0.1712  0.1394
 5891SOL    HW229136   1.755   3.680   6.112  0.7111  1.9072 -0.5782
 5892SOL     OW29137   0.388   0.903  15.404 -0.1518 -0.8604 -0.3731
 5892SOL    HW129138   0.366   0.810  15.416  1.0691 -0.8102  2.2665
 5892SOL    HW229139   0.370   0.944  15.489 -0.1709  1.4111 -1.5017
 5893SOL     OW29140   2.354   4.578   3.345 -0.1454  0.1674 -0.7396
 5893SOL    HW129141   2.295   4.642   3.304 -2.8761 -1.4719  0.5710
 5893SOL    HW229142   2.418   4.579   3.275 -1.2457  0.4829 -1.7485
 5894SOL     OW29143   3.623   2.281   5.705  0.2627  0.3093  0.0241
 5894SOL    HW129144   3.646   2.204   5.654  2.4428  2.1493 -1.8133
 5894SOL    HW229145   3.550   2.302   5.646  1.5724  2.3741 -0.8749
 5895SOL     OW29146   1.082   4.586   7.460  0.3031  0.2085 -0.2076
 5895SOL    HW129147   1.177   4.599   7.464  0.2513  0.7968 -0.9445
 5895SOL    HW229148   1.072   4.506   7.512  1.9817  0.3647  0.3645
 5896SOL     OW29149   0.804   2.207  11.162  0.5493 -0.5699 -0.2997
 5896SOL    HW129150   0.849   2.214  11.079 -0.5387 -0.5548 -0.8955
 5896SOL    HW229151   0.853   2.142  11.212 -0.1165 -1.9410 -1.4302
 5897SOL     OW29152   2.121   0.090   0.635  0.5693  0.3713 -0.7861
 5897SOL    HW129153   2.085   0.024   0.576  1.3082 -1.7281  1.0949
 5897SOL    HW229154   2.106   0.173   0.590 -0.6981  0.4936 -0.1568
 5898SOL     OW29155   2.973   2.204   5.377 -0.0662  0.6339  0.2557
 5898SOL    HW129156   2.928   2.287   5.367  1.4491  1.2960 -1.1891
 5898SOL    HW229157   2.975   2.205   5.473  0.5459 -0.2765  0.2625
 5899SOL     OW29158   3.261   3.856   6.212  0.4872  0.2067 -0.5632
 5899SOL    HW129159   3.174   3.896   6.212  1.3671  2.1179  0.4473
 5899SOL    HW229160   3.317   3.931   6.233  0.2918 -0.1117  1.1183
 5900SOL     OW29161   0.342   2.085   9.961 -0.7654 -0.3597 -0.4738
 5900SOL    HW129162   0.303   2.071   9.875  2.2780  1.6218 -2.2025
 5900SOL    HW229163   0.401   2.159   9.942 -0.7451 -0.3318 -0.3032
 5901SOL     OW29164   4.635   1.842  10.190  0.5701  0.4312  0.1301
 5901SOL    HW129165   4.568   1.782  10.156  0.0439  0.4516  1.1489
 5901SOL    HW229166   4.578   1.917  10.202 -0.0203  0.0962 -0.5815
 5902SOL     OW29167   4.073   3.010   4.974  0.4555 -0.0819  0.3704
 5902SOL    HW129168   4.021   3.030   5.052  0.8435 -0.5966  0.7639
 5902SOL    HW229169   4.066   2.915   4.973  3.2818 -0.3364  3.8314
 5903SOL     OW29170   0.354   1.623   6.845 -0.6774  0.0507 -0.3067
 5903SOL    HW129171   0.269   1.599   6.809 -0.0255 -1.2254 -1.0046
 5903SOL    HW229172   0.347   1.585   6.932  3.8166 -0.1900 -0.0397
 5904SOL     OW29173   0.060   1.696   3.045 -0.3444 -0.2503  0.5511
 5904SOL    HW129174   0.024   1.770   3.092 -1.0776 -0.7050  0.7014
 5904SOL    HW229175   0.155   1.712   3.044 -0.5258  0.8035  0.2169
 5905SOL     OW29176   4.561   3.945  16.843 -0.0652  0.5942 -0.0012
 5905SOL    HW129177   4.531   4.033  16.864 -0.0533  0.2714  1.3667
 5905SOL    HW229178   4.479   3.894  16.836 -0.9523  2.0512 -0.1916
 5906SOL     OW29179   4.327   3.794   8.433  0.0631  0.1354 -0.3626
 5906SOL    HW129180   4.335   3.735   8.358  1.2580  1.4377 -1.2439
 5906SOL    HW229181   4.418   3.786   8.463 -0.2746 -0.9228  0.3795
 5907SOL     OW29182   3.926   2.896  17.629 -0.4718  0.0206 -0.1061
 5907SOL    HW129183   3.995   2.841  17.592 -1.5153 -1.8174  0.7215
 5907SOL    HW229184   3.930   2.862   0.030  3.3383  2.0584  0.4797
 5908SOL     OW29185   3.632   3.518  14.585  0.1088  0.4923  0.4039
 5908SOL    HW129186   3.615   3.447  14.647  0.4472 -0.6536 -0.8138
 5908SOL    HW229187   3.713   3.497  14.538  0.0274  2.3138 -0.5585
 5909SOL     OW29188   1.123   4.638   6.038  0.1443  0.1079  0.1865
 5909SOL    HW129189   1.081   4.572   6.093 -0.9833 -0.7095 -1.6290
 5909SOL    HW229190   1.152   4.584   5.964 -2.6839  1.4106 -1.8391
 5910SOL     OW29191   1.462   4.058   9.765  0.4069 -0.0289 -0.1449
 5910SOL    HW129192   1.545   4.011   9.771  0.2522 -0.4224 -1.1136
 5910SOL    HW229193   1.413   3.998   9.710  0.0299  0.9000 -0.8207
 5911SOL     OW29194   0.886   0.179   0.823  0.3353 -0.6226  0.2847
 5911SOL    HW129195   0.927   0.260   0.793  0.9797 -1.1765 -0.3264
 5911SOL    HW229196   0.953   0.122   0.786  0.3725 -1.7745  2.1730
 5912SOL     OW29197   1.973   4.224  12.464 -0.3088  0.3552 -0.0498
 5912SOL    HW129198   1.951   4.190  12.377 -0.9927  1.9259 -0.4852
 5912SOL    HW229199   1.920   4.168  12.521  0.4333 -0.9416 -0.6374
 5913SOL     OW29200   4.504   4.125  11.090  0.3914 -0.0573  0.2821
 5913SOL    HW129201   4.479   4.065  11.020  1.5426  0.5981 -0.6932
 5913SOL    HW229202   4.424   4.105  11.138 -0.5011 -1.6501 -1.8501
 5914SOL     OW29203   0.365   0.848  15.864 -0.5342 -0.0265 -0.0758
 5914SOL    HW129204   0.442   0.882  15.909  0.3937 -1.5370 -0.5113
 5914SOL    HW229205   0.312   0.832  15.941 -1.0271  0.1978 -0.3704
 5915SOL     OW29206   3.738   2.063   2.093  0.2054 -0.2048 -0.6633
 5915SOL    HW129207   3.677   2.006   2.139  1.1875 -0.1920  0.6585
 5915SOL    HW229208   3.793   1.995   2.055 -0.5456 -1.1713 -0.0024
 5916SOL     OW29209   0.412   1.565   7.468 -0.5284  0.0842  0.3788
 5916SOL    HW129210   0.366   1.487   7.499  0.8894 -0.8652  0.0766
 5916SOL    HW229211   0.478   1.516   7.420 -0.6258  0.9746 -0.6695
 5917SOL     OW29212   3.381   1.572   6.588 -0.2214 -0.3765 -0.1865
 5917SOL    HW129213   3.444   1.626   6.636 -2.1753  1.5079  0.2610
 5917SOL    HW229214   3.409   1.585   6.497  0.8254 -2.9599 -0.2051
 5918SOL     OW29215   0.170   0.706   2.796  1.1134 -0.3083 -0.2314
 5918SOL    HW129216   0.164   0.611   2.787 -3.5862 -0.1822  1.6306
 5918SOL    HW229217   0.183   0.728   2.704 -2.7891  0.8174 -0.4860
 5919SOL     OW29218   1.431   3.251   4.006 -0.1264 -0.1354 -0.0525
 5919SOL    HW129219   1.418   3.236   4.100  1.0134  1.2214  0.3299
 5919SOL    HW229220   1.511   3.303   4.013 -0.6583  0.8494 -1.3442
 5920SOL     OW29221   2.874   1.111   3.957 -0.0319 -0.2438 -0.0792
 5920SOL    HW129222   2.933   1.161   4.012  0.8105  0.6353 -1.7754
 5920SOL    HW229223   2.933   1.079   3.889  0.0477 -2.3366  0.9721
 5921SOL     OW29224   0.041   1.645   9.348 -0.7378  0.2634 -0.3314
 5921SOL    HW129225   0.097   1.684   9.281  0.7873 -0.4290  0.5696
 5921SOL    HW229226   4.673   1.661   9.316 -0.0317  1.1030 -1.8658
 5922SOL     OW29227   2.999   3.748   8.100 -0.1647  0.1539 -0.7081
 5922SOL    HW129228   2.954   3.789   8.174 -1.3521 -2.1588 -0.1619
 5922SOL    HW229229   3.088   3.731   8.129 -0.9324 -0.2123  1.4095
 5923SOL     OW29230   3.437   1.935  14.003  0.2165  0.5806 -0.2876
 5923SOL    HW129231   3.467   1.990  14.076  1.2313  1.2827 -1.2224
 5923SOL    HW229232   3.429   1.847  14.040 -1.9908  1.9261  2.4146
 5924SOL     OW29233   2.198   3.914  11.395 -0.0346  0.1399  0.0641
 5924SOL    HW129234   2.185   3.824  11.366 -2.4941 -0.1123  1.9101
 5924SOL    HW229235   2.200   3.964  11.314 -0.5074 -1.9292 -1.2222
 5925SOL     OW29236   2.641   0.996   8.439 -0.3710 -0.7784 -0.1735
 5925SOL    HW129237   2.561   1.040   8.411 -0.4505 -0.3690  0.6893
 5925SOL    HW229238   2.632   0.913   8.393 -0.7598 -1.5261  1.2354
 5926SOL     OW29239   0.755   2.597   4.649 -0.3657  0.3782 -0.5500
 5926SOL    HW129240   0.772   2.595   4.555  1.8327 -0.6454 -0.1438
 5926SOL    HW229241   0.812   2.521   4.665  0.7380  1.1700 -0.6977
 5927SOL     OW29242   0.706   1.502  13.818  0.3284  0.3024  0.5796
 5927SOL    HW129243   0.748   1.581  13.851  1.0302  0.6815 -1.2507
 5927SOL    HW229244   0.783   1.445  13.815 -0.6553 -1.0573  1.1301
 5928SOL     OW29245   2.904   2.324  11.723 -0.4094 -0.8550 -0.2248
 5928SOL    HW129246   2.994   2.319  11.756 -0.2959  0.1509 -0.3887
 5928SOL    HW229247   2.893   2.259  11.654  3.2417 -2.3795  0.5970
 5929SOL     OW29248   2.352   3.333  15.516  0.3898 -0.3501  0.1412
 5929SOL    HW129249   2.300   3.412  15.506  1.0193  0.0415 -0.0185
 5929SOL    HW229250   2.412   3.372  15.579  1.2587 -1.6279  0.1206
 5930SOL     OW29251   3.005   2.697  14.493 -0.0558 -0.1274  0.1080
 5930SOL    HW129252   2.993   2.792  14.502 -1.8694 -0.2455 -1.1948
 5930SOL    HW229253   3.007   2.685  14.399  0.9035 -0.2220  0.1429
 5931SOL     OW29254   2.541   3.911   7.320  0.3193  0.6585 -0.2854
 5931SOL    HW129255   2.471   3.892   7.258  0.6787  1.6978 -1.0071
 5931SOL    HW229256   2.487   3.938   7.394  2.3341  1.1483  1.0033
 5932SOL     OW29257   4.200   0.675   4.126 -0.7520 -0.1476 -0.6284
 5932SOL    HW129258   4.145   0.747   4.093 -0.6567 -0.1256 -0.7404
 5932SOL    HW229259   4.287   0.696   4.093  0.0352  3.1862  3.5295
 5933SOL     OW29260   0.367   0.310   4.629  0.4647  0.0159  0.6497
 5933SOL    HW129261   0.346   0.320   4.721  2.7393 -0.8606  1.2638
 5933SOL    HW229262   0.329   0.223   4.615 -0.0917  0.2905  0.4515
 5934SOL     OW29263   0.711   3.512  12.280 -0.2359  0.1827  0.7863
 5934SOL    HW129264   0.691   3.569  12.207 -1.0958 -1.4966 -0.2885
 5934SOL    HW229265   0.631   3.461  12.290 -0.1995  0.5092  2.7771
 5935SOL     OW29266   0.877   3.948   1.399  0.2636  0.5135 -0.1528
 5935SOL    HW129267   0.835   3.861   1.400 -0.7076  0.9780 -0.5162
 5935SOL    HW229268   0.802   4.001   1.374 -0.4382  0.8727  2.6936
 5936SOL     OW29269   0.948   4.572   8.741  0.3880 -0.2285 -0.2971
 5936SOL    HW129270   0.919   4.499   8.795  3.2262 -2.2069 -1.4496
 5936SOL    HW229271   1.042   4.561   8.755  0.5560 -2.3628 -3.1360
 5937SOL     OW29272   0.604   2.967  12.315 -0.1360 -0.5380 -0.1584
 5937SOL    HW129273   0.544   3.004  12.251 -0.4247  0.8171  0.8888
 5937SOL    HW229274   0.635   2.890  12.268 -1.2337 -0.5306 -0.8868
 5938SOL     OW29275   2.590   2.186   1.768  0.2480  0.0727 -0.0439
 5938SOL    HW129276   2.547   2.226   1.693  0.2059 -0.7249 -0.4422
 5938SOL    HW229277   2.580   2.093   1.750  2.2560 -0.6416  2.5318
 5939SOL     OW29278   3.961   4.359  12.852  0.0910 -0.0155 -0.3122
 5939SOL    HW129279   3.987   4.345  12.761 -2.2766  1.8431 -1.2634
 5939SOL    HW229280   3.880   4.308  12.855  0.3329 -0.2933  2.2102
 5940SOL     OW29281   2.531   2.147   5.680 -0.0216 -0.2143 -0.3460
 5940SOL    HW129282   2.566   2.161   5.591 -0.4011  0.0661 -0.4512
 5940SOL    HW229283   2.610   2.124   5.729  0.5069 -2.9651 -2.5040
 5941SOL     OW29284   3.948   3.200   1.469  0.2826 -0.1510 -0.1104
 5941SOL    HW129285   4.019   3.154   1.513  0.0586  0.8038  1.2660
 5941SOL    HW229286   3.985   3.288   1.480 -0.3614  0.0605  0.3735
 5942SOL     OW29287   2.796   2.641   5.057 -0.7836  0.4588 -0.4972
 5942SOL    HW129288   2.883   2.657   5.094 -1.8152 -0.3881  2.3248
 5942SOL    HW229289   2.807   2.649   4.963 -0.7193 -0.7635 -0.5950
 5943SOL     OW29290   2.073   0.393  13.977  0.3550  0.0436 -0.3030
 5943SOL    HW129291   2.140   0.350  13.923 -0.2153 -0.0855 -0.9078
 5943SOL    HW229292   2.019   0.433  13.909  2.6318 -0.4508 -2.3996
 5944SOL     OW29293   2.709   4.190   2.404 -0.4262 -0.3148 -0.0476
 5944SOL    HW129294   2.802   4.178   2.422 -0.3146 -0.4419 -0.7172
 5944SOL    HW229295   2.705   4.280   2.371 -0.7729  0.1523  1.2831
 5945SOL     OW29296   4.282   4.604   3.052 -0.0113 -0.1155  0.3266
 5945SOL    HW129297   4.216   4.632   2.988  0.9612 -0.2532 -0.7332
 5945SOL    HW229298   4.308   4.535   2.991 -1.8617 -2.6989  2.4270
 5946SOL     OW29299   3.253   2.401  13.020  0.1993  0.7527 -0.0842
 5946SOL    HW129300   3.182   2.352  13.061 -1.1163  1.5626 -1.3905
 5946SOL    HW229301   3.200   2.435  12.947 -0.5675 -0.8680 -0.2918
 5947SOL     OW29302   0.045   3.908  10.220 -0.0693 -0.0424  0.1002
 5947SOL    HW129303   4.683   3.955  10.222 -0.3057 -0.5058  1.8840
 5947SOL    HW229304   0.106   3.954  10.278 -1.2609  0.1686  1.2066
 5948SOL     OW29305   3.849   1.197  14.961  0.3265  0.4441 -0.0479
 5948SOL    HW129306   3.941   1.181  14.938 -0.2984 -0.4063 -1.9567
 5948SOL    HW229307   3.811   1.177  14.876 -0.2475  1.4939 -0.0306
 5949SOL     OW29308   2.776   2.305   2.930  0.0138 -0.4233 -0.7264
 5949SOL    HW129309   2.788   2.381   2.987 -2.2548  1.1529 -2.3804
 5949SOL    HW229310   2.819   2.346   2.855 -0.1864  0.6993 -0.2321
 5950SOL     OW29311   4.281   0.093   4.768 -0.5615 -0.3606  0.3401
 5950SOL    HW129312   4.276   0.028   4.698 -1.4565  0.0264  0.0484
 5950SOL    HW229313   4.197   0.086   4.813  0.3011 -1.1782  1.8201
 5951SOL     OW29314   3.300   0.856  14.218  0.4237 -0.6249 -0.0876
 5951SOL    HW129315   3.284   0.826  14.307  0.8225 -1.9701 -0.4775
 5951SOL    HW229316   3.260   0.943  14.214  2.3097  0.2596  0.4963
 5952SOL     OW29317   4.720   2.863  16.073  0.5741 -0.0767  0.0275
 5952SOL    HW129318   4.713   2.957  16.055 -1.9092 -0.4965 -1.3684
 5952SOL    HW229319   0.081   2.858  16.120  0.1913  0.7127  0.7848
 5953SOL     OW29320   3.583   2.757  13.518  0.0569 -0.1143  0.6258
 5953SOL    HW129321   3.489   2.750  13.502 -0.1196 -0.0742  1.6090
 5953SOL    HW229322   3.601   2.850  13.505 -0.5951  0.3095  2.7250
 5954SOL     OW29323   1.295   3.963  17.515  1.0075  0.7503 -0.4359
 5954SOL    HW129324   1.269   3.923  17.432  0.5746  0.7112 -0.2799
 5954SOL    HW229325   1.339   4.043  17.485 -0.1780  1.2649 -0.7712
 5955SOL     OW29326   2.485   2.633   3.761 -0.4139  0.5324  0.9711
 5955SOL    HW129327   2.566   2.684   3.751 -0.5332  0.5625  0.2019
 5955SOL    HW229328   2.415   2.697   3.757 -0.0461  0.6435 -2.9977
 5956SOL     OW29329   2.510   0.374   1.040  0.1381  0.1149  0.3628
 5956SOL    HW129330   2.504   0.280   1.021 -0.2171 -0.0623  1.3548
 5956SOL    HW229331   2.552   0.378   1.126 -0.7877 -1.3810  0.8951
 5957SOL     OW29332   3.954   3.621  11.556 -0.4521 -0.3894 -0.0319
 5957SOL    HW129333   3.959   3.591  11.647 -0.1608 -0.7105 -0.1505
 5957SOL    HW229334   4.013   3.556  11.516 -0.4814  0.9157 -2.1648
 5958SOL     OW29335   3.473   2.823   5.603 -0.1688  0.0906  0.0441
 5958SOL    HW129336   3.452   2.915   5.615  0.5742  0.5103 -1.8170
 5958SOL    HW229337   3.479   2.817   5.508  0.7896 -0.1865  0.1200
 5959SOL     OW29338   2.675   2.435   5.710 -0.0253 -0.1811  0.1768
 5959SOL    HW129339   2.717   2.518   5.731 -0.9715 -0.3103  2.6315
 5959SOL    HW229340   2.748   2.385   5.674 -0.4799  0.6346 -1.8326
 5960SOL     OW29341   2.390   2.669   9.007  0.3527  0.1030 -0.4089
 5960SOL    HW129342   2.435   2.749   8.982 -1.1663  0.8314 -0.8396
 5960SOL    HW229343   2.449   2.640   9.076 -2.3682  0.7234  2.1849
 5961SOL     OW29344   4.454   2.236   8.940 -0.7671  0.5993 -0.2310
 5961SOL    HW129345   4.496   2.311   8.980  1.1796  0.5080 -2.0866
 5961SOL    HW229346   4.534   2.202   8.901 -0.2271 -0.5575  1.9277
 5962SOL     OW29347   0.270   2.857  12.900 -0.0471  0.5289  0.1089
 5962SOL    HW129348   0.292   2.769  12.931  2.5317  0.6298 -1.4587
 5962SOL    HW229349   0.207   2.828  12.834 -0.6715  1.8209  0.1458
 5963SOL     OW29350   4.245   1.802   1.452  0.2965 -0.1259  0.3760
 5963SOL    HW129351   4.201   1.887   1.452  1.7560  0.6232  2.4005
 5963SOL    HW229352   4.340   1.814   1.451  0.0295  2.0943  1.6268
 5964SOL     OW29353   2.723   0.262   5.584  0.4411 -0.6352 -0.7435
 5964SOL    HW129354   2.817   0.251   5.569  0.6172  1.2403 -0.9827
 5964SOL    HW229355   2.707   0.188   5.526  1.2389  0.0990 -1.8997
 5965SOL     OW29356   1.335   4.506  14.939 -0.0680 -0.0496 -0.0148
 5965SOL    HW129357   1.282   4.474  14.866 -1.3544  1.5269  0.2240
 5965SOL    HW229358   1.281   4.474  15.011  0.4530  2.5642  1.5151
 5966SOL     OW29359   1.267   1.492   5.709 -0.1361  0.3409  0.3605
 5966SOL    HW129360   1.201   1.446   5.760 -0.9855  3.0929  1.7228
 5966SOL    HW229361   1.234   1.471   5.621  2.0297  1.5728 -0.7566
 5967SOL     OW29362   0.023   0.521   5.050 -0.2601 -0.3583  0.5141
 5967SOL    HW129363   0.108   0.498   5.089  0.5765 -1.3237 -1.8983
 5967SOL    HW229364   4.694   0.546   5.128  0.6241 -1.0711  1.3216
 5968SOL     OW29365   3.959   3.480   5.154  0.2636 -0.1040 -0.5092
 5968SOL    HW129366   3.940   3.573   5.167  2.6212  0.0840  1.6559
 5968SOL    HW229367   3.935   3.441   5.238 -0.4293  2.3829  0.4451
 5969SOL     OW29368   1.725   2.743   3.221 -0.2467  0.3820  0.1424
 5969SOL    HW129369   1.743   2.693   3.141 -0.0101  0.3711  0.2003
 5969SOL    HW229370   1.630   2.741   3.218 -0.2214 -0.0930 -0.3091
 5970SOL     OW29371   3.371   4.659   4.860  0.0189 -0.6290 -0.6735
 5970SOL    HW129372   3.332   4.609   4.932  0.0313 -1.2716 -1.1057
 5970SOL    HW229373   3.308   0.007   4.842 -0.9304 -1.3125 -0.0187
 5971SOL     OW29374   3.237   4.210   6.879 -0.1295 -0.2905 -0.0633
 5971SOL    HW129375   3.311   4.165   6.919 -0.4302 -1.0737 -0.3898
 5971SOL    HW229376   3.176   4.191   6.951  1.2513 -0.2902  1.0966
 5972SOL     OW29377   2.438   2.267  13.745  0.0735 -0.2078 -0.7642
 5972SOL    HW129378   2.519   2.223  13.721  0.2338 -0.9843  1.2227
 5972SOL    HW229379   2.471   2.320  13.817 -2.6525  0.6306 -0.1096
 5973SOL     OW29380   0.817   3.724   0.059  0.0009 -0.1885 -0.0973
 5973SOL    HW129381   0.794   3.657   0.124  0.7939 -1.0100 -0.6769
 5973SOL    HW229382   0.910   3.704   0.051 -0.4012 -3.0395  2.5519
 5974SOL     OW29383   2.337   1.168  10.922 -0.2518  0.0646 -0.5768
 5974SOL    HW129384   2.363   1.112  10.849  0.5169  1.1896 -1.1548
 5974SOL    HW229385   2.272   1.217  10.873  0.1977 -2.0165 -3.2409
 5975SOL     OW29386   2.752   0.371  11.966  0.2196 -0.3141 -0.0046
 5975SOL    HW129387   2.776   0.419  11.886 -2.6495 -1.3058 -1.4596
 5975SOL    HW229388   2.735   0.277  11.952 -2.3323 -0.0061  1.1156
 5976SOL     OW29389   2.012   1.529  13.248  0.2651  0.6050  0.0180
 5976SOL    HW129390   2.018   1.500  13.157 -1.0327  0.8614 -0.1458
 5976SOL    HW229391   2.013   1.622  13.224 -0.3647  0.1372 -1.8658
 5977SOL     OW29392   1.721   0.372  13.451  0.5098 -0.0236 -0.6467
 5977SOL    HW129393   1.641   0.399  13.406 -0.5927 -0.0819  1.2609
 5977SOL    HW229394   1.680   0.341  13.533 -0.9482 -0.9889 -1.7352
 5978SOL     OW29395   2.803   3.380  11.827  0.0922  0.4387  0.4456
 5978SOL    HW129396   2.884   3.334  11.846  1.2139  0.8320 -3.4217
 5978SOL    HW229397   2.831   3.472  11.832  2.5915 -0.2847 -0.6938
 5979SOL     OW29398   4.665   0.962   2.820 -0.1120  0.3245 -0.0926
 5979SOL    HW129399   4.640   0.968   2.912 -0.2327  0.2288 -0.1181
 5979SOL    HW229400   4.594   0.902   2.795  2.1718 -2.4937  0.1621
 5980SOL     OW29401   1.255   3.547   7.193 -0.0262  0.0198 -0.5965
 5980SOL    HW129402   1.271   3.634   7.231  1.1537 -0.8940  0.9968
 5980SOL    HW229403   1.224   3.494   7.266 -0.3281  2.2322  0.8772
 5981SOL     OW29404   0.751   4.408  17.634 -0.4500 -0.1923  0.1405
 5981SOL    HW129405   0.796   4.335  17.592 -0.5107 -1.0151  1.4982
 5981SOL    HW229406   0.702   4.444  17.560 -0.5816  0.3038  0.4691
 5982SOL     OW29407   4.547   3.520   4.945  0.5960 -0.0081 -0.6141
 5982SOL    HW129408   4.590   3.587   4.891  1.8548 -1.2414 -1.1188
 5982SOL    HW229409   4.546   3.446   4.884  3.8192 -0.4996 -0.0244
 5983SOL     OW29410   4.560   4.718   5.806  0.1166 -0.0763  0.8004
 5983SOL    HW129411   4.568   0.091   5.817  0.0693  0.0658 -0.4069
 5983SOL    HW229412   4.652   4.699   5.826  0.7999 -0.7878 -2.9306
 5984SOL     OW29413   1.538   2.107   6.005  0.1107 -0.1345 -0.1979
 5984SOL    HW129414   1.509   2.198   6.017 -2.6792 -1.1285  0.6578
 5984SOL    HW229415   1.598   2.093   6.079 -0.3891 -0.4675  0.1441
 5985SOL     OW29416   1.167   0.136  17.261 -0.3058  0.1258  0.1018
 5985SOL    HW129417   1.098   0.134  17.195 -0.8901  0.2636  0.7056
 5985SOL    HW229418   1.115   0.129  17.341  1.4261  3.3708  1.4885
 5986SOL     OW29419   1.847   1.096  15.542 -0.4065  0.2916 -0.2513
 5986SOL    HW129420   1.873   1.025  15.484 -1.9107 -0.0632 -0.4920
 5986SOL    HW229421   1.760   1.068  15.568 -0.3075 -2.0927 -2.5065
 5987SOL     OW29422   1.253   2.661   6.834  0.1507  0.4264  0.3352
 5987SOL    HW129423   1.176   2.661   6.890  0.8543 -2.2342  1.2816
 5987SOL    HW229424   1.219   2.662   6.745 -0.9592 -1.0720  0.7497
 5988SOL     OW29425   1.139   2.553   3.387 -0.7944  0.3847 -0.1938
 5988SOL    HW129426   1.115   2.613   3.316 -0.8730 -0.3556 -0.7880
 5988SOL    HW229427   1.056   2.536   3.432  0.9446 -1.9563  2.1597
 5989SOL     OW29428   3.633   0.007   3.783  0.6094  0.0732  0.1898
 5989SOL    HW129429   3.567   0.013   3.714 -0.6333 -1.4826  1.2279
 5989SOL    HW229430   3.631   0.093   3.825 -2.5794  0.9252 -1.6884
 5990SOL     OW29431   0.453   3.783  10.216 -0.0838  0.7018 -0.0758
 5990SOL    HW129432   0.428   3.719  10.283 -1.7005  0.4121 -0.9638
 5990SOL    HW229433   0.443   3.730  10.137 -2.1199 -0.8969  1.2275
 5991SOL     OW29434   0.746   4.604   7.001 -0.3421 -0.2908  0.3355
 5991SOL    HW129435   0.658   4.585   7.032  0.2956 -1.4203  1.4294
 5991SOL    HW229436   0.783   4.518   6.982  3.0140  1.5620 -1.6493
 5992SOL     OW29437   0.206   2.903   2.164 -0.2445 -0.1366  0.1369
 5992SOL    HW129438   0.164   2.974   2.115  0.5027  1.5128  1.8761
 5992SOL    HW229439   0.130   2.856   2.197 -1.3855 -0.3926 -2.8612
 5993SOL     OW29440   1.335   4.616  14.466 -0.6243  0.6482  0.5900
 5993SOL    HW129441   1.253   4.622  14.419 -0.4883 -2.9513 -0.1040
 5993SOL    HW229442   1.397   4.586  14.400  1.1678  1.9752  1.6544
 5994SOL     OW29443   2.621   0.155  10.599  0.8296  0.1272 -0.3357
 5994SOL    HW129444   2.682   0.083  10.610 -1.2474 -1.2589  1.8817
 5994SOL    HW229445   2.543   0.117  10.560  0.0412 -0.5089  1.8647
 5995SOL     OW29446   0.593   2.954  10.745 -0.9987  0.0916 -0.7570
 5995SOL    HW129447   0.588   3.049  10.734  3.5799  0.0602 -2.9975
 5995SOL    HW229448   0.630   2.952  10.834  0.7473 -0.9502 -1.4926
 5996SOL     OW29449   0.208   1.226   8.266  0.3796  0.3462 -0.1485
 5996SOL    HW129450   0.206   1.321   8.257 -0.8368  0.1643 -1.7029
 5996SOL    HW229451   0.239   1.202   8.179 -0.6661 -1.1825 -0.1043
 5997SOL     OW29452   0.693   3.709   8.577  0.4598 -0.8719 -0.0738
 5997SOL    HW129453   0.784   3.738   8.575  0.0223  0.6752  2.0188
 5997SOL    HW229454   0.662   3.787   8.531  1.0637 -1.1880 -1.0012
 5998SOL     OW29455   4.358   4.056   5.048  0.3577 -0.3481 -0.0344
 5998SOL    HW129456   4.298   4.090   4.982 -0.1224  3.2494  2.2499
 5998SOL    HW229457   4.298   4.053   5.123 -0.2380 -1.9537 -0.5837
 5999SOL     OW29458   0.863   3.963   2.181 -0.2623  0.0862  0.1161
 5999SOL    HW129459   0.855   4.039   2.123 -0.4372  0.3082  0.4337
 5999SOL    HW229460   0.882   4.007   2.264 -0.4556  0.7964 -0.2205
 6000SOL     OW29461   1.178   0.503   8.269  0.3085  0.1167  0.2661
 6000SOL    HW129462   1.084   0.493   8.252  1.0812 -3.9651 -1.6957
 6000SOL    HW229463   1.181   0.429   8.329 -2.6262 -0.1384  0.1373
 6001SOL     OW29464   4.411   2.822   5.712 -0.2902  0.8344 -0.0794
 6001SOL    HW129465   4.390   2.751   5.651 -0.7680 -0.1054  1.1716
 6001SOL    HW229466   4.441   2.767   5.784  0.8357 -0.3720 -1.4765
 6002SOL     OW29467   0.697   0.528   8.813  0.1079  0.3600  0.0423
 6002SOL    HW129468   0.638   0.563   8.880 -3.3146 -0.7362 -2.4454
 6002SOL    HW229469   0.741   0.451   8.849 -0.2541 -0.3579 -1.0764
 6003SOL     OW29470   2.373   3.138   7.390  0.0629 -0.3673  0.3203
 6003SOL    HW129471   2.428   3.067   7.423  2.0936  2.3331  2.7214
 6003SOL    HW229472   2.440   3.180   7.337  0.2959 -0.8095  0.2702
 6004SOL     OW29473   3.342   0.012   3.644  0.4753  0.3017  0.8201
 6004SOL    HW129474   3.297   4.715   3.726 -2.4794  0.5644 -0.7594
 6004SOL    HW229475   3.316   0.103   3.631 -1.4213 -0.6159 -1.5642
 6005SOL     OW29476   4.270   2.184   4.051  0.3444  0.8052  0.5484
 6005SOL    HW129477   4.226   2.268   4.044 -0.4078  0.3573 -0.1954
 6005SOL    HW229478   4.277   2.198   4.146 -1.5159  2.7360  0.3843
 6006SOL     OW29479   1.555   0.585  14.118  0.5017  0.0055 -0.4424
 6006SOL    HW129480   1.618   0.646  14.157 -0.6591  0.6401  0.4299
 6006SOL    HW229481   1.505   0.572  14.198  1.8538 -1.1513  0.2173
 6007SOL     OW29482   2.961   2.891   8.250  0.2104  0.4046 -0.2912
 6007SOL    HW129483   2.952   2.966   8.191 -2.1785 -0.3046 -0.8436
 6007SOL    HW229484   3.042   2.852   8.218 -0.9331 -0.7344 -1.8334
 6008SOL     OW29485   3.865   3.969  11.164 -0.0169  0.1510  0.0658
 6008SOL    HW129486   3.912   3.912  11.225  0.0291 -0.7771 -0.8476
 6008SOL    HW229487   3.880   4.056  11.202 -1.8071  0.0740  0.9333
 6009SOL     OW29488   3.930   4.039   2.972  0.1564  0.2793 -0.2532
 6009SOL    HW129489   3.938   4.076   3.060 -1.2403  0.0357 -0.0241
 6009SOL    HW229490   3.838   4.011   2.975  0.3672 -0.4409 -0.6380
 6010SOL     OW29491   1.999   1.872   3.794  0.3176  0.0312 -0.1599
 6010SOL    HW129492   1.926   1.929   3.816 -0.3127 -0.7201 -0.3005
 6010SOL    HW229493   2.072   1.929   3.821 -0.0278  0.9621 -1.2113
 6011SOL     OW29494   0.158   1.358   5.483 -0.6272  0.0291 -0.2736
 6011SOL    HW129495   0.110   1.362   5.400 -0.6851 -0.5380 -0.2697
 6011SOL    HW229496   0.097   1.392   5.548  0.3924 -0.7837  1.0943
 6012SOL     OW29497   1.024   3.993  11.259  0.1269 -0.4713  0.2285
 6012SOL    HW129498   1.080   4.034  11.192 -0.0818 -2.4434 -1.1426
 6012SOL    HW229499   1.058   3.904  11.265  0.7538 -0.2183  0.5560
 6013SOL     OW29500   2.975   1.598   9.075  0.3708 -0.1480 -0.1774
 6013SOL    HW129501   3.000   1.664   9.139 -0.7843 -0.4245  0.5557
 6013SOL    HW229502   3.062   1.586   9.035 -0.8367  1.9539 -3.4047
 6014SOL     OW29503   4.420   0.793   8.478  0.3413  0.5347 -0.5940
 6014SOL    HW129504   4.505   0.796   8.432  0.0400 -0.2001 -1.1954
 6014SOL    HW229505   4.368   0.757   8.406 -0.2115 -0.3733  0.2582
 6015SOL     OW29506   3.945   4.184   4.116  0.2681  0.0935  0.1430
 6015SOL    HW129507   3.927   4.253   4.052  0.6206 -1.4350 -1.6087
 6015SOL    HW229508   3.871   4.181   4.177 -1.2868  2.3763 -1.6419
 6016SOL     OW29509   2.204   2.624   8.132  0.8671 -0.3300  0.3281
 6016SOL    HW129510   2.219   2.711   8.094 -1.7936 -0.1452 -0.2573
 6016SOL    HW229511   2.273   2.635   8.197 -0.2544  1.0569  1.2812
 6017SOL     OW29512   0.293   4.242  10.222  0.6084 -0.0997  0.1635
 6017SOL    HW129513   0.382   4.275  10.233  0.7208 -0.5954  0.6962
 6017SOL    HW229514   0.308   4.162  10.172 -0.5132 -1.3812  1.8755
 6018SOL     OW29515   0.358   3.072   5.227  0.1216 -0.1530  0.2409
 6018SOL    HW129516   0.324   3.087   5.315  0.0361  0.1460  0.1584
 6018SOL    HW229517   0.302   3.005   5.188  2.0723 -2.0674  0.7187
 6019SOL     OW29518   3.171   1.051   4.462 -0.3884 -0.1357  0.0443
 6019SOL    HW129519   3.183   0.976   4.403  1.3265 -0.0619  0.2948
 6019SOL    HW229520   3.239   1.038   4.528 -0.9144  0.5328  0.7298
 6020SOL     OW29521   4.205   3.127   4.088 -0.0103 -0.3722  0.0015
 6020SOL    HW129522   4.287   3.079   4.086  1.1690  1.7517 -1.7159
 6020SOL    HW229523   4.141   3.058   4.071 -2.6502  3.0118 -3.7261
 6021SOL     OW29524   0.971   0.550   7.100  0.3766  0.0803  0.0325
 6021SOL    HW129525   0.999   0.459   7.102 -0.3986 -0.1037  3.1832
 6021SOL    HW229526   1.041   0.601   7.139  0.6689 -0.6903  0.5040
 6022SOL     OW29527   3.657   1.062   7.127  0.5457 -0.0584 -0.3265
 6022SOL    HW129528   3.644   1.028   7.216  0.2015  0.8245 -0.0466
 6022SOL    HW229529   3.598   1.000   7.083 -0.9480  0.9931  0.1954
 6023SOL     OW29530   0.847   4.293   8.087 -0.2104 -0.0251  0.3056
 6023SOL    HW129531   0.824   4.373   8.135  0.2378 -1.3048  2.6729
 6023SOL    HW229532   0.884   4.332   8.009  1.9398 -1.7872  0.4391
 6024SOL     OW29533   0.520   1.000   9.954 -0.1585 -0.1443 -0.4068
 6024SOL    HW129534   0.577   0.925   9.969 -0.8722 -0.9833 -1.8289
 6024SOL    HW229535   0.535   1.049  10.034 -0.2493  1.0376 -1.1139
 6025SOL     OW29536   4.202   1.323   5.600  0.5752 -0.5214 -0.0005
 6025SOL    HW129537   4.134   1.280   5.653  0.5372 -1.5762 -0.8866
 6025SOL    HW229538   4.279   1.282   5.640 -0.2575 -0.6521  1.4712
 6026SOL     OW29539   1.183   0.056   4.109  0.0416  0.2706  0.1158
 6026SOL    HW129540   1.187   0.143   4.148 -1.5774  0.8964 -1.1305
 6026SOL    HW229541   1.121   0.061   4.036  1.0842 -0.7184 -0.8551
 6027SOL     OW29542   2.285   0.308   4.840  0.3230  0.4184 -0.3356
 6027SOL    HW129543   2.303   0.324   4.932  1.8998 -2.7764 -0.0833
 6027SOL    HW229544   2.370   0.324   4.799 -0.0426 -3.4252 -2.5918
 6028SOL     OW29545   0.828   4.369   4.610 -0.1308  0.5940  0.1798
 6028SOL    HW129546   0.853   4.424   4.683  1.4768  0.5958 -0.3747
 6028SOL    HW229547   0.749   4.412   4.579  0.8169  0.1978 -2.7629
 6029SOL     OW29548   2.400   1.277   2.363  0.2575 -0.7598 -0.2144
 6029SOL    HW129549   2.433   1.321   2.285 -2.0917 -0.1329 -0.8600
 6029SOL    HW229550   2.435   1.339   2.428 -0.4719 -2.1700  1.5299
 6030SOL     OW29551   0.550   0.311   5.952 -0.7905 -0.3389  0.3793
 6030SOL    HW129552   0.487   0.255   5.907  0.0239 -1.5606  0.7571
 6030SOL    HW229553   0.507   0.393   5.926 -1.2189 -0.9655 -0.8954
 6031SOL     OW29554   3.652   2.531  16.407 -0.4090  0.1501 -0.1132
 6031SOL    HW129555   3.647   2.621  16.439  3.8885  0.0591  0.6990
 6031SOL    HW229556   3.568   2.500  16.442 -1.4747  2.8745 -0.2083
 6032SOL     OW29557   4.127   2.378  12.286  0.3389 -0.1591  0.1359
 6032SOL    HW129558   4.207   2.378  12.339  1.2004  0.5905 -1.1642
 6032SOL    HW229559   4.106   2.470  12.271 -2.5801 -1.1817 -2.1677
 6033SOL     OW29560   2.075   3.936  16.007  0.1952  0.4429  0.2579
 6033SOL    HW129561   2.096   3.987  15.929 -1.5686  1.1813  0.2732
 6033SOL    HW229562   2.121   3.986  16.075 -0.0451 -0.0063  0.7549
 6034SOL     OW29563   2.159   4.571   2.792 -0.0781 -0.0768  0.6118
 6034SOL    HW129564   2.196   4.649   2.751  0.9455 -0.8600  0.0414
 6034SOL    HW229565   2.074   4.600   2.826  0.2906 -0.0089  1.4652
 6035SOL     OW29566   2.437   4.552   5.607  0.2998  0.1868 -0.4652
 6035SOL    HW129567   2.444   4.646   5.623 -3.6587 -0.0799  2.8605
 6035SOL    HW229568   2.407   4.518   5.692  1.2699 -0.6249 -0.4564
 6036SOL     OW29569   4.236   3.367   9.225 -0.4474  0.0127 -0.2202
 6036SOL    HW129570   4.296   3.331   9.291  0.3445 -0.5956 -1.2537
 6036SOL    HW229571   4.264   3.314   9.150 -0.9922 -2.2658  1.2021
 6037SOL     OW29572   0.722   1.211  14.758 -0.0624 -0.1843  0.3238
 6037SOL    HW129573   0.635   1.244  14.738 -0.1135 -1.4992 -1.6427
 6037SOL    HW229574   0.704   1.125  14.796  1.3280 -1.3780 -1.7512
 6038SOL     OW29575   4.600   1.857   2.386  0.6337  0.4503  0.4029
 6038SOL    HW129576   4.639   1.808   2.458 -1.7963 -2.7448 -0.4974
 6038SOL    HW229577   4.640   1.942   2.406 -1.6547  2.1844 -2.2853
 6039SOL     OW29578   2.947   2.284   2.588 -0.3084  0.7038  1.0542
 6039SOL    HW129579   2.930   2.358   2.531  0.6267  0.7173  0.7964
 6039SOL    HW229580   2.874   2.223   2.578 -0.5759  1.1457  0.3562
 6040SOL     OW29581   4.246   4.627   7.533 -0.0636  0.0597  0.1675
 6040SOL    HW129582   4.190   4.585   7.598  1.7043  0.7819  2.1619
 6040SOL    HW229583   4.319   4.659   7.587 -0.1293  0.9099 -0.2557
 6041SOL     OW29584   3.686   4.163   6.567  0.2135 -0.0537 -0.3711
 6041SOL    HW129585   3.631   4.240   6.585  0.4672 -0.7254  3.2251
 6041SOL    HW229586   3.774   4.184   6.597 -0.3388 -0.1386  1.3194
 6042SOL     OW29587   0.501   0.886   8.083  0.5540 -0.0139  0.1464
 6042SOL    HW129588   0.508   0.795   8.112  0.1987  0.3125  1.2630
 6042SOL    HW229589   0.568   0.925   8.139 -0.0413  0.1699  0.7247
 6043SOL     OW29590   1.921   2.842   0.533  0.1709 -0.4936 -0.2456
 6043SOL    HW129591   1.895   2.835   0.442  1.2346  1.6672 -0.6986
 6043SOL    HW229592   1.861   2.783   0.580 -1.7624 -0.3204 -2.5344
 6044SOL     OW29593   3.950   0.247  16.220 -0.5166  0.6511  0.1253
 6044SOL    HW129594   4.025   0.193  16.244  0.3276  1.0078 -1.7362
 6044SOL    HW229595   3.894   0.227  16.295 -2.5616 -0.0792 -1.5839
 6045SOL     OW29596   3.837   2.428   1.764 -0.1866  0.4850  0.1345
 6045SOL    HW129597   3.902   2.486   1.724  0.9803 -0.5871  0.4892
 6045SOL    HW229598   3.898   2.383   1.822 -0.9281  0.1559  0.6623
 6046SOL     OW29599   4.403   4.383   7.365  0.0101  0.5332 -0.1194
 6046SOL    HW129600   4.374   4.336   7.444  2.0135  0.3600  0.5353
 6046SOL    HW229601   4.444   4.461   7.402  1.0040  0.9370 -2.0469
 6047SOL     OW29602   2.287   1.817   4.888 -0.0235 -0.9033 -0.2683
 6047SOL    HW129603   2.335   1.899   4.893 -1.9423  0.2342 -0.6610
 6047SOL    HW229604   2.239   1.811   4.971  3.5277  0.2561  1.8871
 6048SOL     OW29605   4.525   4.306   3.274 -0.7843  0.7467 -0.1064
 6048SOL    HW129606   4.616   4.296   3.244 -1.7563  0.5058 -2.9706
 6048SOL    HW229607   4.535   4.257   3.355 -1.4751 -0.1923 -0.5818
 6049SOL     OW29608   0.414   2.067  17.246  0.7599  0.2540  0.0257
 6049SOL    HW129609   0.471   2.120  17.190  1.1003  0.5585  0.6667
 6049SOL    HW229610   0.358   2.020  17.184  1.0354  0.1186 -0.1205
 6050SOL     OW29611   0.798   2.755  15.895 -0.3660  0.0813 -0.2985
 6050SOL    HW129612   0.846   2.801  15.826 -0.8497 -1.2343 -1.5390
 6050SOL    HW229613   0.776   2.679  15.840  2.5272 -2.6199  2.2485
 6051SOL     OW29614   1.505   1.247   7.387  0.4108  0.3456 -1.0409
 6051SOL    HW129615   1.489   1.195   7.308 -2.1840  3.0329 -2.2824
 6051SOL    HW229616   1.576   1.298   7.346  0.4236  0.0752 -1.3578
 6052SOL     OW29617   1.060   0.128   3.643 -0.6208  0.1865  0.1888
 6052SOL    HW129618   0.997   0.065   3.677  1.2161 -1.3482  0.7418
 6052SOL    HW229619   1.015   0.210   3.620  0.6893  0.7210 -0.4726
 6053SOL     OW29620   0.064   3.692   0.046  0.3394 -0.3974  0.3790
 6053SOL    HW129621   0.011   3.764   0.009 -0.3393 -0.4811  1.1982
 6053SOL    HW229622   0.139   3.738   0.084  1.1484 -0.7898 -0.7317
 6054SOL     OW29623   3.384   4.312   2.964  0.2241 -0.3150  0.0322
 6054SOL    HW129624   3.450   4.332   2.898 -1.1150 -1.4536 -1.6377
 6054SOL    HW229625   3.306   4.342   2.917 -0.9661  0.9863  2.8478
 6055SOL     OW29626   3.602   3.501   3.401  0.4942 -0.0094  0.2961
 6055SOL    HW129627   3.519   3.454   3.389  1.1108 -1.2835  1.0409
 6055SOL    HW229628   3.658   3.497   3.323  0.5545 -3.5436  0.5554
 6056SOL     OW29629   4.167   4.372   7.820 -0.2634  0.0607 -0.3622
 6056SOL    HW129630   4.144   4.317   7.895  0.2793  3.3045  2.1980
 6056SOL    HW229631   4.108   4.334   7.755  0.3615 -1.7105  0.1252
 6057SOL     OW29632   0.085   4.631   3.059 -0.1547  0.3467  0.2721
 6057SOL    HW129633   0.083   0.005   3.051  1.2487  0.4479  1.0620
 6057SOL    HW229634   0.171   4.627   3.102 -0.1926  1.8334  0.4889
 6058SOL     OW29635   3.530   3.315   7.168 -0.1104 -0.2335 -0.1936
 6058SOL    HW129636   3.485   3.236   7.198 -0.5451  0.5751  1.2974
 6058SOL    HW229637   3.610   3.307   7.220  1.0117 -3.0186 -2.3954
 6059SOL     OW29638   2.251   2.413  17.394 -0.2396  0.0031 -0.0616
 6059SOL    HW129639   2.302   2.384  17.318 -2.4067 -0.0143 -1.4831
 6059SOL    HW229640   2.174   2.358  17.394 -0.8873  0.9106 -1.4524
 6060SOL     OW29641   3.934   3.998   0.837 -0.0209 -0.2831  0.3713
 6060SOL    HW129642   3.990   4.066   0.800  0.9924 -1.5085 -0.3504
 6060SOL    HW229643   3.883   4.051   0.899 -0.1939 -0.1376  0.1055
 6061SOL     OW29644   3.222   1.595   5.836 -0.4551  0.2058  0.0578
 6061SOL    HW129645   3.150   1.641   5.879 -1.4904 -1.2064 -0.2001
 6061SOL    HW229646   3.233   1.655   5.762  3.7519  0.3859  0.8344
 6062SOL     OW29647   3.309   1.270   0.554  0.1371  0.5691 -0.2087
 6062SOL    HW129648   3.235   1.261   0.493  0.9592 -0.0521 -1.1271
 6062SOL    HW229649   3.294   1.347   0.608  1.0935  0.2142  0.5445
 6063SOL     OW29650   4.257   2.839   1.254  0.5164  0.9975 -0.2163
 6063SOL    HW129651   4.195   2.863   1.323 -1.6427 -1.8754 -1.1483
 6063SOL    HW229652   4.257   2.924   1.208 -0.3454  0.7129 -0.7465
 6064SOL     OW29653   1.080   2.499  13.676 -0.0884 -0.3783  0.3371
 6064SOL    HW129654   1.172   2.498  13.652  0.0474  1.1235  0.7713
 6064SOL    HW229655   1.041   2.501  13.589 -0.9438 -0.1837  0.7188
 6065SOL     OW29656   0.988   4.237   2.051  0.1256  0.6989 -0.0278
 6065SOL    HW129657   1.003   4.328   2.024 -0.2468  0.1565 -2.0484
 6065SOL    HW229658   1.073   4.194   2.047  0.0791  0.3840  2.4716
 6066SOL     OW29659   1.267   4.415  12.116  0.0700  0.2466  0.3083
 6066SOL    HW129660   1.204   4.354  12.155 -0.3597 -1.3954 -3.0049
 6066SOL    HW229661   1.335   4.348  12.113 -0.4468 -0.3409  1.6119
 6067SOL     OW29662   2.409   3.728  10.032 -0.3341  0.0040 -0.3413
 6067SOL    HW129663   2.390   3.636  10.016 -2.5236  0.6217 -1.3110
 6067SOL    HW229664   2.395   3.744   9.939  0.6985  0.0505 -0.4923
 6068SOL     OW29665   3.549   3.184   4.123 -0.1257 -0.7100  0.0238
 6068SOL    HW129666   3.554   3.112   4.186  2.0777  0.5630  1.3318
 6068SOL    HW229667   3.633   3.173   4.078  0.0277  1.2374 -0.1685
 6069SOL     OW29668   1.502   4.014   6.332  0.4878  0.5904  0.1732
 6069SOL    HW129669   1.440   3.950   6.297 -1.0426  0.4778  3.1608
 6069SOL    HW229670   1.454   4.054   6.404 -0.9583 -1.5687  0.3866
 6070SOL     OW29671   2.154   2.395   7.202 -0.6394 -0.3271  0.0350
 6070SOL    HW129672   2.062   2.383   7.176  0.1830 -2.7734 -1.8676
 6070SOL    HW229673   2.168   2.317   7.255  0.4732 -1.4504 -1.8871
 6071SOL     OW29674   2.716   3.071   7.525  0.3888  0.4742  0.2110
 6071SOL    HW129675   2.778   3.036   7.461  0.6209 -1.1282  1.3009
 6071SOL    HW229676   2.673   2.996   7.566  0.7119  0.4052  0.4269
 6072SOL     OW29677   4.535   2.799   1.206 -0.3866 -0.4799  0.5082
 6072SOL    HW129678   4.518   2.705   1.205 -2.1738 -0.1684  2.0185
 6072SOL    HW229679   4.445   2.830   1.195  0.1463  1.2222  1.0773
 6073SOL     OW29680   3.431   4.184   8.306  0.0469  0.0532  0.2520
 6073SOL    HW129681   3.406   4.260   8.358  0.1015 -0.2821  0.7679
 6073SOL    HW229682   3.395   4.217   8.223  1.3505 -1.1472 -0.7857
 6074SOL     OW29683   3.916   3.497  13.530  0.1662 -0.8873  0.3242
 6074SOL    HW129684   3.884   3.527  13.445 -0.1029  1.5350  1.2784
 6074SOL    HW229685   3.992   3.556  13.526 -1.2325  0.8605 -0.6091
 6075SOL     OW29686   2.797   1.675   9.354  0.0288 -0.1086 -0.2907
 6075SOL    HW129687   2.880   1.656   9.310  0.9190 -0.8445  1.7001
 6075SOL    HW229688   2.738   1.698   9.282 -0.4995  3.0154  1.1181
 6076SOL     OW29689   2.770   4.147   4.981  0.6590  0.0074 -0.2648
 6076SOL    HW129690   2.820   4.212   4.932 -2.1807  0.8452 -2.0280
 6076SOL    HW229691   2.692   4.142   4.926 -0.4308  0.6823  1.2092
 6077SOL     OW29692   4.653   3.161   7.149  0.2649  0.9890 -0.7610
 6077SOL    HW129693   4.604   3.154   7.231  2.1150 -0.3240  0.2317
 6077SOL    HW229694   4.602   3.228   7.103 -1.1063  1.4928  1.4845
 6078SOL     OW29695   0.187   0.637   3.231 -0.7094  0.5391 -0.1527
 6078SOL    HW129696   0.160   0.729   3.221  2.2058  1.5260  0.9250
 6078SOL    HW229697   0.243   0.644   3.308  1.1818 -0.2811 -1.4627
 6079SOL     OW29698   0.392   3.127  17.351 -0.2596  0.2078 -0.5248
 6079SOL    HW129699   0.443   3.207  17.339 -1.1284  1.3773  3.7778
 6079SOL    HW229700   0.306   3.166  17.340 -1.4151 -2.8249 -2.3104
 6080SOL     OW29701   4.227   2.255   4.932  0.7148  0.2526  0.0787
 6080SOL    HW129702   4.226   2.305   4.851  0.3446  1.9954  1.1546
 6080SOL    HW229703   4.182   2.310   4.996 -1.7981 -2.7164  0.8824
 6081SOL     OW29704   3.908   2.423   6.388 -0.2319  0.3120 -0.5149
 6081SOL    HW129705   3.838   2.371   6.349 -1.3558  0.1102  1.7485
 6081SOL    HW229706   3.899   2.404   6.481 -2.8651 -0.7418 -0.9977
 6082SOL     OW29707   4.492   3.203  10.589 -0.4630 -0.3524 -0.2558
 6082SOL    HW129708   4.535   3.141  10.648  1.4876 -0.8258 -2.1494
 6082SOL    HW229709   4.510   3.286  10.632 -0.5686 -0.6436  0.3413
 6083SOL     OW29710   1.139   3.599   2.190 -0.3856 -0.4137  0.0424
 6083SOL    HW129711   1.084   3.521   2.179  0.4079 -0.5026 -3.5639
 6083SOL    HW229712   1.094   3.677   2.158  1.6347  1.0512  0.7279
 6084SOL     OW29713   3.580   2.066  10.284  0.3260  0.5177  0.2907
 6084SOL    HW129714   3.562   2.107  10.200 -1.7541 -1.4143 -0.2073
 6084SOL    HW229715   3.666   2.096  10.313  0.2916  0.9572 -0.0681
 6085SOL     OW29716   2.297   0.221  11.938  0.0577 -0.0219  0.3649
 6085SOL    HW129717   2.277   0.143  11.887 -0.7855 -0.9987  2.1655
 6085SOL    HW229718   2.315   0.178  12.021 -0.6751 -0.6394  0.2069
 6086SOL     OW29719   2.380   4.088   6.311 -0.0174 -0.1918 -0.3398
 6086SOL    HW129720   2.474   4.102   6.299  0.1429 -0.8398  0.1884
 6086SOL    HW229721   2.364   4.056   6.223 -3.9218  4.0758 -1.1856
 6087SOL     OW29722   2.678   0.041   8.582 -0.0073  0.1755  0.0961
 6087SOL    HW129723   2.661   4.677   8.543 -1.7140  0.6899 -0.2701
 6087SOL    HW229724   2.609   0.088   8.535  2.3204  2.0914 -1.4025
 6088SOL     OW29725   4.000   1.028   4.500 -0.6074 -0.5569 -0.3869
 6088SOL    HW129726   4.069   1.064   4.556  0.7715 -1.1224 -1.7374
 6088SOL    HW229727   3.946   1.102   4.472  2.3635  0.4796 -3.3510
 6089SOL     OW29728   2.466   4.634   1.225  0.3690  0.2712 -0.1913
 6089SOL    HW129729   2.429   4.714   1.262  2.0762  0.9638  0.0515
 6089SOL    HW229730   2.513   4.612   1.306  1.7465 -0.3478 -1.1473
 6090SOL     OW29731   4.034   1.219   1.059  0.1909  0.4566  0.7638
 6090SOL    HW129732   3.946   1.257   1.065 -0.3938 -0.4003 -2.2529
 6090SOL    HW229733   4.086   1.298   1.071  3.3810 -1.4348 -0.7157
 6091SOL     OW29734   3.493   0.353   7.830 -0.1267 -0.1112  0.3859
 6091SOL    HW129735   3.585   0.327   7.829  0.3190  1.5324 -1.2697
 6091SOL    HW229736   3.456   0.304   7.757 -2.9639  1.1820  0.9245
 6092SOL     OW29737   3.969   2.479   8.907  0.2115  1.1586  0.2279
 6092SOL    HW129738   4.046   2.523   8.871 -0.1384  0.7814 -0.9925
 6092SOL    HW229739   3.904   2.547   8.926 -0.8465  0.2710 -0.1752
 6093SOL     OW29740   2.829   3.381   1.311  0.2706 -0.0342 -0.8550
 6093SOL    HW129741   2.836   3.293   1.348  0.5158 -0.5868 -2.2063
 6093SOL    HW229742   2.733   3.385   1.312  0.3073  0.7139 -0.7899
 6094SOL     OW29743   2.002   2.277   3.078 -0.2887  0.1543  0.1301
 6094SOL    HW129744   2.052   2.213   3.026 -0.0092 -1.4905  2.4176
 6094SOL    HW229745   2.004   2.354   3.022  1.6498  0.5254  0.7157
 6095SOL     OW29746   1.766   3.354   7.589 -0.1548  0.3980 -0.5039
 6095SOL    HW129747   1.754   3.307   7.507 -0.5323  0.5943 -0.5589
 6095SOL    HW229748   1.694   3.413   7.568 -1.0801 -0.6442 -0.3330
 6096SOL     OW29749   3.186   4.414   2.124  0.0435 -0.3620  0.2447
 6096SOL    HW129750   3.231   4.393   2.206 -2.3085 -0.8201  1.3993
 6096SOL    HW229751   3.236   4.351   2.073  0.8629  1.5442 -1.3338
 6097SOL     OW29752   1.137   4.242   0.804  0.0619 -0.4436  0.1080
 6097SOL    HW129753   1.062   4.262   0.860 -1.1530 -1.1839 -1.2424
 6097SOL    HW229754   1.186   4.323   0.797  0.7497 -0.9714 -1.1791
 6098SOL     OW29755   1.626   4.002   6.765 -0.4884  0.0362 -0.3681
 6098SOL    HW129756   1.572   3.953   6.704  1.5659 -0.2203 -1.9814
 6098SOL    HW229757   1.680   4.059   6.710 -1.2771  1.1834  0.0307
 6099SOL     OW29758   0.076   0.684   7.651 -0.0922  0.1111 -0.0457
 6099SOL    HW129759   0.052   0.751   7.716 -2.6766 -1.9298  1.1037
 6099SOL    HW229760   0.076   0.735   7.570 -0.6162  1.5312  0.8490
 6100SOL     OW29761   4.168   2.121   7.245  0.6185 -0.6710 -0.3536
 6100SOL    HW129762   4.074   2.107   7.235  0.7227 -0.4927 -1.5866
 6100SOL    HW229763   4.182   2.207   7.284 -0.8696 -1.5282  2.0165
 6101SOL     OW29764   1.526   3.437  17.019  0.5234  0.2254  0.1129
 6101SOL    HW129765   1.458   3.482  16.968  0.1819 -2.1029 -1.4993
 6101SOL    HW229766   1.480   3.404  17.096  2.9963 -0.6974  1.1894
 6102SOL     OW29767   1.772   1.854   7.282  0.2981 -0.2810 -0.4934
 6102SOL    HW129768   1.695   1.912   7.278 -0.3955 -1.2903 -1.8971
 6102SOL    HW229769   1.734   1.766   7.278 -1.4213  0.3738  0.9561
 6103SOL     OW29770   1.066   3.920   2.540  0.0613 -0.4138 -0.4455
 6103SOL    HW129771   1.011   3.843   2.552  1.7515 -1.8140 -1.5867
 6103SOL    HW229772   1.077   3.947   2.631 -2.2185  0.6396 -0.4873
 6104SOL     OW29773   2.320   2.738   6.789 -0.6697  0.0348 -0.2753
 6104SOL    HW129774   2.293   2.824   6.758  1.1408  0.5702 -0.4088
 6104SOL    HW229775   2.294   2.684   6.715  0.3855 -1.7895  0.6740
 6105SOL     OW29776   1.141   0.963   8.461  0.6039  0.0397  0.1096
 6105SOL    HW129777   1.176   0.955   8.549  0.5401  0.1047  0.1409
 6105SOL    HW229778   1.121   0.872   8.436 -0.3881 -0.5589  3.0763
 6106SOL     OW29779   2.230   1.187   7.289 -0.2081  0.3542 -0.1646
 6106SOL    HW129780   2.214   1.111   7.233 -3.9608 -0.2692  1.7456
 6106SOL    HW229781   2.253   1.153   7.376 -3.4560  0.2780  0.7007
 6107SOL     OW29782   2.832   0.160   8.335  0.6678 -0.1637  0.2627
 6107SOL    HW129783   2.739   0.141   8.338  0.6701 -0.1677  0.3161
 6107SOL    HW229784   2.870   0.075   8.308 -1.9207 -0.3356 -2.8031
 6108SOL     OW29785   4.036   2.687  10.027  0.5865  0.0085  0.3089
 6108SOL    HW129786   3.955   2.736  10.042  0.8628  0.9442 -1.2488
 6108SOL    HW229787   4.074   2.703  10.113 -0.1956 -1.7442  0.9782
 6109SOL     OW29788   4.115   1.930  17.457 -0.7656 -0.0432 -0.4895
 6109SOL    HW129789   4.039   1.878  17.483 -1.1620 -0.5918 -2.6833
 6109SOL    HW229790   4.186   1.868  17.443 -0.9749  0.2708 -2.9596
 6110SOL     OW29791   4.175   3.610   8.575 -0.4645  0.2308  0.0485
 6110SOL    HW129792   4.208   3.691   8.534  2.6105 -1.9656 -1.8496
 6110SOL    HW229793   4.116   3.587   8.503 -1.2916 -0.7760  1.0655
 6111SOL     OW29794   4.671   2.128   8.843  0.2094  0.4690  0.2837
 6111SOL    HW129795   4.660   2.137   8.749 -0.0618  0.7936  0.3469
 6111SOL    HW229796   0.028   2.074   8.849 -0.8321 -0.9919  0.8053
 6112SOL     OW29797   0.453   2.109   2.698 -0.1410 -0.3332  0.4328
 6112SOL    HW129798   0.507   2.132   2.622 -1.4044  2.8713  0.5179
 6112SOL    HW229799   0.363   2.130   2.674  0.2701 -0.8492 -1.5951
 6113SOL     OW29800   1.860   1.731  13.641  0.4560 -0.3981  0.0849
 6113SOL    HW129801   1.819   1.741  13.728  0.3251 -2.4166  0.2616
 6113SOL    HW229802   1.800   1.776  13.582 -1.2196 -1.7519  0.7241
 6114SOL     OW29803   2.967   3.183   1.192  0.2593  0.0431  0.5406
 6114SOL    HW129804   2.962   3.115   1.259  0.4885  0.8300  1.3690
 6114SOL    HW229805   2.872   3.200   1.193  0.3110  0.2815  2.1235
 6115SOL     OW29806   1.781   2.885   3.500  0.3726  0.5321  0.0604
 6115SOL    HW129807   1.802   2.834   3.422  0.2902  1.0789 -0.3175
 6115SOL    HW229808   1.692   2.906   3.474 -0.1147 -2.4342 -0.6355
 6116SOL     OW29809   1.659   1.458   2.183  0.8139  0.8146 -0.5197
 6116SOL    HW129810   1.594   1.440   2.251  0.0570 -0.3434 -1.5388
 6116SOL    HW229811   1.737   1.409   2.208  0.3712  1.3835  1.9458
 6117SOL     OW29812   2.470   2.414   5.863  0.6132  0.0665  0.2445
 6117SOL    HW129813   2.549   2.417   5.811 -0.3356  1.0466 -1.1431
 6117SOL    HW229814   2.503   2.364   5.938  1.9525  0.9407  0.2485
 6118SOL     OW29815   4.201   1.154   5.384 -0.3564 -0.1340  0.3482
 6118SOL    HW129816   4.145   1.216   5.337 -1.0673 -1.2688 -0.2905
 6118SOL    HW229817   4.221   1.206   5.462 -2.4480  1.4089 -0.1494
 6119SOL     OW29818   3.923   4.676   8.142  0.1706  0.4768 -0.5767
 6119SOL    HW129819   3.900   0.047   8.150  1.6311  0.7511  0.4425
 6119SOL    HW229820   3.943   4.653   8.233  2.8967  0.0009 -1.3030
 6120SOL     OW29821   2.298   3.390   0.372 -0.3146 -0.1705 -0.2487
 6120SOL    HW129822   2.383   3.414   0.335 -0.0852  1.0516  1.0391
 6120SOL    HW229823   2.245   3.383   0.292  0.0505  0.5151 -0.5515
 6121SOL     OW29824   0.320   1.928  17.042 -0.6699 -0.3939  0.3457
 6121SOL    HW129825   0.248   1.865  17.046  0.3731 -1.5467  0.9982
 6121SOL    HW229826   0.390   1.869  17.070 -0.0485 -0.1871 -0.7620
 6122SOL     OW29827   3.843   0.820  12.197 -0.7228  0.2985 -0.0102
 6122SOL    HW129828   3.760   0.865  12.213 -0.7868 -0.3210  1.3389
 6122SOL    HW229829   3.845   0.827  12.101  1.5134 -2.2635 -0.1473
 6123SOL     OW29830   1.751   1.326  15.203 -0.2507 -0.3834  0.1412
 6123SOL    HW129831   1.814   1.322  15.131 -1.3730  0.5533 -0.8859
 6123SOL    HW229832   1.674   1.284  15.165 -1.4089 -0.2847  2.3413
 6124SOL     OW29833   2.947   2.073   3.587  0.2547  0.4601  0.2619
 6124SOL    HW129834   2.935   2.004   3.651  0.1520 -0.5150 -0.8109
 6124SOL    HW229835   2.918   2.030   3.507 -2.5436 -2.5580  2.9253
 6125SOL     OW29836   0.288   1.293   6.329 -0.4576 -0.2293  0.3416
 6125SOL    HW129837   0.305   1.303   6.235  2.6298  1.9280  1.1438
 6125SOL    HW229838   0.263   1.200   6.330  0.8422 -0.5836 -1.5465
 6126SOL     OW29839   1.096   0.650   3.419 -0.0076  0.1739 -0.3275
 6126SOL    HW129840   1.033   0.578   3.426  0.6689 -0.4072 -0.2080
 6126SOL    HW229841   1.053   0.715   3.475  2.0862  1.5460 -0.3162
 6127SOL     OW29842   1.512   3.399   3.014 -0.5858 -0.2589  0.2748
 6127SOL    HW129843   1.594   3.368   2.974  0.0453  0.2660  1.1551
 6127SOL    HW229844   1.457   3.419   2.939  0.4090 -0.3094 -0.4775
 6128SOL     OW29845   1.984   3.214  10.454  0.0160 -0.0315  0.6554
 6128SOL    HW129846   2.056   3.215  10.391  0.2461  1.5009  0.9420
 6128SOL    HW229847   1.907   3.245  10.407 -1.5226 -2.5090  1.5411
 6129SOL     OW29848   3.044   1.436  15.140 -0.5019 -0.3248  0.6222
 6129SOL    HW129849   3.129   1.434  15.183 -0.3927  0.5537  0.4375
 6129SOL    HW229850   3.028   1.342  15.147 -0.9691 -0.3309 -0.6054
 6130SOL     OW29851   2.569   3.918   6.037  0.1775  0.1251 -0.0382
 6130SOL    HW129852   2.569   3.831   5.998  0.0073 -0.0345  0.3178
 6130SOL    HW229853   2.480   3.945   6.011  0.0342  1.0142  1.3975
 6131SOL     OW29854   0.931   4.151   6.112 -0.0525  0.4854  0.4451
 6131SOL    HW129855   0.837   4.163   6.124  0.0301  0.1039  1.5530
 6131SOL    HW229856   0.922   4.057   6.095  1.2419  0.6633 -1.1687
 6132SOL     OW29857   1.901   1.550   6.751  0.3596  0.0654  0.2893
 6132SOL    HW129858   1.868   1.624   6.801 -0.9095 -0.7309  0.6354
 6132SOL    HW229859   1.829   1.537   6.690 -0.0178  0.5245  0.6441
 6133SOL     OW29860   2.212   0.689   3.205 -0.1710 -0.8681 -0.5329
 6133SOL    HW129861   2.182   0.657   3.120 -1.0900  0.0222 -0.5371
 6133SOL    HW229862   2.291   0.739   3.185  0.2672 -0.1978  2.8969
 6134SOL     OW29863   4.350   1.886   8.764  0.5040  0.2999 -0.0394
 6134SOL    HW129864   4.285   1.916   8.828  0.2667 -1.1204  0.3700
 6134SOL    HW229865   4.335   1.960   8.704  1.2319  1.1612  0.8360
 6135SOL     OW29866   3.439   3.610   2.715  0.3607 -0.1589 -0.0780
 6135SOL    HW129867   3.444   3.688   2.771 -1.0475  0.2027 -0.4677
 6135SOL    HW229868   3.454   3.548   2.786  0.5199 -0.9913 -0.8344
 6136SOL     OW29869   2.661   1.998  15.209 -0.1035 -0.0776  0.4838
 6136SOL    HW129870   2.737   2.033  15.257 -0.8480 -0.2277  1.7611
 6136SOL    HW229871   2.670   2.041  15.124 -1.6772 -1.8276 -0.5644
 6137SOL     OW29872   0.464   2.423   3.911  0.4847 -0.1292 -0.0408
 6137SOL    HW129873   0.485   2.333   3.933  1.3449 -0.3942 -1.9474
 6137SOL    HW229874   0.400   2.410   3.841  0.8385 -0.2766 -0.3372
 6138SOL     OW29875   4.601   2.015   2.808 -0.7868 -0.0614  0.4879
 6138SOL    HW129876   4.528   2.037   2.751  1.2481 -0.6443 -2.3365
 6138SOL    HW229877   4.628   1.932   2.769 -1.9586 -0.0428 -0.3652
 6139SOL     OW29878   1.980   4.321   4.043  0.2538 -0.1108  0.1041
 6139SOL    HW129879   1.985   4.313   3.948 -2.5073 -1.2158  0.0696
 6139SOL    HW229880   1.908   4.382   4.056  1.4407  1.1027  1.0313
 6140SOL     OW29881   1.933   2.885  15.093 -0.3037 -0.4040 -0.2751
 6140SOL    HW129882   1.975   2.813  15.140 -2.6920 -0.9591  1.0362
 6140SOL    HW229883   1.934   2.965  15.146  1.0645 -1.1891  0.8673
 6141SOL     OW29884   2.312   1.537   4.859  0.1233  0.1440  0.0046
 6141SOL    HW129885   2.242   1.527   4.794 -0.5483 -0.0985  0.7624
 6141SOL    HW229886   2.315   1.632   4.865 -0.2238  0.2275 -1.0298
 6142SOL     OW29887   4.142   2.774  15.524 -0.0368  0.3264 -0.6870
 6142SOL    HW129888   4.169   2.685  15.547  0.6268  0.0934 -2.4105
 6142SOL    HW229889   4.076   2.786  15.593  0.3772  0.3707 -0.2993
 6143SOL     OW29890   3.345   0.583   2.156 -0.2422  0.2542 -0.2925
 6143SOL    HW129891   3.425   0.628   2.130  0.0998 -0.4556 -0.4715
 6143SOL    HW229892   3.275   0.623   2.104  1.8937  0.2756 -3.1719
 6144SOL     OW29893   3.595   3.343   3.658 -0.3127 -0.0677  0.4632
 6144SOL    HW129894   3.634   3.368   3.574  0.2779 -0.8524  0.5033
 6144SOL    HW229895   3.517   3.398   3.663 -0.2841  0.4614 -4.6851
 6145SOL     OW29896   2.641   3.087   3.566 -0.4937  0.8012  0.2312
 6145SOL    HW129897   2.683   3.115   3.485 -4.3592  1.8198 -1.4161
 6145SOL    HW229898   2.613   3.002   3.531 -1.4697  0.6817  1.2788
 6146SOL     OW29899   2.772   4.315   2.772 -0.2244 -0.4538  0.6668
 6146SOL    HW129900   2.771   4.220   2.762  2.1067 -0.5757  1.7074
 6146SOL    HW229901   2.861   4.338   2.745 -0.6362 -1.3038 -1.4532
 6147SOL     OW29902   4.482   4.003   7.815  0.1677 -0.2230 -0.5089
 6147SOL    HW129903   4.389   3.985   7.800  0.0951 -0.6421  0.4398
 6147SOL    HW229904   4.504   4.031   7.727 -1.7241 -0.9910 -1.2459
 6148SOL     OW29905   4.137   3.240   8.056  0.4454  0.3011  0.1255
 6148SOL    HW129906   4.105   3.227   8.145 -1.6230 -0.0826 -0.6666
 6148SOL    HW229907   4.128   3.335   8.044  1.7052  0.5647  1.2269
 6149SOL     OW29908   2.998   3.915   6.230 -0.0277 -0.2580  0.3481
 6149SOL    HW129909   2.976   3.916   6.323  1.0740  2.3437  0.5814
 6149SOL    HW229910   2.930   3.854   6.201  0.0415 -0.7075  1.1373
 6150SOL     OW29911   0.656   2.914   7.896 -0.2192 -0.4860  0.0201
 6150SOL    HW129912   0.659   2.827   7.856  1.0686  0.0810 -1.1355
 6150SOL    HW229913   0.748   2.940   7.887  0.6489 -3.3248  0.7519
 6151SOL     OW29914   3.448   0.158  12.962  0.2324  0.0464 -0.7373
 6151SOL    HW129915   3.462   0.249  12.935  0.5908  0.3879  0.5839
 6151SOL    HW229916   3.511   0.152  13.034  0.5093  0.0814 -0.9781
 6152SOL     OW29917   3.418   1.982   7.573  0.1688 -0.6840  0.4578
 6152SOL    HW129918   3.335   1.991   7.619 -0.1858 -2.3241  0.0951
 6152SOL    HW229919   3.404   1.906   7.517 -0.1934 -0.2756 -0.0094
 6153SOL     OW29920   0.556   0.539   2.419 -0.1089 -0.0274  0.0939
 6153SOL    HW129921   0.613   0.470   2.453  1.6298  0.7997 -1.1402
 6153SOL    HW229922   0.471   0.498   2.434  0.1040 -0.5594 -0.1506
 6154SOL     OW29923   4.469   0.526  11.021  0.1984  0.2587 -0.0084
 6154SOL    HW129924   4.420   0.546  10.941 -0.3826 -2.9853 -0.4534
 6154SOL    HW229925   4.537   0.466  10.991  0.1963  0.2177  0.0706
 6155SOL     OW29926   3.028   2.327   3.654 -0.0760  0.5379  0.3805
 6155SOL    HW129927   2.986   2.250   3.616 -0.4857  0.5324  0.8401
 6155SOL    HW229928   3.044   2.386   3.580 -3.4163 -0.5817 -1.2288
 6156SOL     OW29929   0.327   4.330   5.472  0.4063  0.0148  0.3272
 6156SOL    HW129930   0.362   4.246   5.442  0.6605  0.5755 -0.9392
 6156SOL    HW229931   0.355   4.339   5.563  0.5451  0.4993  0.2342
 6157SOL     OW29932   1.699   1.928   3.382 -0.9191 -0.0126  0.5346
 6157SOL    HW129933   1.729   1.876   3.458  0.9360  0.2091 -0.0515
 6157SOL    HW229934   1.754   1.894   3.312  0.0099  2.0600  0.2731
 6158SOL     OW29935   4.370   4.281   9.978 -0.1070 -0.0474  0.2643
 6158SOL    HW129936   4.290   4.273  10.030  0.0691 -0.0968  0.5260
 6158SOL    HW229937   4.400   4.371   9.995 -2.2406  0.7899 -0.4068
 6159SOL     OW29938   0.065   1.977   8.435 -0.3556  0.3062 -0.0718
 6159SOL    HW129939   0.027   1.932   8.510  0.3142  1.8521  1.2063
 6159SOL    HW229940   0.018   2.060   8.427 -0.4520  0.3189  0.7032
 6160SOL     OW29941   2.781   1.962   0.091 -0.2516  0.0221  0.3860
 6160SOL    HW129942   2.742   1.942   0.006 -0.3643 -0.4774  0.5540
 6160SOL    HW229943   2.770   1.880   0.139 -0.4306 -0.9743 -1.3467
 6161SOL     OW29944   1.628   4.287  10.021 -0.2012  0.2932  0.7632
 6161SOL    HW129945   1.554   4.300  10.080 -3.0442  0.7689 -2.8866
 6161SOL    HW229946   1.579   4.297   9.939  0.3553 -2.6025  0.0708
 6162SOL     OW29947   3.981   4.111  14.730  0.1483 -0.0556  0.4670
 6162SOL    HW129948   4.025   4.191  14.703  1.1141 -0.3355  1.2013
 6162SOL    HW229949   4.011   4.083  14.817  1.7360  1.1003  0.2888
 6163SOL     OW29950   1.074   1.834   6.235 -0.1472 -0.5172  0.5510
 6163SOL    HW129951   1.093   1.863   6.146  1.6152  1.4370  1.5410
 6163SOL    HW229952   1.114   1.908   6.281 -1.2484  0.9974 -0.9052
 6164SOL     OW29953   1.518   1.800   8.865  0.6699 -0.6164 -0.1740
 6164SOL    HW129954   1.503   1.706   8.869  2.3147 -0.8311  0.9873
 6164SOL    HW229955   1.501   1.823   8.956  0.4585 -1.9965  0.1387
 6165SOL     OW29956   0.047   1.760  10.427 -0.0749  0.2159 -0.4459
 6165SOL    HW129957   0.100   1.837  10.442 -0.0439 -0.4003  2.5764
 6165SOL    HW229958   4.706   1.792  10.361  2.1900  0.6348 -2.3749
 6166SOL     OW29959   1.189   3.334   5.260  0.3397  0.1554  0.3161
 6166SOL    HW129960   1.128   3.319   5.188  0.5845  0.5968  0.0190
 6166SOL    HW229961   1.127   3.372   5.323 -0.1572 -0.6236  0.3068
 6167SOL     OW29962   1.126   0.136   5.251 -0.3867 -0.3067 -0.0233
 6167SOL    HW129963   1.140   0.061   5.194 -0.4136  0.1664 -0.6579
 6167SOL    HW229964   1.183   0.199   5.206  0.2705 -1.1270 -0.3344
 6168SOL     OW29965   0.906   0.156   1.382  0.1926 -0.0087 -0.0505
 6168SOL    HW129966   0.844   0.137   1.311 -1.2080  0.6576  0.9846
 6168SOL    HW229967   0.845   0.210   1.433 -0.3527 -1.5868  0.9864
 6169SOL     OW29968   4.311   2.440  13.603 -0.3813  0.3732 -0.0722
 6169SOL    HW129969   4.265   2.385  13.539  1.2862  0.5501 -1.4366
 6169SOL    HW229970   4.393   2.460  13.558 -0.8217  0.9888 -0.6140
 6170SOL     OW29971   1.806   0.227   0.497 -0.1233  0.0448 -0.1291
 6170SOL    HW129972   1.781   0.317   0.477  1.2232  0.6372  0.9066
 6170SOL    HW229973   1.763   0.217   0.582 -0.6062 -0.4340 -0.4336
 6171SOL     OW29974   2.670   0.468   8.569  0.0596  0.3885  0.2013
 6171SOL    HW129975   2.755   0.431   8.595 -0.8237 -1.6291  0.1386
 6171SOL    HW229976   2.660   0.428   8.483 -2.9698  0.4618  0.5285
 6172SOL     OW29977   0.338   4.602   7.801 -0.0093  0.1487  0.1197
 6172SOL    HW129978   0.383   4.648   7.731 -0.1761  0.2536  0.0820
 6172SOL    HW229979   0.410   4.560   7.848 -1.2922 -2.1855  0.0115
 6173SOL     OW29980   0.001   2.629  14.082  0.3241 -0.3666  0.6572
 6173SOL    HW129981   0.066   2.567  14.114  0.9381  0.2153  0.5272
 6173SOL    HW229982   0.038   2.713  14.109 -0.8772  0.3378  0.1551
 6174SOL     OW29983   1.734   3.757  15.398 -0.0907 -0.4892 -0.2213
 6174SOL    HW129984   1.656   3.703  15.412  0.8060 -1.2048  1.9412
 6174SOL    HW229985   1.734   3.819  15.470 -1.3653 -0.9257  0.1468
 6175SOL     OW29986   2.831   3.749   0.197  0.3294 -0.0507 -0.2363
 6175SOL    HW129987   2.786   3.773   0.116  0.8479 -1.0232 -0.8171
 6175SOL    HW229988   2.755   3.709   0.240  1.6078  0.5833  2.6548
 6176SOL     OW29989   0.609   3.384   5.351 -0.5394  0.6848 -0.4731
 6176SOL    HW129990   0.645   3.316   5.408 -0.2446  3.2490  2.4150
 6176SOL    HW229991   0.672   3.381   5.279  1.4213  1.7226  1.1889
 6177SOL     OW29992   2.108   3.326   5.410 -0.1906 -0.3009  0.0008
 6177SOL    HW129993   2.109   3.381   5.332  2.2303  2.4630  1.9652
 6177SOL    HW229994   2.013   3.329   5.419 -0.1793 -1.8785  0.6672
 6178SOL     OW29995   2.852   0.699   8.449  0.0226 -0.3175  0.5298
 6178SOL    HW129996   2.764   0.673   8.478 -0.6411  0.9038 -0.4151
 6178SOL    HW229997   2.854   0.685   8.354  0.6151 -0.7280  0.6027
 6179SOL     OW29998   3.114   0.651   8.825 -0.2383 -0.0773  0.4249
 6179SOL    HW129999   3.124   0.556   8.830  0.9178 -0.0228 -1.1818
 6179SOL    HW230000   3.177   0.672   8.757 -1.2790 -0.7280 -0.7398
 6180SOL     OW30001   3.664   2.978   7.823 -0.2653 -0.1232  0.3280
 6180SOL    HW130002   3.620   3.060   7.800  1.4242  1.3774  2.3299
 6180SOL    HW230003   3.730   3.001   7.888  0.7809  0.2203 -0.8458
 6181SOL     OW30004   0.311   1.564  14.278 -0.4854 -0.5829 -0.5314
 6181SOL    HW130005   0.345   1.478  14.254  1.8565 -0.3041  1.7775
 6181SOL    HW230006   0.226   1.562  14.233 -0.2746  1.8962 -1.0382
 6182SOL     OW30007   0.119   3.116  14.543 -0.6120 -0.1615  0.2213
 6182SOL    HW130008   0.066   3.066  14.604  2.1670 -4.1269 -0.6447
 6182SOL    HW230009   0.056   3.109  14.471  1.6504  0.4564 -1.8357
 6183SOL     OW30010   0.767   2.863   4.218 -0.2453 -0.7484  0.2575
 6183SOL    HW130011   0.827   2.883   4.146  0.0082 -0.9495  0.4116
 6183SOL    HW230012   0.817   2.912   4.283  1.8133 -0.1983 -1.7342
 6184SOL     OW30013   2.691   2.589   4.127 -0.5157 -0.4395 -0.4111
 6184SOL    HW130014   2.696   2.680   4.157 -3.0710 -1.5626  3.4633
 6184SOL    HW230015   2.628   2.592   4.055 -0.0165  1.8333 -0.7633
 6185SOL     OW30016   1.368   4.120   0.333 -0.1201  0.3125  0.2672
 6185SOL    HW130017   1.401   4.037   0.368  1.0111 -0.5801 -2.9959
 6185SOL    HW230018   1.296   4.145   0.391 -0.6303  0.3688 -0.3931
 6186SOL     OW30019   2.874   0.291   3.126  0.6841  0.3508  0.3182
 6186SOL    HW130020   2.813   0.318   3.057  0.7648  1.0749  0.5274
 6186SOL    HW230021   2.904   0.377   3.156  0.4154  0.4813  0.2154
 6187SOL     OW30022   2.282   3.649   5.753  0.4789 -0.0751 -0.1279
 6187SOL    HW130023   2.346   3.655   5.823  0.3483 -1.5461  0.1104
 6187SOL    HW230024   2.331   3.693   5.682  0.6545 -2.8629 -1.7356
 6188SOL     OW30025   0.011   4.381   5.600  0.5040 -0.2641 -0.2333
 6188SOL    HW130026   0.065   4.354   5.526  1.2345 -0.4346  0.3545
 6188SOL    HW230027   4.661   4.417   5.547  1.4798  0.1107 -1.2975
 6189SOL     OW30028   2.737   2.543  11.762  0.2286 -0.0483  0.1944
 6189SOL    HW130029   2.785   2.462  11.779 -1.5183 -1.3039 -0.7717
 6189SOL    HW230030   2.753   2.558  11.669 -3.1090  1.7204 -0.0971
 6190SOL     OW30031   4.494   4.551  10.875 -0.1096 -0.1773  0.2562
 6190SOL    HW130032   4.538   4.632  10.903 -0.5060 -0.1223  0.7224
 6190SOL    HW230033   4.518   4.490  10.944  1.4271 -0.4166 -0.4924
 6191SOL     OW30034   0.457   4.124   0.285  0.0176  0.1043  0.0426
 6191SOL    HW130035   0.485   4.127   0.377 -0.9128  3.6863  0.2239
 6191SOL    HW230036   0.535   4.084   0.247  2.5803  1.9309  3.3993
 6192SOL     OW30037   0.025   2.228   3.394 -0.7158 -0.5693  0.2497
 6192SOL    HW130038   4.708   2.212   3.308  0.2248 -1.9701  0.0750
 6192SOL    HW230039   0.119   2.208   3.385 -0.3077  2.2941 -1.6625
 6193SOL     OW30040   2.873   1.805   0.976 -0.3502 -0.1669  0.0762
 6193SOL    HW130041   2.854   1.719   1.014 -1.6437  0.6562  1.3158
 6193SOL    HW230042   2.869   1.868   1.048  2.0480 -0.2739  0.2943
 6194SOL     OW30043   3.057   2.490   8.599  0.0811  0.2068  0.2332
 6194SOL    HW130044   3.033   2.579   8.574 -1.5188  0.4660  2.6289
 6194SOL    HW230045   3.083   2.504   8.690 -3.6070  3.1139  0.8677
 6195SOL     OW30046   1.441   3.739   5.438  0.2430  0.0132 -0.5156
 6195SOL    HW130047   1.438   3.654   5.482  3.4894  0.0968 -0.1244
 6195SOL    HW230048   1.347   3.747   5.420  0.8514  1.2655 -3.1240
 6196SOL     OW30049   2.885   0.111   5.932  0.0504  0.0540 -0.3811
 6196SOL    HW130050   2.856   0.178   5.994  2.5161 -0.8283  1.7556
 6196SOL    HW230051   2.799   0.074   5.915 -0.5692  1.4333 -0.2527
 6197SOL     OW30052   1.832   0.605   6.736  0.0066 -0.2070 -0.4169
 6197SOL    HW130053   1.851   0.566   6.651  0.0356 -3.9923  1.3174
 6197SOL    HW230054   1.887   0.683   6.730  1.7356 -1.4218 -0.2181
 6198SOL     OW30055   2.117   3.363   1.614  0.0225  0.2241  0.2312
 6198SOL    HW130056   2.117   3.302   1.540  0.1619  1.1160 -0.5067
 6198SOL    HW230057   2.157   3.440   1.574 -1.0700  0.5694 -0.1913
 6199SOL     OW30058   1.440   0.467   6.218 -0.7789 -0.7383 -0.1178
 6199SOL    HW130059   1.359   0.486   6.266 -0.3820  0.0338  0.2577
 6199SOL    HW230060   1.408   0.443   6.132  0.1434 -1.7124 -0.1832
 6200SOL     OW30061   0.274   3.633   4.161 -0.6226  0.5208  0.1532
 6200SOL    HW130062   0.261   3.707   4.103 -2.4533  0.6899  0.7566
 6200SOL    HW230063   0.316   3.582   4.093 -1.7098 -3.3591  2.3533
 6201SOL     OW30064   1.343   1.971   5.890  0.0063 -0.0594 -0.1112
 6201SOL    HW130065   1.375   2.007   5.808 -1.9812 -1.8014 -1.6483
 6201SOL    HW230066   1.415   2.004   5.945 -1.3203 -0.2811  1.7705
 6202SOL     OW30067   0.370   0.225   7.312  0.0450 -0.0045 -0.1525
 6202SOL    HW130068   0.463   0.235   7.289  0.1001 -0.2421 -0.0386
 6202SOL    HW230069   0.355   0.130   7.316 -1.8102  0.2554 -1.2805
 6203SOL     OW30070   4.653   3.274   2.959 -0.5352  0.4881  0.5278
 6203SOL    HW130071   4.608   3.358   2.961 -3.0551 -0.8382  0.1984
 6203SOL    HW230072   4.612   3.225   3.031  0.6620 -0.0406  0.8440
 6204SOL     OW30073   4.380   0.026   8.431  0.0455 -0.5023  0.0223
 6204SOL    HW130074   4.373   0.085   8.356  1.0860  1.1148  1.2167
 6204SOL    HW230075   4.473   0.003   8.425  0.1471 -0.0682 -0.0455
 6205SOL     OW30076   4.706   4.676   3.739 -0.1465  0.1067  0.5892
 6205SOL    HW130077   4.701   4.617   3.814  0.0387 -0.1533  0.3986
 6205SOL    HW230078   4.615   4.697   3.717  0.1456  0.6092 -0.1480
 6206SOL     OW30079   3.616   1.303  12.112 -0.2826  0.0263 -0.1932
 6206SOL    HW130080   3.691   1.255  12.078  0.1112 -0.1922  0.9926
 6206SOL    HW230081   3.551   1.245  12.072 -2.1039  0.9527  1.4317
 6207SOL     OW30082   4.531   3.313   7.550  0.5168  0.1257 -0.5697
 6207SOL    HW130083   4.610   3.367   7.553  1.1231 -0.6984 -1.4719
 6207SOL    HW230084   4.526   3.271   7.636  0.1782 -1.7858 -1.5323
 6208SOL     OW30085   3.581   1.586  12.497 -0.1811  0.4126  0.3200
 6208SOL    HW130086   3.586   1.559  12.405 -0.0616  0.1020  0.4151
 6208SOL    HW230087   3.576   1.681  12.500  0.2847  0.3762  2.8127
 6209SOL     OW30088   1.399   3.217   3.441  0.1323 -0.3451 -0.3183
 6209SOL    HW130089   1.493   3.230   3.450 -0.0906  0.8239  0.3753
 6209SOL    HW230090   1.392   3.285   3.374 -0.0313  0.0685  0.1202
 6210SOL     OW30091   2.579   3.660   1.819 -0.2879  0.2155 -0.0761
 6210SOL    HW130092   2.525   3.586   1.847 -0.0636 -1.4243 -3.9280
 6210SOL    HW230093   2.559   3.658   1.725 -1.5328  2.0558  0.1574
 6211SOL     OW30094   2.752   0.994   2.883  0.0744 -0.0829 -0.1388
 6211SOL    HW130095   2.727   0.999   2.790 -3.3997  1.7820  0.8919
 6211SOL    HW230096   2.814   1.067   2.887  0.6258 -0.5673  0.1170
 6212SOL     OW30097   3.307   1.875   2.100  0.1652 -0.5245  0.8963
 6212SOL    HW130098   3.275   1.790   2.068  1.4705 -0.9327  0.6922
 6212SOL    HW230099   3.328   1.919   2.018 -1.0226 -1.8951 -0.1527
 6213SOL     OW30100   0.563   0.011   2.583  0.1508  0.4045  0.4109
 6213SOL    HW130101   0.468   0.010   2.582  0.1379  2.1796 -0.5415
 6213SOL    HW230102   0.574   0.043   2.493  4.4610  2.5099  1.6461
 6214SOL     OW30103   2.853   4.493   6.334 -0.1059 -0.1272  0.1139
 6214SOL    HW130104   2.924   4.430   6.330  0.3129  0.4579 -1.6592
 6214SOL    HW230105   2.776   4.444   6.364  0.3757 -0.7904  0.2681
 6215SOL     OW30106   0.308   0.184   8.437 -0.5353 -0.0398  0.3699
 6215SOL    HW130107   0.330   0.135   8.516  0.0434  1.1719  0.9615
 6215SOL    HW230108   0.283   0.117   8.374 -1.9708 -0.4823  1.3992
 6216SOL     OW30109   2.870   3.583   6.512  0.5872 -0.2024 -0.2416
 6216SOL    HW130110   2.823   3.505   6.481  0.0067 -0.1057  0.3966
 6216SOL    HW230111   2.791   3.625   6.548  0.3908 -1.6068  0.9647
 6217SOL     OW30112   1.578   0.812   4.732  0.9407 -0.4046 -0.4728
 6217SOL    HW130113   1.498   0.765   4.709 -0.5125  1.2830  1.1261
 6217SOL    HW230114   1.600   0.750   4.802 -0.7813 -0.2318  0.2057
 6218SOL     OW30115   1.715   4.066  15.402 -0.4445 -0.3429  0.0923
 6218SOL    HW130116   1.635   4.055  15.350 -2.1506 -1.2300  2.8979
 6218SOL    HW230117   1.673   4.031  15.481 -1.9832  0.5707 -0.3021
 6219SOL     OW30118   1.726   0.357   2.756 -0.6121 -0.0973 -0.2713
 6219SOL    HW130119   1.687   0.412   2.824  1.3912  0.2996  0.5580
 6219SOL    HW230120   1.715   0.421   2.686  1.6055  1.4354  0.7791
 6220SOL     OW30121   0.722   3.919  14.429 -0.1335  0.2502 -0.4924
 6220SOL    HW130122   0.672   3.841  14.454  0.4199  0.3034  0.7941
 6220SOL    HW230123   0.680   3.979  14.491 -1.2839 -0.3563 -0.6807
 6221SOL     OW30124   3.663   0.109   4.133  0.7840 -0.6591  0.8428
 6221SOL    HW130125   3.570   0.091   4.124  0.1961  2.2963  1.0379
 6221SOL    HW230126   3.704   0.023   4.123 -0.2300 -1.0442  0.1083
 6222SOL     OW30127   0.553   2.510   5.640  0.0458  0.5985 -0.2553
 6222SOL    HW130128   0.461   2.508   5.615  0.2744 -0.3247 -1.0177
 6222SOL    HW230129   0.580   2.431   5.593  0.6651  0.6576 -0.0021
 6223SOL     OW30130   0.388   3.753   0.369  0.0266 -0.0253  0.1730
 6223SOL    HW130131   0.479   3.739   0.397 -0.3611 -0.4652  1.1862
 6223SOL    HW230132   0.357   3.789   0.452 -2.6459 -0.2576 -0.7203
 6224SOL     OW30133   0.938   3.621  10.342 -0.3629 -0.4228  0.4454
 6224SOL    HW130134   1.025   3.621  10.303 -0.3932 -0.9243  0.3661
 6224SOL    HW230135   0.917   3.529  10.361 -0.1420 -0.8215 -1.1962
 6225SOL     OW30136   0.822   1.538   5.328  0.1580  0.2691 -0.2042
 6225SOL    HW130137   0.889   1.477   5.295  0.2646  0.4097 -0.2465
 6225SOL    HW230138   0.746   1.480   5.316  1.9114 -2.4056  1.3731
 6226SOL     OW30139   0.149   2.942   5.089  0.3517  0.6249 -0.0205
 6226SOL    HW130140   0.075   2.918   5.144 -0.9275 -1.7789 -2.7726
 6226SOL    HW230141   0.132   3.034   5.071 -1.1921  0.2659 -0.3562
 6227SOL     OW30142   1.336   3.822  14.557 -0.3526  0.0298 -0.3693
 6227SOL    HW130143   1.310   3.799  14.646  0.1179 -0.2991 -0.3160
 6227SOL    HW230144   1.339   3.736  14.516 -1.3914 -0.3673  0.3648
 6228SOL     OW30145   1.037   3.088   4.542 -0.0384 -0.7284 -1.0040
 6228SOL    HW130146   1.042   3.048   4.629 -2.1631  0.3065 -0.4023
 6228SOL    HW230147   0.949   3.061   4.515 -0.0780  1.0329 -2.6519
 6229SOL     OW30148   3.809   3.854  13.517 -0.3984  0.1096  0.0042
 6229SOL    HW130149   3.721   3.835  13.550 -0.9703  1.2561 -0.8751
 6229SOL    HW230150   3.850   3.767  13.519 -0.5991  0.0096 -0.1995
 6230SOL     OW30151   0.103   0.266  12.238  0.1698 -0.6746  0.1384
 6230SOL    HW130152   0.028   0.235  12.188 -0.0854 -0.7657  0.5786
 6230SOL    HW230153   0.069   0.245  12.325 -1.9990  4.6837  0.5613
 6231SOL     OW30154   4.150   2.731  17.075  0.4301  0.6984  0.1336
 6231SOL    HW130155   4.133   2.771  17.161 -0.7674  0.9424 -0.2229
 6231SOL    HW230156   4.225   2.781  17.041  0.3920  1.5655  1.3196
 6232SOL     OW30157   1.275   0.438   8.754  0.0394  0.0297  0.3721
 6232SOL    HW130158   1.211   0.414   8.687  0.5008  0.2873 -0.1614
 6232SOL    HW230159   1.347   0.376   8.741 -0.7549 -1.1377  1.6625
 6233SOL     OW30160   1.392   1.079   3.464 -0.3205  0.6278  0.1640
 6233SOL    HW130161   1.445   1.002   3.442  0.9917  1.7356 -0.6189
 6233SOL    HW230162   1.434   1.121   3.539  1.0270  0.4753 -0.5040
 6234SOL     OW30163   4.002   4.523  14.717 -0.5656  0.1664  0.4481
 6234SOL    HW130164   4.017   4.596  14.777 -0.1879  1.5149 -1.2886
 6234SOL    HW230165   3.921   4.543  14.669 -0.0244  1.7165  0.1819
 6235SOL     OW30166   2.604   2.442  12.814  0.0676  0.0007  0.4410
 6235SOL    HW130167   2.526   2.394  12.786 -0.8994  0.4336  2.3750
 6235SOL    HW230168   2.569   2.521  12.856  3.5415  2.2829 -0.9804
 6236SOL     OW30169   4.133   3.144  11.054  0.2812  0.5475 -0.5635
 6236SOL    HW130170   4.049   3.183  11.030 -0.3811  0.3980  1.5061
 6236SOL    HW230171   4.185   3.186  10.986 -0.6476  1.4394 -0.7245
 6237SOL     OW30172   3.604   0.737   0.327 -0.5299 -0.3571  0.8684
 6237SOL    HW130173   3.524   0.721   0.278 -0.7152 -1.1261  1.4204
 6237SOL    HW230174   3.664   0.690   0.269 -0.6125  0.4834  0.0982
 6238SOL     OW30175   2.401   2.067  11.520 -0.0863  0.7643 -0.2080
 6238SOL    HW130176   2.319   2.093  11.563 -0.4593  0.4074 -0.6943
 6238SOL    HW230177   2.459   2.074  11.596 -0.6761 -0.3570  0.3519
 6239SOL     OW30178   3.058   0.515   5.210 -0.1956 -0.9062  0.3141
 6239SOL    HW130179   2.993   0.549   5.149  2.1211  0.0762 -1.5911
 6239SOL    HW230180   3.127   0.489   5.150  0.1757  1.2700 -0.1935
 6240SOL     OW30181   1.372   0.505   3.076 -0.5117  0.6344  0.3552
 6240SOL    HW130182   1.277   0.512   3.086 -0.5924 -1.6600  1.1837
 6240SOL    HW230183   1.392   0.585   3.027 -5.1693  0.5455 -1.7679
 6241SOL     OW30184   3.963   2.407  10.051  0.6361  0.0764 -0.3409
 6241SOL    HW130185   3.984   2.395   9.958 -3.0188 -0.9540 -1.0404
 6241SOL    HW230186   4.010   2.489  10.068 -1.3126  1.3442 -1.0641
 6242SOL     OW30187   4.015   0.980   7.347 -0.5799 -0.0462 -0.3594
 6242SOL    HW130188   4.053   1.004   7.262  0.2784 -3.5970 -0.9643
 6242SOL    HW230189   3.981   0.891   7.333 -1.2319 -0.3432  3.0869
 6243SOL     OW30190   0.076   0.177  17.340  0.0803 -0.1199 -0.3457
 6243SOL    HW130191   4.710   0.140  17.325  1.0344 -0.9386 -3.7816
 6243SOL    HW230192   0.136   0.127  17.284 -0.5942 -2.7042  1.2229
 6244SOL     OW30193   1.469   1.214  14.511  0.0653 -0.2071  0.2672
 6244SOL    HW130194   1.382   1.178  14.498  0.2662 -0.0422 -1.5564
 6244SOL    HW230195   1.457   1.287  14.572  0.2938 -1.9059  2.3339
 6245SOL     OW30196   4.270   2.211   1.817  0.1789 -0.1365  0.5997
 6245SOL    HW130197   4.326   2.278   1.856 -0.7731  0.3256  1.1960
 6245SOL    HW230198   4.329   2.138   1.832  2.5543  1.8899  1.0972
 6246SOL     OW30199   0.477   1.062  12.476  0.4818 -0.0113  0.6327
 6246SOL    HW130200   0.395   1.072  12.525  0.4524  1.4858  0.2804
 6246SOL    HW230201   0.513   1.150  12.492  1.6747 -0.5571  0.9898
 6247SOL     OW30202   2.684   3.340   1.921 -0.3287  0.7907 -1.0199
 6247SOL    HW130203   2.594   3.361   1.896 -0.2498  1.1608 -0.9951
 6247SOL    HW230204   2.728   3.380   1.846 -0.2221  1.4355 -0.6183
 6248SOL     OW30205   4.004   0.508  12.263 -0.0093  0.2959  0.5538
 6248SOL    HW130206   4.044   0.430  12.225  0.0508  2.0339 -2.9198
 6248SOL    HW230207   4.068   0.522  12.333  0.9286 -2.5151  0.2625
 6249SOL     OW30208   1.059   4.414   3.699  1.0038 -0.6411 -0.0035
 6249SOL    HW130209   1.136   4.359   3.712  3.3648  2.9355  1.3246
 6249SOL    HW230210   1.081   4.472   3.625 -1.3079 -2.4128 -2.0856
 6250SOL     OW30211   4.308   3.440   4.224  0.1629 -0.3909  0.3110
 6250SOL    HW130212   4.372   3.398   4.167  1.4339  0.8202  0.8626
 6250SOL    HW230213   4.340   3.436   4.314  0.8763 -0.7398  0.0347
 6251SOL     OW30214   0.720   4.239  14.556 -0.6427 -0.5800 -0.2086
 6251SOL    HW130215   0.654   4.289  14.509 -1.4070  0.3291  1.8296
 6251SOL    HW230216   0.659   4.171  14.585 -1.3675 -0.5976 -1.7923
 6252SOL     OW30217   1.622   2.159   7.507  0.0414 -0.8251  0.1866
 6252SOL    HW130218   1.563   2.147   7.432 -0.3884  2.0458  0.0879
 6252SOL    HW230219   1.626   2.254   7.510 -1.0774 -0.8516  2.1469
 6253SOL     OW30220   3.327   1.182   6.936 -0.4846 -0.2606  0.2983
 6253SOL    HW130221   3.349   1.245   6.866  2.0576  0.0181  1.3753
 6253SOL    HW230222   3.367   1.234   7.006  1.3917 -0.1484 -0.8520
 6254SOL     OW30223   1.539   0.597   3.300  0.0057  0.2774 -0.4352
 6254SOL    HW130224   1.481   0.537   3.254  0.9721 -0.1706 -1.0712
 6254SOL    HW230225   1.599   0.530   3.333 -0.6127  0.6736  1.4707
 6255SOL     OW30226   0.900   3.677  16.224  0.0999 -0.2307  0.1881
 6255SOL    HW130227   0.822   3.621  16.226 -0.5777  0.7546  1.1278
 6255SOL    HW230228   0.902   3.690  16.319  1.1387  0.1107  0.1112
 6256SOL     OW30229   1.131   3.342  14.944 -0.1046  0.0882  0.3725
 6256SOL    HW130230   1.184   3.280  14.995 -1.3525 -0.6045  0.8261
 6256SOL    HW230231   1.130   3.285  14.868 -0.2289 -1.3663  1.4648
 6257SOL     OW30232   0.882   0.012  12.244 -0.3108  0.5028  0.0398
 6257SOL    HW130233   0.920   4.661  12.296 -0.6876  0.5017  0.3132
 6257SOL    HW230234   0.875   0.077  12.314  1.3276  2.5190 -1.6690
 6258SOL     OW30235   2.865   0.599  12.764 -0.2331  0.4368  0.1191
 6258SOL    HW130236   2.818   0.536  12.819  1.5623 -0.6563  0.3727
 6258SOL    HW230237   2.953   0.607  12.799  0.3312 -0.5330 -1.0753
 6259SOL     OW30238   4.526   3.017   3.523 -0.1855 -0.3566 -0.2606
 6259SOL    HW130239   4.505   2.925   3.506  1.2589 -0.7867  0.1957
 6259SOL    HW230240   4.588   3.006   3.596 -0.3213 -2.3518 -0.4316
 6260SOL     OW30241   2.119   0.523   6.395 -0.1984 -0.0186 -0.1319
 6260SOL    HW130242   2.040   0.488   6.436  0.5424 -2.2393 -0.6023
 6260SOL    HW230243   2.183   0.495   6.460  1.1320  0.4099 -1.2640
 6261SOL     OW30244   4.205   0.765   2.420  0.4164  0.2405 -0.1077
 6261SOL    HW130245   4.244   0.845   2.387 -2.1713  1.5649  0.0380
 6261SOL    HW230246   4.283   0.712   2.438  0.1346  0.2907  1.2840
 6262SOL     OW30247   3.495   4.272   0.046 -0.4186  0.1943 -0.4400
 6262SOL    HW130248   3.417   4.306   0.090  0.2058  1.3057 -0.2003
 6262SOL    HW230249   3.487   4.310  17.647 -0.1159  4.5531  1.4186
 6263SOL     OW30250   3.639   2.166  13.227 -0.3387  0.1948 -1.2187
 6263SOL    HW130251   3.676   2.199  13.309  0.3284 -0.8885 -1.0796
 6263SOL    HW230252   3.546   2.178  13.247  0.3041  0.9417  1.3636
 6264SOL     OW30253   0.969   4.489  12.519  0.0518  0.9447  0.0662
 6264SOL    HW130254   1.026   4.537  12.458  0.4756  0.3718  0.0075
 6264SOL    HW230255   0.977   4.396  12.496  1.0488  1.3170 -1.1193
 6265SOL     OW30256   3.677   0.892   3.587 -0.4574 -0.0143 -0.3969
 6265SOL    HW130257   3.614   0.953   3.625  0.1714  0.8489 -0.7303
 6265SOL    HW230258   3.674   0.823   3.653  0.8104  1.1502  0.8654
 6266SOL     OW30259   1.900   1.071  10.968 -0.4377 -0.2384  0.0577
 6266SOL    HW130260   1.966   1.003  10.961 -1.1848 -0.8362 -1.2226
 6266SOL    HW230261   1.941   1.152  10.999  0.1880 -1.2899  1.9793
 6267SOL     OW30262   2.450   4.307   1.885 -0.1160  0.4785 -0.4689
 6267SOL    HW130263   2.447   4.380   1.946 -0.9017 -1.8312  2.2331
 6267SOL    HW230264   2.434   4.227   1.935  0.7840  0.9758  0.5961
 6268SOL     OW30265   4.412   2.324   8.052 -0.5308 -0.4319 -0.1257
 6268SOL    HW130266   4.440   2.236   8.024  0.0727 -0.5809  0.9363
 6268SOL    HW230267   4.488   2.339   8.109 -0.3757 -1.3690 -0.0811
 6269SOL     OW30268   1.404   4.523  11.415  0.3774 -0.2559  0.4743
 6269SOL    HW130269   1.413   4.619  11.419  2.9390 -0.4971  0.7399
 6269SOL    HW230270   1.358   4.506  11.497  0.0580 -2.1627 -0.1104
 6270SOL     OW30271   1.340   0.682   4.772  0.1867  0.1782 -0.6038
 6270SOL    HW130272   1.275   0.616   4.796  0.5803  1.4584  3.9454
 6270SOL    HW230273   1.303   0.751   4.827 -1.0217  1.3370 -2.8595
 6271SOL     OW30274   1.424   1.719   8.234 -0.2321 -0.3557  0.0174
 6271SOL    HW130275   1.446   1.771   8.157  0.0526 -2.7937 -1.5200
 6271SOL    HW230276   1.370   1.652   8.193  0.1613 -0.7663  0.1754
 6272SOL     OW30277   1.283   3.040   4.807 -0.0878  0.2973  0.3665
 6272SOL    HW130278   1.192   3.011   4.803 -0.4044  1.3857 -0.1252
 6272SOL    HW230279   1.331   2.963   4.840  1.7924  1.8819  1.3027
 6273SOL     OW30280   3.796   3.289   3.214  0.4154  0.7432  0.1049
 6273SOL    HW130281   3.852   3.290   3.137  2.5094 -0.1584  1.6130
 6273SOL    HW230282   3.851   3.328   3.282  0.5401 -1.3544  1.1883
 6274SOL     OW30283   1.915   2.243   7.337  0.2202  0.5323 -0.7300
 6274SOL    HW130284   1.910   2.167   7.279 -0.6044 -1.3534  1.8198
 6274SOL    HW230285   1.821   2.255   7.352 -0.0315 -1.0469 -1.0239
 6275SOL     OW30286   0.975   2.171  14.458  0.0028  0.2637 -0.4639
 6275SOL    HW130287   0.978   2.105  14.389 -3.2949 -0.5577  0.1661
 6275SOL    HW230288   0.903   2.134  14.509 -1.0352  2.4265 -0.3378
 6276SOL     OW30289   1.935   3.111  15.242 -0.0356  0.6484  0.1470
 6276SOL    HW130290   1.902   3.200  15.251  1.5944  1.2300  0.3140
 6276SOL    HW230291   2.024   3.119  15.274 -0.1753 -0.0196  0.7142
 6277SOL     OW30292   2.690   1.445   8.588  0.4784 -0.3269  0.0624
 6277SOL    HW130293   2.786   1.447   8.588  0.4524  0.9295  0.9226
 6277SOL    HW230294   2.671   1.527   8.541 -3.0585 -0.2626  1.6050
 6278SOL     OW30295   3.829   3.525   4.333  0.8925 -0.3187  0.2163
 6278SOL    HW130296   3.871   3.439   4.340  1.9784  0.2413  0.6647
 6278SOL    HW230297   3.864   3.565   4.253 -1.2982  0.7129 -0.2103
 6279SOL     OW30298   0.922   4.439  14.600 -0.2640  0.2141  0.4995
 6279SOL    HW130299   0.908   4.480  14.515  0.0837 -1.4285 -0.3477
 6279SOL    HW230300   0.857   4.370  14.609  0.4148 -0.6026 -0.8576
 6280SOL     OW30301   2.556   1.202  16.041 -0.1670  0.3195 -0.0762
 6280SOL    HW130302   2.467   1.180  16.012  0.2975  1.6298 -2.4742
 6280SOL    HW230303   2.586   1.223  15.952 -1.8003 -1.9622 -1.1787
 6281SOL     OW30304   0.338   2.495   7.322 -0.5089  0.6097  0.3794
 6281SOL    HW130305   0.396   2.565   7.291 -0.7329  1.4496  1.8381
 6281SOL    HW230306   0.370   2.416   7.279  0.3814  1.0969  0.1483
 6282SOL     OW30307   0.253   1.682   6.258 -0.1462 -0.2268 -0.4064
 6282SOL    HW130308   0.300   1.762   6.279 -2.8143  1.6407 -1.5708
 6282SOL    HW230309   0.162   1.710   6.247  0.7031  3.4991  2.1078
 6283SOL     OW30310   2.999   2.069   3.955  0.5973 -0.3696 -0.0301
 6283SOL    HW130311   2.948   2.147   3.935 -0.8575 -1.4343 -0.5112
 6283SOL    HW230312   2.939   1.997   3.932  1.0468 -0.1558 -1.8091
 6284SOL     OW30313   0.130   3.952   0.173 -0.3456  0.1863  0.5626
 6284SOL    HW130314   0.040   3.948   0.204 -0.6004 -2.5679 -0.5954
 6284SOL    HW230315   0.124   4.023   0.108 -0.5007  0.3559  0.7639
 6285SOL     OW30316   3.295   0.773  16.280  0.3261 -0.2624 -0.3767
 6285SOL    HW130317   3.277   0.759  16.187  1.9163  1.7695 -1.0099
 6285SOL    HW230318   3.218   0.819  16.312  0.1765 -0.4211 -0.5110
 6286SOL     OW30319   2.355   1.262   1.732 -0.3596  0.1777  0.5983
 6286SOL    HW130320   2.345   1.347   1.773 -1.0677  1.1403 -1.5611
 6286SOL    HW230321   2.298   1.263   1.655 -0.1255  0.6280  0.4310
 6287SOL     OW30322   0.744   0.416   6.101  0.0772 -0.0330  0.1810
 6287SOL    HW130323   0.728   0.490   6.042 -0.2569  1.2453  1.8943
 6287SOL    HW230324   0.674   0.366   6.058  1.3408  0.2721 -2.2275
 6288SOL     OW30325   0.198   2.849  14.263  0.0416 -0.4132 -0.0488
 6288SOL    HW130326   0.267   2.785  14.245 -1.3825 -1.9132 -0.1340
 6288SOL    HW230327   0.210   2.846  14.358  1.5259  0.7614 -0.2019
 6289SOL     OW30328   3.963   1.000   5.374  0.2699  0.9638  0.0194
 6289SOL    HW130329   4.038   1.036   5.421  2.0985 -1.9690 -0.6989
 6289SOL    HW230330   3.903   1.016   5.447  0.4917 -2.0925  0.8603
 6290SOL     OW30331   3.037   0.225   6.191  0.4217  0.0284  0.0188
 6290SOL    HW130332   3.032   0.282   6.267 -1.2523  0.3889 -0.3565
 6290SOL    HW230333   2.958   0.253   6.144 -0.3718  0.7797  1.7880
 6291SOL     OW30334   1.125   1.719   8.843 -0.7895 -0.5396  0.2752
 6291SOL    HW130335   1.154   1.699   8.932 -0.4483 -3.8566 -0.5931
 6291SOL    HW230336   1.196   1.783   8.829 -1.6644  0.7277  1.7672
 6292SOL     OW30337   1.852   4.076  12.667  0.1615 -0.2402 -0.1475
 6292SOL    HW130338   1.815   3.989  12.677 -0.0804 -0.3583 -1.9130
 6292SOL    HW230339   1.942   4.047  12.680  0.7333  1.2234 -0.7981
 6293SOL     OW30340   1.642   0.519   3.721  0.2374  0.2078  0.1037
 6293SOL    HW130341   1.702   0.554   3.787  0.5828 -0.5398  0.1937
 6293SOL    HW230342   1.669   0.427   3.718 -1.7902 -0.3750 -0.0568
 6294SOL     OW30343   4.617   2.010   3.471 -0.1123 -0.0044  0.4024
 6294SOL    HW130344   4.547   1.964   3.519  0.1528 -1.1541 -0.3129
 6294SOL    HW230345   4.632   2.094   3.514 -1.3682  0.0223  0.8091
 6295SOL     OW30346   3.141   0.151   4.898  0.4610 -0.1961  0.0618
 6295SOL    HW130347   3.074   0.193   4.844 -0.3789 -0.4236  0.9263
 6295SOL    HW230348   3.161   0.232   4.944  0.5432 -0.8666  1.1828
 6296SOL     OW30349   2.427   3.486   4.732 -0.2019 -0.3115 -0.3496
 6296SOL    HW130350   2.404   3.502   4.640 -1.2228  1.8648  0.2888
 6296SOL    HW230351   2.481   3.564   4.744 -0.7988  0.0831 -0.1913
 6297SOL     OW30352   0.897   2.955   9.205 -0.4048 -0.2024 -0.0063
 6297SOL    HW130353   0.821   3.007   9.229 -0.6892 -0.1413 -1.0599
 6297SOL    HW230354   0.869   2.867   9.229  1.9813 -0.1366  3.0384
 6298SOL     OW30355   4.101   1.023   6.211 -0.0392  0.4097  0.2429
 6298SOL    HW130356   4.078   0.968   6.136  0.3731  0.9252 -0.2541
 6298SOL    HW230357   4.165   1.079   6.169 -0.6078 -0.3303 -1.6246
 6299SOL     OW30358   2.051   3.700  16.696  0.4161 -0.3138  0.1112
 6299SOL    HW130359   2.061   3.755  16.619  0.0444 -2.6526 -1.6149
 6299SOL    HW230360   1.976   3.738  16.741  0.8279 -1.9270  2.2145
 6300SOL     OW30361   1.100   2.511   7.375  0.5961  0.6307  0.1277
 6300SOL    HW130362   1.018   2.501   7.423  1.2385 -2.2016  0.6555
 6300SOL    HW230363   1.070   2.549   7.293  0.5623 -0.7814 -0.5222
 6301SOL     OW30364   3.115   2.719   9.240  0.1199 -0.2805  0.3964
 6301SOL    HW130365   3.076   2.684   9.160 -0.7255 -1.0503  1.1377
 6301SOL    HW230366   3.162   2.795   9.206  1.0932 -0.9866  0.1607
 6302SOL     OW30367   3.373   1.321  12.295 -0.7927  0.2590 -0.3316
 6302SOL    HW130368   3.454   1.278  12.267  0.4673  2.8239 -0.6185
 6302SOL    HW230369   3.336   1.347  12.210  0.8862 -0.5409 -1.3136
 6303SOL     OW30370   3.094   3.981  10.280 -0.2154 -0.4346  0.5644
 6303SOL    HW130371   3.184   4.005  10.259 -0.6689 -0.8459 -1.8135
 6303SOL    HW230372   3.106   3.889  10.304 -2.8453 -0.6444  1.0356
 6304SOL     OW30373   4.396   2.364   5.655  0.0046 -0.2766 -0.1355
 6304SOL    HW130374   4.463   2.432   5.666 -0.8374  0.7092 -1.1562
 6304SOL    HW230375   4.425   2.335   5.569  2.9628 -0.5109  0.9356
 6305SOL     OW30376   1.973   3.174   3.348  0.2367  0.1210 -0.0718
 6305SOL    HW130377   1.985   3.081   3.369 -0.8974  0.4964  2.2502
 6305SOL    HW230378   1.886   3.171   3.310  0.7792  1.6761 -1.4326
 6306SOL     OW30379   2.730   4.249   9.628 -0.0827 -0.2579  0.5900
 6306SOL    HW130380   2.794   4.293   9.572 -0.3721 -1.3357 -0.6017
 6306SOL    HW230381   2.749   4.160   9.598 -0.9817 -0.2343 -0.0495
 6307SOL     OW30382   0.253   2.857   1.205  0.4540 -0.1058 -0.7525
 6307SOL    HW130383   0.246   2.815   1.291 -1.1326  1.3050 -0.1939
 6307SOL    HW230384   0.267   2.778   1.152  0.2733 -0.6870  0.0669
 6308SOL     OW30385   3.893   4.651   6.887  0.0999 -0.1715 -0.1344
 6308SOL    HW130386   3.813   4.689   6.923 -1.4636 -1.1103 -2.6078
 6308SOL    HW230387   3.864   4.587   6.822 -1.5169 -0.2362  0.6586
 6309SOL     OW30388   3.627   4.256   7.688 -0.0226  0.0012 -0.5635
 6309SOL    HW130389   3.651   4.316   7.618 -0.6690  1.8444  0.7994
 6309SOL    HW230390   3.677   4.281   7.765  0.9944 -0.7856 -0.9588
 6310SOL     OW30391   2.877   2.544   7.585 -0.2506  0.3504 -0.2061
 6310SOL    HW130392   2.873   2.449   7.597 -0.1150  0.4683  0.7497
 6310SOL    HW230393   2.789   2.574   7.608 -0.9234 -1.6627 -0.1583
 6311SOL     OW30394   3.617   2.857   4.554 -0.2521  0.3224  0.0083
 6311SOL    HW130395   3.581   2.771   4.533  0.4932  0.1738 -0.6402
 6311SOL    HW230396   3.574   2.900   4.481  1.1365  1.3952 -0.1742
 6312SOL     OW30397   1.017   4.408   8.404 -0.2205  0.0133  0.1829
 6312SOL    HW130398   1.009   4.355   8.484  1.8309 -0.4415  0.0762
 6312SOL    HW230399   1.109   4.411   8.380 -0.4300 -1.2405 -0.8018
 6313SOL     OW30400   1.450   3.959   6.963 -0.1485  0.0725 -0.2682
 6313SOL    HW130401   1.485   3.974   6.876 -0.1170  2.2591  0.1245
 6313SOL    HW230402   1.462   4.045   7.004 -1.0524 -0.5212  1.2677
 6314SOL     OW30403   1.746   1.348   3.742 -0.0422 -0.6208  0.2908
 6314SOL    HW130404   1.801   1.336   3.665 -1.0567  2.0385 -0.8506
 6314SOL    HW230405   1.703   1.425   3.704  1.1199  1.2704  2.7882
 6315SOL     OW30406   4.242   1.392  16.372 -0.1142  0.4527  0.1071
 6315SOL    HW130407   4.256   1.482  16.343 -1.3401  0.5467 -0.2013
 6315SOL    HW230408   4.223   1.420  16.462 -1.9341  1.4804 -0.5924
 6316SOL     OW30409   4.672   0.788   8.371  0.5964  0.2443  0.6422
 6316SOL    HW130410   4.642   0.784   8.280  0.6454 -2.7222  0.7393
 6316SOL    HW230411   4.675   0.882   8.389 -0.2612  0.1671  1.2296
 6317SOL     OW30412   3.594   3.775   2.513 -0.8681  0.5114 -0.0303
 6317SOL    HW130413   3.512   3.824   2.514  1.0389  3.7283 -1.4184
 6317SOL    HW230414   3.585   3.728   2.596  2.0157  0.7405  0.3934
 6318SOL     OW30415   1.343   3.194   6.800  0.1054  0.4927 -0.0384
 6318SOL    HW130416   1.387   3.169   6.881 -2.2617  2.5035  1.8298
 6318SOL    HW230417   1.419   3.209   6.743 -1.9257 -0.0397 -2.9160
 6319SOL     OW30418   2.278   0.223   7.782 -0.0655  0.4226  0.2954
 6319SOL    HW130419   2.228   0.301   7.806  0.7911  0.9391  0.3930
 6319SOL    HW230420   2.268   0.222   7.687  0.2431  0.9197  0.2572
 6320SOL     OW30421   3.572   1.360   1.830 -0.3496 -0.0782  0.5344
 6320SOL    HW130422   3.651   1.406   1.858 -1.1851  1.2411  0.7121
 6320SOL    HW230423   3.529   1.371   1.915  0.0078  0.4419  0.6475
 6321SOL     OW30424   4.023   0.013   9.852 -0.4299  0.4098  0.4846
 6321SOL    HW130425   3.992   0.076   9.786  1.0121  0.7357  0.1187
 6321SOL    HW230426   4.034   0.071   9.927  0.2815 -3.1469  3.0870
 6322SOL     OW30427   1.808   2.230   7.960 -0.1481  0.4332  0.0953
 6322SOL    HW130428   1.863   2.301   7.994  0.5673  0.0985 -0.3626
 6322SOL    HW230429   1.729   2.276   7.931 -0.4307 -0.2925 -0.2836
 6323SOL     OW30430   0.318   3.945   1.077  0.0230 -0.5943 -0.2113
 6323SOL    HW130431   0.336   3.985   1.162 -0.3895 -0.0126 -0.3960
 6323SOL    HW230432   0.388   3.979   1.022  0.5604 -0.7116  0.4063
 6324SOL     OW30433   0.052   4.322  16.522  0.1235 -0.2404  0.0942
 6324SOL    HW130434   0.136   4.277  16.512  1.6914  2.3040  1.6228
 6324SOL    HW230435   0.002   4.252  16.565  0.8316  0.9304  2.8126
 6325SOL     OW30436   1.021   1.786   2.427  0.1858  0.6691  0.7065
 6325SOL    HW130437   0.991   1.843   2.356  1.8163 -1.1064 -1.3992
 6325SOL    HW230438   1.108   1.763   2.396 -0.2604 -1.3652  0.9942
 6326SOL     OW30439   4.313   2.339   8.738  0.1322  0.5447  0.1690
 6326SOL    HW130440   4.248   2.398   8.776 -1.2087 -0.6855 -0.2201
 6326SOL    HW230441   4.363   2.310   8.814 -1.0616 -1.5979  0.1366
 6327SOL     OW30442   2.579   4.077   2.964 -0.5240 -0.0807 -0.0353
 6327SOL    HW130443   2.598   4.059   2.872 -1.2439 -0.7618 -0.0466
 6327SOL    HW230444   2.489   4.045   2.973 -0.2304 -1.1483 -0.9046
 6328SOL     OW30445   2.401   3.600   1.189  0.2155  0.6101 -0.2254
 6328SOL    HW130446   2.487   3.616   1.228 -0.5180 -0.1358  1.6982
 6328SOL    HW230447   2.357   3.683   1.209  2.5070  1.9847 -0.8532
 6329SOL     OW30448   4.662   2.300  12.190  0.0257 -0.9425  0.2314
 6329SOL    HW130449   0.026   2.268  12.161  1.3165  2.6424  0.1341
 6329SOL    HW230450   4.688   2.377  12.241  1.2426 -1.6404  0.6855
 6330SOL     OW30451   3.826   4.544  12.194  0.3837 -0.2858 -0.3953
 6330SOL    HW130452   3.790   4.489  12.263 -1.3198 -1.8677 -2.5650
 6330SOL    HW230453   3.888   4.603  12.238  1.0268 -0.9489 -0.4074
 6331SOL     OW30454   4.416   3.557   6.502  0.3018 -0.2541  0.5960
 6331SOL    HW130455   4.380   3.614   6.434 -0.9260 -1.2752  0.3802
 6331SOL    HW230456   4.508   3.584   6.498 -0.1523  1.5535  2.4999
 6332SOL     OW30457   2.342   0.540   6.824  0.9900  0.3069 -0.0117
 6332SOL    HW130458   2.399   0.604   6.867  1.2214  0.0015  0.1412
 6332SOL    HW230459   2.398   0.462   6.828 -2.5531 -2.3091 -1.2628
 6333SOL     OW30460   4.354   1.102   6.769  0.2768 -0.2367  0.0115
 6333SOL    HW130461   4.306   1.027   6.733  0.7839 -0.2400 -0.6736
 6333SOL    HW230462   4.436   1.076   6.726  1.2804  1.2568  1.0290
 6334SOL     OW30463   2.761   4.497   9.101 -0.1369 -0.4082 -0.2712
 6334SOL    HW130464   2.703   4.456   9.036 -1.2174 -0.1672  0.5440
 6334SOL    HW230465   2.754   4.589   9.078  0.4250 -0.3697 -0.2939
 6335SOL     OW30466   2.770   3.690   9.513 -0.8077 -0.4412  0.4715
 6335SOL    HW130467   2.844   3.724   9.563 -0.5423  0.5032 -0.5725
 6335SOL    HW230468   2.725   3.653   9.590  1.3292 -1.8939  1.0201
 6336SOL     OW30469   4.125   0.337   9.934 -0.5226  0.3328  0.1354
 6336SOL    HW130470   4.105   0.425   9.966  2.9609  0.8590  0.8373
 6336SOL    HW230471   4.087   0.337   9.846 -0.2655 -2.0063  0.0147
 6337SOL     OW30472   3.905   4.324   4.451 -0.0691 -0.4001  0.0224
 6337SOL    HW130473   3.852   4.289   4.379 -0.6018  0.9884 -0.2588
 6337SOL    HW230474   3.851   4.363   4.520  0.3464 -0.0816  0.1750
 6338SOL     OW30475   0.218   2.422   5.009  0.3486  0.0097  0.0777
 6338SOL    HW130476   0.250   2.488   4.948  0.6183  0.9950  1.2966
 6338SOL    HW230477   0.153   2.472   5.058  0.0084 -1.7823  1.4966
 6339SOL     OW30478   4.401   0.365   3.424  0.0319  0.0960 -0.1074
 6339SOL    HW130479   4.414   0.283   3.472  0.8438  0.5674  0.4910
 6339SOL    HW230480   4.477   0.359   3.366 -2.0274 -1.7300 -2.5886
 6340SOL     OW30481   3.571   1.921   4.243  0.2686  0.3968 -0.8283
 6340SOL    HW130482   3.628   1.868   4.188 -0.5857 -1.7529  0.3637
 6340SOL    HW230483   3.565   1.871   4.324  1.2684  1.0225 -0.3721
 6341SOL     OW30484   3.372   1.353   6.745  0.4457 -0.3366  0.2348
 6341SOL    HW130485   3.354   1.438   6.704  0.9711  0.1614  1.0290
 6341SOL    HW230486   3.333   1.293   6.682 -0.3375 -0.7245  1.0893
 6342SOL     OW30487   2.649   1.783  16.388 -0.1168  0.6923 -0.2283
 6342SOL    HW130488   2.734   1.768  16.347 -0.7158 -0.0530 -1.1907
 6342SOL    HW230489   2.606   1.837  16.322 -2.9731 -3.2478 -1.5732
 6343SOL     OW30490   3.645   1.130   4.833 -0.2610 -0.0605 -0.3314
 6343SOL    HW130491   3.553   1.106   4.823 -0.0758 -0.9521  0.0747
 6343SOL    HW230492   3.652   1.157   4.741 -2.7574 -1.5920 -0.9714
 6344SOL     OW30493   0.285   0.649  15.529 -0.0880 -0.0026  0.2676
 6344SOL    HW130494   0.237   0.581  15.576  1.8592  0.1957  2.5175
 6344SOL    HW230495   0.216   0.683  15.472  0.6663 -0.3443 -0.8721
 6345SOL     OW30496   2.994   3.524   1.143  0.2886 -0.6626  0.4380
 6345SOL    HW130497   3.054   3.478   1.085 -0.5787  1.6102 -2.2510
 6345SOL    HW230498   2.943   3.454   1.183  2.4906 -1.3850  1.9774
 6346SOL     OW30499   1.285   4.111   5.038 -0.5688 -1.1916 -0.7423
 6346SOL    HW130500   1.256   4.045   4.976  1.0826 -0.6506 -2.0917
 6346SOL    HW230501   1.234   4.188   5.013  2.2087  0.2797 -1.8989
 6347SOL     OW30502   1.100   4.565  12.299 -0.1963  0.6233  0.2500
 6347SOL    HW130503   1.142   4.508  12.235  1.8182  0.9018  1.3020
 6347SOL    HW230504   1.167   4.634  12.302  0.2205  0.2502 -0.4595
 6348SOL     OW30505   1.240   4.647  11.831 -0.4353 -0.7487  0.5386
 6348SOL    HW130506   1.161   4.603  11.861 -1.1062 -0.3552 -0.6575
 6348SOL    HW230507   1.244   0.001  11.891  1.3170 -0.0573 -0.4578
 6349SOL     OW30508   0.187   2.137   4.554 -0.0982 -0.1971 -0.0321
 6349SOL    HW130509   0.231   2.184   4.483  0.4379 -0.3081  0.2322
 6349SOL    HW230510   0.184   2.201   4.625 -0.4610 -0.6107  0.3282
 6350SOL     OW30511   4.109   1.929  13.088 -0.1877 -0.4209 -0.1403
 6350SOL    HW130512   4.049   1.898  13.156  0.0171 -1.9506 -0.6590
 6350SOL    HW230513   4.083   1.898  13.001  0.6143 -1.8545  0.1204
 6351SOL     OW30514   4.467   2.256  12.915 -0.0711  0.5832 -0.1929
 6351SOL    HW130515   4.456   2.329  12.977  2.6277 -1.1007  2.2598
 6351SOL    HW230516   4.561   2.256  12.899  0.0070  1.3663  0.2388
 6352SOL     OW30517   0.830   4.074   0.895  0.4215  0.3594  0.7749
 6352SOL    HW130518   0.883   3.994   0.893  1.9296  1.3176  3.9729
 6352SOL    HW230519   0.766   4.051   0.961 -0.0785  1.7161  0.7514
 6353SOL     OW30520   2.678   0.142   2.530  0.0469 -0.3545 -0.2917
 6353SOL    HW130521   2.625   0.222   2.518  2.7266  1.3106 -0.8955
 6353SOL    HW230522   2.621   0.096   2.592  0.2864  1.5409  1.3441
 6354SOL     OW30523   3.600   0.512   4.695 -0.6319  0.3637  0.2330
 6354SOL    HW130524   3.653   0.450   4.745 -1.7169  1.5675  2.8814
 6354SOL    HW230525   3.636   0.492   4.609 -0.1315  0.3074  0.4553
 6355SOL     OW30526   1.169   4.444  14.235 -0.0574 -0.4223 -0.6953
 6355SOL    HW130527   1.075   4.424  14.236 -0.1942  0.2158 -0.3562
 6355SOL    HW230528   1.194   4.409  14.320 -1.5803 -0.6023 -0.3175
 6356SOL     OW30529   2.773   3.119   3.013  0.2572  0.3052 -0.2753
 6356SOL    HW130530   2.820   3.037   3.000  0.5771  0.3346  0.6700
 6356SOL    HW230531   2.840   3.182   2.985  0.8590  0.3220  1.2104
 6357SOL     OW30532   1.686   1.077   6.380  0.2102  0.2668 -0.2496
 6357SOL    HW130533   1.593   1.082   6.358  0.0041 -1.6553  0.1853
 6357SOL    HW230534   1.678   1.046   6.470  0.0649  3.0818  0.7146
 6358SOL     OW30535   1.922   2.539  13.869 -0.4252 -0.0709  0.1041
 6358SOL    HW130536   1.904   2.498  13.954 -1.1905  0.0159 -0.0145
 6358SOL    HW230537   2.013   2.509  13.860 -1.2345 -3.1843  2.4151
 6359SOL     OW30538   3.631   3.775   0.298 -0.3723  0.2231  0.4883
 6359SOL    HW130539   3.706   3.802   0.352  0.6922 -1.7294 -0.0001
 6359SOL    HW230540   3.572   3.727   0.356 -1.0918 -0.3600 -0.7347
 6360SOL     OW30541   3.334   0.878  11.600 -0.2629  0.5953 -0.1682
 6360SOL    HW130542   3.337   0.897  11.694  1.0702 -1.8884  0.2811
 6360SOL    HW230543   3.269   0.940  11.567 -1.4930  0.2310  1.5453
 6361SOL     OW30544   1.678   2.859  15.287 -1.0167 -0.0617  0.2333
 6361SOL    HW130545   1.759   2.904  15.264 -0.6936 -1.4337 -1.3684
 6361SOL    HW230546   1.651   2.907  15.365 -3.0678  0.5265 -0.8339
 6362SOL     OW30547   2.007   1.102  14.760  0.4780 -0.2054 -0.0335
 6362SOL    HW130548   1.946   1.043  14.716 -2.2252  3.3132 -1.0921
 6362SOL    HW230549   2.033   1.151  14.682  1.4186  2.5257  1.9515
 6363SOL     OW30550   1.020   3.441   8.450 -0.3950 -0.8773 -0.2574
 6363SOL    HW130551   1.076   3.396   8.513 -0.2945  0.7429  0.8078
 6363SOL    HW230552   0.930   3.409   8.460 -0.0487 -1.7645  0.0106
 6364SOL     OW30553   0.703   1.937  15.421 -0.4718  0.2310 -1.0253
 6364SOL    HW130554   0.638   1.869  15.404 -0.0327 -0.4686  0.0635
 6364SOL    HW230555   0.783   1.898  15.385 -0.6258 -1.2020  0.1633
 6365SOL     OW30556   1.341   2.876   0.784  0.1123 -0.1351  0.3556
 6365SOL    HW130557   1.285   2.802   0.762  0.1693 -0.1787  0.3591
 6365SOL    HW230558   1.421   2.824   0.786  0.2502 -0.0318 -2.5005
 6366SOL     OW30559   4.018   4.340  12.576 -0.3282  0.0108  0.3232
 6366SOL    HW130560   4.041   4.304  12.490  1.6979  0.0840  0.8210
 6366SOL    HW230561   4.037   4.433  12.573  0.4721 -0.2440 -2.8365
 6367SOL     OW30562   2.626   0.841   6.156  0.4899  0.3182  0.1977
 6367SOL    HW130563   2.583   0.759   6.178  1.0927  0.1399  0.7155
 6367SOL    HW230564   2.647   0.838   6.062  1.4422  2.4388  0.3377
 6368SOL     OW30565   3.267   0.758   8.621 -0.2241  0.2207  0.5417
 6368SOL    HW130566   3.337   0.709   8.579  0.0958  2.3597 -1.4751
 6368SOL    HW230567   3.310   0.843   8.625 -0.4428  0.5131 -3.0602
 6369SOL     OW30568   2.887   3.587   4.908  0.2951  0.0809 -0.5056
 6369SOL    HW130569   2.981   3.570   4.916 -0.0583 -0.8512  1.7653
 6369SOL    HW230570   2.878   3.665   4.962  1.6971  1.3534 -2.0848
 6370SOL     OW30571   0.253   2.525   6.342  0.5203 -0.5192  0.0476
 6370SOL    HW130572   0.207   2.455   6.389  1.1710  0.4501  2.1363
 6370SOL    HW230573   0.207   2.519   6.258 -0.6966  0.6062  0.6393
 6371SOL     OW30574   4.429   0.807   9.966 -0.2033  0.9005 -0.2181
 6371SOL    HW130575   4.444   0.792  10.059 -1.1785 -0.7768 -0.3225
 6371SOL    HW230576   4.478   0.888   9.974  2.3476 -0.6199 -0.4980
 6372SOL     OW30577   0.323   0.553  13.343  0.5900  0.3915 -0.8181
 6372SOL    HW130578   0.281   0.525  13.424 -1.6687  1.5377 -1.5655
 6372SOL    HW230579   0.412   0.547  13.377  1.0842  0.1794 -2.1206
 6373SOL     OW30580   2.499   3.536  17.550  0.2110  0.2195  0.4462
 6373SOL    HW130581   2.503   3.620  17.504  0.6520 -0.9159 -1.6219
 6373SOL    HW230582   2.418   3.496  17.519 -1.3507  2.6375  1.3563
 6374SOL     OW30583   2.404   3.754   5.504 -0.0268  0.5372 -0.2334
 6374SOL    HW130584   2.375   3.826   5.448  1.0796  1.6703  0.6414
 6374SOL    HW230585   2.382   3.684   5.443  1.1470 -1.0192  1.1181
 6375SOL     OW30586   1.111   0.460   0.138 -0.2271 -0.4886 -0.3756
 6375SOL    HW130587   1.082   0.523   0.203  0.3158  0.6080 -1.1968
 6375SOL    HW230588   1.126   0.513   0.060 -0.1615 -0.0395 -0.0560
 6376SOL     OW30589   3.256   0.053  10.358  0.4082 -0.3669 -0.2319
 6376SOL    HW130590   3.308   4.710  10.406  3.5660  1.0974 -1.6967
 6376SOL    HW230591   3.209   0.004  10.291 -0.2809  1.1659 -0.8626
 6377SOL     OW30592   4.016   4.115   7.379 -0.6392 -0.3200 -0.7097
 6377SOL    HW130593   4.041   4.113   7.286 -0.1687 -2.4141 -0.5367
 6377SOL    HW230594   3.921   4.109   7.369 -0.5994 -0.7828 -0.7936
 6378SOL     OW30595   1.234   0.819   4.105  0.0460 -0.1226  0.1748
 6378SOL    HW130596   1.210   0.907   4.075 -0.4200  0.1047  1.2348
 6378SOL    HW230597   1.167   0.762   4.067  0.1879  0.3100 -0.7322
 6379SOL     OW30598   0.105   1.271   2.936  0.0604  0.0171  0.0486
 6379SOL    HW130599   0.080   1.180   2.920  1.0106 -0.5012  1.5170
 6379SOL    HW230600   0.031   1.322   2.902  0.1315  0.1134  0.0388
 6380SOL     OW30601   1.541   4.578   1.452 -0.1473 -0.7994  0.0860
 6380SOL    HW130602   1.634   4.592   1.435 -0.7724  1.3790 -1.6126
 6380SOL    HW230603   1.512   4.572   1.361 -0.1767 -2.1508  0.1945
 6381SOL     OW30604   3.695   0.790   6.720 -0.6469 -0.1665  0.0184
 6381SOL    HW130605   3.600   0.788   6.735 -0.7290 -1.9075 -0.7554
 6381SOL    HW230606   3.719   0.742   6.799 -1.9566  0.1539  0.6179
 6382SOL     OW30607   1.012   0.210   7.687 -0.4409  0.1404 -0.4450
 6382SOL    HW130608   1.082   0.236   7.628  1.6154 -3.4771  0.3560
 6382SOL    HW230609   0.940   0.177   7.633  1.1074  0.1618 -2.4878
 6383SOL     OW30610   0.258   3.096   8.619 -0.0639  0.1080  0.3554
 6383SOL    HW130611   0.257   3.187   8.648 -3.2733 -0.1977  1.2384
 6383SOL    HW230612   0.246   3.103   8.525 -0.9109  1.5973  0.5724
 6384SOL     OW30613   0.679   2.594   0.927 -0.1071 -0.8527 -0.5633
 6384SOL    HW130614   0.665   2.617   1.019 -1.1064 -1.1957 -0.6304
 6384SOL    HW230615   0.729   2.514   0.945 -1.8842 -1.5567  1.1953
 6385SOL     OW30616   0.295   3.093   9.478  0.4256  0.0158  1.0143
 6385SOL    HW130617   0.272   3.116   9.568 -1.0944 -0.5840  0.7813
 6385SOL    HW230618   0.373   3.039   9.489 -1.1037 -2.3119  0.4416
 6386SOL     OW30619   1.286   0.366   3.512  0.0961 -0.6928  0.4441
 6386SOL    HW130620   1.314   0.409   3.593  0.9719  1.4401 -0.9850
 6386SOL    HW230621   1.243   0.444   3.475  2.3427  0.7252  0.8111
 6387SOL     OW30622   1.194   2.235   0.856  0.0888  0.0853 -0.0299
 6387SOL    HW130623   1.243   2.156   0.833 -0.1400  0.3512 -1.4245
 6387SOL    HW230624   1.224   2.244   0.947 -0.9163 -3.8423  0.7073
 6388SOL     OW30625   1.918   2.748   8.974 -0.1332 -0.1443 -0.2287
 6388SOL    HW130626   1.960   2.664   8.992  0.1332  0.5171  2.2779
 6388SOL    HW230627   1.999   2.794   8.951  0.0744  0.9372  2.6020
 6389SOL     OW30628   3.409   2.841   3.970 -0.1750 -0.4741  0.3883
 6389SOL    HW130629   3.410   2.929   4.007  2.2341 -0.9845  1.5574
 6389SOL    HW230630   3.356   2.854   3.892 -1.0208 -3.7493  0.4047
 6390SOL     OW30631   3.376   4.714   1.261  0.0897  0.0082 -0.0372
 6390SOL    HW130632   3.451   0.005   1.203  0.8704 -0.6004  0.8420
 6390SOL    HW230633   3.417   4.693   1.345 -0.2191  0.5353  0.2407
 6391SOL     OW30634   3.861   2.702  13.370  0.2951  0.2231 -0.6095
 6391SOL    HW130635   3.776   2.743  13.386  0.4242 -0.5426  2.0447
 6391SOL    HW230636   3.824   2.624  13.328 -0.0159  0.2778 -0.4418
 6392SOL     OW30637   2.912   4.190   6.200  0.3888  0.1155  0.2438
 6392SOL    HW130638   2.998   4.205   6.160  1.2763  0.1300  2.1745
 6392SOL    HW230639   2.932   4.221   6.288  0.4044 -2.4846  1.1273
 6393SOL     OW30640   0.819   3.712   1.774  0.3439 -0.1353 -0.4012
 6393SOL    HW130641   0.783   3.646   1.833 -1.1434  0.4793 -0.6254
 6393SOL    HW230642   0.741   3.768   1.773 -1.9035 -3.2218  2.2033
 6394SOL     OW30643   4.147   1.484  12.979 -0.0715 -0.4011 -0.0146
 6394SOL    HW130644   4.104   1.505  12.896 -2.1958 -0.8051  0.9799
 6394SOL    HW230645   4.237   1.489  12.948 -0.6396 -2.2096 -1.9724
 6395SOL     OW30646   4.131   3.153  10.171  0.0487 -0.3167  0.4582
 6395SOL    HW130647   4.154   3.102  10.093 -2.2460  0.4920 -0.7293
 6395SOL    HW230648   4.138   3.078  10.231  0.5942 -0.5521  0.1047
 6396SOL     OW30649   4.140   0.319   1.591  0.3313  0.1957  0.4983
 6396SOL    HW130650   4.105   0.405   1.570  3.6726  1.6667  1.0846
 6396SOL    HW230651   4.228   0.345   1.619  0.1497 -0.1847  1.4305
 6397SOL     OW30652   3.802   0.789  12.957 -0.1669  0.3370 -0.4058
 6397SOL    HW130653   3.778   0.758  12.870  1.2277 -0.1811 -0.6087
 6397SOL    HW230654   3.773   0.879  12.939 -2.0024 -0.2692 -0.4571
 6398SOL     OW30655   2.920   4.697   4.567 -0.0082  0.1616 -0.1128
 6398SOL    HW130656   3.016   4.699   4.570 -0.0365 -1.2109  1.8512
 6398SOL    HW230657   2.895   4.608   4.543  0.2394  0.1029 -0.1532
 6399SOL     OW30658   1.122   2.695   0.416 -0.0566  0.4666  0.1473
 6399SOL    HW130659   1.133   2.623   0.354  2.1505 -0.5575  1.7482
 6399SOL    HW230660   1.028   2.714   0.411  0.3461  2.5687  0.3391
 6400SOL     OW30661   3.098   3.027  13.453  0.0746 -0.8204  0.0739
 6400SOL    HW130662   3.016   3.050  13.408 -0.8055 -0.4415  1.8394
 6400SOL    HW230663   3.082   3.079  13.532  2.0049  1.1504 -0.8309
 6401SOL     OW30664   3.027   0.629   2.594 -0.2613  0.1327 -0.4045
 6401SOL    HW130665   2.965   0.702   2.597  1.4101  1.5003  0.5257
 6401SOL    HW230666   3.111   0.671   2.576  0.7173 -2.4523 -1.9920
 6402SOL     OW30667   2.838   1.527   1.997 -0.2646  0.5394 -0.5955
 6402SOL    HW130668   2.794   1.535   1.913 -2.1222 -0.4389  0.2877
 6402SOL    HW230669   2.910   1.472   1.965  0.8265  1.6525 -0.0562
 6403SOL     OW30670   1.513   1.244   1.846  0.3151 -0.2820 -0.3655
 6403SOL    HW130671   1.548   1.155   1.847 -0.3211 -0.5356 -0.4700
 6403SOL    HW230672   1.443   1.251   1.781 -0.7576 -2.2079  0.5839
 6404SOL     OW30673   2.004   3.301   7.923 -0.6645 -0.5226 -0.2792
 6404SOL    HW130674   2.015   3.211   7.954  0.4284  0.6058  2.5763
 6404SOL    HW230675   1.982   3.354   8.000 -0.3549 -1.9345  0.7697
 6405SOL     OW30676   2.072   1.355   6.830 -0.0379  0.4993  0.4121
 6405SOL    HW130677   2.026   1.440   6.832  0.3462  0.7795 -2.0694
 6405SOL    HW230678   2.050   1.324   6.742  0.2432  0.9786  0.1700
 6406SOL     OW30679   0.072   4.486  17.384  0.4976  0.6168  0.1865
 6406SOL    HW130680   0.087   4.554  17.450  2.0968 -0.5592  1.0345
 6406SOL    HW230681   0.142   4.424  17.408 -0.4397 -0.6003 -0.2379
 6407SOL     OW30682   0.997   1.605   3.044  0.2604 -0.1964  0.3244
 6407SOL    HW130683   1.007   1.510   3.040 -1.6390 -0.4612  2.0268
 6407SOL    HW230684   1.041   1.634   2.965 -1.2826 -0.3646 -0.5923
 6408SOL     OW30685   4.654   1.554  16.236 -0.1781 -0.2037 -0.7329
 6408SOL    HW130686   4.720   1.507  16.184 -0.1692  1.9551 -2.6384
 6408SOL    HW230687   4.677   1.647  16.235 -1.8699  0.2104 -0.3022
 6409SOL     OW30688   4.477   2.800   7.671  0.3363 -0.2819 -0.4755
 6409SOL    HW130689   4.515   2.850   7.743 -0.3945 -0.9303  0.3629
 6409SOL    HW230690   4.545   2.736   7.652  2.2318  2.3895 -2.7054
 6410SOL     OW30691   3.310   4.088   3.737 -0.3820  0.2025 -0.4331
 6410SOL    HW130692   3.315   4.127   3.824  0.5507  1.7309 -1.1859
 6410SOL    HW230693   3.282   4.159   3.680 -0.6922  0.4976  0.0805
 6411SOL     OW30694   1.270   2.077  10.645 -0.2749 -0.4282  0.6222
 6411SOL    HW130695   1.195   2.064  10.704  0.3156 -0.5156  1.3504
 6411SOL    HW230696   1.272   1.994  10.598  2.3477 -0.7638  1.3428
 6412SOL     OW30697   0.271   0.909   0.526 -0.7630  0.7548 -0.2637
 6412SOL    HW130698   0.322   0.968   0.471 -0.9682 -0.2497 -1.5313
 6412SOL    HW230699   0.285   0.946   0.613 -0.4089  1.3075 -0.5528
 6413SOL     OW30700   0.376   0.228   6.773 -0.0241 -0.2289 -1.4189
 6413SOL    HW130701   0.413   0.311   6.746  1.2870 -0.6176 -0.7781
 6413SOL    HW230702   0.437   0.208   6.844 -1.1284 -2.2176 -1.0001
 6414SOL     OW30703   2.428   0.258   2.973  0.0848  0.3546  0.0561
 6414SOL    HW130704   2.396   0.299   2.893  0.8236 -2.6400 -1.7617
 6414SOL    HW230705   2.404   0.169   2.948 -2.8159  0.8019  1.1830
 6415SOL     OW30706   2.506   4.302   5.539 -0.1579 -0.1883 -0.4844
 6415SOL    HW130707   2.512   4.387   5.581 -2.1218 -0.4923  0.4107
 6415SOL    HW230708   2.444   4.321   5.469  1.3192  2.7675 -0.9485
 6416SOL     OW30709   3.616   0.679  16.902 -0.4698 -0.2684  0.3083
 6416SOL    HW130710   3.695   0.706  16.949  0.6774 -0.1531 -1.6784
 6416SOL    HW230711   3.609   0.747  16.835 -3.4638 -1.1774 -0.3069
 6417SOL     OW30712   0.281   3.585   2.951 -0.2147 -0.4107  0.1023
 6417SOL    HW130713   0.210   3.617   2.895 -0.2165  0.5400  0.6560
 6417SOL    HW230714   0.279   3.491   2.931 -0.0398 -0.6260  1.1229
 6418SOL     OW30715   2.742   1.537   4.321  0.1295  0.4615 -0.8057
 6418SOL    HW130716   2.657   1.557   4.361  1.7815  1.4954  2.1687
 6418SOL    HW230717   2.793   1.492   4.388  2.3216  1.9994 -1.4360
 6419SOL     OW30718   0.329   2.391   0.841  0.1393  0.4332  0.5664
 6419SOL    HW130719   0.261   2.346   0.790 -0.1273 -1.3009  2.4502
 6419SOL    HW230720   0.363   2.313   0.886  0.3324  0.4235  0.4016
 6420SOL     OW30721   1.695   2.365   4.594  0.4724  0.1453  0.2085
 6420SOL    HW130722   1.612   2.318   4.586  1.1810 -0.9206 -0.8641
 6420SOL    HW230723   1.665   2.452   4.565  0.8279  0.1222 -0.2231
 6421SOL     OW30724   3.442   0.135   9.904 -0.0836 -0.0248  0.1090
 6421SOL    HW130725   3.513   0.176   9.855 -1.0034  1.1916 -0.2213
 6421SOL    HW230726   3.440   0.197   9.978  1.6405  1.6119 -1.2353
 6422SOL     OW30727   3.535   2.294   8.445  0.3275 -0.0819 -0.3053
 6422SOL    HW130728   3.469   2.272   8.380  0.4178 -1.1666 -0.0367
 6422SOL    HW230729   3.494   2.372   8.484 -0.5366 -0.6035 -0.1735
 6423SOL     OW30730   0.488   4.535   8.274  0.0365  0.1811 -0.5262
 6423SOL    HW130731   0.555   4.515   8.341  0.2720  0.6459 -0.6266
 6423SOL    HW230732   0.531   4.610   8.233 -0.4045 -0.2566 -1.7730
 6424SOL     OW30733   2.609   3.193   2.596  0.7032 -0.3417  0.2214
 6424SOL    HW130734   2.597   3.100   2.613 -2.4733  0.2056  0.8570
 6424SOL    HW230735   2.662   3.191   2.516  1.1835 -1.2745  0.5610
 6425SOL     OW30736   0.232   3.515  17.375  0.8074  0.1385 -0.6469
 6425SOL    HW130737   0.187   3.525  17.459 -0.7679 -0.7004 -1.4039
 6425SOL    HW230738   0.225   3.424  17.346 -0.2700  0.2056 -0.5660
 6426SOL     OW30739   4.409   4.546   5.124  0.4181 -1.1648 -0.0941
 6426SOL    HW130740   4.441   4.498   5.047 -1.5692 -2.4894 -0.0843
 6426SOL    HW230741   4.327   4.573   5.084  0.2394 -1.5019  0.0473
 6427SOL     OW30742   0.620   4.376   8.783 -1.1511  0.2297 -0.0329
 6427SOL    HW130743   0.636   4.387   8.689  0.9635  0.7681  0.4008
 6427SOL    HW230744   0.701   4.398   8.830 -0.5595 -1.9361 -0.0433
 6428SOL     OW30745   3.971   2.662   6.237  0.4790 -0.2924  0.7444
 6428SOL    HW130746   3.891   2.708   6.208  1.1563 -0.4970 -1.4360
 6428SOL    HW230747   3.938   2.584   6.282 -0.1912  0.0439  0.8486
 6429SOL     OW30748   3.154   0.088   6.618  0.1822  0.2475  0.6169
 6429SOL    HW130749   3.091   0.035   6.569 -1.4830  2.5649  0.2807
 6429SOL    HW230750   3.094   0.127   6.682 -1.7817  0.6572 -1.4965
 6430SOL     OW30751   1.589   0.052  11.515  0.1724 -0.9916  0.2855
 6430SOL    HW130752   1.593   0.092  11.602  2.7521 -0.0596 -0.2773
 6430SOL    HW230753   1.671   0.007  11.495  1.5123  1.1171  1.0817
 6431SOL     OW30754   2.275   3.975   3.881  0.0487 -0.4283  0.2568
 6431SOL    HW130755   2.216   3.948   3.951 -1.0310  0.2730 -0.3694
 6431SOL    HW230756   2.272   3.902   3.820 -0.7367 -1.2996  1.3298
 6432SOL     OW30757   3.122   2.802  13.161  0.4451 -0.3349  0.0197
 6432SOL    HW130758   3.196   2.743  13.146  0.3614  0.1572 -2.3651
 6432SOL    HW230759   3.053   2.776  13.101  1.6557  1.0073 -1.9482
 6433SOL     OW30760   0.881   0.598  17.520  0.0650  0.1500  0.4056
 6433SOL    HW130761   0.968   0.584  17.557 -0.5837 -0.7746  1.5909
 6433SOL    HW230762   0.861   0.687  17.547  1.0837  0.3501  0.4821
 6434SOL     OW30763   0.864   2.706  15.035 -0.1657  0.1522 -0.2883
 6434SOL    HW130764   0.886   2.758  14.957  1.2954 -0.2581 -0.1504
 6434SOL    HW230765   0.790   2.663  14.994 -0.9516  2.6596 -1.5231
 6435SOL     OW30766   0.924   1.754   5.182 -0.6065 -0.3153 -0.2528
 6435SOL    HW130767   1.006   1.723   5.218  0.3022  1.2279 -1.0110
 6435SOL    HW230768   0.867   1.677   5.192  0.2910 -0.6924  1.8113
 6436SOL     OW30769   0.169   1.551   2.059  0.1091  0.3050 -0.3360
 6436SOL    HW130770   0.091   1.496   2.055  0.9672 -1.0593  1.5095
 6436SOL    HW230771   0.178   1.579   1.968  0.4333 -1.9855 -1.0087
 6437SOL     OW30772   1.519   2.898   8.346  0.4261 -0.3011  0.2122
 6437SOL    HW130773   1.569   2.969   8.385 -1.2927  0.2600  1.3723
 6437SOL    HW230774   1.477   2.846   8.415 -0.5165 -1.3812 -1.1824
 6438SOL     OW30775   1.961   2.093   0.222 -0.1242  0.2379 -0.6373
 6438SOL    HW130776   2.021   2.024   0.193 -0.8498  0.5481 -2.9162
 6438SOL    HW230777   1.942   2.132   0.137 -1.7620  1.0748  0.1036
 6439SOL     OW30778   0.439   2.075   9.079  0.2011  0.1628  0.0164
 6439SOL    HW130779   0.413   2.145   9.021  0.7575  0.3253 -0.0427
 6439SOL    HW230780   0.530   2.058   9.053  0.8138  1.3785  1.3514
 6440SOL     OW30781   2.036   4.679   9.141  0.6897  0.4421 -0.0369
 6440SOL    HW130782   2.108   4.623   9.113  1.1996  1.7086 -1.2641
 6440SOL    HW230783   1.975   4.619   9.183  1.1848  0.2679  0.4368
 6441SOL     OW30784   2.977   0.181  15.718 -0.7553 -0.1696 -0.2730
 6441SOL    HW130785   2.964   0.104  15.662  1.1447 -0.8743  0.2606
 6441SOL    HW230786   2.960   0.252  15.656  1.1389  1.3085  0.9293
 6442SOL     OW30787   2.946   2.618   8.060  0.3790  0.3247  0.4203
 6442SOL    HW130788   2.937   2.523   8.068 -1.6123  0.3008 -1.9812
 6442SOL    HW230789   2.866   2.657   8.023  1.0732  0.1877 -1.2041
 6443SOL     OW30790   0.461   2.719  14.544  0.2436  0.2065  0.1813
 6443SOL    HW130791   0.373   2.751  14.524  0.2495  0.7376  0.9931
 6443SOL    HW230792   0.459   2.706  14.639 -0.2947 -0.7781  0.0224
 6444SOL     OW30793   2.315   2.222   4.398  0.8200  0.2372 -0.0679
 6444SOL    HW130794   2.307   2.284   4.470  0.0850 -1.5233  1.3469
 6444SOL    HW230795   2.223   2.200   4.384  0.8053  1.1148 -1.3787
 6445SOL     OW30796   1.057   1.377   5.491  0.1059 -0.1800 -0.4249
 6445SOL    HW130797   1.084   1.285   5.494  2.4593  0.5700  1.1261
 6445SOL    HW230798   1.009   1.381   5.408  1.6588 -0.4318 -1.3362
 6446SOL     OW30799   3.480   1.027  10.123 -0.7481 -0.1685 -0.0275
 6446SOL    HW130800   3.413   1.085  10.160 -1.8390 -0.3590 -1.6741
 6446SOL    HW230801   3.495   0.973  10.200  1.2942  0.7416  0.2100
 6447SOL     OW30802   3.784   4.482   6.609  0.1258  0.1973 -0.3713
 6447SOL    HW130803   3.773   4.464   6.515  0.3847 -0.2701 -0.3121
 6447SOL    HW230804   3.708   4.535   6.630 -0.4853 -0.6022 -0.5757
 6448SOL     OW30805   0.674   4.125  14.993 -0.0847 -0.0396  0.0581
 6448SOL    HW130806   0.657   4.131  15.087  0.5621  0.9086  0.1074
 6448SOL    HW230807   0.664   4.214  14.960 -0.8568 -0.6215 -1.2743
 6449SOL     OW30808   3.445   0.386   3.491 -0.0287 -0.3059 -0.4381
 6449SOL    HW130809   3.387   0.371   3.417 -1.2102 -1.2081  0.6771
 6449SOL    HW230810   3.426   0.478   3.511 -0.4308 -0.4369 -0.2197
 6450SOL     OW30811   1.487   3.568  17.499  0.6333 -0.0091  0.1876
 6450SOL    HW130812   1.419   3.614  17.549  1.8250  2.1568 -0.1739
 6450SOL    HW230813   1.529   3.515  17.566  1.5672  0.6586  0.1323
 6451SOL     OW30814   4.059   2.379   5.976  0.3248  0.2012  0.3960
 6451SOL    HW130815   4.039   2.308   6.037  1.6485 -0.9221 -0.4668
 6451SOL    HW230816   3.971   2.397   5.943  0.5649  1.9879  0.7407
 6452SOL     OW30817   1.391   0.102   1.357  0.3110  0.3470  0.0003
 6452SOL    HW130818   1.406   0.011   1.330 -1.9680  0.8407 -2.8333
 6452SOL    HW230819   1.306   0.093   1.400  1.2207 -2.1737  1.2478
 6453SOL     OW30820   4.094   2.377  14.882  0.2190 -0.2012  0.2407
 6453SOL    HW130821   4.161   2.352  14.818 -2.1231 -2.5831 -1.2687
 6453SOL    HW230822   4.148   2.426  14.945  2.2063  0.6706 -2.1330
 6454SOL     OW30823   1.157   1.853   7.984  0.5144 -0.0974  0.0487
 6454SOL    HW130824   1.120   1.827   8.068  0.5370 -0.5392 -0.0766
 6454SOL    HW230825   1.249   1.859   8.009  0.9119 -0.4207 -1.3330
 6455SOL     OW30826   4.024   0.601   6.011 -0.4070 -0.3863  0.2666
 6455SOL    HW130827   3.947   0.644   6.048 -2.1747 -1.3896 -2.2755
 6455SOL    HW230828   4.065   0.560   6.087  0.3596 -0.2771 -0.0802
 6456SOL     OW30829   2.065   1.980   0.499 -0.7286 -0.0306  0.9967
 6456SOL    HW130830   2.049   1.904   0.443  0.0851  0.7014 -0.2383
 6456SOL    HW230831   2.098   2.040   0.432 -2.2475 -0.0781  0.1973
 6457SOL     OW30832   1.780   3.844   5.056  0.1301 -0.1810  0.2299
 6457SOL    HW130833   1.778   3.767   5.000  1.8310  0.0419 -0.1373
 6457SOL    HW230834   1.694   3.885   5.043  0.0647  0.0989  1.5096
 6458SOL     OW30835   4.680   1.429   5.872  0.0488  0.1796 -0.3116
 6458SOL    HW130836   0.030   1.494   5.876 -0.5015  0.7421  0.4180
 6458SOL    HW230837   0.005   1.346   5.876 -0.5459 -0.2617 -2.5330
 6459SOL     OW30838   2.866   0.034   1.234 -0.1898 -0.3264  0.3266
 6459SOL    HW130839   2.868   4.667   1.196  0.1424 -1.8907  3.9226
 6459SOL    HW230840   2.931   0.018   1.303  0.9699  0.0956 -0.6624
 6460SOL     OW30841   1.063   3.095   2.924 -0.1574  0.7379  0.9064
 6460SOL    HW130842   1.148   3.056   2.903  0.0885 -0.3189  3.9198
 6460SOL    HW230843   1.014   3.037   2.867 -1.4818  1.2058  1.5638
 6461SOL     OW30844   4.222   1.162  11.646 -0.0715  0.3835 -1.0610
 6461SOL    HW130845   4.295   1.220  11.669 -2.1638  3.1056 -1.2677
 6461SOL    HW230846   4.163   1.170  11.721 -1.5038 -0.1294 -2.1373
 6462SOL     OW30847   3.290   0.578   7.599  0.1356  0.2881  0.0834
 6462SOL    HW130848   3.305   0.489   7.568  0.1480 -0.3239  1.8192
 6462SOL    HW230849   3.269   0.561   7.691  0.8584 -1.4461 -0.0679
 6463SOL     OW30850   3.425   2.455  16.528  0.0291  0.7646 -0.1527
 6463SOL    HW130851   3.352   2.481  16.584  0.3869  1.3459  0.0450
 6463SOL    HW230852   3.482   2.413  16.593 -1.0961 -0.0599  0.2880
 6464SOL     OW30853   4.227   4.619   8.122 -0.0713 -0.5985 -0.5874
 6464SOL    HW130854   4.171   4.685   8.163  0.1158  0.1461 -1.5221
 6464SOL    HW230855   4.211   4.542   8.177  2.1453 -0.4905  0.1627
 6465SOL     OW30856   0.959   4.053   7.449  0.1189 -0.2172  0.6804
 6465SOL    HW130857   0.907   4.013   7.519  0.3748  0.8316  1.4616
 6465SOL    HW230858   0.906   4.025   7.375 -0.1968 -0.2754  0.9289
 6466SOL     OW30859   2.865   3.123   4.201 -0.9766  0.5665  0.6333
 6466SOL    HW130860   2.803   3.167   4.142  0.1454  0.1531 -0.8711
 6466SOL    HW230861   2.945   3.175   4.195 -0.9599  0.5838  1.0266
 6467SOL     OW30862   3.313   2.748   6.693  0.2319  0.0705 -0.5034
 6467SOL    HW130863   3.292   2.770   6.784  0.3647  1.2977 -0.7625
 6467SOL    HW230864   3.316   2.834   6.651 -0.9144  1.4067  2.1264
 6468SOL     OW30865   4.038   3.020   7.213  0.0194 -0.1610 -0.1161
 6468SOL    HW130866   3.989   3.019   7.296  0.0365 -0.3032 -0.1086
 6468SOL    HW230867   3.968   3.038   7.150 -0.6934 -0.0406  0.7043
 6469SOL     OW30868   4.035   2.961   3.236 -0.2541 -0.1047  0.2370
 6469SOL    HW130869   4.058   2.921   3.152 -5.2510  0.6074 -1.4744
 6469SOL    HW230870   3.951   2.917   3.251  0.2192 -0.7540  1.0050
 6470SOL     OW30871   2.330   3.910   1.485  0.3358 -0.6035 -0.6002
 6470SOL    HW130872   2.393   3.964   1.532  0.3614  0.0017 -1.3226
 6470SOL    HW230873   2.324   3.959   1.403  2.8519  0.0947 -0.3803
 6471SOL     OW30874   2.691   3.814   3.178 -0.2844  0.4995 -0.3843
 6471SOL    HW130875   2.619   3.819   3.241 -3.3659 -2.1213 -3.7124
 6471SOL    HW230876   2.746   3.747   3.217 -1.2069  0.5079  0.9224
 6472SOL     OW30877   0.468   1.977   9.403  0.3397 -0.2174 -0.6736
 6472SOL    HW130878   0.443   2.066   9.429 -0.6707 -0.9854  0.8920
 6472SOL    HW230879   0.427   1.966   9.317 -0.9106  1.1321 -0.2641
 6473SOL     OW30880   2.768   3.167  14.729 -0.2268  0.5570 -0.1472
 6473SOL    HW130881   2.728   3.148  14.814  0.2707  0.2183  0.0087
 6473SOL    HW230882   2.839   3.104  14.732  0.1017  0.9786  1.0375
 6474SOL     OW30883   4.648   3.026   6.006 -0.2900  0.0825  0.6394
 6474SOL    HW130884   4.568   3.075   5.983 -0.2450 -0.4827 -0.7072
 6474SOL    HW230885   4.686   3.064   6.085 -2.4557 -0.4694  1.9666
 6475SOL     OW30886   0.275   3.257   6.457 -0.4360  0.2177 -0.4903
 6475SOL    HW130887   0.342   3.192   6.478 -0.8584 -0.2556 -0.5993
 6475SOL    HW230888   0.197   3.212   6.489  0.9682 -0.9711  1.2452
 6476SOL     OW30889   0.141   3.398   5.951 -0.3378  0.6641 -0.1683
 6476SOL    HW130890   0.063   3.443   5.984  1.0711  1.7406  1.6804
 6476SOL    HW230891   0.188   3.382   6.033 -0.2733 -1.3865 -0.6203
 6477SOL     OW30892   0.732   4.607   0.687  0.0941  0.2165  0.4174
 6477SOL    HW130893   0.658   4.547   0.680  2.1528 -2.6473  3.6111
 6477SOL    HW230894   0.737   4.625   0.780  0.1737  2.6918 -0.0547
 6478SOL     OW30895   0.652   3.072   0.149 -0.4220  0.0640 -0.6512
 6478SOL    HW130896   0.695   3.094   0.066 -1.1036  0.0898 -0.9957
 6478SOL    HW230897   0.728   3.094   0.202  0.0368 -2.9527 -0.0505
 6479SOL     OW30898   2.074   1.143  13.026 -0.5306 -0.1901  0.3072
 6479SOL    HW130899   2.056   1.230  13.062 -2.7720 -0.6027  0.1644
 6479SOL    HW230900   2.140   1.102  13.081  3.4202  1.3274 -3.2366
 6480SOL     OW30901   3.449   0.189   7.070 -0.6403  0.0386  0.5986
 6480SOL    HW130902   3.450   0.178   6.975  0.0443  0.3754  0.5665
 6480SOL    HW230903   3.355   0.193   7.083 -0.8439 -2.0242 -0.1502
 6481SOL     OW30904   0.958   1.325   4.092  0.1460 -0.2690  0.4101
 6481SOL    HW130905   0.903   1.255   4.127  1.0851 -0.5035  1.4300
 6481SOL    HW230906   0.897   1.393   4.063 -0.1809 -0.5047  0.5408
 6482SOL     OW30907   2.237   3.646   9.304 -0.2763 -0.8607  0.2022
 6482SOL    HW130908   2.162   3.590   9.324  1.0424 -2.3562  0.9550
 6482SOL    HW230909   2.220   3.712   9.371 -0.7098 -0.9562  0.1896
 6483SOL     OW30910   2.434   1.296   8.230 -0.3066  0.2953 -0.1154
 6483SOL    HW130911   2.362   1.262   8.176  0.7337 -0.8833 -0.7673
 6483SOL    HW230912   2.513   1.252   8.199 -1.2512 -0.4883 -1.4397
 6484SOL     OW30913   4.472   3.973   6.672  0.6528  0.0914  0.8897
 6484SOL    HW130914   4.494   3.886   6.707  0.8128 -0.5416 -0.7580
 6484SOL    HW230915   4.383   3.985   6.706 -0.1539 -0.1885 -1.1041
 6485SOL     OW30916   0.162   2.784  14.547  0.3627  0.4319  0.2431
 6485SOL    HW130917   0.094   2.728  14.583  1.2947 -0.0920  1.1875
 6485SOL    HW230918   0.168   2.848  14.618 -1.2087  0.7194  0.1123
 6486SOL     OW30919   2.079   0.649   8.002 -0.1707 -0.0694 -0.1159
 6486SOL    HW130920   2.152   0.700   8.039  0.1033  2.0195 -3.5259
 6486SOL    HW230921   2.044   0.713   7.941 -1.1811 -0.5459 -0.0356
 6487SOL     OW30922   3.927   2.127   9.488 -0.0111  0.5020 -0.4613
 6487SOL    HW130923   3.845   2.167   9.517  0.2297  1.2906 -0.8836
 6487SOL    HW230924   3.929   2.046   9.539  1.9798  0.3687 -0.7575
 6488SOL     OW30925   1.724   3.868   1.477  0.1880 -0.1341 -0.0752
 6488SOL    HW130926   1.767   3.824   1.549 -0.0916  0.2113  0.3038
 6488SOL    HW230927   1.731   3.963   1.489  1.2688 -0.4824  1.8932
 6489SOL     OW30928   1.289   0.888  13.697  0.2785 -0.3078  0.3377
 6489SOL    HW130929   1.350   0.941  13.646  0.1304  0.6827  1.1984
 6489SOL    HW230930   1.349   0.819  13.727 -0.0286 -1.0539 -0.7446
 6490SOL     OW30931   3.685   3.780   6.721 -0.5939 -0.0235  0.9532
 6490SOL    HW130932   3.746   3.815   6.655 -1.6070 -0.5523 -0.2693
 6490SOL    HW230933   3.621   3.851   6.716  0.1346  0.5610 -0.1980
 6491SOL     OW30934   0.860   4.597   3.747 -0.3348 -0.3454  0.0462
 6491SOL    HW130935   0.844   4.616   3.839  2.0682 -0.2816  0.4675
 6491SOL    HW230936   0.918   4.520   3.743  1.4070  1.0946 -2.0646
 6492SOL     OW30937   3.482   1.021  16.111 -0.2647 -0.0046  0.4333
 6492SOL    HW130938   3.415   0.956  16.134 -1.5788  1.2403  0.1515
 6492SOL    HW230939   3.531   0.977  16.042 -3.8663 -1.9711 -0.8796
 6493SOL     OW30940   3.785   2.431   8.409 -0.1848  0.8851 -0.3008
 6493SOL    HW130941   3.705   2.380   8.419  1.0794 -0.6644  1.8688
 6493SOL    HW230942   3.804   2.446   8.502 -3.2957 -0.8777  0.6128
 6494SOL     OW30943   4.388   2.244  12.161  0.1254 -0.0753  0.3225
 6494SOL    HW130944   4.349   2.237  12.248  0.6033  1.5711  0.6700
 6494SOL    HW230945   4.479   2.266  12.181 -0.0055  2.0429 -1.4731
 6495SOL     OW30946   1.351   2.050   3.911 -0.3010  0.0353 -0.6839
 6495SOL    HW130947   1.257   2.049   3.890 -0.6515 -1.0584  0.9521
 6495SOL    HW230948   1.352   2.101   3.992  3.2452  1.1152 -1.4201
 6496SOL     OW30949   1.194   3.908   4.899 -0.5622  0.1109 -0.6287
 6496SOL    HW130950   1.145   3.893   4.818 -1.2235  1.7078 -0.5174
 6496SOL    HW230951   1.216   3.818   4.925 -0.3632  0.4429  0.3474
 6497SOL     OW30952   0.623   0.563   1.020  0.4976 -0.1860  0.4930
 6497SOL    HW130953   0.602   0.472   0.996 -2.8341  1.4399 -2.6984
 6497SOL    HW230954   0.690   0.540   1.084  1.3652  0.7793 -0.0815
 6498SOL     OW30955   0.695   2.549  16.427 -0.5286 -0.3376 -0.3427
 6498SOL    HW130956   0.774   2.495  16.429  0.6640  1.2828 -3.8371
 6498SOL    HW230957   0.649   2.536  16.344 -1.4270 -0.8688  0.2319
 6499SOL     OW30958   4.380   1.707   3.463  0.1457 -0.4698  0.0979
 6499SOL    HW130959   4.305   1.752   3.502  1.0534  1.8534 -0.8078
 6499SOL    HW230960   4.354   1.699   3.372  0.8946  2.8899 -0.4283
 6500SOL     OW30961   0.488   4.147   2.668  0.2637  0.5900 -0.1661
 6500SOL    HW130962   0.541   4.147   2.589 -0.7911  1.9111 -0.8647
 6500SOL    HW230963   0.400   4.129   2.635 -0.2089  1.3451  0.6876
 6501SOL     OW30964   2.493   2.457   3.963  0.2420  0.3642  0.1886
 6501SOL    HW130965   2.503   2.516   3.888  0.1819  1.7578  1.2551
 6501SOL    HW230966   2.411   2.486   4.004 -0.0430 -3.9140  2.6380
 6502SOL     OW30967   1.021   1.865   5.710  0.2367 -0.3393 -0.1874
 6502SOL    HW130968   0.962   1.805   5.665  1.7533 -0.6008 -1.8213
 6502SOL    HW230969   1.109   1.839   5.683  0.7902  0.8132  0.4926
 6503SOL     OW30970   0.416   2.980   1.511 -0.0915  0.2669 -0.2511
 6503SOL    HW130971   0.448   2.940   1.430 -0.3484 -2.4681  0.9979
 6503SOL    HW230972   0.486   3.045   1.523  0.8749 -0.7885 -0.1816
 6504SOL     OW30973   3.753   3.420   3.847 -0.0903 -0.0170  0.3606
 6504SOL    HW130974   3.734   3.399   3.755 -1.1174  0.9220  0.3542
 6504SOL    HW230975   3.800   3.341   3.875 -0.6898 -1.1754 -1.9120
 6505SOL     OW30976   3.412   1.760   9.030  0.3133 -0.3942 -0.3800
 6505SOL    HW130977   3.506   1.767   9.016  0.1462 -0.8078 -1.7366
 6505SOL    HW230978   3.394   1.843   9.074 -0.1037 -0.4665 -0.4072
 6506SOL     OW30979   1.832   3.203   8.451  0.4072  0.1865 -0.2157
 6506SOL    HW130980   1.745   3.205   8.412 -1.5850 -0.5135  4.1312
 6506SOL    HW230981   1.853   3.297   8.449 -0.0665  0.2621 -1.5709
 6507SOL     OW30982   3.742   0.165   1.354 -0.0382  0.4527  0.1839
 6507SOL    HW130983   3.666   0.109   1.344  0.2563  0.0001  0.4952
 6507SOL    HW230984   3.724   0.219   1.431  0.8226  0.2800  0.5086
 6508SOL     OW30985   1.422   2.392   8.437 -0.3175  0.0016  0.2917
 6508SOL    HW130986   1.410   2.308   8.393 -1.1452 -0.8144  2.0820
 6508SOL    HW230987   1.401   2.360   8.525 -0.2964  0.9281  0.6427
 6509SOL     OW30988   0.896   3.150   5.929  0.3283  0.0342 -0.5678
 6509SOL    HW130989   0.918   3.240   5.903  0.5753  0.3956  0.8792
 6509SOL    HW230990   0.806   3.138   5.899 -0.3116  1.6276  0.6570
 6510SOL     OW30991   0.659   2.383   1.215  0.3774  0.1045  0.1194
 6510SOL    HW130992   0.675   2.350   1.127  0.0173  1.0227 -0.2935
 6510SOL    HW230993   0.750   2.392   1.241  0.2082  1.3604  0.2995
 6511SOL     OW30994   0.977   4.515   2.033 -0.2089  0.0442  0.3010
 6511SOL    HW130995   0.893   4.526   1.988  1.6597  0.7218 -2.9846
 6511SOL    HW230996   0.949   4.511   2.125  0.9271 -1.0230  0.5987
 6512SOL     OW30997   3.556   0.020   8.790 -0.2970  0.9290 -0.1570
 6512SOL    HW130998   3.535   4.654   8.821 -0.9082  0.4965 -1.7855
 6512SOL    HW230999   3.592   0.062   8.868 -0.3760 -1.3066  1.0807
 6513SOL     OW31000   1.215   2.571   0.140  0.2409 -1.0631 -0.3141
 6513SOL    HW131001   1.295   2.623   0.147 -0.5797 -0.3401  3.6527
 6513SOL    HW231002   1.231   2.508   0.210 -2.1348  1.6789  2.6938
 6514SOL     OW31003   3.445   3.868   8.358 -0.0595  0.1185 -0.2174
 6514SOL    HW131004   3.392   3.872   8.438 -0.6826  0.5687 -0.6476
 6514SOL    HW231005   3.454   3.961   8.335  2.6991 -0.0445  0.2187
 6515SOL     OW31006   2.767   2.062  16.047  0.3399  0.2209  0.5728
 6515SOL    HW131007   2.786   2.057  16.140 -1.3652 -0.0380  0.9032
 6515SOL    HW231008   2.755   1.969  16.025 -0.9248  0.5120  0.0426
 6516SOL     OW31009   4.253   1.336   3.964 -0.0100  0.4715 -0.5173
 6516SOL    HW131010   4.339   1.375   3.981  0.3747 -0.5574 -0.0897
 6516SOL    HW231011   4.198   1.414   3.957  1.4878  1.6005  0.1410
 6517SOL     OW31012   0.758   0.254   4.093  0.4957  0.2204  0.1789
 6517SOL    HW131013   0.715   0.220   4.015  0.7955  1.5951 -0.5955
 6517SOL    HW231014   0.850   0.252   4.068  0.4995 -0.8235  0.2930
 6518SOL     OW31015   4.299   0.053  16.431  0.6750 -0.2427 -0.2669
 6518SOL    HW131016   4.229   0.100  16.476  0.0614 -0.3017 -1.1614
 6518SOL    HW231017   4.263   0.053  16.342 -0.9644 -1.2692  0.3934
 6519SOL     OW31018   0.334   3.823   0.625  1.1186 -0.4902 -0.5485
 6519SOL    HW131019   0.359   3.739   0.664  0.8976 -0.6955 -0.8489
 6519SOL    HW231020   0.382   3.879   0.686  0.1286  0.8793 -1.0206
 6520SOL     OW31021   1.458   4.314   9.793  0.1722 -0.0626 -0.3401
 6520SOL    HW131022   1.465   4.219   9.782 -1.2437 -0.0202 -1.5979
 6520SOL    HW231023   1.436   4.341   9.704  1.1068  2.9589  0.3232
 6521SOL     OW31024   4.255   0.824   7.985  0.1011  0.1497  0.3300
 6521SOL    HW131025   4.236   0.756   7.920  0.1226  0.3338  0.1275
 6521SOL    HW231026   4.312   0.879   7.932  0.0026 -2.3669 -2.4278
 6522SOL     OW31027   1.521   3.568   1.907  0.1454  0.5696  0.7901
 6522SOL    HW131028   1.493   3.641   1.851  2.3535  1.3308  0.6911
 6522SOL    HW231029   1.580   3.522   1.847  0.1378  1.6393 -0.0360
 6523SOL     OW31030   1.984   2.306  10.080  0.5293 -0.3807  0.1188
 6523SOL    HW131031   1.978   2.224  10.130 -0.1336 -0.6576 -0.4165
 6523SOL    HW231032   1.899   2.334  10.047  1.0569  1.5128  0.3834
 6524SOL     OW31033   4.693   0.218   4.252 -0.2605 -0.6483 -0.5172
 6524SOL    HW131034   4.710   0.234   4.345  1.4627 -0.6344 -0.8455
 6524SOL    HW231035   4.684   0.124   4.239 -0.4675 -0.9453  1.8225
 6525SOL     OW31036   3.928   4.186   6.690  0.0507 -0.2481 -0.0934
 6525SOL    HW131037   4.019   4.165   6.712  0.1554 -2.0996 -2.2594
 6525SOL    HW231038   3.878   4.222   6.763  0.8016 -4.1921  2.3415
 6526SOL     OW31039   0.743   2.148   4.162 -0.1188 -0.1312 -0.4235
 6526SOL    HW131040   0.661   2.137   4.113  0.3995 -2.1196 -0.8383
 6526SOL    HW231041   0.799   2.178   4.090 -3.4982  1.6359 -2.3481
 6527SOL     OW31042   1.980   4.039   2.543  0.7550 -0.5532 -1.0755
 6527SOL    HW131043   1.898   3.993   2.561  0.2903  0.5925 -0.3272
 6527SOL    HW231044   2.030   4.022   2.623 -1.6443  2.8752  1.1623
 6528SOL     OW31045   0.706   1.472  15.180 -0.4383  0.1924  0.2328
 6528SOL    HW131046   0.705   1.382  15.212 -0.2634  0.6261  1.4398
 6528SOL    HW231047   0.686   1.452  15.088 -1.8579  2.8730 -0.0434
 6529SOL     OW31048   3.877   0.466   7.126 -0.6343  0.0506 -0.0266
 6529SOL    HW131049   3.903   0.492   7.214 -4.7658  0.8444  1.0035
 6529SOL    HW231050   3.782   0.458   7.135 -0.5153  0.4096  1.5662
 6530SOL     OW31051   3.727   1.449   4.760  0.3469 -0.4119  0.0777
 6530SOL    HW131052   3.750   1.526   4.812 -1.0098  0.7152 -0.9567
 6530SOL    HW231053   3.643   1.472   4.720  0.4852 -0.6551 -0.3520
 6531SOL     OW31054   0.616   1.439  16.314 -0.1119 -0.0900  0.4426
 6531SOL    HW131055   0.564   1.436  16.394  1.3910 -1.2793  1.3753
 6531SOL    HW231056   0.588   1.527  16.291  1.6208  0.2879 -0.2121
 6532SOL     OW31057   1.627   3.712   2.454 -0.1055 -0.7313 -0.1890
 6532SOL    HW131058   1.589   3.671   2.376 -0.8279 -2.2947  0.9689
 6532SOL    HW231059   1.548   3.730   2.504  0.2903  0.7100 -0.1053
 6533SOL     OW31060   0.594   2.691   8.719  0.1117 -0.4072  0.1359
 6533SOL    HW131061   0.617   2.746   8.794  1.7758 -0.8766 -0.0306
 6533SOL    HW231062   0.558   2.752   8.654  1.3821 -0.5443 -0.7030
 6534SOL     OW31063   3.279   1.561  13.895 -0.1916  0.1216  0.2787
 6534SOL    HW131064   3.250   1.651  13.909  3.2029  1.1191  0.8968
 6534SOL    HW231065   3.204   1.513  13.929 -0.0887  0.3678  0.8576
 6535SOL     OW31066   0.310   0.240  10.182  0.2828  0.0713 -0.1036
 6535SOL    HW131067   0.366   0.316  10.198  1.0991 -0.1976 -1.6076
 6535SOL    HW231068   0.325   0.210  10.092 -0.7723 -0.6642 -0.0266
 6536SOL     OW31069   1.617   4.149   5.564  0.1913 -0.6149  0.0399
 6536SOL    HW131070   1.685   4.213   5.585  0.3581 -0.4080 -1.1288
 6536SOL    HW231071   1.658   4.064   5.582  1.8391 -0.2053 -1.7607
 6537SOL     OW31072   2.698   0.061   7.502 -0.1493  0.3861  0.3497
 6537SOL    HW131073   2.689   0.065   7.597 -1.9067 -2.0711  0.2811
 6537SOL    HW231074   2.792   0.077   7.500 -0.1692  0.6107  1.2369
 6538SOL     OW31075   2.692   0.370   0.587 -0.0208 -0.6806 -0.7875
 6538SOL    HW131076   2.672   0.411   0.671  2.0457 -0.3007 -0.4684
 6538SOL    HW231077   2.674   0.277   0.595 -1.2492 -0.0676  3.1833
 6539SOL     OW31078   1.749   0.251   3.656 -0.6903  0.2286 -0.0335
 6539SOL    HW131079   1.717   0.165   3.683 -1.2023  0.7540  1.0162
 6539SOL    HW231080   1.693   0.268   3.580  1.7803  1.4871 -1.5761
 6540SOL     OW31081   2.375   3.765  14.596 -0.4051 -0.6140  0.0776
 6540SOL    HW131082   2.424   3.714  14.660  0.0310 -0.3751 -0.0697
 6540SOL    HW231083   2.371   3.846  14.648 -0.9617 -0.2004 -0.6023
 6541SOL     OW31084   4.077   4.624   2.859 -0.1722 -0.2760  0.3376
 6541SOL    HW131085   4.017   4.549   2.859  2.4500 -2.3821  1.5839
 6541SOL    HW231086   4.117   4.620   2.772  0.5367  2.3636  0.5567
 6542SOL     OW31087   3.440   0.132   8.404  0.3861  0.1727  0.1210
 6542SOL    HW131088   3.403   0.064   8.349  0.3033  0.4098 -0.1169
 6542SOL    HW231089   3.507   0.083   8.451 -0.0923 -0.2209  0.3994
 6543SOL     OW31090   1.594   0.051   1.914  0.4317 -0.4186 -0.3540
 6543SOL    HW131091   1.512   0.040   1.962 -0.2051  1.2591 -1.0570
 6543SOL    HW231092   1.599   4.685   1.875 -0.4814  0.1928 -1.8805
 6544SOL     OW31093   0.733   1.566   3.045 -0.1354  0.5397 -0.6135
 6544SOL    HW131094   0.737   1.496   2.979 -1.7198 -0.6888  0.5767
 6544SOL    HW231095   0.827   1.585   3.049 -0.2656  0.7263  1.2818
 6545SOL     OW31096   0.604   4.616  11.556 -0.2675 -0.1024  0.1287
 6545SOL    HW131097   0.620   4.539  11.611  2.2627 -0.1072 -0.5953
 6545SOL    HW231098   0.692   4.640  11.528 -0.8544  1.1835 -0.6127
 6546SOL     OW31099   0.198   1.255  14.970  0.1910  0.5740 -0.1491
 6546SOL    HW131100   0.214   1.190  14.902 -0.9484 -1.7709  1.8098
 6546SOL    HW231101   0.178   1.196  15.042 -0.5711  1.6589  0.5226
 6547SOL     OW31102   1.337   0.006   7.757 -0.4787 -0.3137  0.2539
 6547SOL    HW131103   1.420   0.019   7.802 -0.9334 -0.9490  1.2886
 6547SOL    HW231104   1.367   4.716   7.667 -0.3611 -2.4154  0.5577
 6548SOL     OW31105   2.886   2.306  17.171 -0.5905  0.4024  0.5538
 6548SOL    HW131106   2.878   2.332  17.079  1.3632 -1.3482 -0.0982
 6548SOL    HW231107   2.939   2.374  17.213  1.5951  1.0255 -3.2634
 6549SOL     OW31108   3.597   1.287   5.148 -0.0762  0.1380 -0.4661
 6549SOL    HW131109   3.689   1.259   5.144  0.6829  2.0002  3.5836
 6549SOL    HW231110   3.597   1.326   5.236  1.6554  2.9064 -1.6806
 6550SOL     OW31111   2.453   0.657  16.240 -0.2591 -1.1731 -0.5294
 6550SOL    HW131112   2.468   0.713  16.163  0.1374  1.4802  1.4661
 6550SOL    HW231113   2.519   0.590  16.225 -1.2269 -2.2776  0.2127
 6551SOL     OW31114   0.505   2.254   7.686 -0.5010 -0.0138 -0.1753
 6551SOL    HW131115   0.428   2.207   7.652  1.0787 -1.6614 -1.4903
 6551SOL    HW231116   0.465   2.270   7.771  0.5866 -0.5959  0.4554
 6552SOL     OW31117   3.085   4.004   4.737  0.2813 -0.2650 -0.4384
 6552SOL    HW131118   3.121   4.033   4.821 -0.3506  1.6475 -0.8368
 6552SOL    HW231119   3.160   4.022   4.680 -1.2337 -0.4760 -2.5110
 6553SOL     OW31120   2.670   2.015   8.738  0.3523  0.2966 -0.7272
 6553SOL    HW131121   2.765   2.023   8.739  0.4981 -1.6349  1.1587
 6553SOL    HW231122   2.652   2.108   8.754  2.4790  0.8051 -1.2795
 6554SOL     OW31123   3.156   3.829   9.830  0.0401  0.3357  0.4528
 6554SOL    HW131124   3.245   3.858   9.812 -0.4035  0.4433 -1.6022
 6554SOL    HW231125   3.172   3.753   9.886  0.7298 -0.7248 -1.1956
 6555SOL     OW31126   2.312   1.611   2.518 -0.2492 -0.0240 -0.3339
 6555SOL    HW131127   2.219   1.595   2.503  0.3762 -1.9701 -2.0908
 6555SOL    HW231128   2.339   1.638   2.430 -0.6046  1.4942  0.0139
 6556SOL     OW31129   4.067   1.188   4.150 -0.1102  0.0905  0.1571
 6556SOL    HW131130   4.090   1.098   4.174  3.1484  0.7816 -0.3804
 6556SOL    HW231131   4.120   1.195   4.070 -0.6618  1.3185 -0.0979
 6557SOL     OW31132   3.202   3.258   5.398  0.3503  0.0063  0.3269
 6557SOL    HW131133   3.169   3.347   5.396  0.5879  0.0806 -0.4528
 6557SOL    HW231134   3.186   3.228   5.308 -0.8169  0.8139  0.2678
 6558SOL     OW31135   2.478   0.884   9.722  0.0459  0.5236 -0.1849
 6558SOL    HW131136   2.479   0.789   9.732 -2.5621  0.6558  1.4920
 6558SOL    HW231137   2.569   0.906   9.740  0.3385  1.0894 -2.3546
 6559SOL     OW31138   0.536   2.926   7.495  0.5522 -0.5607  0.2946
 6559SOL    HW131139   0.537   2.973   7.578  0.3598 -0.5611  0.2985
 6559SOL    HW231140   0.453   2.956   7.456  0.8605 -2.9456 -2.1796
 6560SOL     OW31141   1.214   2.318   1.269 -1.3369 -0.2384  0.2353
 6560SOL    HW131142   1.227   2.370   1.190  0.1623 -0.4338  0.3513
 6560SOL    HW231143   1.206   2.229   1.235  2.0935  0.8986 -3.5378
 6561SOL     OW31144   2.631   1.938  11.135  0.0727 -0.5083 -0.5899
 6561SOL    HW131145   2.676   1.951  11.052 -0.9625 -2.8131 -1.5224
 6561SOL    HW231146   2.687   1.870  11.173 -0.3986 -0.0314  0.9727
 6562SOL     OW31147   4.527   1.665  12.777 -0.1477 -0.3735  0.0251
 6562SOL    HW131148   4.514   1.745  12.828 -1.6245  0.3686 -1.5151
 6562SOL    HW231149   4.619   1.674  12.756 -0.1082 -1.0828 -0.1113
 6563SOL     OW31150   2.886   1.886   7.823 -0.1266  0.3791 -0.1591
 6563SOL    HW131151   2.968   1.838   7.828 -0.9531 -1.0711 -0.6400
 6563SOL    HW231152   2.821   1.816   7.825  2.7356 -2.2582 -1.6362
 6564SOL     OW31153   3.263   1.165   6.556  0.7970 -0.0317 -0.3014
 6564SOL    HW131154   3.192   1.201   6.502  0.0310 -0.4621  0.4260
 6564SOL    HW231155   3.300   1.098   6.499 -0.2062 -1.7512  1.0749
 6565SOL     OW31156   4.715   2.732   2.958  0.0970 -0.2191  0.2921
 6565SOL    HW131157   0.076   2.755   2.913  0.0131 -0.3777  0.0591
 6565SOL    HW231158   4.700   2.814   3.006 -0.8377 -0.3447  0.1961
 6566SOL     OW31159   0.449   4.545   6.784 -0.0537  0.7345 -0.5019
 6566SOL    HW131160   0.523   4.545   6.724  1.5842  2.2044  1.5054
 6566SOL    HW231161   0.375   4.512   6.733 -0.0862  2.2986 -1.4816
 6567SOL     OW31162   2.042   3.630   2.862 -0.5441  0.6569  0.8105
 6567SOL    HW131163   2.110   3.604   2.799  0.6192  0.5964  2.0943
 6567SOL    HW231164   2.086   3.593   2.939  2.0814  0.8598 -0.6086
 6568SOL     OW31165   2.114   0.620   2.952 -0.1811 -0.7859 -0.6600
 6568SOL    HW131166   2.029   0.637   2.911 -0.8174  0.3046  1.1267
 6568SOL    HW231167   2.168   0.657   2.882 -1.6643  1.7461 -0.5112
 6569SOL     OW31168   1.936   3.692  13.698 -0.6090  0.9183 -0.4937
 6569SOL    HW131169   1.863   3.714  13.640 -3.0619 -0.6931  2.0057
 6569SOL    HW231170   1.912   3.599  13.691 -0.4363  0.8029  0.5431
 6570SOL     OW31171   4.481   1.510   1.153 -0.6035 -0.2777  0.1004
 6570SOL    HW131172   4.526   1.528   1.070  2.1332 -0.6198  1.4935
 6570SOL    HW231173   4.547   1.521   1.222  0.4050 -2.6498 -0.4874
 6571SOL     OW31174   4.422   3.012   4.175 -0.3049  0.0803 -0.3288
 6571SOL    HW131175   4.493   3.058   4.218  1.6407 -3.2905  0.0357
 6571SOL    HW231176   4.476   2.957   4.118 -1.3378  0.0905 -1.3162
 6572SOL     OW31177   4.326   1.886   2.358  0.0149 -0.0809 -0.3464
 6572SOL    HW131178   4.316   1.942   2.281 -2.6411  1.9358  1.5060
 6572SOL    HW231179   4.422   1.885   2.365  0.1675 -0.6723 -2.5949
 6573SOL     OW31180   0.091   3.977   3.222 -0.4601 -0.0545 -0.1202
 6573SOL    HW131181   0.072   4.071   3.219 -0.0162  0.0439  0.2458
 6573SOL    HW231182   0.102   3.960   3.128 -2.0414  1.1169 -0.5329
 6574SOL     OW31183   3.393   4.408   9.318 -0.3351 -0.1601 -0.0966
 6574SOL    HW131184   3.408   4.356   9.397  0.9787 -1.2896 -1.0773
 6574SOL    HW231185   3.327   4.357   9.272 -1.1590  0.3931  0.4837
 6575SOL     OW31186   4.257   3.384   5.501  0.5751  0.7737  0.6893
 6575SOL    HW131187   4.259   3.478   5.486  1.2138  0.5455 -0.6386
 6575SOL    HW231188   4.327   3.377   5.566  1.8240 -0.9921 -0.8541
 6576SOL     OW31189   3.463   2.935  15.338 -0.3311  0.1412  0.5214
 6576SOL    HW131190   3.413   2.908  15.260 -1.5475  1.2812  0.9133
 6576SOL    HW231191   3.550   2.931  15.299 -0.2023  0.2012  0.8034
 6577SOL     OW31192   4.688   0.516   8.478 -0.1663  0.1992 -0.1605
 6577SOL    HW131193   4.634   0.557   8.546 -0.8867 -2.2965  0.7626
 6577SOL    HW231194   4.718   0.598   8.438  1.7684 -0.6324 -0.3965
 6578SOL     OW31195   4.176   4.128   5.247  0.2816 -0.1863  0.5207
 6578SOL    HW131196   4.081   4.125   5.260  0.1487 -0.2196 -0.4598
 6578SOL    HW231197   4.198   4.221   5.249 -1.3030  0.2266 -1.1886
 6579SOL     OW31198   3.347   0.594  14.796  0.3738 -0.4098 -0.6313
 6579SOL    HW131199   3.431   0.550  14.813  0.1927  0.4777  2.6597
 6579SOL    HW231200   3.378   0.684  14.792  0.2521 -0.3675 -0.6066
 6580SOL     OW31201   4.533   3.264  10.961 -0.0956  0.2379 -0.0672
 6580SOL    HW131202   4.443   3.238  10.944 -0.1557  0.6378 -0.3417
 6580SOL    HW231203   4.509   3.350  10.995 -0.2565  0.2680 -0.2669
 6581SOL     OW31204   3.894   2.366   4.773  0.3568 -0.3088  0.3160
 6581SOL    HW131205   3.881   2.278   4.736 -1.7695 -1.4046  3.7103
 6581SOL    HW231206   3.814   2.402   4.736  0.0388 -1.8735 -0.5536
 6582SOL     OW31207   0.933   4.578   3.021 -0.2938  0.3181 -0.3241
 6582SOL    HW131208   0.956   4.595   3.112 -0.8882 -0.4950 -0.0239
 6582SOL    HW231209   0.894   4.492   3.033  1.7826 -0.8266 -1.8747
 6583SOL     OW31210   0.595   3.341  15.399  0.2660 -0.5384 -0.2339
 6583SOL    HW131211   0.506   3.322  15.430 -0.1596  1.0391 -0.4753
 6583SOL    HW231212   0.650   3.340  15.478  0.1296  0.8116 -0.1216
 6584SOL     OW31213   2.190   1.590   7.130 -0.3131 -0.5888 -0.0353
 6584SOL    HW131214   2.195   1.598   7.035 -3.1825  0.3800 -0.1003
 6584SOL    HW231215   2.110   1.628   7.166 -0.4556 -0.6782 -0.2599
 6585SOL     OW31216   0.316   0.799   2.254  0.1436 -0.0497  0.5372
 6585SOL    HW131217   0.341   0.720   2.207  0.3530 -0.0106  0.5803
 6585SOL    HW231218   0.387   0.863   2.251 -1.5299  1.6191 -3.0871
 6586SOL     OW31219   4.674   2.436  14.825 -0.4559 -0.0838  0.8547
 6586SOL    HW131220   4.597   2.442  14.882 -0.8349  0.1025  0.3153
 6586SOL    HW231221   0.014   2.397  14.888  0.7722 -0.0414 -0.3104
 6587SOL     OW31222   3.691   3.602  11.852  0.1460 -0.2699  0.4689
 6587SOL    HW131223   3.651   3.534  11.906  1.3163 -0.6373  0.8658
 6587SOL    HW231224   3.784   3.601  11.874  0.5854  0.6475 -1.2885
 6588SOL     OW31225   3.238   0.783   1.586 -0.1496  0.2642 -0.5476
 6588SOL    HW131226   3.227   0.860   1.530  0.8725 -0.4195 -1.6777
 6588SOL    HW231227   3.280   0.718   1.530  3.9271  2.4272 -0.0141
 6589SOL     OW31228   2.275   3.848   2.130 -0.4976 -0.2953  0.1754
 6589SOL    HW131229   2.212   3.780   2.154 -2.6596  0.9550 -1.9993
 6589SOL    HW231230   2.210   3.913   2.105  0.1457 -0.1252 -1.1013
 6590SOL     OW31231   2.898   1.271   7.400  0.5906  0.4805 -0.6005
 6590SOL    HW131232   2.866   1.270   7.310 -0.4439  0.7618 -0.2407
 6590SOL    HW231233   2.889   1.180   7.428 -1.0757  0.2098 -2.0666
 6591SOL     OW31234   0.201   0.272  10.843  0.2137  0.1140 -0.3806
 6591SOL    HW131235   0.214   0.185  10.806  1.1860  0.3494 -0.6075
 6591SOL    HW231236   0.203   0.319  10.759  2.9743  0.1817 -0.2832
 6592SOL     OW31237   2.847   3.842   2.762  0.0801 -0.3173 -0.1122
 6592SOL    HW131238   2.797   3.781   2.816  0.4377 -1.0855 -0.6343
 6592SOL    HW231239   2.898   3.889   2.827 -1.4579  0.4101  0.5809
 6593SOL     OW31240   2.917   3.401  14.163 -0.3229 -0.7918  0.8588
 6593SOL    HW131241   2.983   3.414  14.095 -2.0852 -1.3018 -0.9337
 6593SOL    HW231242   2.838   3.384  14.113  0.0372  1.4605 -0.4561
 6594SOL     OW31243   2.198   4.323   4.227  0.1741  0.4556  0.1073
 6594SOL    HW131244   2.219   4.416   4.234  2.2680 -0.1294  1.6143
 6594SOL    HW231245   2.134   4.324   4.156 -0.9098 -1.1935  1.0651
 6595SOL     OW31246   2.941   0.525  17.062  0.2164  0.1844 -0.2448
 6595SOL    HW131247   2.921   0.534  17.155  0.6732 -0.9284 -0.0445
 6595SOL    HW231248   2.879   0.456  17.036  0.8733 -0.5225  0.0805
 6596SOL     OW31249   2.233   1.455  16.667  0.1505  0.2188 -0.6788
 6596SOL    HW131250   2.241   1.379  16.723 -0.9212  0.7540  0.1989
 6596SOL    HW231251   2.285   1.432  16.590 -2.3509  0.6751 -2.4896
 6597SOL     OW31252   4.064   2.040   5.263 -0.2529 -0.2922  0.8033
 6597SOL    HW131253   4.070   2.128   5.300 -1.6464  0.4179 -0.6584
 6597SOL    HW231254   3.978   2.019   5.299  0.1863  0.0285  2.0307
 6598SOL     OW31255   3.211   2.817   1.594 -0.3296  0.0225  0.1604
 6598SOL    HW131256   3.140   2.784   1.649  0.4933  1.4454  2.1029
 6598SOL    HW231257   3.288   2.784   1.641  0.8452  1.1358 -1.0007
 6599SOL     OW31258   3.724   2.840   7.410 -0.1791 -0.1086  0.4950
 6599SOL    HW131259   3.795   2.808   7.355 -0.9472 -1.6278  0.4074
 6599SOL    HW231260   3.646   2.812   7.362 -0.4658 -2.7212  2.4808
 6600SOL     OW31261   3.693   0.802   5.287 -0.2850 -0.1098  0.1157
 6600SOL    HW131262   3.684   0.871   5.221 -2.9117  1.1663  1.8031
 6600SOL    HW231263   3.784   0.816   5.311 -0.8380 -0.3113  2.3155
 6601SOL     OW31264   1.499   4.669   2.523 -0.1711 -0.1292  0.1028
 6601SOL    HW131265   1.592   4.649   2.508 -0.0715 -1.1391  2.0201
 6601SOL    HW231266   1.489   0.009   2.451  0.6775  0.6711  0.6740
 6602SOL     OW31267   1.936   1.071   2.240 -0.7986 -0.1846 -0.2242
 6602SOL    HW131268   1.947   1.029   2.325 -1.5000 -0.0029 -0.0478
 6602SOL    HW231269   1.865   1.021   2.199  0.4822 -2.1843 -0.0247
 6603SOL     OW31270   4.253   0.382  15.525  0.5347  0.0135  0.0920
 6603SOL    HW131271   4.198   0.402  15.601  0.0540  0.2712 -0.3306
 6603SOL    HW231272   4.316   0.326  15.570  1.8855  0.3144 -1.4032
 6604SOL     OW31273   2.939   1.931   5.584 -0.1160 -0.2337 -0.1736
 6604SOL    HW131274   2.983   1.872   5.646 -0.9797 -0.2943  0.3827
 6604SOL    HW231275   2.939   1.885   5.500 -0.8206  3.1274 -1.9860
 6605SOL     OW31276   1.789   0.694  17.499 -0.1087  0.1157 -0.6299
 6605SOL    HW131277   1.807   0.631  17.430  1.3171  0.0871 -0.2130
 6605SOL    HW231278   1.715   0.652  17.542  0.1880 -0.8604 -1.0793
 6606SOL     OW31279   0.337   4.411   7.214  0.3754  0.2164  0.2168
 6606SOL    HW131280   0.295   4.357   7.147  3.3594 -1.6212 -0.1941
 6606SOL    HW231281   0.362   4.346   7.279  1.5992 -0.4308 -0.8943
 6607SOL     OW31282   1.451   1.975   3.117  0.1846 -0.4858 -0.4211
 6607SOL    HW131283   1.447   1.921   3.038  0.0461 -1.0858 -0.0115
 6607SOL    HW231284   1.536   2.016   3.104 -0.8346  1.8607  0.2659
 6608SOL     OW31285   2.646   4.004   6.892  0.4438 -0.8197  0.5479
 6608SOL    HW131286   2.570   3.948   6.909 -0.3608  0.3757  0.8979
 6608SOL    HW231287   2.640   4.021   6.798  0.6279  1.9626  1.0358
 6609SOL     OW31288   0.494   2.479   6.214  0.3874  0.1234 -0.4410
 6609SOL    HW131289   0.422   2.475   6.277  0.1570 -1.5757 -0.8200
 6609SOL    HW231290   0.566   2.436   6.261  1.9829  1.1915 -1.8844
 6610SOL     OW31291   1.309   0.622   5.622  0.4773  0.2883  0.0034
 6610SOL    HW131292   1.374   0.572   5.671 -0.1491  0.2947  0.8271
 6610SOL    HW231293   1.354   0.707   5.621 -2.3115  1.8012  2.4332
 6611SOL     OW31294   1.326   3.960  15.308  0.2533  0.1635 -0.3219
 6611SOL    HW131295   1.408   3.949  15.259  0.3245 -0.2131 -0.1209
 6611SOL    HW231296   1.294   4.050  15.301 -1.0786 -0.2517  0.4830
 6612SOL     OW31297   4.600   3.165   3.938 -0.3622 -0.0696  0.0593
 6612SOL    HW131298   4.574   3.082   3.977 -0.5622 -0.1189 -0.1829
 6612SOL    HW231299   4.665   3.127   3.880 -0.0295  1.2079 -0.4043
 6613SOL     OW31300   0.336   4.096   8.894 -0.1734  0.3517 -0.0868
 6613SOL    HW131301   0.329   4.183   8.854  1.8180  0.1333 -0.8910
 6613SOL    HW231302   0.261   4.046   8.861 -0.6925  0.6075  0.7160
 6614SOL     OW31303   1.169   4.048   8.824  0.3323 -0.0608 -0.1112
 6614SOL    HW131304   1.108   4.119   8.842 -1.1201 -1.3016 -0.1608
 6614SOL    HW231305   1.163   4.040   8.729 -0.6671 -1.2215  0.0361
 6615SOL     OW31306   3.158   1.045   8.629 -0.2055  0.0192  0.3138
 6615SOL    HW131307   3.080   0.995   8.601 -0.2901  1.2279 -1.5886
 6615SOL    HW231308   3.119   1.128   8.602  0.7634 -0.2365 -1.8119
 6616SOL     OW31309   4.166   3.232  11.634  0.3355  0.3809 -0.0223
 6616SOL    HW131310   4.165   3.220  11.729  0.3366  0.8335  0.0347
 6616SOL    HW231311   4.245   3.184  11.611  0.1090  0.4796 -1.0225
 6617SOL     OW31312   1.525   0.677   8.997 -0.3195 -0.0397 -0.2726
 6617SOL    HW131313   1.437   0.696   8.964  0.3042  2.8160 -0.3313
 6617SOL    HW231314   1.528   0.746   9.063  0.8095 -0.8472  0.5200
 6618SOL     OW31315   1.543   4.633   7.268 -0.6630 -0.3372 -0.2813
 6618SOL    HW131316   1.630   4.593   7.271 -1.2103 -1.4899 -0.0267
 6618SOL    HW231317   1.545   4.644   7.173 -0.0392 -0.1776 -0.2526
 6619SOL     OW31318   4.151   0.823   6.901 -0.5875 -0.1005 -0.1522
 6619SOL    HW131319   4.214   0.807   6.971 -0.3652 -2.5684 -0.9245
 6619SOL    HW231320   4.102   0.742   6.889 -1.4889  0.5131 -0.6668
 6620SOL     OW31321   4.472   3.895   1.482 -0.1403 -0.6629  0.0703
 6620SOL    HW131322   4.459   3.879   1.576 -3.9486  0.6269 -0.2331
 6620SOL    HW231323   4.566   3.916   1.477 -0.2214 -0.3319 -0.1110
 6621SOL     OW31324   3.658   2.005   7.090 -0.2700  0.2839  0.1117
 6621SOL    HW131325   3.665   2.041   7.001  0.2709 -2.2212 -0.8497
 6621SOL    HW231326   3.718   1.931   7.093 -0.5345  0.0176 -0.9682
 6622SOL     OW31327   0.011   3.574   8.118 -0.3794  1.0351  0.2281
 6622SOL    HW131328   0.007   3.545   8.027  1.6254 -3.2966  1.5079
 6622SOL    HW231329   4.690   3.499   8.160  0.8462  0.4254  0.3788
 6623SOL     OW31330   2.866   1.371   2.435 -0.0432 -0.0073  0.4587
 6623SOL    HW131331   2.875   1.464   2.415  0.5859  0.1254  1.3459
 6623SOL    HW231332   2.899   1.326   2.357 -1.1739  0.2415 -0.1552
 6624SOL     OW31333   4.020   0.080   6.590 -0.1653 -0.1108  0.5732
 6624SOL    HW131334   3.967   0.011   6.628 -2.8724 -0.0182 -3.0304
 6624SOL    HW231335   4.089   0.021   6.558 -0.0902 -0.0366  0.5968
 6625SOL     OW31336   4.229   2.888  13.294 -0.0865  0.5554  0.2503
 6625SOL    HW131337   4.213   2.931  13.378 -0.4201  0.2142  0.3614
 6625SOL    HW231338   4.261   2.968  13.252  2.2713 -1.3395 -1.5655
 6626SOL     OW31339   0.715   3.047   2.293  0.4778 -0.4593 -0.4453
 6626SOL    HW131340   0.620   3.041   2.297  0.5320  0.7335  2.6123
 6626SOL    HW231341   0.731   2.963   2.337 -0.3200  0.3166  1.3004
 6627SOL     OW31342   1.914   3.321   6.911  0.2387 -0.3576  0.1527
 6627SOL    HW131343   1.897   3.264   6.987  3.7495 -2.4139 -0.5940
 6627SOL    HW231344   1.889   3.411   6.932 -0.1258  0.4718 -3.8451
 6628SOL     OW31345   3.314   2.328   6.777 -0.7703  0.5745  0.3581
 6628SOL    HW131346   3.261   2.249   6.773  0.4092 -0.1325 -1.3130
 6628SOL    HW231347   3.251   2.400   6.783  0.2709  1.4837  0.5364
 6629SOL     OW31348   3.199   0.926   8.880  0.1902 -0.4853 -0.1577
 6629SOL    HW131349   3.183   0.831   8.879 -0.1226 -0.4577  1.3421
 6629SOL    HW231350   3.162   0.964   8.801 -0.2533  0.7478  0.6348
 6630SOL     OW31351   4.713   2.249  16.246 -0.0872 -0.5144 -0.1317
 6630SOL    HW131352   4.691   2.311  16.316  2.8392  0.1298  0.1862
 6630SOL    HW231353   4.625   2.250  16.207 -0.2314 -0.4204  0.1881
 6631SOL     OW31354   1.730   1.810   1.616 -0.0410  0.3074  0.1880
 6631SOL    HW131355   1.736   1.890   1.668  1.0017  1.5058 -1.8061
 6631SOL    HW231356   1.647   1.819   1.568  0.1877 -2.6734 -0.7861
 6632SOL     OW31357   3.566   3.428   9.588  0.2522 -0.1705  0.3349
 6632SOL    HW131358   3.587   3.496   9.652 -3.3005  0.4445  0.7967
 6632SOL    HW231359   3.589   3.466   9.503  0.9114 -2.3646 -0.4632
 6633SOL     OW31360   1.637   3.658   8.708  0.1463 -0.5897  0.7210
 6633SOL    HW131361   1.618   3.565   8.714 -1.6117 -0.1359  2.3199
 6633SOL    HW231362   1.593   3.686   8.789  1.7226 -0.3861  1.5110
 6634SOL     OW31363   2.978   3.202   4.836 -0.6739  0.4677  0.3351
 6634SOL    HW131364   2.903   3.251   4.869 -0.7128 -0.8022  2.1963
 6634SOL    HW231365   2.978   3.226   4.744  1.1044  0.5646  0.3619
 6635SOL     OW31366   3.043   1.256   6.424  0.2611 -0.7075 -0.6989
 6635SOL    HW131367   2.983   1.319   6.384  0.0544  0.1860  1.0418
 6635SOL    HW231368   3.042   1.183   6.362  0.8480 -1.1617 -0.1755
 6636SOL     OW31369   1.019   2.652   3.165  0.0755 -0.2900 -0.7791
 6636SOL    HW131370   1.085   2.720   3.155 -0.6142  0.8028  2.0323
 6636SOL    HW231371   1.056   2.579   3.116 -0.0074 -2.1451  1.9531
 6637SOL     OW31372   0.494   0.366   4.942 -0.5927 -0.1728 -0.3117
 6637SOL    HW131373   0.481   0.292   4.883 -0.9628 -1.5526  1.5262
 6637SOL    HW231374   0.444   0.329   5.014 -2.3932  0.3318 -1.2757
 6638SOL     OW31375   1.362   0.511   5.093 -0.3414 -0.4108  0.4570
 6638SOL    HW131376   1.273   0.509   5.130 -0.8917  0.2102 -0.8254
 6638SOL    HW231377   1.352   0.566   5.015  1.4488 -0.2102  0.3692
 6639SOL     OW31378   3.585   3.602   4.377  0.2799  0.2614  0.2708
 6639SOL    HW131379   3.584   3.685   4.329 -0.0968 -0.9428 -1.7881
 6639SOL    HW231380   3.672   3.565   4.362  0.5457  0.8753  0.3122
 6640SOL     OW31381   2.795   3.640  12.322  0.1796 -0.3104 -0.4889
 6640SOL    HW131382   2.725   3.585  12.358  0.0502  1.3534  1.8138
 6640SOL    HW231383   2.806   3.692  12.402 -1.3316  1.0475 -1.1578
 6641SOL     OW31384   4.383   2.360  14.232 -0.0259  0.3179  0.2525
 6641SOL    HW131385   4.398   2.365  14.137  0.8670  0.8482  0.4248
 6641SOL    HW231386   4.414   2.270  14.230  0.8441  0.6515 -1.7590
 6642SOL     OW31387   2.383   1.636   8.496  0.2327 -0.2330  0.4333
 6642SOL    HW131388   2.388   1.731   8.483 -2.5954 -0.1298 -0.0726
 6642SOL    HW231389   2.476   1.622   8.512  0.4244 -0.1260 -0.6253
 6643SOL     OW31390   2.142   1.942   3.417 -0.4919 -0.0714  0.9823
 6643SOL    HW131391   2.149   1.973   3.507 -1.8398 -0.5513  1.2597
 6643SOL    HW231392   2.049   1.917   3.411 -0.9516  1.9059 -0.0737
 6644SOL     OW31393   2.641   2.874   5.624  0.3895  0.2913 -0.1806
 6644SOL    HW131394   2.565   2.863   5.682  0.4688  2.0209  0.2691
 6644SOL    HW231395   2.607   2.869   5.535  1.0206 -0.2961 -0.3869
 6645SOL     OW31396   1.094   3.725   8.135 -0.3658 -0.1237  0.1000
 6645SOL    HW131397   1.035   3.724   8.060  1.7328 -4.8361 -1.4997
 6645SOL    HW231398   1.119   3.816   8.123  1.1731 -0.6573 -0.6880
 6646SOL     OW31399   2.968   4.035   1.274  0.5385  0.6679 -0.5397
 6646SOL    HW131400   3.002   4.072   1.193 -0.2134  2.2526 -0.1285
 6646SOL    HW231401   2.875   4.023   1.257  0.2522 -1.1544  2.1686
 6647SOL     OW31402   3.474   4.292   7.240  0.2866 -0.1198 -0.6423
 6647SOL    HW131403   3.473   4.385   7.217  1.0194  0.0843  0.1160
 6647SOL    HW231404   3.432   4.294   7.326  0.8241 -1.9942 -0.3389
 6648SOL     OW31405   0.271   2.914   7.761 -0.1808 -0.0227  0.0868
 6648SOL    HW131406   0.298   2.882   7.847  1.1149  4.0293  1.1902
 6648SOL    HW231407   0.349   2.958   7.729 -0.6653  0.9808  0.2618
 6649SOL     OW31408   1.161   0.338   7.138 -0.6832 -0.7764 -0.8975
 6649SOL    HW131409   1.148   0.255   7.092  1.5617 -1.2382 -0.6908
 6649SOL    HW231410   1.176   0.300   7.225 -0.8181 -1.7098 -1.2801
 6650SOL     OW31411   1.719   4.137   2.916 -0.2307 -0.6409  0.1650
 6650SOL    HW131412   1.739   4.081   2.841 -2.3873 -0.9005 -0.2302
 6650SOL    HW231413   1.628   4.159   2.894  0.2058  0.3412 -0.6743
 6651SOL     OW31414   1.830   1.873   0.881  0.1147  0.8252  0.7913
 6651SOL    HW131415   1.850   1.805   0.817 -1.0976 -0.0594  1.3616
 6651SOL    HW231416   1.809   1.955   0.835 -2.1620 -0.0922  0.2068
 6652SOL     OW31417   4.221   3.329  11.227 -0.1579  0.1328  0.8086
 6652SOL    HW131418   4.187   3.276  11.155  1.1480 -0.4342  0.6001
 6652SOL    HW231419   4.312   3.299  11.232  0.2084  0.8393 -1.3324
 6653SOL     OW31420   3.270   4.683   5.138 -0.2362 -0.1660 -0.3970
 6653SOL    HW131421   3.182   4.680   5.174 -0.4105  0.2857 -0.7806
 6653SOL    HW231422   3.276   0.053   5.108  1.7569 -0.6472 -1.5162
 6654SOL     OW31423   1.334   0.362  10.604  0.0822  0.5849  0.8166
 6654SOL    HW131424   1.339   0.455  10.627  3.9044  0.3876  0.7061
 6654SOL    HW231425   1.420   0.328  10.629  0.8815  0.5371 -2.0697
 6655SOL     OW31426   2.832   1.420   3.417 -0.2039 -0.2766  0.5551
 6655SOL    HW131427   2.831   1.494   3.478 -1.8617  2.0809 -2.2975
 6655SOL    HW231428   2.906   1.434   3.358 -0.6967 -0.5601 -0.1315
 6656SOL     OW31429   4.656   4.512   0.761 -0.2687 -0.7319  0.2211
 6656SOL    HW131430   4.656   4.441   0.698 -0.2339 -1.9341  1.5805
 6656SOL    HW231431   4.566   4.520   0.793 -0.3677  0.7100 -0.4157
 6657SOL     OW31432   3.792   3.925  11.776  0.2186  0.0622  0.0162
 6657SOL    HW131433   3.806   3.957  11.687 -1.9228 -1.3009 -0.8111
 6657SOL    HW231434   3.813   4.002  11.829 -0.3749 -0.3475  0.8566
 6658SOL     OW31435   0.928   4.337   0.947 -0.5424  0.0462 -0.1840
 6658SOL    HW131436   0.874   4.414   0.932 -0.3045 -0.0345 -1.4856
 6658SOL    HW231437   0.862   4.269   0.960 -0.3699 -0.3196 -1.2693
 6659SOL     OW31438   2.299   1.796   6.187 -0.3488 -0.1416  0.2959
 6659SOL    HW131439   2.289   1.772   6.279  0.8671 -2.3711 -0.1416
 6659SOL    HW231440   2.376   1.743   6.165  1.1529  1.2329  2.2912
 6660SOL     OW31441   3.673   4.312   5.252 -0.2734  0.2231 -0.3486
 6660SOL    HW131442   3.614   4.271   5.316  1.7760  0.9784  2.0293
 6660SOL    HW231443   3.747   4.344   5.305  0.4592 -0.1836 -1.1372
 6661SOL     OW31444   3.409   0.107   5.396 -0.4738  0.6531  0.1718
 6661SOL    HW131445   3.449   0.031   5.353 -1.2926  0.1047  0.3734
 6661SOL    HW231446   3.397   0.169   5.324 -1.3020 -0.0293 -0.2825
 6662SOL     OW31447   1.067   0.372   0.517  0.6035 -0.1456 -0.3488
 6662SOL    HW131448   1.069   0.377   0.613  0.8568 -0.5143 -0.3349
 6662SOL    HW231449   1.023   0.451   0.485  1.4189  0.4821  0.0817
 6663SOL     OW31450   4.405   4.020   4.279 -0.1267 -0.3558 -0.7367
 6663SOL    HW131451   4.431   3.931   4.301 -0.0507 -0.0323  0.5041
 6663SOL    HW231452   4.310   4.022   4.271 -0.2138 -2.3989 -0.1316
 6664SOL     OW31453   4.494   1.245   6.463  0.3737  0.1604  0.0300
 6664SOL    HW131454   4.487   1.175   6.527 -1.8931  0.5967  0.2563
 6664SOL    HW231455   4.525   1.317   6.518 -0.0463  0.7476 -0.4974
 6665SOL     OW31456   2.976   0.640  13.220 -0.5977 -0.3878 -0.5245
 6665SOL    HW131457   2.970   0.548  13.248 -0.4013 -0.9688 -2.3609
 6665SOL    HW231458   2.888   0.672  13.204 -1.5476 -3.1544 -0.8586
 6666SOL     OW31459   4.426   2.017   9.952 -0.1263  0.1887 -0.0715
 6666SOL    HW131460   4.469   1.934   9.934  0.9742  1.1566 -1.8544
 6666SOL    HW231461   4.446   2.030  10.045  0.8727 -1.7290 -0.0261
 6667SOL     OW31462   0.927   4.583   5.480  1.0124 -0.0513 -0.3514
 6667SOL    HW131463   0.969   4.497   5.476  0.7871 -0.2517  1.7898
 6667SOL    HW231464   0.835   4.565   5.458  0.5347  3.2807 -1.0429
 6668SOL     OW31465   2.594   1.151   1.874  0.1183  0.1596  0.3540
 6668SOL    HW131466   2.508   1.118   1.848  1.1201 -2.0189 -0.2076
 6668SOL    HW231467   2.625   1.192   1.794 -1.1233 -1.4710 -0.9642
 6669SOL     OW31468   0.080   4.195   0.023  0.5033 -0.6583  0.3781
 6669SOL    HW131469   0.120   4.243  17.639 -2.6497  0.3201 -0.7032
 6669SOL    HW231470   0.139   4.231   0.089  0.6422  0.3454 -0.2909
 6670SOL     OW31471   0.157   4.010   0.439  0.5314  0.0624  0.9152
 6670SOL    HW131472   0.151   3.979   0.349 -0.1090  0.0794  0.9498
 6670SOL    HW231473   0.242   4.053   0.440 -0.1553  1.4572 -1.2720
 6671SOL     OW31474   0.957   2.015  11.316  0.2840  0.4610 -0.7803
 6671SOL    HW131475   1.015   1.999  11.390  1.2955 -1.0321 -1.8962
 6671SOL    HW231476   0.898   1.939  11.326 -0.9010  1.7491  2.0044
 6672SOL     OW31477   0.971   1.483  10.775  0.3903  0.1826  0.0612
 6672SOL    HW131478   1.045   1.424  10.765 -0.7219 -1.2488  0.2837
 6672SOL    HW231479   1.000   1.556  10.720  1.0654  0.0544  0.2477
 6673SOL     OW31480   1.913   4.191  11.837 -0.0443  0.0711  0.9459
 6673SOL    HW131481   1.868   4.122  11.886  1.3842 -1.9808 -0.6265
 6673SOL    HW231482   1.899   4.156  11.749 -0.5593  0.0219  1.0483
 6674SOL     OW31483   0.999   0.633  14.024  0.1908 -0.3838  0.3597
 6674SOL    HW131484   1.075   0.619  14.081 -2.0027 -0.9903  3.1227
 6674SOL    HW231485   0.976   0.722  14.051 -0.5484 -0.8304  1.1923
 6675SOL     OW31486   4.643   0.059   3.291 -0.4696 -0.2256  0.4507
 6675SOL    HW131487   4.658   4.687   3.299 -0.7513 -0.3231 -0.2139
 6675SOL    HW231488   4.570   0.067   3.230 -0.7494  1.3330  0.9879
 6676SOL     OW31489   1.030   3.555  15.513 -0.2435  0.4613  0.1962
 6676SOL    HW131490   1.093   3.599  15.455  0.3585  0.9526  1.2274
 6676SOL    HW231491   0.954   3.529  15.460  1.0040 -1.5071 -0.6307
 6677SOL     OW31492   0.154   2.754  17.535  0.5125  0.3712 -0.0806
 6677SOL    HW131493   0.188   2.814  17.469  1.3308 -1.2857 -1.1387
 6677SOL    HW231494   0.110   2.688  17.481 -1.0118  0.1586  1.4329
 6678SOL     OW31495   2.093   2.200  10.968  0.1837 -0.1760  0.1596
 6678SOL    HW131496   2.015   2.148  10.985 -0.7006  0.4653 -1.8532
 6678SOL    HW231497   2.074   2.288  11.000  1.9926  0.7836 -1.3636
 6679SOL     OW31498   2.744   4.259   3.784  0.2435 -0.7421  0.1355
 6679SOL    HW131499   2.659   4.221   3.761  0.7075 -1.1439 -0.9106
 6679SOL    HW231500   2.791   4.242   3.703 -0.3007 -1.4452 -0.0257
 6680SOL     OW31501   0.875   0.328   4.532 -0.2033  0.3615 -0.3589
 6680SOL    HW131502   0.838   0.353   4.448 -2.3205  1.2657  0.8447
 6680SOL    HW231503   0.796   0.317   4.584  0.8387  3.3069  1.8443
 6681SOL     OW31504   1.164   2.781   5.031  0.0542 -0.1594  0.1496
 6681SOL    HW131505   1.152   2.714   5.098  0.8319 -1.0024 -0.5374
 6681SOL    HW231506   1.127   2.737   4.954  0.0725  1.1678 -0.6298
 6682SOL     OW31507   3.747   4.203  12.777 -0.0788 -0.4536  0.2122
 6682SOL    HW131508   3.732   4.164  12.691  1.6510 -0.3922 -0.1149
 6682SOL    HW231509   3.712   4.136  12.836 -1.6323 -1.0056 -1.3174
 6683SOL     OW31510   0.919   3.407  16.479 -0.4306 -0.2489 -0.2603
 6683SOL    HW131511   0.935   3.368  16.565 -1.2028 -1.7129 -0.7688
 6683SOL    HW231512   0.958   3.492  16.499  0.0530 -0.3313 -0.8441
 6684SOL     OW31513   0.991   0.201   3.917 -0.1844  0.1005 -0.4785
 6684SOL    HW131514   1.020   0.278   3.869  1.2394  1.1652  2.0925
 6684SOL    HW231515   0.918   0.165   3.867  0.4922 -0.6374 -0.9241
 6685SOL     OW31516   1.170   4.691   5.055 -0.8824 -0.1576  0.4806
 6685SOL    HW131517   1.217   4.613   5.085  0.6568 -0.6889 -3.4100
 6685SOL    HW231518   1.206   4.699   4.967 -0.5953  1.7986  0.7824
 6686SOL     OW31519   0.733   1.836   8.489  0.1221 -0.2089  0.6109
 6686SOL    HW131520   0.801   1.834   8.556  0.0864 -0.5872  0.6347
 6686SOL    HW231521   0.745   1.750   8.448 -0.8798 -0.0547 -0.0231
 6687SOL     OW31522   1.369   3.591  12.142 -0.1527 -0.1850  0.0359
 6687SOL    HW131523   1.442   3.532  12.161 -1.7361 -1.4586  2.1350
 6687SOL    HW231524   1.398   3.613  12.053 -0.0593  0.8702  0.3296
 6688SOL     OW31525   2.556   0.280   7.944 -0.5150 -0.0845 -0.2832
 6688SOL    HW131526   2.521   0.245   8.026  0.6810 -1.3950 -0.3193
 6688SOL    HW231527   2.479   0.326   7.911 -0.1014  2.8391  2.9240
 6689SOL     OW31528   3.881   2.860   1.171 -0.4520 -0.1821 -0.3154
 6689SOL    HW131529   3.845   2.779   1.208 -1.0088  0.8482  1.3729
 6689SOL    HW231530   3.897   2.830   1.081  2.7243  1.1070 -0.1862
 6690SOL     OW31531   0.375   3.252   7.056  0.3443 -0.2547 -0.0193
 6690SOL    HW131532   0.339   3.229   6.971 -0.2356 -0.2084  0.2141
 6690SOL    HW231533   0.317   3.193   7.105  0.7627 -2.1202 -1.7486
 6691SOL     OW31534   4.214   0.432   4.251 -0.4120 -0.2975  0.0186
 6691SOL    HW131535   4.140   0.392   4.206  0.6660  0.5586 -2.5178
 6691SOL    HW231536   4.201   0.522   4.220 -0.5913 -0.3576 -0.0825
 6692SOL     OW31537   4.499   3.458   8.400 -0.2823  0.1798 -0.5603
 6692SOL    HW131538   4.528   3.543   8.433 -1.1798 -0.2020  1.2724
 6692SOL    HW231539   4.437   3.485   8.333  0.6526  1.6261 -0.8431
 6693SOL     OW31540   3.031   4.415   3.467 -0.0031 -0.0042  0.3020
 6693SOL    HW131541   2.957   4.356   3.466 -0.0716  0.0817  0.2023
 6693SOL    HW231542   2.994   4.492   3.510 -0.5009 -0.3088  0.4109
 6694SOL     OW31543   2.467   1.909   1.733 -0.0748 -0.6065 -0.2165
 6694SOL    HW131544   2.394   1.907   1.671 -0.2443  2.8908 -0.1204
 6694SOL    HW231545   2.417   1.956   1.799 -1.3610 -0.4754 -1.2774
 6695SOL     OW31546   3.812   2.409   4.186 -0.1316 -0.3183  0.0563
 6695SOL    HW131547   3.820   2.331   4.240 -3.2511  0.0046  0.9833
 6695SOL    HW231548   3.719   2.414   4.161 -0.1834 -2.6030 -0.1712
 6696SOL     OW31549   0.624   2.294   5.439 -0.0589  0.0469 -0.8693
 6696SOL    HW131550   0.595   2.203   5.445 -1.6954  0.6037 -0.4928
 6696SOL    HW231551   0.716   2.293   5.412  0.1576 -0.8961 -0.1034
 6697SOL     OW31552   2.183   2.010   9.129  0.2111 -0.1526  0.0719
 6697SOL    HW131553   2.102   1.977   9.090 -0.1485  0.3351  0.3998
 6697SOL    HW231554   2.195   1.945   9.198 -0.9973  1.0668  1.4497
 6698SOL     OW31555   2.948   4.260   5.800 -0.1998 -0.7548  0.2320
 6698SOL    HW131556   2.857   4.239   5.777 -0.5294 -0.9308  1.7090
 6698SOL    HW231557   2.977   4.177   5.837 -0.3200 -0.0299  1.9492
 6699SOL     OW31558   1.326   3.390   2.030 -0.2437  0.1828 -0.2990
 6699SOL    HW131559   1.394   3.431   1.977  0.4738 -0.1795  0.3483
 6699SOL    HW231560   1.279   3.469   2.059  1.2046  1.1839 -0.6711
 6700SOL     OW31561   2.212   2.904   4.823  0.7026 -0.0120 -0.1714
 6700SOL    HW131562   2.251   2.820   4.846  0.9091 -0.3299 -1.7105
 6700SOL    HW231563   2.214   2.908   4.727  1.0062  1.0427 -0.1218
 6701SOL     OW31564   0.794   3.262   3.776  0.2467 -0.8608  0.0144
 6701SOL    HW131565   0.783   3.167   3.766  0.8646 -0.8159 -1.1113
 6701SOL    HW231566   0.887   3.253   3.796  0.2445 -1.5537 -0.2781
 6702SOL     OW31567   1.127   0.704   2.473 -0.5835 -0.6743 -0.2486
 6702SOL    HW131568   1.213   0.678   2.506 -1.1927 -1.2588  0.8963
 6702SOL    HW231569   1.113   0.626   2.419 -0.3504 -0.9836  0.1369
 6703SOL     OW31570   0.232   4.192  17.119  0.0494 -0.4848 -0.1688
 6703SOL    HW131571   0.300   4.257  17.134 -1.4000  0.6292  1.6599
 6703SOL    HW231572   0.170   4.200  17.192 -1.7539  1.5769 -1.9198
 6704SOL     OW31573   1.794   2.818   5.928 -0.7261  0.7068  0.6824
 6704SOL    HW131574   1.740   2.893   5.904 -1.1396 -0.2043 -1.2552
 6704SOL    HW231575   1.720   2.770   5.965 -2.1199  1.4141 -1.2196
 6705SOL     OW31576   4.643   0.683   0.489  0.1255 -0.1053  0.2005
 6705SOL    HW131577   4.657   0.743   0.417  2.2428 -0.7987  0.0312
 6705SOL    HW231578   4.590   0.613   0.451 -0.6429  0.8066 -0.4111
 6706SOL     OW31579   4.117   1.369   4.958 -0.4200  0.0334  0.3616
 6706SOL    HW131580   4.065   1.352   4.879  0.0199 -0.0167  0.0852
 6706SOL    HW231581   4.078   1.446   4.998  0.4604 -0.4054  2.0685
 6707SOL     OW31582   1.764   2.704   7.092  0.4411  0.3646  0.0204
 6707SOL    HW131583   1.776   2.705   6.997  1.6883  2.9150  0.2192
 6707SOL    HW231584   1.856   2.680   7.108 -0.0138 -0.5010  1.3719
 6708SOL     OW31585   2.978   1.314   2.681 -0.3260  0.0647  0.0405
 6708SOL    HW131586   2.915   1.298   2.751  2.7552 -1.4165  2.4669
 6708SOL    HW231587   2.923   1.333   2.605 -0.6049 -0.0084  0.2235
 6709SOL     OW31588   2.835   3.707   6.845  0.1338  0.6376 -0.1515
 6709SOL    HW131589   2.875   3.790   6.869  1.4683 -0.6063  1.8555
 6709SOL    HW231590   2.772   3.733   6.777 -0.3200 -0.6296 -0.2167
 6710SOL     OW31591   3.332   1.603  12.971 -0.1223 -0.0351 -0.3972
 6710SOL    HW131592   3.350   1.510  12.984 -1.2394 -0.1907  0.1299
 6710SOL    HW231593   3.303   1.599  12.880 -1.7064  0.4123  0.0750
 6711SOL     OW31594   0.604   3.669   2.538 -0.6768 -0.5440 -0.2940
 6711SOL    HW131595   0.670   3.703   2.478 -1.2422 -0.8375 -1.0799
 6711SOL    HW231596   0.532   3.725   2.508  0.1664  0.6267 -0.1585
 6712SOL     OW31597   1.898   1.013   4.640  0.0823  0.0935  0.7466
 6712SOL    HW131598   1.890   0.944   4.574 -0.4332  1.0727 -0.2292
 6712SOL    HW231599   1.812   1.009   4.682 -0.4533 -2.3504 -0.5754
 6713SOL     OW31600   1.586   2.100   4.330 -0.0918  0.0821  0.0229
 6713SOL    HW131601   1.533   2.117   4.252  0.2640  3.8974  0.6364
 6713SOL    HW231602   1.577   2.006   4.345  1.2689 -0.5353 -2.9194
 6714SOL     OW31603   2.071   3.901   8.656 -1.1798  0.2112  0.3827
 6714SOL    HW131604   1.996   3.934   8.706 -1.1647 -0.6323  0.9585
 6714SOL    HW231605   2.023   3.831   8.612  0.0476  0.5832 -1.5486
 6715SOL     OW31606   2.528   0.329   4.181  0.3176  0.8061  0.5910
 6715SOL    HW131607   2.581   0.321   4.102 -0.3507  0.0669  0.2167
 6715SOL    HW231608   2.498   0.420   4.186 -1.2722  0.4299 -1.6532
 6716SOL     OW31609   0.786   1.829   8.050  0.1217 -0.0522 -0.2591
 6716SOL    HW131610   0.849   1.877   8.105 -1.1406  0.7704  0.4735
 6716SOL    HW231611   0.842   1.777   7.992  1.0781 -0.2371  0.8293
 6717SOL     OW31612   0.669   3.980   5.625  0.1335 -0.5779  0.0511
 6717SOL    HW131613   0.730   3.907   5.638  0.7140 -0.5256 -2.3658
 6717SOL    HW231614   0.603   3.939   5.568  0.2283  0.2748 -0.6671
 6718SOL     OW31615   1.239   2.651   2.622 -0.6287 -0.2130  0.4426
 6718SOL    HW131616   1.256   2.607   2.705 -1.6042 -1.6199 -0.1188
 6718SOL    HW231617   1.157   2.611   2.595  0.0840  0.4407 -2.6775
 6719SOL     OW31618   3.762   3.065   2.739  0.5849  0.0044 -0.0790
 6719SOL    HW131619   3.854   3.089   2.751  0.0810  2.1951 -0.5098
 6719SOL    HW231620   3.734   3.155   2.756 -0.4402 -0.3133 -0.0756
 6720SOL     OW31621   3.753   0.943   2.388  1.1205  0.0249 -0.6496
 6720SOL    HW131622   3.799   0.997   2.453 -0.0666  0.2076  0.0409
 6720SOL    HW231623   3.767   0.987   2.304  3.9627  0.6072  0.1475
 6721SOL     OW31624   0.137   1.062   6.720  0.1652 -0.6063  0.4296
 6721SOL    HW131625   0.162   1.123   6.789 -2.1280  0.8844 -0.0786
 6721SOL    HW231626   0.204   1.069   6.651 -0.5357 -1.1747 -0.3112
 6722SOL     OW31627   4.641   0.670   2.553 -0.1291  0.4162 -0.2596
 6722SOL    HW131628   4.601   0.616   2.484 -1.4990  1.1831 -0.0558
 6722SOL    HW231629   4.663   0.750   2.505 -1.1348  1.4490  1.0219
 6723SOL     OW31630   2.900   0.922  17.214 -0.7225 -0.0801  0.5069
 6723SOL    HW131631   2.866   0.853  17.270 -2.5370 -0.4245 -1.0376
 6723SOL    HW231632   2.821   0.960  17.177 -0.9254  0.6889  1.7198
 6724SOL     OW31633   2.698   1.366   5.853  0.6530  0.1748  0.0971
 6724SOL    HW131634   2.628   1.416   5.894 -0.4260 -0.6320 -0.7762
 6724SOL    HW231635   2.762   1.428   5.817  1.8460 -0.9241  0.3053
 6725SOL     OW31636   2.647   0.095  16.859 -0.5254 -0.4701  0.3336
 6725SOL    HW131637   2.588   0.028  16.822  0.5498 -0.3275 -1.6662
 6725SOL    HW231638   2.591   0.172  16.851 -0.2059 -0.2551  0.2018
 6726SOL     OW31639   3.484   0.793  16.484  0.0251  0.0807  0.5883
 6726SOL    HW131640   3.560   0.760  16.435 -0.2913 -3.2896  2.3605
 6726SOL    HW231641   3.424   0.791  16.409  0.8463 -0.0361 -0.0735
 6727SOL     OW31642   0.753   2.547  15.720 -0.2316  0.9075  0.2041
 6727SOL    HW131643   0.846   2.532  15.703  0.1884  1.6827  1.8206
 6727SOL    HW231644   0.716   2.557  15.632 -2.2080 -3.7783  0.5140
 6728SOL     OW31645   2.703   1.398   0.291 -0.0873 -0.4157 -0.0605
 6728SOL    HW131646   2.621   1.417   0.247  2.0305  3.5544 -2.3626
 6728SOL    HW231647   2.673   1.339   0.360  0.6391 -1.3373 -0.5373
 6729SOL     OW31648   4.045   0.688   7.787  0.1071  0.0993  0.2297
 6729SOL    HW131649   3.983   0.717   7.854  0.6036  1.0924  0.2665
 6729SOL    HW231650   3.982   0.702   7.716  1.9224  0.6398 -1.2925
 6730SOL     OW31651   0.983   4.546   0.609  0.1215 -0.0537 -0.0549
 6730SOL    HW131652   0.900   4.558   0.655 -1.6439 -0.8555 -3.0629
 6730SOL    HW231653   0.969   4.468   0.555 -0.5157 -1.0386  1.5208
 6731SOL     OW31654   3.646   2.153   1.421 -0.4772 -0.0363  0.0093
 6731SOL    HW131655   3.589   2.183   1.350 -2.2379  0.0129  1.4500
 6731SOL    HW231656   3.631   2.231   1.474 -0.1959  1.5402 -2.2137
 6732SOL     OW31657   4.021   3.399   1.665  0.5498 -0.3853  0.1983
 6732SOL    HW131658   4.065   3.455   1.730 -0.1572 -0.0988  0.4380
 6732SOL    HW231659   3.985   3.475   1.619 -1.3088 -0.4421  1.5520
 6733SOL     OW31660   4.497   0.147   3.548 -0.2359 -0.1093 -0.0038
 6733SOL    HW131661   4.460   0.062   3.572  0.7952 -0.5888 -0.1021
 6733SOL    HW231662   4.555   0.115   3.479 -2.0011 -1.0664 -1.0226
 6734SOL     OW31663   1.437   2.914   5.532  0.2294  0.0241  0.2669
 6734SOL    HW131664   1.399   3.002   5.537 -0.6593 -0.2510 -1.5121
 6734SOL    HW231665   1.531   2.931   5.536  0.6509 -1.4021 -4.1927
 6735SOL     OW31666   2.381   3.341   2.514 -0.2131  0.2138 -0.0112
 6735SOL    HW131667   2.433   3.272   2.555 -0.4173 -0.4321 -0.8284
 6735SOL    HW231668   2.443   3.413   2.523  1.1972 -0.9436 -0.5185
 6736SOL     OW31669   0.007   2.633   7.869 -0.3714 -0.1933  0.2859
 6736SOL    HW131670   4.641   2.598   7.855  0.2680 -1.8577  0.3568
 6736SOL    HW231671   4.715   2.727   7.865  2.0715  0.1554  0.2589
 6737SOL     OW31672   1.101   1.328  11.910 -0.5357 -0.3187 -0.2169
 6737SOL    HW131673   1.038   1.383  11.955  0.5443 -1.0838  2.2197
 6737SOL    HW231674   1.071   1.247  11.951 -0.0940  0.1683  1.0830
 6738SOL     OW31675   3.501   0.591   4.131  0.5492  0.2207  0.1195
 6738SOL    HW131676   3.511   0.651   4.205  1.0832  0.9757 -0.5672
 6738SOL    HW231677   3.572   0.532   4.156  0.9103 -0.4023 -2.4574
 6739SOL     OW31678   3.416   4.213   5.494 -0.2443  0.0004 -0.0997
 6739SOL    HW131679   3.384   4.144   5.436  0.7272  0.7463 -1.5148
 6739SOL    HW231680   3.354   4.285   5.482 -1.5938 -1.2104 -0.3868
 6740SOL     OW31681   1.843   1.624   9.025  0.7716 -0.0197  0.2840
 6740SOL    HW131682   1.791   1.688   9.073  0.1689 -2.4995  2.9944
 6740SOL    HW231683   1.778   1.563   8.991 -1.4107  2.8645 -0.7307
 6741SOL     OW31684   0.727   1.182   6.657  0.0174  0.2246 -0.5788
 6741SOL    HW131685   0.704   1.269   6.691  0.2429  0.0970 -0.0957
 6741SOL    HW231686   0.791   1.219   6.596  0.6607  1.6132  0.9335
 6742SOL     OW31687   1.025   3.552   4.773 -0.2124  0.0101 -0.0498
 6742SOL    HW131688   0.935   3.576   4.750 -0.2698 -0.3667 -0.2118
 6742SOL    HW231689   1.039   3.470   4.727 -0.1522  0.2555 -0.4713
 6743SOL     OW31690   1.791   1.622   2.667 -0.3280 -0.6685  0.1359
 6743SOL    HW131691   1.814   1.532   2.641 -0.2672 -0.8739  0.8959
 6743SOL    HW231692   1.707   1.604   2.708 -0.6697  0.9521  0.1393
 6744SOL     OW31693   3.222   0.279   2.966 -0.0445 -0.3832 -0.3497
 6744SOL    HW131694   3.153   0.213   2.961 -0.8169  0.3220  1.1353
 6744SOL    HW231695   3.191   0.339   3.033  2.5070  0.2389  0.2808
 6745SOL     OW31696   1.148   0.184   2.257  0.4578  0.3041  0.8634
 6745SOL    HW131697   1.218   0.249   2.265  0.3029  0.5128  0.5415
 6745SOL    HW231698   1.075   0.235   2.222  0.5330 -0.7487 -0.8645
 6746SOL     OW31699   4.530   1.893   6.400 -0.2888  0.0828 -0.2924
 6746SOL    HW131700   4.434   1.898   6.396 -0.3704  0.5302  1.9931
 6746SOL    HW231701   4.551   1.985   6.416  0.8077 -0.2390  0.1250
 6747SOL     OW31702   1.398   0.542  14.328 -0.0401 -0.1115  0.0033
 6747SOL    HW131703   1.383   0.449  14.313  1.2132 -0.1227 -1.2022
 6747SOL    HW231704   1.399   0.551  14.424  0.6393 -0.2812  0.0155
 6748SOL     OW31705   3.866   4.400  15.434  0.1500  0.5737 -0.0565
 6748SOL    HW131706   3.882   4.328  15.495  0.1186 -0.5217 -1.3588
 6748SOL    HW231707   3.782   4.371  15.398  1.0541  0.0497 -1.7174
 6749SOL     OW31708   1.882   2.011  11.018  0.0514  0.2034  0.3865
 6749SOL    HW131709   1.849   1.926  11.047 -1.0008  0.7244  0.7198
 6749SOL    HW231710   1.812   2.065  11.056  0.1816 -0.3844  1.4399
 6750SOL     OW31711   2.426   3.001   5.778 -0.5581  0.2098 -0.2325
 6750SOL    HW131712   2.393   3.057   5.848 -1.3666 -0.2975 -0.2079
 6750SOL    HW231713   2.385   2.918   5.802 -0.2528  0.3173  0.6445
 6751SOL     OW31714   1.099   1.410   8.293 -0.3278 -0.1268  0.3203
 6751SOL    HW131715   1.156   1.340   8.324  0.8562 -0.5279 -2.7490
 6751SOL    HW231716   1.147   1.446   8.218  0.4525 -0.0680  0.8452
 6752SOL     OW31717   2.584   1.203   4.371 -0.1326 -0.4036 -0.0115
 6752SOL    HW131718   2.676   1.180   4.358  0.3988  2.1173 -0.7990
 6752SOL    HW231719   2.536   1.175   4.292 -0.1768  0.2526 -0.2212
 6753SOL     OW31720   1.875   1.300   6.321 -0.2869  0.1709  0.5650
 6753SOL    HW131721   1.799   1.254   6.358 -0.9108 -0.5182 -1.5398
 6753SOL    HW231722   1.836   1.350   6.249 -0.1958 -0.4603  0.0785
 6754SOL     OW31723   3.648   4.110   5.842 -0.3524  0.2382  0.2351
 6754SOL    HW131724   3.715   4.111   5.910 -0.9661  0.5881  0.8336
 6754SOL    HW231725   3.589   4.177   5.877 -0.4579  0.2300  0.0741
 6755SOL     OW31726   1.647   3.192   8.246  0.5419  0.0926  0.3665
 6755SOL    HW131727   1.554   3.205   8.261  0.6136 -2.2278  2.8128
 6755SOL    HW231728   1.643   3.214   8.153 -0.0710  0.4968  0.4902
 6756SOL     OW31729   1.946   1.189   7.418  0.3817  0.1042 -0.2877
 6756SOL    HW131730   1.869   1.135   7.440  0.2536  0.4566  0.1363
 6756SOL    HW231731   2.012   1.142   7.469  0.7969  1.1647  0.1444
 6757SOL     OW31732   3.891   3.657   2.771 -0.1035 -0.4479 -0.0995
 6757SOL    HW131733   3.844   3.675   2.852  1.6527 -1.9445  1.2449
 6757SOL    HW231734   3.869   3.566   2.752  0.3110 -0.1703 -1.9251
 6758SOL     OW31735   4.587   1.082  10.343 -1.2834 -0.2021  0.6001
 6758SOL    HW131736   4.614   1.105  10.432 -1.0724  2.4485 -0.1613
 6758SOL    HW231737   4.520   1.017  10.367  0.3259 -1.7222  1.0378
 6759SOL     OW31738   3.631   2.742   6.854 -0.0999 -0.0341  0.0511
 6759SOL    HW131739   3.629   2.646   6.857 -0.3948  0.0193  1.3929
 6759SOL    HW231740   3.722   2.764   6.831  0.4119 -0.6443  1.5125
 6760SOL     OW31741   2.976   2.875   6.074  0.0204 -0.4335 -0.1735
 6760SOL    HW131742   3.004   2.865   5.983 -0.5641 -0.2525 -0.3741
 6760SOL    HW231743   3.048   2.921   6.117  0.2659 -0.2753 -0.7535
 6761SOL     OW31744   4.167   1.138   2.703 -0.3246  0.0448 -0.1115
 6761SOL    HW131745   4.257   1.131   2.671  0.1428 -0.6677  1.3765
 6761SOL    HW231746   4.155   1.043   2.709 -1.3411  0.1115 -1.0280
 6762SOL     OW31747   2.064   1.915   2.279 -0.4927  0.0773  0.0976
 6762SOL    HW131748   2.036   1.845   2.219  0.0545 -1.0579  1.1734
 6762SOL    HW231749   2.159   1.907   2.284 -0.5114 -1.7214 -2.0760
 6763SOL     OW31750   3.308   0.500   2.415  0.2223  0.4105 -0.3977
 6763SOL    HW131751   3.302   0.405   2.400  0.6099  0.6625 -2.1730
 6763SOL    HW231752   3.340   0.520   2.328 -1.0141  0.1568 -0.9209
 6764SOL     OW31753   4.592   0.281   8.000  0.7398 -0.3277  0.4970
 6764SOL    HW131754   4.684   0.301   8.018  0.6013  0.7890 -0.0714
 6764SOL    HW231755   4.574   0.312   7.911 -1.0509 -1.0899  0.5888
 6765SOL     OW31756   0.509   3.343  12.276  0.2434 -0.8217 -0.0899
 6765SOL    HW131757   0.482   3.259  12.239  0.3821  0.0396 -2.1647
 6765SOL    HW231758   0.452   3.401  12.224  0.8374 -0.1170  0.0422
 6766SOL     OW31759   0.370   2.532   9.710 -0.4869 -0.1086  0.0757
 6766SOL    HW131760   0.442   2.469   9.715 -0.9299 -0.5902  0.3220
 6766SOL    HW231761   0.299   2.484   9.752 -1.1256  0.8737  0.1146
 6767SOL     OW31762   1.545   2.685   0.463  0.0746 -0.9994 -0.6052
 6767SOL    HW131763   1.569   2.596   0.439  0.2438 -0.7851 -1.2143
 6767SOL    HW231764   1.599   2.691   0.542 -1.3132 -0.4459  0.2891
 6768SOL     OW31765   1.218   3.460   7.466  0.9633  0.1622 -0.0964
 6768SOL    HW131766   1.152   3.413   7.415  0.0226  2.0289 -0.5717
 6768SOL    HW231767   1.234   3.402   7.541  2.2787 -0.1035 -0.5822
 6769SOL     OW31768   1.206   0.996   5.193  0.3540 -0.3740  0.3061
 6769SOL    HW131769   1.114   1.005   5.168  0.4342 -1.8882 -0.5172
 6769SOL    HW231770   1.224   1.072   5.249 -1.2592 -0.0029  0.3157
 6770SOL     OW31771   2.531   1.215  13.831 -0.1004 -0.2889  0.1494
 6770SOL    HW131772   2.505   1.287  13.774  0.1113 -0.0114  0.4016
 6770SOL    HW231773   2.459   1.213  13.895 -0.1899 -0.3912  0.0465
 6771SOL     OW31774   0.681   4.396   3.541 -0.2528 -0.0508 -0.4754
 6771SOL    HW131775   0.616   4.456   3.504 -0.3591  0.6186  0.7812
 6771SOL    HW231776   0.687   4.432   3.629 -2.4259 -1.4831  0.2527
 6772SOL     OW31777   1.018   4.045   8.140  0.0650  0.3828  0.0367
 6772SOL    HW131778   0.986   4.135   8.140 -0.5944  0.1518 -0.5425
 6772SOL    HW231779   1.033   4.028   8.233 -1.1646  0.1331  0.1983
 6773SOL     OW31780   3.702   4.418   2.946  0.4928 -0.1907  0.0842
 6773SOL    HW131781   3.727   4.487   3.007 -0.9380  0.0460  0.4157
 6773SOL    HW231782   3.785   4.397   2.904  0.8201 -1.1792  1.2241
 6774SOL     OW31783   2.227   3.506   2.679  0.4136 -0.6292  0.3926
 6774SOL    HW131784   2.271   3.442   2.736 -1.8985 -1.7204  0.9591
 6774SOL    HW231785   2.278   3.487   2.600 -2.0855 -1.8995 -0.9138
 6775SOL     OW31786   0.742   3.209  12.415 -0.5407 -0.5413  0.0066
 6775SOL    HW131787   0.651   3.235  12.405 -0.0183  1.4846  0.5324
 6775SOL    HW231788   0.736   3.117  12.390  2.1793 -0.8497  0.4794
 6776SOL     OW31789   0.230   3.925   5.139  0.2729 -0.4454  0.4200
 6776SOL    HW131790   0.223   3.992   5.072 -2.2374 -0.4191  0.6991
 6776SOL    HW231791   0.290   3.966   5.202  0.9027 -1.2530  0.3561
 6777SOL     OW31792   2.985   2.439   5.583 -0.1832 -0.0959  0.2814
 6777SOL    HW131793   3.078   2.460   5.569  0.3185 -1.3120  1.7547
 6777SOL    HW231794   2.988   2.392   5.667  2.6177  0.3840  0.4690
 6778SOL     OW31795   3.303   0.999  13.618 -0.2663  0.3549 -0.0820
 6778SOL    HW131796   3.243   0.968  13.686  0.2207  0.2049  0.2811
 6778SOL    HW231797   3.345   1.079  13.648 -0.9298  0.8554 -0.4907
 6779SOL     OW31798   0.019   2.909   5.742 -0.2529  0.7628  0.2068
 6779SOL    HW131799   0.069   2.830   5.722  0.0887  0.2390  3.0799
 6779SOL    HW231800   0.061   2.931   5.826 -1.0136  0.9383  0.5397
 6780SOL     OW31801   0.594   2.433  16.193 -0.1853  0.1573 -0.2648
 6780SOL    HW131802   0.640   2.428  16.109  1.9020  3.2119  0.6910
 6780SOL    HW231803   0.526   2.366  16.182 -1.1069  1.0387  0.1573
 6781SOL     OW31804   0.874   0.530   3.079 -0.3291  0.0169 -0.0308
 6781SOL    HW131805   0.803   0.593   3.065 -0.8270 -0.7653 -1.0470
 6781SOL    HW231806   0.835   0.458   3.030 -2.6824  1.3414 -0.1430
 6782SOL     OW31807   1.439   3.125   7.844  0.2961 -0.0845  0.2856
 6782SOL    HW131808   1.411   3.042   7.804  1.0005  0.3291 -1.0491
 6782SOL    HW231809   1.457   3.167   7.761 -0.7187 -0.5063 -0.1430
 6783SOL     OW31810   3.062   1.490  13.087  0.6091  0.5495  0.1922
 6783SOL    HW131811   3.079   1.575  13.128 -1.4727  1.0340  0.0613
 6783SOL    HW231812   2.981   1.458  13.129  0.4834  0.2004 -0.3214
 6784SOL     OW31813   0.717   1.409   2.810 -0.0544 -0.6457  0.2258
 6784SOL    HW131814   0.652   1.472   2.781  0.4572 -1.2102 -2.1700
 6784SOL    HW231815   0.733   1.370   2.724 -2.3734 -1.5840  0.2307
 6785SOL     OW31816   3.792   1.341   9.217  0.6529  0.4425  0.1962
 6785SOL    HW131817   3.735   1.411   9.183  0.0791  0.2177  0.6978
 6785SOL    HW231818   3.869   1.394   9.236  1.1162 -0.6405  1.2645
 6786SOL     OW31819   4.651   1.114   3.985  0.3093  0.2535 -0.3286
 6786SOL    HW131820   4.661   1.197   4.032  0.6336  0.7128 -1.2241
 6786SOL    HW231821   4.566   1.083   4.018  0.3316 -0.4930 -0.9876
 6787SOL     OW31822   2.952   0.542   4.731 -0.0540  0.3027 -0.6692
 6787SOL    HW131823   2.910   0.559   4.646 -0.3262 -1.0613 -0.8130
 6787SOL    HW231824   3.023   0.488   4.695  1.2735  1.6630 -0.1320
 6788SOL     OW31825   2.116   0.254  17.195 -0.0758 -0.1180  0.5267
 6788SOL    HW131826   2.179   0.192  17.159 -1.3791 -0.0190 -1.8632
 6788SOL    HW231827   2.101   0.313  17.122  0.4860 -2.1545 -1.2284
 6789SOL     OW31828   2.978   3.615   3.428  0.4690 -0.0432 -0.3406
 6789SOL    HW131829   2.935   3.695   3.460  1.2411 -0.5977  2.0993
 6789SOL    HW231830   2.921   3.585   3.357  0.0785  1.6796 -0.7643
 6790SOL     OW31831   0.340   0.983   0.800 -0.5194 -0.4504 -0.0813
 6790SOL    HW131832   0.414   0.932   0.835 -0.2050  0.6260  0.7993
 6790SOL    HW231833   0.263   0.955   0.850 -0.6034  0.3444  0.2202
 6791SOL     OW31834   3.788   1.027   4.197  0.0657 -0.0685  0.2950
 6791SOL    HW131835   3.824   1.103   4.243 -0.3638  0.4824 -0.2790
 6791SOL    HW231836   3.806   1.059   4.109 -4.0875 -0.4944 -0.6964
 6792SOL     OW31837   2.940   1.631   6.462  0.1258 -0.1616  0.3841
 6792SOL    HW131838   2.946   1.687   6.540  1.0695  0.0914  0.1287
 6792SOL    HW231839   2.875   1.568   6.492  1.2993 -1.4583  0.1831
 6793SOL     OW31840   2.479   4.415  12.886 -0.1710  0.5901  0.1809
 6793SOL    HW131841   2.454   4.419  12.978  1.2499 -0.7091  0.6222
 6793SOL    HW231842   2.411   4.467  12.843  1.0953  2.6448  0.6520
 6794SOL     OW31843   0.356   2.971   0.414 -0.2868  0.3492 -0.3767
 6794SOL    HW131844   0.388   3.051   0.456  0.8138  0.1829 -0.8922
 6794SOL    HW231845   0.262   2.983   0.428  0.0287  1.4854  0.7919
 6795SOL     OW31846   3.634   3.085   3.736 -0.0957 -0.0303  0.1057
 6795SOL    HW131847   3.546   3.052   3.718  0.1336  0.6235 -2.1756
 6795SOL    HW231848   3.611   3.175   3.713  0.5753 -0.3259 -1.7359
 6796SOL     OW31849   1.223   3.830   0.244  0.7745 -0.3667  0.0441
 6796SOL    HW131850   1.147   3.832   0.303  0.4493 -0.9653 -0.3470
 6796SOL    HW231851   1.214   3.896   0.175  1.4637 -0.2560  0.0634
 6797SOL     OW31852   1.977   2.486   8.095  0.2539 -0.3451 -0.1770
 6797SOL    HW131853   1.997   2.405   8.142  2.2820  1.2282  1.6925
 6797SOL    HW231854   2.050   2.544   8.118 -0.1643  0.5772 -1.1450
 6798SOL     OW31855   4.599   1.534   6.223 -0.0265 -0.1308 -0.1675
 6798SOL    HW131856   4.690   1.508   6.213  0.6117  1.9953  0.1939
 6798SOL    HW231857   4.545   1.495   6.155  1.0618 -1.0308 -0.5060
 6799SOL     OW31858   2.551   2.363  12.112 -0.1441 -0.3492  0.5192
 6799SOL    HW131859   2.596   2.446  12.095 -0.1709 -0.3150  0.6148
 6799SOL    HW231860   2.481   2.400  12.167  0.0838 -0.2160  0.7189
 6800SOL     OW31861   1.262   3.487   7.961  0.5622 -0.4374 -0.0106
 6800SOL    HW131862   1.181   3.451   7.926  0.5914  0.4289 -0.9853
 6800SOL    HW231863   1.279   3.444   8.044  1.3975 -3.2803 -1.6801
 6801SOL     OW31864   1.253   3.385  12.607 -0.2104 -0.0826 -0.3515
 6801SOL    HW131865   1.177   3.443  12.613 -0.0902  0.0805 -0.4291
 6801SOL    HW231866   1.251   3.345  12.520 -0.2454 -0.8365  0.0000
 6802SOL     OW31867   0.017   1.219   2.287 -0.1552 -0.5644  0.2926
 6802SOL    HW131868   4.660   1.166   2.300 -1.1110  0.9594  0.7925
 6802SOL    HW231869   4.713   1.282   2.220 -0.7166 -1.2854 -0.1641
 6803SOL     OW31870   4.537   1.300   8.314 -0.5071 -0.2149 -0.1194
 6803SOL    HW131871   4.463   1.326   8.369 -0.3944 -0.6894  0.2609
 6803SOL    HW231872   4.515   1.343   8.232  0.1588  2.1162  0.9218
 6804SOL     OW31873   3.869   3.972   9.166 -0.1907  0.1621 -0.0507
 6804SOL    HW131874   3.940   3.917   9.200  1.3326  0.7342 -2.3643
 6804SOL    HW231875   3.894   4.059   9.198  0.3005  0.4422 -1.2263
 6805SOL     OW31876   2.689   1.694  13.130  0.0418  0.2670  0.1157
 6805SOL    HW131877   2.748   1.769  13.122  0.8392 -0.3130  0.5383
 6805SOL    HW231878   2.616   1.721  13.075  1.3208  1.6514 -0.9274
 6806SOL     OW31879   2.927   1.025  11.756  0.3198  0.2852  0.2845
 6806SOL    HW131880   2.870   1.099  11.735 -0.8471 -0.7688 -0.2449
 6806SOL    HW231881   3.009   1.049  11.713 -0.3180  1.0654 -0.4818
 6807SOL     OW31882   1.560   0.909  13.580 -0.0263  0.6319  0.2466
 6807SOL    HW131883   1.540   0.931  13.489 -2.8631 -0.3880  0.6217
 6807SOL    HW231884   1.629   0.969  13.608 -0.7174  0.7576  1.6878
 6808SOL     OW31885   0.954   3.723   0.428  0.1614  0.4114  0.1285
 6808SOL    HW131886   0.994   3.804   0.461 -1.7224  2.5344 -2.8042
 6808SOL    HW231887   0.999   3.652   0.474 -0.6620 -0.1345  0.0981
 6809SOL     OW31888   2.202   1.393   8.320  0.3690  0.0763  0.6628
 6809SOL    HW131889   2.292   1.362   8.336  0.6270  1.1107  1.2570
 6809SOL    HW231890   2.174   1.350   8.239  3.4384  2.2239 -1.5401
 6810SOL     OW31891   1.085   2.630   5.968  0.0066 -0.4419 -0.3038
 6810SOL    HW131892   1.028   2.696   5.927  1.0415  0.0486 -0.9375
 6810SOL    HW231893   1.092   2.550   5.917  1.1324  0.6426 -1.8479
 6811SOL     OW31894   3.600   2.640   3.924 -0.8032 -0.2857  0.1011
 6811SOL    HW131895   3.563   2.568   3.975  0.8773 -0.6462  0.7877
 6811SOL    HW231896   3.559   2.718   3.964  0.8880  0.7041 -0.1112
 6812SOL     OW31897   3.296   3.317  15.580  0.1668 -0.1774  0.7110
 6812SOL    HW131898   3.232   3.306  15.509  0.2489  1.5844  0.3584
 6812SOL    HW231899   3.339   3.232  15.591  1.9123  0.6967  0.5938
 6813SOL     OW31900   0.879   0.874   5.994 -0.4411 -0.2289 -0.3302
 6813SOL    HW131901   0.967   0.887   5.958 -0.4889 -0.3838 -0.5048
 6813SOL    HW231902   0.839   0.958   5.970  2.4095  0.9955 -0.7617
 6814SOL     OW31903   0.305   1.033   7.334  0.2704 -0.0079 -0.1495
 6814SOL    HW131904   0.280   0.961   7.277 -1.0439 -0.2387  0.7356
 6814SOL    HW231905   0.366   1.082   7.279 -1.5513  0.6845 -1.5251
 6815SOL     OW31906   2.965   2.103   1.338  0.3915  0.2056 -0.2463
 6815SOL    HW131907   3.047   2.149   1.358 -0.4620  1.0621  1.2708
 6815SOL    HW231908   2.958   2.061   1.424  2.0239  0.8064  0.1829
 6816SOL     OW31909   3.442   3.264   1.623 -0.1050 -0.0829  0.1460
 6816SOL    HW131910   3.535   3.241   1.635 -0.3386 -0.8962  0.3836
 6816SOL    HW231911   3.414   3.221   1.704  1.5913 -1.1789  0.1450
 6817SOL     OW31912   1.533   2.379   6.174  0.4528  0.6709 -0.2731
 6817SOL    HW131913   1.458   2.438   6.162 -1.8344 -1.9184  1.5181
 6817SOL    HW231914   1.505   2.331   6.252  1.6131  0.1396 -0.1848
 6818SOL     OW31915   3.907   0.878   8.880  0.6003  0.3551  0.9753
 6818SOL    HW131916   3.835   0.907   8.823  2.0890  2.9589  0.4281
 6818SOL    HW231917   3.917   0.952   8.940  1.2787  1.7190 -0.8061
 6819SOL     OW31918   0.785   2.625  11.608  0.1984 -0.3885 -0.1927
 6819SOL    HW131919   0.741   2.571  11.674 -0.0576 -2.8266 -2.3653
 6819SOL    HW231920   0.845   2.678  11.660 -0.3055  0.7255 -0.7512
 6820SOL     OW31921   3.056   1.432   3.239 -0.4416  0.4912 -0.2311
 6820SOL    HW131922   3.084   1.461   3.152 -0.6756  1.7927  0.1279
 6820SOL    HW231923   3.112   1.483   3.297 -0.6782  2.2744 -1.5781
 6821SOL     OW31924   1.312   2.880   0.398  0.4056  0.3068 -0.1609
 6821SOL    HW131925   1.398   2.845   0.422 -0.0013 -0.8702 -0.4271
 6821SOL    HW231926   1.257   2.806   0.424 -0.8473  1.6424  0.9893
 6822SOL     OW31927   1.198   0.322   9.007  0.7167  0.0634 -0.9781
 6822SOL    HW131928   1.138   0.261   8.966 -0.9734  1.7951 -1.0761
 6822SOL    HW231929   1.232   0.368   8.930  0.4838  0.7065 -0.6960
 6823SOL     OW31930   2.453   2.380   7.908 -0.1887 -0.3154  0.0845
 6823SOL    HW131931   2.389   2.309   7.915  1.4706 -1.8237 -0.0463
 6823SOL    HW231932   2.464   2.377   7.813 -3.5642 -1.0293 -0.2956
 6824SOL     OW31933   0.325   0.411  10.521  0.1751 -0.5869 -0.1394
 6824SOL    HW131934   0.238   0.436  10.552  0.5115  2.0911 -1.4107
 6824SOL    HW231935   0.302   0.324  10.487  1.3688 -0.3903 -1.4502
 6825SOL     OW31936   3.926   3.789   7.630  0.1964 -0.3709 -0.2966
 6825SOL    HW131937   3.883   3.865   7.668  0.4586 -0.4131  0.0840
 6825SOL    HW231938   3.962   3.829   7.551  1.1456  0.6018  0.6248
 6826SOL     OW31939   4.371   4.615   3.658 -0.1299  0.1564 -0.4221
 6826SOL    HW131940   4.292   4.619   3.604 -0.8668  0.7112  0.6906
 6826SOL    HW231941   4.377   4.521   3.675  2.5508  0.2174 -1.0558
 6827SOL     OW31942   3.567   3.455   9.002 -0.5379  0.0451 -0.2041
 6827SOL    HW131943   3.567   3.547   9.028  2.1324 -0.2721  0.9034
 6827SOL    HW231944   3.624   3.469   8.926  1.2733  2.4319  1.5918
 6828SOL     OW31945   3.326   2.532  10.960  0.3682  0.0444 -0.5378
 6828SOL    HW131946   3.387   2.602  10.982 -0.2811  0.3852  0.1970
 6828SOL    HW231947   3.246   2.581  10.938 -0.0433 -0.9417 -1.2241
 6829SOL     OW31948   1.475   4.243   4.682 -0.1197 -0.6886 -0.2638
 6829SOL    HW131949   1.535   4.310   4.651 -1.2049  0.8504  1.0090
 6829SOL    HW231950   1.522   4.208   4.757  2.2600 -0.8506 -1.8121
 6830SOL     OW31951   2.956   3.587   3.703  0.0726 -0.0138  0.2251
 6830SOL    HW131952   2.894   3.514   3.705  0.7834 -0.6596 -1.3832
 6830SOL    HW231953   2.983   3.600   3.613 -0.4365 -1.8057 -0.1906
 6831SOL     OW31954   2.090   1.009   5.332  0.6269 -0.4305  0.0931
 6831SOL    HW131955   2.129   1.006   5.245  0.5586 -0.5995  0.0679
 6831SOL    HW231956   2.001   1.032   5.308  1.2664 -2.1245 -3.8285
 6832SOL     OW31957   2.108   0.354   9.168  0.7286  0.3479  0.5922
 6832SOL    HW131958   2.188   0.406   9.182 -0.1083  1.8027  0.0424
 6832SOL    HW231959   2.074   0.357   9.258 -2.9741  1.1482 -0.8472
 6833SOL     OW31960   0.714   3.753   0.698  0.1178 -0.8871  0.0106
 6833SOL    HW131961   0.688   3.745   0.789  1.0967  0.2691  0.3916
 6833SOL    HW231962   0.779   3.822   0.707  1.1676 -1.8713  0.0635
 6834SOL     OW31963   2.049   1.123   4.307  0.3346 -0.3485  0.1184
 6834SOL    HW131964   2.069   1.035   4.339 -0.0003 -0.6189 -0.4142
 6834SOL    HW231965   2.007   1.107   4.223 -1.2343  1.8483  0.4995
 6835SOL     OW31966   3.462   0.984   3.086  0.1836  0.7455  0.0024
 6835SOL    HW131967   3.391   0.988   3.149 -2.5827  1.7033 -3.1910
 6835SOL    HW231968   3.410   1.000   3.007 -0.4360  1.1923  0.5000
 6836SOL     OW31969   2.009   0.111   7.356 -0.3050  0.3261 -0.0201
 6836SOL    HW131970   2.078   0.050   7.330 -1.2145  0.6706 -3.2840
 6836SOL    HW231971   2.040   0.187   7.306  0.0468 -0.8718 -1.6374
 6837SOL     OW31972   3.371   3.428   5.715 -0.0476 -0.2040 -0.1688
 6837SOL    HW131973   3.323   3.384   5.645 -0.5603  1.7565 -1.0337
 6837SOL    HW231974   3.291   3.461   5.757  0.5206  0.1720  0.6140
 6838SOL     OW31975   2.836   0.815   0.345 -0.2027  0.2671  0.1255
 6838SOL    HW131976   2.777   0.784   0.414 -1.0896  2.1858  0.2238
 6838SOL    HW231977   2.788   0.794   0.265 -0.2428 -0.6812  0.3958
 6839SOL     OW31978   1.119   4.686  16.726  0.1862 -0.4670 -0.5007
 6839SOL    HW131979   1.203   0.008  16.739 -0.1565  0.3729 -1.1072
 6839SOL    HW231980   1.125   4.651  16.637  1.6393 -0.4084 -0.4165
 6840SOL     OW31981   0.184   4.212  10.834  0.1705  0.7662  0.5484
 6840SOL    HW131982   0.278   4.200  10.846 -0.1319 -0.8556  1.3009
 6840SOL    HW231983   0.162   4.128  10.793 -0.1853  1.1377 -0.0140
 6841SOL     OW31984   0.611   2.354   7.437 -0.2564 -0.5961 -0.2945
 6841SOL    HW131985   0.579   2.311   7.516  0.6465 -0.3765  0.1886
 6841SOL    HW231986   0.547   2.318   7.376 -0.5598 -0.4723 -0.0447
 6842SOL     OW31987   2.153   3.462   5.936 -0.0993  0.2701 -0.2147
 6842SOL    HW131988   2.172   3.534   5.875 -0.0972 -0.1366 -0.6977
 6842SOL    HW231989   2.235   3.448   5.982 -0.0927  1.7568  0.2486
 6843SOL     OW31990   1.321   1.326   0.056 -0.0052  0.2572  0.6731
 6843SOL    HW131991   1.395   1.358   0.107  0.7725 -0.0675 -0.2549
 6843SOL    HW231992   1.342   1.237   0.028  2.6976  0.6824  1.3695
 6844SOL     OW31993   3.745   3.349  12.779 -0.0835  0.0578  0.0243
 6844SOL    HW131994   3.673   3.333  12.840 -1.3562  0.8369 -1.2648
 6844SOL    HW231995   3.698   3.345  12.695 -0.8931  1.0286  0.4239
 6845SOL     OW31996   3.023   1.758   5.982  0.2119  0.4034  0.5990
 6845SOL    HW131997   3.042   1.826   6.046 -1.0700  1.9563 -0.6486
 6845SOL    HW231998   3.017   1.682   6.039 -0.7763  0.6845  0.8657
 6846SOL     OW31999   1.808   4.720   2.146 -0.3585 -0.0316 -0.2231
 6846SOL    HW132000   1.712   4.715   2.146 -0.4279  1.3965 -0.9274
 6846SOL    HW232001   1.813   4.664   2.068  1.1811 -1.4588  0.8927
 6847SOL     OW32002   3.892   3.598   6.526 -0.6348  0.1378  0.0243
 6847SOL    HW132003   3.977   3.610   6.568 -1.1075 -2.1231  1.6143
 6847SOL    HW232004   3.876   3.682   6.482 -0.2517 -0.3559 -1.0485
 6848SOL     OW32005   3.973   1.962   5.544  0.5591  0.0446  0.1999
 6848SOL    HW132006   4.026   2.042   5.554  0.3555  0.1868  0.1450
 6848SOL    HW232007   4.005   1.905   5.614 -1.6259 -0.0471  1.1156
 6849SOL     OW32008   1.058   3.639   7.622 -0.2755 -0.5047 -0.4865
 6849SOL    HW132009   1.127   3.622   7.559 -0.3098 -1.9593 -0.1519
 6849SOL    HW232010   0.988   3.649   7.557 -0.0595 -3.6840 -1.2097
 6850SOL     OW32011   2.402   4.558   7.697  0.0623 -0.6080  0.5196
 6850SOL    HW132012   2.349   4.610   7.758 -1.0276  2.2693 -2.8471
 6850SOL    HW232013   2.469   4.536   7.762  1.3557  0.2581 -0.5339
 6851SOL     OW32014   2.105   3.220   8.244 -0.4773  0.4841 -0.4661
 6851SOL    HW132015   2.166   3.248   8.176 -0.4953  3.2833  0.6848
 6851SOL    HW232016   2.147   3.249   8.325 -0.4393 -1.8171  0.3447
 6852SOL     OW32017   1.223   4.069  14.927  0.3341 -0.1872  0.4441
 6852SOL    HW132018   1.251   3.983  14.894 -1.9827  0.0853 -2.2796
 6852SOL    HW232019   1.159   4.104  14.864 -1.5469 -0.8913  1.9817
 6853SOL     OW32020   0.112   4.346  15.316  0.1289  0.2650 -0.2260
 6853SOL    HW132021   0.103   4.433  15.278 -1.1515  0.9228  1.5675
 6853SOL    HW232022   0.041   4.299  15.273  0.7829 -0.0846 -0.9228
 6854SOL     OW32023   3.170   1.062  12.162  0.3281 -0.1589  0.3170
 6854SOL    HW132024   3.166   1.100  12.250 -0.7091 -0.1127  0.2493
 6854SOL    HW232025   3.105   0.992  12.172  1.6108 -1.8150 -2.9253
 6855SOL     OW32026   0.934   3.800   8.593  0.0057 -0.6131 -0.2476
 6855SOL    HW132027   0.985   3.771   8.669  1.3470  0.5617 -0.6941
 6855SOL    HW232028   0.930   3.893   8.617  1.2695 -0.2551 -1.3922
 6856SOL     OW32029   2.716   3.162   0.271 -0.0011 -0.3930  0.5003
 6856SOL    HW132030   2.754   3.216   0.340 -1.1280 -0.0270  0.8426
 6856SOL    HW232031   2.785   3.181   0.207 -0.6700 -0.4368 -0.2358
 6857SOL     OW32032   4.279   0.009  12.840  0.0484 -0.1994  0.7182
 6857SOL    HW132033   4.259   0.088  12.889  1.9683  0.1670  0.8997
 6857SOL    HW232034   4.189   4.699  12.827 -0.3843  0.9174  1.0446
 6858SOL     OW32035   3.818   2.351   8.691 -0.5427  0.1220  0.1351
 6858SOL    HW132036   3.828   2.392   8.777 -2.8012  0.2147  0.3531
 6858SOL    HW232037   3.746   2.293   8.714 -0.4301 -0.2216 -0.3805
 6859SOL     OW32038   3.584   1.866   2.181  0.2843  0.0158  0.1793
 6859SOL    HW132039   3.496   1.834   2.160  0.3630 -0.5188  0.6770
 6859SOL    HW232040   3.575   1.893   2.273  1.2024  1.7067 -0.2198
 6860SOL     OW32041   0.713   3.970   0.134  0.5448 -0.0419 -0.1243
 6860SOL    HW132042   0.751   3.891   0.096 -1.5419 -0.2789 -1.7591
 6860SOL    HW232043   0.632   3.976   0.084  2.1765  0.2260 -2.7181
 6861SOL     OW32044   0.780   3.363   7.397 -0.3454  0.6613  0.3535
 6861SOL    HW132045   0.699   3.335   7.353  0.8012 -1.3264 -0.5006
 6861SOL    HW232046   0.776   3.305   7.473 -0.6578 -0.8754 -0.8271
 6862SOL     OW32047   0.528   2.875   6.736  0.4412 -0.2406 -0.0552
 6862SOL    HW132048   0.487   2.795   6.767  0.1256  0.3714  1.0970
 6862SOL    HW232049   0.560   2.843   6.651 -1.0919 -1.8170 -0.0118
 6863SOL     OW32050   3.848   2.230   7.903 -0.0896 -0.2629  0.6266
 6863SOL    HW132051   3.826   2.247   7.995 -0.6101  3.3916 -0.1712
 6863SOL    HW232052   3.835   2.313   7.857  2.7789  0.3769  0.9722
 6864SOL     OW32053   2.288   2.262   8.607 -0.1196 -0.1667 -0.4867
 6864SOL    HW132054   2.331   2.240   8.525  2.1922  2.1758  0.0892
 6864SOL    HW232055   2.362   2.265   8.668 -2.0930  1.8458  1.8610
 6865SOL     OW32056   3.836   3.263  14.917 -0.7951 -0.0453 -0.1403
 6865SOL    HW132057   3.754   3.296  14.879 -0.9623 -0.3873 -0.0746
 6865SOL    HW232058   3.856   3.191  14.857 -0.2834  0.4400 -0.5425
 6866SOL     OW32059   2.909   0.939   6.053  0.3651  0.4531 -0.5109
 6866SOL    HW132060   2.815   0.948   6.035  0.0929 -0.5412  0.4467
 6866SOL    HW232061   2.935   0.912   5.965  0.8591 -0.6098 -0.0407
 6867SOL     OW32062   3.103   3.474   0.526  0.0299 -0.6589 -0.8069
 6867SOL    HW132063   3.171   3.411   0.502  1.3352 -0.9222  3.5434
 6867SOL    HW232064   3.094   3.525   0.445 -1.8490  0.9206  0.3903
 6868SOL     OW32065   2.329   2.090  12.656 -0.5186 -0.1889 -0.2264
 6868SOL    HW132066   2.357   2.002  12.629  2.8545  1.1988 -1.2082
 6868SOL    HW232067   2.244   2.053  12.681 -0.1109  0.7934  2.6130
 6869SOL     OW32068   1.886   0.837   2.471  0.1625 -0.4259  0.5370
 6869SOL    HW132069   1.836   0.763   2.438  0.6906 -0.1353 -0.9039
 6869SOL    HW232070   1.956   0.791   2.518  0.2041  0.0668  0.9583
 6870SOL     OW32071   0.968   0.067   6.267  0.3391 -0.2114 -0.2925
 6870SOL    HW132072   0.964   0.043   6.175  1.2046  1.3837 -0.7434
 6870SOL    HW232073   0.964   0.162   6.267  1.8076 -0.1557  1.0044
 6871SOL     OW32074   1.497   1.169  13.444  0.0606  0.2445  0.2756
 6871SOL    HW132075   1.454   1.201  13.524 -2.0956 -1.1014 -0.3573
 6871SOL    HW232076   1.539   1.250  13.413  0.1212  0.4109  0.7876
 6872SOL     OW32077   0.793   3.359   3.358  0.1838  0.3915  0.1734
 6872SOL    HW132078   0.715   3.307   3.375 -1.2843  2.6895  0.4052
 6872SOL    HW232079   0.815   3.337   3.267 -0.7115 -0.3261  0.1391
 6873SOL     OW32080   2.098   3.506  14.970  0.0901 -0.1470  0.8210
 6873SOL    HW132081   2.014   3.461  14.964  0.1487 -0.4017  1.8475
 6873SOL    HW232082   2.115   3.534  14.880 -1.0789 -0.0084  0.6329
 6874SOL     OW32083   0.957   4.321  14.971 -0.3082 -0.3305  0.4465
 6874SOL    HW132084   0.993   4.410  14.977  1.1483 -0.9737  1.1630
 6874SOL    HW232085   0.939   4.301  15.063 -0.5771  1.1030  0.7029
 6875SOL     OW32086   3.958   1.549   8.104 -0.8331  0.3413 -0.7793
 6875SOL    HW132087   4.034   1.599   8.073  0.0916 -0.9671 -0.6684
 6875SOL    HW232088   3.978   1.529   8.196 -0.5713  1.3700 -0.6183
 6876SOL     OW32089   3.930   0.315   3.529 -0.1555  0.7471 -0.1353
 6876SOL    HW132090   3.965   0.247   3.470  0.5842  1.2919 -0.3346
 6876SOL    HW232091   3.863   0.353   3.472  0.4542 -0.0618 -1.4030
 6877SOL     OW32092   0.875   4.442   0.249  0.4933 -0.8476  0.1518
 6877SOL    HW132093   0.883   4.418   0.157  1.3805  1.0615 -0.2532
 6877SOL    HW232094   0.894   4.535   0.244  2.4202 -1.3204 -1.1900
 6878SOL     OW32095   3.637   3.647   3.617  0.1604 -0.4566 -0.8135
 6878SOL    HW132096   3.630   3.594   3.538  1.0989 -0.3945 -0.9326
 6878SOL    HW232097   3.557   3.626   3.664  0.0204 -1.5774 -1.5519
 6879SOL     OW32098   3.583   2.342   6.873 -0.1204  0.5539  0.2862
 6879SOL    HW132099   3.586   2.343   6.968 -1.3482 -0.2577  0.3434
 6879SOL    HW232100   3.489   2.326   6.863 -0.1311  0.4250  0.5990
 6880SOL     OW32101   4.305   2.173  13.227 -0.2606 -0.0636 -0.5031
 6880SOL    HW132102   4.251   2.196  13.303 -0.4076 -0.6118 -0.4431
 6880SOL    HW232103   4.379   2.133  13.272  0.4413  1.4734 -0.2655
 6881SOL     OW32104   3.291   4.552   0.342 -0.0412  0.6195  0.6103
 6881SOL    HW132105   3.283   4.464   0.305  2.1873  0.9420 -0.6483
 6881SOL    HW232106   3.258   4.545   0.432 -1.5906 -0.0475 -0.0171
 6882SOL     OW32107   1.105   2.219   6.901  0.3755 -0.2281 -0.2000
 6882SOL    HW132108   1.189   2.183   6.872  0.0994 -1.3290  0.3590
 6882SOL    HW232109   1.046   2.144   6.888  1.7506 -1.5067  0.8640
 6883SOL     OW32110   4.512   3.864   9.408 -0.5780  0.1509 -0.0478
 6883SOL    HW132111   4.449   3.834   9.473  0.0285  0.8432  0.8532
 6883SOL    HW232112   4.535   3.955   9.430  0.2282  0.3148 -1.5762
 6884SOL     OW32113   4.338   3.801   6.071 -0.1737 -0.2260  0.0675
 6884SOL    HW132114   4.390   3.843   6.002 -2.0859 -0.9672 -1.8399
 6884SOL    HW232115   4.258   3.852   6.061  0.1429  0.1280 -0.6845
 6885SOL     OW32116   3.953   4.048  17.168  0.0260  0.0101 -0.4670
 6885SOL    HW132117   3.962   4.144  17.164  2.6331 -0.2604 -1.2445
 6885SOL    HW232118   3.870   4.042  17.121 -0.3954  0.4013  0.2257
 6886SOL     OW32119   3.140   0.196   3.409  0.2924 -0.2896 -0.0394
 6886SOL    HW132120   3.213   0.204   3.347  0.2921  1.8417  0.2353
 6886SOL    HW232121   3.145   0.101   3.417  0.3443 -0.2175  0.7454
 6887SOL     OW32122   4.580   2.681   2.049 -0.0867 -0.3435 -0.0010
 6887SOL    HW132123   4.553   2.760   2.097 -0.8867 -0.1106 -0.8200
 6887SOL    HW232124   4.580   2.711   1.958 -2.3740  1.3010  0.5383
 6888SOL     OW32125   0.736   3.874   4.949  0.1996 -0.0717  0.7152
 6888SOL    HW132126   0.757   3.926   4.871  1.0360 -0.0074  0.9845
 6888SOL    HW232127   0.668   3.930   4.988  1.3269 -0.5189  3.3478
 6889SOL     OW32128   4.022   3.665   3.752  0.5686 -0.6344 -0.3844
 6889SOL    HW132129   4.101   3.679   3.804  0.0532  0.0744  0.2275
 6889SOL    HW232130   4.009   3.571   3.759  0.8382 -0.6237  0.2620
 6890SOL     OW32131   3.921   4.175   5.346  0.2572 -0.3543 -0.4419
 6890SOL    HW132132   3.833   4.160   5.311  0.7051  0.1844 -1.8099
 6890SOL    HW232133   3.905   4.170   5.440  0.2504  0.2942 -0.4081
 6891SOL     OW32134   1.930   2.642   5.782  0.4691 -0.1165  0.5861
 6891SOL    HW132135   1.908   2.712   5.843  0.8261  2.2445 -1.9813
 6891SOL    HW232136   1.875   2.658   5.705  1.2606  4.3041  0.9830
 6892SOL     OW32137   4.580   1.611   0.918 -0.0170  0.5498 -0.5318
 6892SOL    HW132138   4.648   1.676   0.939 -0.0581  0.8290 -1.2795
 6892SOL    HW232139   4.571   1.604   0.823  0.6733  0.2608 -0.5807
 6893SOL     OW32140   1.360   3.944   8.977  0.2290  0.8827 -0.0295
 6893SOL    HW132141   1.282   3.963   8.926 -0.2046  1.3928  0.8260
 6893SOL    HW232142   1.317   3.949   9.063  3.0050  1.5513  1.3205
 6894SOL     OW32143   0.694   0.103  17.278 -0.3932  0.7043  0.3128
 6894SOL    HW132144   0.670   0.169  17.343 -1.2062  1.4349 -0.7232
 6894SOL    HW232145   0.652   0.129  17.196 -1.4336 -1.1885  0.2336
 6895SOL     OW32146   4.618   3.177  13.786 -0.5014  0.1188 -0.2283
 6895SOL    HW132147   4.605   3.261  13.829 -0.5710  0.4957 -0.9852
 6895SOL    HW232148   4.695   3.143  13.831 -0.2237  0.3691 -0.5104
 6896SOL     OW32149   3.040   3.142   0.319 -0.9903 -0.3171 -0.0042
 6896SOL    HW132150   3.131   3.117   0.338 -1.1524 -1.1969 -0.3746
 6896SOL    HW232151   2.989   3.110   0.393 -1.5539  1.8864  0.5565
 6897SOL     OW32152   3.605   4.091   6.291  0.1413  0.0309 -0.0723
 6897SOL    HW132153   3.511   4.104   6.300  0.0934 -0.0965 -0.3750
 6897SOL    HW232154   3.631   4.112   6.381  1.5810 -0.6677 -0.3095
 6898SOL     OW32155   1.332   3.181   4.289  0.3967  0.6368  0.3789
 6898SOL    HW132156   1.345   3.162   4.382  1.4734  0.7417  0.2516
 6898SOL    HW232157   1.249   3.229   4.284  0.6835  1.2123  1.0732
 6899SOL     OW32158   1.904   0.464   9.642  0.2603 -0.4824 -0.2213
 6899SOL    HW132159   1.926   0.410   9.566 -1.4558 -0.3226 -0.8408
 6899SOL    HW232160   1.976   0.446   9.703  1.7053  1.0559 -1.4546
 6900SOL     OW32161   3.895   1.253   4.347  0.4063  0.4418 -0.1530
 6900SOL    HW132162   3.891   1.341   4.384  0.7175  0.3684  0.0600
 6900SOL    HW232163   3.942   1.266   4.265 -0.7013 -1.5166 -1.1209
 6901SOL     OW32164   0.098   4.301   3.222  0.1194  0.0652 -0.3585
 6901SOL    HW132165   0.136   4.286   3.309 -1.2619  2.8776  0.7192
 6901SOL    HW232166   0.166   4.350   3.175 -0.4035  0.2924 -0.8710
 6902SOL     OW32167   2.062   1.606   4.434 -0.4933  0.7696 -0.1256
 6902SOL    HW132168   2.012   1.686   4.448 -1.5096  0.1483 -0.2018
 6902SOL    HW232169   2.140   1.628   4.384 -0.0254 -2.2081 -0.7234
 6903SOL     OW32170   2.692   3.518  17.266  0.1772 -0.3175  0.3658
 6903SOL    HW132171   2.633   3.579  17.309  1.2318  1.0080 -0.0445
 6903SOL    HW232172   2.686   3.552  17.176 -0.1965  1.4365  1.0595
 6904SOL     OW32173   4.616   2.637   2.460  0.4538  0.3453  0.0980
 6904SOL    HW132174   4.654   2.551   2.445 -1.6106 -0.5160 -0.1839
 6904SOL    HW232175   4.700   2.679   2.478  0.5127  0.1869  0.1912
 6905SOL     OW32176   2.652   0.039   6.229  0.4021 -0.4036  0.3906
 6905SOL    HW132177   2.643   0.045   6.134  1.3320 -2.5151  0.1755
 6905SOL    HW232178   2.712   4.686   6.233 -0.3988 -1.0512  0.3620
 6906SOL     OW32179   2.021   3.595   4.910 -0.1080 -0.0809  0.2741
 6906SOL    HW132180   2.032   3.680   4.866  2.1003 -0.3033  0.3904
 6906SOL    HW232181   2.112   3.573   4.931 -0.0355 -0.7377 -0.7336
 6907SOL     OW32182   1.083   3.886  13.794 -0.1065  0.3909 -0.5702
 6907SOL    HW132183   1.061   3.979  13.804 -1.1422  0.2162 -1.3041
 6907SOL    HW232184   1.138   3.869  13.871 -0.1742  1.6776 -0.2305
 6908SOL     OW32185   1.437   3.673   8.913  0.4025 -0.4045  0.1096
 6908SOL    HW132186   1.367   3.658   8.850  0.9204  1.8916 -1.0003
 6908SOL    HW232187   1.388   3.715   8.983  0.8504 -0.9167  0.7387
 6909SOL     OW32188   2.350   2.210   9.072  0.9632 -0.1352 -0.2485
 6909SOL    HW132189   2.407   2.184   9.144 -1.9631 -0.1245  2.0614
 6909SOL    HW232190   2.287   2.138   9.070  0.1606  0.5775 -1.0982
 6910SOL     OW32191   2.537   3.628  11.537  0.3044  0.1946 -0.0167
 6910SOL    HW132192   2.541   3.724  11.537 -1.5499  0.2764  1.0172
 6910SOL    HW232193   2.517   3.595  11.450 -0.2843 -0.1320  0.2384
 6911SOL     OW32194   3.619   2.862   2.871  0.0254 -0.0953  0.3410
 6911SOL    HW132195   3.676   2.933   2.839  0.8842 -0.6550  0.6225
 6911SOL    HW232196   3.650   2.777   2.841  0.2769 -0.1515  0.7617
 6912SOL     OW32197   3.447   1.138   2.148  0.0348  0.0416  0.2917
 6912SOL    HW132198   3.412   1.076   2.212 -1.5016 -1.4487 -1.9901
 6912SOL    HW232199   3.539   1.140   2.175 -0.3917  3.3725  1.3863
 6913SOL     OW32200   3.730   1.413   9.614  0.3725 -0.1365  0.3339
 6913SOL    HW132201   3.781   1.354   9.559 -0.5969  0.9566 -1.7279
 6913SOL    HW232202   3.705   1.354   9.685  0.0058 -1.7630 -1.1448
 6914SOL     OW32203   1.778   3.562   7.940 -0.1160 -0.0745  0.2964
 6914SOL    HW132204   1.795   3.480   7.986  2.0683  1.1957  1.7557
 6914SOL    HW232205   1.739   3.622   8.004 -0.8565  0.3177 -0.5203
 6915SOL     OW32206   4.678   2.315   4.086 -0.0613  0.0098 -0.2470
 6915SOL    HW132207   4.600   2.338   4.035 -0.5156 -2.0687 -0.4875
 6915SOL    HW232208   4.652   2.336   4.176 -0.2416 -0.3857 -0.2053
 6916SOL     OW32209   3.316   2.218   2.654 -0.4008  0.0093 -0.4319
 6916SOL    HW132210   3.279   2.279   2.718  1.5022 -0.9901  1.6159
 6916SOL    HW232211   3.241   2.158   2.651 -1.3054  1.0457  1.3427
 6917SOL     OW32212   1.585   1.741   7.559 -0.6791 -0.1513  0.4895
 6917SOL    HW132213   1.513   1.745   7.623 -2.1507  0.8617 -1.2339
 6917SOL    HW232214   1.659   1.752   7.619  0.6451 -0.4939 -1.0989
 6918SOL     OW32215   2.473   2.450  11.745  0.2977  0.9063  0.0095
 6918SOL    HW132216   2.560   2.490  11.741 -0.4604  2.4892 -0.5887
 6918SOL    HW232217   2.433   2.499  11.816 -0.2629  0.4590 -0.0021
 6919SOL     OW32218   3.526   2.033   6.444  0.3610  0.4424 -0.5909
 6919SOL    HW132219   3.484   2.032   6.530  1.1889  1.8574 -0.1673
 6919SOL    HW232220   3.620   2.025   6.462 -0.0557 -0.6058  1.1373
 6920SOL     OW32221   2.188   0.954   1.346 -0.2374  0.2995  0.6340
 6920SOL    HW132222   2.241   0.880   1.315  1.9995  0.9790  2.8039
 6920SOL    HW232223   2.250   1.024   1.328  0.0984 -0.4542 -1.1479
 6921SOL     OW32224   2.894   4.450  13.530  0.8229  0.5341  0.3943
 6921SOL    HW132225   2.802   4.439  13.506  0.6916  0.2777  0.9995
 6921SOL    HW232226   2.916   4.357  13.534 -2.7694 -0.2622  1.1258
 6922SOL     OW32227   4.397   4.290  11.903 -0.3812 -0.1774 -0.4640
 6922SOL    HW132228   4.368   4.351  11.971  1.0372 -0.1538  0.1044
 6922SOL    HW232229   4.367   4.340  11.827  1.2562 -0.7656 -1.4887
 6923SOL     OW32230   4.039   2.099   3.578  0.3026  0.1832  0.3201
 6923SOL    HW132231   3.950   2.117   3.547  0.1575  1.7843  1.6327
 6923SOL    HW232232   4.061   2.182   3.621 -1.0388  2.5175 -3.5081
 6924SOL     OW32233   0.409   1.817  14.369  0.3455 -0.5344 -0.2888
 6924SOL    HW132234   0.491   1.768  14.366  0.9098  0.4475 -1.0296
 6924SOL    HW232235   0.349   1.744  14.384 -1.1561  1.0252  1.3735
 6925SOL     OW32236   0.495   1.275   7.253 -0.4018  0.8872 -0.3855
 6925SOL    HW132237   0.529   1.216   7.185 -0.1780 -1.0353  1.3971
 6925SOL    HW232238   0.575   1.294   7.302 -1.4073  0.5467  1.3551
 6926SOL     OW32239   0.812   2.884  11.520 -0.2054  0.2059 -0.0998
 6926SOL    HW132240   0.779   2.795  11.508 -1.3313  0.4047  1.5137
 6926SOL    HW232241   0.744   2.921  11.577  0.1450 -0.2381  0.6034
 6927SOL     OW32242   3.023   0.355   7.986  0.5749  0.6053  0.2859
 6927SOL    HW132243   2.991   0.441   7.960  1.2472  0.8611  0.3055
 6927SOL    HW232244   3.027   0.375   8.079 -0.2200 -1.3777  0.7455
 6928SOL     OW32245   2.104   2.074   8.170 -0.4054 -0.2590  0.2769
 6928SOL    HW132246   2.029   2.051   8.115  0.7868  1.0888 -1.9588
 6928SOL    HW232247   2.086   2.157   8.215 -2.0958 -0.4258 -0.1056
 6929SOL     OW32248   4.356   4.363   1.145  0.0899 -0.0063  0.5371
 6929SOL    HW132249   4.428   4.328   1.197  0.8281 -1.8608 -1.7538
 6929SOL    HW232250   4.371   4.457   1.151 -1.2722  0.2509 -0.0933
 6930SOL     OW32251   1.657   2.465   8.245  0.2921  0.8232 -0.0306
 6930SOL    HW132252   1.562   2.459   8.257  0.1186 -0.3230 -1.8912
 6930SOL    HW232253   1.696   2.418   8.319  0.9003  0.1517 -0.7832
 6931SOL     OW32254   0.327   2.094  11.864  0.0629  0.1914  0.1479
 6931SOL    HW132255   0.235   2.111  11.845  0.2360 -1.0547 -1.8115
 6931SOL    HW232256   0.371   2.094  11.779 -0.1738 -3.2189  0.0554
 6932SOL     OW32257   0.323   4.258   0.774  0.4527 -0.1423 -0.5546
 6932SOL    HW132258   0.323   4.305   0.691  0.8497 -2.2499 -1.7407
 6932SOL    HW232259   0.382   4.303   0.834  1.1386 -0.2436 -1.1654
 6933SOL     OW32260   3.059   0.884   7.929  0.1581  0.2015 -0.1163
 6933SOL    HW132261   3.082   0.960   7.875  2.2642 -2.1879 -2.5889
 6933SOL    HW232262   3.116   0.893   8.005  1.6222  1.6683 -1.3729
 6934SOL     OW32263   4.044   0.202   6.278 -0.2528 -0.0262 -0.9806
 6934SOL    HW132264   4.101   0.174   6.350 -1.2498  0.2747 -0.0739
 6934SOL    HW232265   3.965   0.153   6.300  0.0966 -0.2662 -0.2523
 6935SOL     OW32266   1.243   2.072   6.334 -0.9744  0.1186 -0.4771
 6935SOL    HW132267   1.318   2.124   6.362 -0.5223 -1.1230  0.6292
 6935SOL    HW232268   1.173   2.128   6.367 -1.7471 -1.8655  1.2601
 6936SOL     OW32269   2.185   4.223   2.635  0.0193  0.6629  0.0275
 6936SOL    HW132270   2.172   4.149   2.693 -1.8652 -0.2031 -1.5049
 6936SOL    HW232271   2.260   4.189   2.585 -2.4692 -1.0105 -2.5509
 6937SOL     OW32272   2.909   3.495   8.253 -0.1331  0.0131  0.0978
 6937SOL    HW132273   2.968   3.465   8.322  0.5732 -0.6253 -0.7903
 6937SOL    HW232274   2.964   3.469   8.178  1.8106  2.2422  0.7272
 6938SOL     OW32275   1.703   4.439  11.842  0.6042  0.0478 -0.0645
 6938SOL    HW132276   1.649   4.513  11.870  1.5032  0.5598  0.3132
 6938SOL    HW232277   1.690   4.431  11.747 -1.1794 -0.0025  0.1755
 6939SOL     OW32278   2.010   4.138  15.834  0.1697  0.3788 -0.5538
 6939SOL    HW132279   1.994   4.225  15.871 -1.7216 -0.7738  1.3063
 6939SOL    HW232280   1.954   4.141  15.757  0.8057  0.0581 -1.0310
 6940SOL     OW32281   3.992   4.320  17.216  0.4521 -0.5136 -0.9518
 6940SOL    HW132282   3.978   4.342  17.308 -0.5439 -0.8782 -1.0174
 6940SOL    HW232283   3.958   4.397  17.170 -0.9594 -0.5350  0.0286
 6941SOL     OW32284   4.126   4.003   8.537  0.0534  0.1121 -0.1838
 6941SOL    HW132285   4.129   4.095   8.510 -0.5910  0.8616  2.2676
 6941SOL    HW232286   4.210   3.969   8.508 -0.4439 -0.1723 -1.2845
 6942SOL     OW32287   3.187   0.285   7.086  0.1674 -0.9170  0.7672
 6942SOL    HW132288   3.119   0.219   7.099 -1.8387  1.2791  1.3933
 6942SOL    HW232289   3.163   0.306   6.996  0.3082 -3.0301  0.2453
 6943SOL     OW32290   2.138   3.952   8.953 -0.5785 -0.3632  0.1934
 6943SOL    HW132291   2.133   3.943   8.858  0.4259 -2.0355  0.2954
 6943SOL    HW232292   2.056   4.000   8.962 -0.3928 -0.0376  0.1354
 6944SOL     OW32293   2.724   4.506   1.986 -0.1596  0.0430  0.3997
 6944SOL    HW132294   2.747   4.437   1.924 -1.6484  0.2308 -0.3786
 6944SOL    HW232295   2.796   4.509   2.049  0.0044  1.0812  0.1669
 6945SOL     OW32296   3.108   2.486  12.024 -0.0236  0.1511  0.4602
 6945SOL    HW132297   3.110   2.391  12.040  0.1661  0.2802  1.2160
 6945SOL    HW232298   3.124   2.483  11.930  0.0742  2.4010  0.4074
 6946SOL     OW32299   4.458   2.615   9.028  0.1491  0.2272  0.0342
 6946SOL    HW132300   4.433   2.653   8.943 -0.5472 -1.0118 -0.3095
 6946SOL    HW232301   4.524   2.668   9.073  0.4468 -0.0603 -0.0706
 6947SOL     OW32302   1.871   0.881   3.668 -0.4354 -0.2502 -0.5075
 6947SOL    HW132303   1.919   0.959   3.695  2.6246 -2.2709 -0.1027
 6947SOL    HW232304   1.822   0.868   3.750  2.3720  0.6970  1.3289
 6948SOL     OW32305   3.554   3.582  11.253  0.3490  0.3476  0.0085
 6948SOL    HW132306   3.525   3.661  11.208 -0.1743  0.8359  1.1943
 6948SOL    HW232307   3.539   3.596  11.347 -1.4933  1.2131 -0.4102
 6949SOL     OW32308   2.642   1.250   2.129  0.8382 -0.2128 -0.2656
 6949SOL    HW132309   2.576   1.319   2.136  0.4245 -0.5221 -1.1094
 6949SOL    HW232310   2.642   1.221   2.038  0.1768  1.6477 -0.8654
 6950SOL     OW32311   3.644   0.081   3.323  0.3902  0.7538  0.2052
 6950SOL    HW132312   3.637   0.119   3.235 -2.4655 -1.3989 -0.4946
 6950SOL    HW232313   3.733   0.103   3.349  0.1889  3.1960 -1.1454
 6951SOL     OW32314   3.008   0.991   6.553  0.4054  0.0243  0.1272
 6951SOL    HW132315   3.024   0.945   6.471  1.2959  0.5061  0.0328
 6951SOL    HW232316   3.026   1.084   6.534 -0.4611 -0.1100 -1.3400
 6952SOL     OW32317   2.114   4.508   5.784 -0.7538 -0.3266 -0.8646
 6952SOL    HW132318   2.096   4.601   5.768  1.8686  0.3745  0.2567
 6952SOL    HW232319   2.172   4.521   5.859 -0.3087  1.4295 -1.5131
 6953SOL     OW32320   2.930   0.335   7.461  0.5519 -0.0785  0.5495
 6953SOL    HW132321   3.026   0.338   7.471  0.6932  0.9072 -1.0132
 6953SOL    HW232322   2.909   0.253   7.506  1.0424 -0.7692 -0.4921
 6954SOL     OW32323   0.602   1.996   7.937 -0.1072  0.1984 -0.5961
 6954SOL    HW132324   0.634   1.910   7.965  0.1057  1.0239  1.7172
 6954SOL    HW232325   0.663   2.029   7.871 -0.2448  0.0184 -0.8132
 6955SOL     OW32326   1.752   1.799  15.319  0.1216 -0.5162  0.4563
 6955SOL    HW132327   1.808   1.725  15.296  0.0212 -0.3881 -0.2060
 6955SOL    HW232328   1.662   1.776  15.294  0.1687 -0.5905  0.3574
 6956SOL     OW32329   0.142   1.808   7.549 -0.1057 -0.2057  0.0263
 6956SOL    HW132330   0.201   1.851   7.610 -0.9487  0.6347  0.2425
 6956SOL    HW232331   0.060   1.811   7.598  0.1266 -0.7291  0.4546
 6957SOL     OW32332   0.806   2.581   1.496  0.4122 -0.3664  0.5028
 6957SOL    HW132333   0.719   2.621   1.490  0.1566 -1.0750 -0.4943
 6957SOL    HW232334   0.779   2.548   1.582 -0.1463 -2.3600 -0.4429
 6958SOL     OW32335   1.852   3.722   3.137 -0.2745  0.0879 -0.8652
 6958SOL    HW132336   1.813   3.719   3.050 -1.0321  1.6616 -0.5806
 6958SOL    HW232337   1.933   3.763   3.107  2.0207 -1.6517  2.9428
 6959SOL     OW32338   1.323   2.115   4.836  0.3466 -0.4053  0.4588
 6959SOL    HW132339   1.234   2.142   4.861 -0.2055 -4.0270  2.4697
 6959SOL    HW232340   1.374   2.108   4.916  0.2216 -0.0144  0.5747
 6960SOL     OW32341   4.109   2.666   5.894 -0.0645  0.1145 -0.2143
 6960SOL    HW132342   4.110   2.571   5.894 -1.1402  0.1195 -3.0686
 6960SOL    HW232343   4.195   2.682   5.932 -1.3199 -0.0668  2.7199
 6961SOL     OW32344   4.475   4.690   8.869 -0.0969  0.6568 -0.4712
 6961SOL    HW132345   4.476   0.046   8.814 -1.4601  0.9604 -0.0710
 6961SOL    HW232346   4.547   4.638   8.834 -0.2036  0.4738 -0.4200
 6962SOL     OW32347   0.300   0.301   5.791 -0.0980 -0.4343 -0.4978
 6962SOL    HW132348   0.263   0.251   5.718 -0.2807 -1.0933  0.0409
 6962SOL    HW232349   0.322   0.383   5.747 -1.8279 -0.5501 -1.5560
 6963SOL     OW32350   4.465   0.215  12.570  0.4083  0.2771  0.0317
 6963SOL    HW132351   4.449   0.291  12.627  0.2072 -0.4356  0.9275
 6963SOL    HW232352   4.536   0.250  12.516  0.0149  1.5346  0.3256
 6964SOL     OW32353   2.674   3.916   1.555 -0.0614  0.0653 -0.0862
 6964SOL    HW132354   2.680   3.934   1.461 -0.7489 -2.1293 -0.5513
 6964SOL    HW232355   2.751   3.864   1.576  1.2281  0.8654 -2.8655
 6965SOL     OW32356   1.852   0.300   8.269 -0.0674  0.1046 -0.1711
 6965SOL    HW132357   1.911   0.225   8.276  0.4859  0.4312 -1.4730
 6965SOL    HW232358   1.866   0.327   8.360  0.7508  3.0653 -1.1684
 6966SOL     OW32359   0.703   0.871   7.692 -0.1100 -0.0478 -0.4465
 6966SOL    HW132360   0.742   0.893   7.776 -0.7825 -0.3148 -0.0644
 6966SOL    HW232361   0.673   0.783   7.714 -1.9466  0.7942  0.4297
 6967SOL     OW32362   3.840   2.407   5.826  0.8498  0.1223 -0.1348
 6967SOL    HW132363   3.807   2.478   5.771 -0.5924 -1.3440 -1.1466
 6967SOL    HW232364   3.779   2.338   5.802  2.0579  0.1814 -3.3995
 6968SOL     OW32365   1.254   4.448  11.646 -0.5459  0.2782 -0.1388
 6968SOL    HW132366   1.283   4.386  11.713 -2.5864 -2.0498 -1.4108
 6968SOL    HW232367   1.251   4.516  11.714 -1.1425  2.4735 -2.3589
 6969SOL     OW32368   4.720   2.610  15.989 -0.3166  0.5523 -0.4034
 6969SOL    HW132369   4.719   2.703  16.013 -1.0608  0.1384  1.1885
 6969SOL    HW232370   0.090   2.600  15.963 -0.5566  0.7568 -1.3266
 6970SOL     OW32371   3.348   3.111   3.750 -0.8295  0.2960  0.2434
 6970SOL    HW132372   3.326   3.105   3.657 -0.5601 -0.3445  0.2218
 6970SOL    HW232373   3.331   3.204   3.767 -1.2200  0.5095 -1.3435
 6971SOL     OW32374   3.780   0.354  17.534 -0.0593  0.0413 -0.9069
 6971SOL    HW132375   3.695   0.394  17.516  0.0151  0.3634 -0.5356
 6971SOL    HW232376   3.831   0.432  17.515  0.9322 -0.0612  1.4631
 6972SOL     OW32377   2.578   2.655  11.026 -0.3005  0.5126  0.0709
 6972SOL    HW132378   2.523   2.733  11.027  0.3313  0.9482  1.7190
 6972SOL    HW232379   2.511   2.587  11.033 -0.9846  1.0571 -1.3238
 6973SOL     OW32380   2.257   4.442  11.514 -0.3506 -0.1914  0.8537
 6973SOL    HW132381   2.313   4.520  11.516 -2.0315  1.0350  0.1277
 6973SOL    HW232382   2.317   4.377  11.478 -0.7918  0.4533 -1.0162
 6974SOL     OW32383   0.387   0.618   4.874  0.4562  0.3278  0.4213
 6974SOL    HW132384   0.294   0.595   4.879  0.4835 -0.2323 -1.7690
 6974SOL    HW232385   0.419   0.530   4.892 -0.4179  0.5305  2.9388
 6975SOL     OW32386   2.587   2.152   5.403 -0.0940  0.7595 -0.5046
 6975SOL    HW132387   2.567   2.059   5.392 -1.6672  1.1177 -0.6187
 6975SOL    HW232388   2.640   2.168   5.325  0.7292 -0.4371 -0.2021
 6976SOL     OW32389   0.803   0.342   5.174  0.4678 -0.3787 -0.5996
 6976SOL    HW132390   0.762   0.266   5.132 -0.6961  0.8981 -1.7494
 6976SOL    HW232391   0.800   0.316   5.266  0.6100 -0.0842 -0.5124
 6977SOL     OW32392   0.780   2.693   2.892 -0.0669  0.3786  0.2265
 6977SOL    HW132393   0.830   2.680   2.973 -1.1629  0.6433  0.9418
 6977SOL    HW232394   0.812   2.628   2.830 -0.8313  0.2251 -0.0056
 6978SOL     OW32395   1.347   3.410   4.497 -0.7042  0.0710 -0.1208
 6978SOL    HW132396   1.358   3.318   4.521 -0.2998  0.4545  1.1795
 6978SOL    HW232397   1.255   3.414   4.520 -1.3998  0.2713 -2.9855
 6979SOL     OW32398   3.748   4.485   7.579 -0.3270  0.3584  0.5964
 6979SOL    HW132399   3.798   4.486   7.661 -1.8856  0.0008  1.5571
 6979SOL    HW232400   3.812   4.505   7.511 -1.2095 -0.1048 -0.3641
 6980SOL     OW32401   1.891   3.738  13.270  0.1174  0.4657  0.6550
 6980SOL    HW132402   1.799   3.760  13.284  0.0808  0.9309 -0.3652
 6980SOL    HW232403   1.902   3.648  13.302  0.6675 -0.2064 -1.4025
 6981SOL     OW32404   3.412   0.310  17.312  0.1962 -0.1740 -0.6980
 6981SOL    HW132405   3.439   0.233  17.362 -0.4036  0.6235  0.8490
 6981SOL    HW232406   3.341   0.349  17.363 -0.8967 -2.7654 -0.2637
 6982SOL     OW32407   2.654   1.731   9.139  0.0388  0.1712 -0.3712
 6982SOL    HW132408   2.562   1.757   9.133  0.4855  2.0360  1.2360
 6982SOL    HW232409   2.695   1.739   9.053  0.6291 -0.8033 -0.1883
 6983SOL     OW32410   1.528   0.611  13.517 -0.3537 -0.6592  0.1239
 6983SOL    HW132411   1.520   0.685  13.577  0.0579 -0.5205  0.0032
 6983SOL    HW232412   1.582   0.553  13.571  0.3077 -0.3536 -0.2107
 6984SOL     OW32413   1.857   1.137  12.779 -0.0912 -0.1886  0.6038
 6984SOL    HW132414   1.949   1.155  12.760 -0.1471 -0.4554  0.0950
 6984SOL    HW232415   1.844   1.057  12.728  0.4198 -0.2200  0.5258
 6985SOL     OW32416   3.527   0.387   3.769  0.1242 -0.3229  0.2125
 6985SOL    HW132417   3.619   0.360   3.773  0.5632  1.4387  2.4029
 6985SOL    HW232418   3.525   0.428   3.683 -0.0194  2.7880  1.6895
 6986SOL     OW32419   2.859   1.917   3.385 -0.0171  0.0140 -0.1224
 6986SOL    HW132420   2.813   1.956   3.310 -1.1505  1.9930  1.6069
 6986SOL    HW232421   2.832   1.826   3.372  1.1329 -0.3075 -0.2582
 6987SOL     OW32422   2.907   0.444  13.610  0.4418 -0.2089 -0.0833
 6987SOL    HW132423   2.847   0.460  13.537  0.7995  0.3938 -0.2397
 6987SOL    HW232424   2.972   0.511  13.591  0.6245  0.0788  1.6163
 6988SOL     OW32425   1.621   3.032   0.752 -0.1702 -0.0598  0.1380
 6988SOL    HW132426   1.528   3.054   0.749 -0.4152 -1.0905  0.1153
 6988SOL    HW232427   1.631   2.946   0.793  2.7371  1.4703  2.6930
 6989SOL     OW32428   2.913   3.626   8.812 -0.4933  0.6278  0.3735
 6989SOL    HW132429   2.969   3.622   8.889  0.8683  0.9709 -0.5928
 6989SOL    HW232430   2.847   3.559   8.829 -1.0025  1.0345  0.0274
 6990SOL     OW32431   0.711   0.658  13.063  0.0707 -0.8544 -0.2800
 6990SOL    HW132432   0.800   0.680  13.035  0.4902 -1.8956  0.2325
 6990SOL    HW232433   0.671   0.743  13.044  1.0343 -0.3424  0.0196
 6991SOL     OW32434   1.453   1.622  16.351 -0.2520 -0.0727  0.6297
 6991SOL    HW132435   1.477   1.583  16.435  0.2823  0.9549  0.9592
 6991SOL    HW232436   1.413   1.707  16.370 -3.0998 -1.0361 -0.9461
 6992SOL     OW32437   2.929   1.327   0.135  0.2253  0.5666  0.1749
 6992SOL    HW132438   2.866   1.351   0.204  0.0046  1.9539 -0.4967
 6992SOL    HW232439   2.979   1.258   0.178  1.7882  0.6190 -1.5958
 6993SOL     OW32440   3.256   0.495   6.245  0.1961  0.2568 -0.3157
 6993SOL    HW132441   3.245   0.482   6.339  0.5271  2.4065  0.0175
 6993SOL    HW232442   3.319   0.434   6.206  1.2384  1.5854 -0.6757
 6994SOL     OW32443   1.263   2.730  12.893  0.0561 -0.2670  0.3832
 6994SOL    HW132444   1.224   2.774  12.818  0.2013  1.1501  1.1261
 6994SOL    HW232445   1.290   2.800  12.952  1.1886 -0.1329 -0.2999
 6995SOL     OW32446   4.474   0.985   0.331  0.3021  0.0702 -0.0779
 6995SOL    HW132447   4.560   0.971   0.370  0.6491  2.9552  0.1615
 6995SOL    HW232448   4.491   1.042   0.256 -2.4237  0.1689 -0.6303
 6996SOL     OW32449   2.946   3.863  11.414 -0.3529  0.4639  0.6373
 6996SOL    HW132450   2.951   3.850  11.509  0.1160  1.1209  0.7077
 6996SOL    HW232451   3.010   3.799  11.383 -0.7713  0.5439 -0.3857
 6997SOL     OW32452   4.328   3.772  16.094  0.2333 -0.5882  0.1565
 6997SOL    HW132453   4.267   3.831  16.138  1.1367 -0.8068  1.7050
 6997SOL    HW232454   4.403   3.766  16.153  1.1069 -0.2142 -0.9178
 6998SOL     OW32455   2.888   2.964   7.299  0.8301 -0.9754 -0.1553
 6998SOL    HW132456   2.868   3.025   7.228 -1.6042 -1.4407  0.1435
 6998SOL    HW232457   2.820   2.898   7.288 -0.6516  0.7701 -1.5750
 6999SOL     OW32458   1.583   3.089   1.914 -0.2657  0.7899  0.1904
 6999SOL    HW132459   1.622   3.172   1.940  0.8759  0.8440 -1.6835
 6999SOL    HW232460   1.515   3.126   1.858 -1.7230 -1.6681  0.3103
 7000SOL     OW32461   4.237   3.454   5.876 -0.0966 -0.2322 -0.0555
 7000SOL    HW132462   4.312   3.463   5.935  0.4048  1.1052 -0.8729
 7000SOL    HW232463   4.280   3.411   5.802  0.1952  1.1945 -0.7377
 7001SOL     OW32464   1.540   4.493   1.826  0.1829 -0.7372 -0.1088
 7001SOL    HW132465   1.458   4.443   1.828 -0.1363 -0.2770 -1.9534
 7001SOL    HW232466   1.581   4.453   1.750 -0.7649 -0.1149 -0.9581
 7002SOL     OW32467   1.920   4.580   2.609 -0.3178 -0.3412 -0.0762
 7002SOL    HW132468   1.895   4.672   2.617 -1.0197 -0.2336 -3.5060
 7002SOL    HW232469   1.856   4.560   2.541  0.0518  1.8833 -1.0628
 7003SOL     OW32470   4.718   2.914   6.748 -0.0789  0.3845  0.0583
 7003SOL    HW132471   0.081   2.874   6.767 -0.7646  0.1574  2.6455
 7003SOL    HW232472   4.670   2.894   6.829  2.4146 -2.2366  0.9006
 7004SOL     OW32473   3.645   4.289  16.612  0.4158  0.5509 -0.2820
 7004SOL    HW132474   3.684   4.236  16.543  0.7231  0.6687 -0.1961
 7004SOL    HW232475   3.561   4.245  16.600  1.5355 -0.6899 -3.5442
 7005SOL     OW32476   4.476   0.389   4.143 -0.0211 -0.4839 -0.5180
 7005SOL    HW132477   4.494   0.333   4.218 -0.8572 -0.7964 -0.5542
 7005SOL    HW232478   4.382   0.396   4.158  0.3713  1.1300  1.1866
 7006SOL     OW32479   1.592   4.371   1.611  0.4085  0.1064 -0.8022
 7006SOL    HW132480   1.594   4.457   1.568 -2.0620  0.0210 -1.1058
 7006SOL    HW232481   1.510   4.327   1.587  0.2818 -0.2999  0.3692
 7007SOL     OW32482   3.517   0.933   1.360  0.4029 -0.4990 -0.3473
 7007SOL    HW132483   3.504   0.901   1.271  2.3904  0.2873 -0.9118
 7007SOL    HW232484   3.423   0.945   1.376  0.2494  0.4501 -1.9678
 7008SOL     OW32485   3.199   4.671   4.553  0.1766 -0.2987 -0.1374
 7008SOL    HW132486   3.201   4.666   4.458  1.0417 -0.3997 -0.1071
 7008SOL    HW232487   3.261   0.017   4.580  0.2167 -0.4588  0.1722
 7009SOL     OW32488   2.379   2.545  17.638 -0.2984 -0.5416 -0.2290
 7009SOL    HW132489   2.413   2.458  17.659 -2.1976 -1.4079 -0.8050
 7009SOL    HW232490   2.309   2.503  17.588 -0.2243 -0.2145 -0.6126
 7010SOL     OW32491   3.528   2.394   4.077  0.6496  0.2877 -0.5250
 7010SOL    HW132492   3.571   2.316   4.040 -1.6304 -1.7389  1.1547
 7010SOL    HW232493   3.456   2.360   4.130  0.9647  0.3754 -0.0391
 7011SOL     OW32494   4.250   3.207  11.898  0.0346  0.2365  0.1684
 7011SOL    HW132495   4.174   3.233  11.949 -1.2017 -1.2134 -0.9393
 7011SOL    HW232496   4.308   3.190  11.973 -0.3326  0.4525  0.4997
 7012SOL     OW32497   2.859   1.899   1.529  0.2108 -0.3413  0.1536
 7012SOL    HW132498   2.848   1.920   1.621  1.3953  1.0630 -0.0426
 7012SOL    HW232499   2.774   1.856   1.518 -0.7497  0.9653  2.5873
 7013SOL     OW32500   1.178   4.082   5.300 -0.8699  0.6276  0.3481
 7013SOL    HW132501   1.262   4.117   5.272  1.1553 -3.1031  1.8526
 7013SOL    HW232502   1.161   4.009   5.239  1.0425  0.5811 -0.1155
 7014SOL     OW32503   3.302   0.268   9.384 -0.5305 -0.0137  0.2131
 7014SOL    HW132504   3.233   0.213   9.422  0.5732 -0.2056  1.9578
 7014SOL    HW232505   3.252   0.348   9.369  1.3556  1.3782  1.3614
 7015SOL     OW32506   1.115   2.287   3.485  0.0678 -0.3915 -0.1601
 7015SOL    HW132507   1.126   2.380   3.506  1.4211 -0.7080  0.5188
 7015SOL    HW232508   1.202   2.255   3.461  0.4751  0.5298  0.0915
 7016SOL     OW32509   2.648   0.150   2.034 -0.1413  0.4132 -0.2021
 7016SOL    HW132510   2.741   0.129   2.041 -0.6762 -1.4854  1.2557
 7016SOL    HW232511   2.637   0.153   2.130  0.4622  1.9843 -0.1914
 7017SOL     OW32512   2.329   0.606   1.554 -0.6083 -0.0433  0.8270
 7017SOL    HW132513   2.398   0.540   1.558  0.7168  1.1919 -1.8198
 7017SOL    HW232514   2.285   0.592   1.637  1.3213 -2.4701  1.4463
 7018SOL     OW32515   2.747   3.662   2.940  0.1249 -0.5922 -0.0746
 7018SOL    HW132516   2.675   3.610   2.903  0.4494 -0.1292 -1.3874
 7018SOL    HW232517   2.712   3.697   3.022  0.9297 -0.1742  0.0943
 7019SOL     OW32518   3.132   1.110   2.370 -0.4676 -0.1102  0.2417
 7019SOL    HW132519   3.081   1.106   2.290 -0.3739  1.4673  0.0898
 7019SOL    HW232520   3.060   1.099   2.432 -0.3969  1.2042  0.5734
 7020SOL     OW32521   4.053   1.441   3.693 -0.0226 -0.2927 -0.3084
 7020SOL    HW132522   4.106   1.489   3.630  1.6300 -2.9406 -0.9447
 7020SOL    HW232523   4.114   1.367   3.705  1.7054  1.2879  0.6153
 7021SOL     OW32524   3.469   1.442   5.663 -0.3427  0.1635 -0.1481
 7021SOL    HW132525   3.519   1.369   5.701 -0.0618  0.8191  0.7522
 7021SOL    HW232526   3.399   1.425   5.726 -1.4121 -1.8657 -1.9227
 7022SOL     OW32527   1.595   4.189  11.840  0.1489 -0.0965  0.0047
 7022SOL    HW132528   1.656   4.258  11.867  1.5556 -0.7122 -1.5987
 7022SOL    HW232529   1.639   4.146  11.766 -0.4106 -1.6037  0.5333
 7023SOL     OW32530   4.351   4.449   2.821  0.2834 -0.1330  0.0899
 7023SOL    HW132531   4.442   4.452   2.791  0.1663  0.2232 -0.2273
 7023SOL    HW232532   4.339   4.359   2.850 -3.6158 -0.1754 -1.6948
 7024SOL     OW32533   0.857   2.232   2.383 -0.8310  0.0347 -0.7058
 7024SOL    HW132534   0.950   2.229   2.406 -0.4934 -1.3663 -2.2888
 7024SOL    HW232535   0.858   2.209   2.291  1.8070  1.3129 -0.9937
 7025SOL     OW32536   0.557   1.575   8.169 -0.1627 -0.0927 -0.1509
 7025SOL    HW132537   0.465   1.583   8.193  0.0075  0.0918  0.4573
 7025SOL    HW232538   0.583   1.666   8.184 -1.5464  0.4167 -0.8679
 7026SOL     OW32539   2.987   0.600   9.513  0.0571  0.5474  0.1375
 7026SOL    HW132540   2.954   0.520   9.554 -0.8756  0.6153 -0.4757
 7026SOL    HW232541   2.919   0.663   9.535  0.3737  0.6857  0.7108
 7027SOL     OW32542   4.550   2.291   8.338  0.1692 -0.1383  0.0961
 7027SOL    HW132543   4.461   2.300   8.371 -0.3626  0.8896 -1.5924
 7027SOL    HW232544   4.537   2.212   8.285 -1.2188 -0.8067  1.4368
 7028SOL     OW32545   3.708   3.998   3.281  0.7417 -0.0586 -0.4425
 7028SOL    HW132546   3.655   4.078   3.279 -2.3584 -2.1542 -2.3725
 7028SOL    HW232547   3.674   3.957   3.360 -1.9097 -0.8078 -1.9758
 7029SOL     OW32548   4.674   4.440   4.221  0.0932 -0.1074 -1.0005
 7029SOL    HW132549   4.624   4.384   4.162  1.8304 -1.6798 -0.9741
 7029SOL    HW232550   0.018   4.381   4.258  0.0740 -0.0914 -0.9417
 7030SOL     OW32551   1.657   1.949   0.467 -0.4620  0.6761 -0.6618
 7030SOL    HW132552   1.639   1.940   0.560 -0.6925 -0.9468 -0.8614
 7030SOL    HW232553   1.640   1.857   0.449  1.2509 -0.0775  1.5810
 7031SOL     OW32554   2.813   0.187   5.235 -0.0709  0.6161 -0.0705
 7031SOL    HW132555   2.783   0.153   5.151 -0.1137  2.9879 -1.0121
 7031SOL    HW232556   2.807   0.280   5.211  0.7832 -0.2890 -3.6807
 7032SOL     OW32557   0.163   3.665   2.373 -0.2010 -0.5002  0.4159
 7032SOL    HW132558   0.114   3.585   2.357  0.3507 -0.4478 -1.5781
 7032SOL    HW232559   0.109   3.735   2.335 -0.4609 -0.8300  0.1828
 7033SOL     OW32560   2.200   3.223   0.528 -0.4657  0.1920 -0.1681
 7033SOL    HW132561   2.204   3.296   0.466  1.0692  0.6218  0.4159
 7033SOL    HW232562   2.246   3.257   0.605 -0.6683  1.1264 -0.4623
 7034SOL     OW32563   4.219   2.613   6.267 -0.0319 -0.0607 -0.2630
 7034SOL    HW132564   4.247   2.674   6.336  1.2676  0.0339 -0.8933
 7034SOL    HW232565   4.124   2.623   6.254 -0.0733  0.3704  0.3432
 7035SOL     OW32566   0.111   1.571   7.951  0.0987  0.0526  0.1976
 7035SOL    HW132567   0.085   1.480   7.937  2.2514 -0.5721  0.3373
 7035SOL    HW232568   0.077   1.577   8.040  1.0808 -2.4549  0.7272
 7036SOL     OW32569   0.720   2.470   8.610  0.5212  0.0598  0.1595
 7036SOL    HW132570   0.664   2.408   8.657 -0.5291  2.3408  1.8858
 7036SOL    HW232571   0.671   2.550   8.626  0.3648  0.1154 -0.5637
 7037SOL     OW32572   0.966   3.634   9.751  1.0813 -0.3813  0.1783
 7037SOL    HW132573   1.040   3.591   9.709  0.6506 -0.3146 -0.6437
 7037SOL    HW232574   0.927   3.682   9.678  0.9227 -2.1710 -0.9165
 7038SOL     OW32575   0.025   2.436   3.607 -0.3758  0.1791 -0.2777
 7038SOL    HW132576   4.697   2.383   3.670 -1.7868 -0.5841 -2.0118
 7038SOL    HW232577   0.013   2.375   3.534  1.2058 -1.1334  0.5747
 7039SOL     OW32578   1.902   0.215   4.073 -0.4108  0.4683  0.0966
 7039SOL    HW132579   1.896   0.215   4.168 -0.0325  1.9524  0.1190
 7039SOL    HW232580   1.813   0.189   4.046 -0.4774  1.0313 -0.2256
 7040SOL     OW32581   0.816   2.034  14.637  0.3773 -0.0462  0.2029
 7040SOL    HW132582   0.741   2.008  14.585  0.7219  1.0233 -0.8277
 7040SOL    HW232583   0.829   1.963  14.699 -1.1667 -0.6109 -0.1319
 7041SOL     OW32584   0.674   4.442   6.345 -0.6727 -0.3033  0.2811
 7041SOL    HW132585   0.726   4.421   6.268 -0.1831 -0.9039  0.7798
 7041SOL    HW232586   0.737   4.496   6.392 -0.0437  0.5006 -1.4556
 7042SOL     OW32587   4.264   3.021   5.598  0.1254  0.8928 -0.3469
 7042SOL    HW132588   4.316   2.945   5.621 -0.1992  0.9946  0.7181
 7042SOL    HW232589   4.209   2.996   5.524  2.0101 -0.8395 -1.1568
 7043SOL     OW32590   0.891   2.358   5.617 -0.0390 -0.3731 -0.2445
 7043SOL    HW132591   0.968   2.316   5.655  1.0662  1.2428 -0.6705
 7043SOL    HW232592   0.926   2.365   5.528  1.2705  2.7155  0.5071
 7044SOL     OW32593   2.537   3.475   3.675 -0.1433 -0.3199  0.3665
 7044SOL    HW132594   2.541   3.557   3.624 -0.0983  0.1916  1.1907
 7044SOL    HW232595   2.488   3.411   3.625 -0.5962  0.3693 -0.0790
 7045SOL     OW32596   1.980   3.565   0.400  0.5188 -0.2964 -0.2874
 7045SOL    HW132597   1.981   3.505   0.475  1.1191  0.9321  0.6995
 7045SOL    HW232598   2.025   3.641   0.437 -1.0917  0.8040 -0.5855
 7046SOL     OW32599   4.177   4.534   3.483  0.0838 -0.6345  0.3623
 7046SOL    HW132600   4.178   4.457   3.428 -2.4825 -1.1033  0.9667
 7046SOL    HW232601   4.207   4.601   3.422  0.8107 -1.7412 -0.4891
 7047SOL     OW32602   0.644   2.723   2.112 -0.6312  0.4793 -0.1852
 7047SOL    HW132603   0.706   2.714   2.040 -1.0268  0.8253 -0.5708
 7047SOL    HW232604   0.579   2.662   2.077  0.5386 -0.7628 -0.1794
 7048SOL     OW32605   0.408   2.303   7.943 -0.4714  0.5281 -0.4428
 7048SOL    HW132606   0.489   2.272   7.983 -1.7011 -0.4245  1.3529
 7048SOL    HW232607   0.407   2.390   7.983  0.2720  0.0145  0.6921
 7049SOL     OW32608   0.712   2.790   2.373  0.1544 -0.3596 -0.2940
 7049SOL    HW132609   0.695   2.790   2.279  1.8675  1.2763 -0.6003
 7049SOL    HW232610   0.626   2.755   2.399  0.0329  1.0090  1.1774
 7050SOL     OW32611   2.629   3.239   6.081 -0.0364 -0.0820 -0.0442
 7050SOL    HW132612   2.688   3.179   6.126  0.2424  0.8516  0.8415
 7050SOL    HW232613   2.631   3.211   5.989  0.3699  1.0732 -0.3863
 7051SOL     OW32614   4.328   3.062   6.318 -0.1712 -0.5230  0.4372
 7051SOL    HW132615   4.289   3.108   6.392 -1.4345  0.8650 -1.0693
 7051SOL    HW232616   4.378   3.139   6.290  0.2543 -1.6448 -1.8915
 7052SOL     OW32617   1.043   1.687   6.739 -0.8978  0.3350 -0.1987
 7052SOL    HW132618   0.996   1.604   6.724  1.4431 -0.9448 -0.4273
 7052SOL    HW232619   1.067   1.681   6.832 -2.6940  0.2642  0.2561
 7053SOL     OW32620   3.884   0.217   4.314 -0.2040  0.1276 -0.6042
 7053SOL    HW132621   3.833   0.235   4.393 -0.1110  1.3699 -0.8231
 7053SOL    HW232622   3.896   0.122   4.311 -0.0806  0.1507 -0.8003
 7054SOL     OW32623   2.550   1.363  10.275 -0.6393 -0.6095  0.0987
 7054SOL    HW132624   2.578   1.325  10.192 -1.1991 -0.1011 -0.3224
 7054SOL    HW232625   2.588   1.449  10.258 -0.7430 -0.7008 -0.6142
 7055SOL     OW32626   4.662   3.602   2.034 -0.1261  0.6193 -0.3552
 7055SOL    HW132627   4.610   3.622   1.955 -0.5413 -0.6901 -0.4113
 7055SOL    HW232628   4.609   3.659   2.090  1.0135  0.7371  0.5852
 7056SOL     OW32629   2.595   1.483   1.757  1.0853 -0.0069  0.4581
 7056SOL    HW132630   2.506   1.462   1.788  1.1607 -0.5039  0.3400
 7056SOL    HW232631   2.622   1.396   1.728  1.2089  0.2241 -0.1141
 7057SOL     OW32632   0.466   4.397   1.914 -0.0919  0.0942  0.1692
 7057SOL    HW132633   0.377   4.428   1.923 -0.7894 -1.7292 -0.4395
 7057SOL    HW232634   0.451   4.316   1.963 -0.8671 -0.4481 -0.9459
 7058SOL     OW32635   0.638   1.500  14.121  0.3272  0.2860 -0.0945
 7058SOL    HW132636   0.568   1.538  14.069  1.1566  2.1490  0.1781
 7058SOL    HW232637   0.660   1.425  14.065 -0.6101  0.5105 -0.7652
 7059SOL     OW32638   2.033   4.700   4.016  0.1170 -0.1395 -0.1203
 7059SOL    HW132639   1.976   0.054   4.001  0.6106  0.5206  1.4490
 7059SOL    HW232640   2.038   4.699   4.111  1.9238  0.6675 -0.2115
 7060SOL     OW32641   1.373   3.551   1.447  0.7167  0.6400  0.5131
 7060SOL    HW132642   1.463   3.533   1.474 -0.4701 -0.9932  3.4618
 7060SOL    HW232643   1.367   3.645   1.461 -3.2911  0.3616  0.7297
 7061SOL     OW32644   4.668   2.099   3.083  0.1078  0.1512  0.4977
 7061SOL    HW132645   4.654   2.067   2.994 -0.9920 -0.7222  0.9787
 7061SOL    HW232646   0.025   2.152   3.070 -1.3654  2.1211 -0.4859
 7062SOL     OW32647   2.204   3.042   2.860 -0.5884 -0.1843  0.1203
 7062SOL    HW132648   2.145   2.972   2.831  0.5735 -0.2148 -2.1743
 7062SOL    HW232649   2.263   2.990   2.915 -0.9360  0.2720  0.9270
 7063SOL     OW32650   3.281   2.535   8.043 -0.4232  0.4275  0.2824
 7063SOL    HW132651   3.226   2.507   8.117 -0.4217  0.5968  0.3482
 7063SOL    HW232652   3.287   2.458   7.986  2.1290  2.1586 -1.7797
 7064SOL     OW32653   0.663   1.634   1.449 -0.2205  0.3825 -0.3000
 7064SOL    HW132654   0.696   1.544   1.454  0.6660  0.7818  1.1490
 7064SOL    HW232655   0.701   1.668   1.530  3.0111  1.2705 -2.1567
 7065SOL     OW32656   0.210   1.784   9.192  0.1288  0.2433 -0.3195
 7065SOL    HW132657   0.216   1.729   9.114 -1.0703  2.2681 -1.8488
 7065SOL    HW232658   0.201   1.873   9.157 -1.0933 -0.3483 -1.5305
 7066SOL     OW32659   2.323   0.686   8.667 -0.2470 -0.1651  0.2481
 7066SOL    HW132660   2.239   0.711   8.706 -0.0445  2.6951 -1.1823
 7066SOL    HW232661   2.282   0.617   8.615 -1.1583  1.4298 -1.1558
 7067SOL     OW32662   1.389   2.357   0.627  0.0097 -0.3811 -0.3595
 7067SOL    HW132663   1.459   2.399   0.677 -0.1341 -0.1658 -0.3395
 7067SOL    HW232664   1.329   2.348   0.700  0.2352  1.3403  0.0423
 7068SOL     OW32665   0.535   2.435   4.424  0.0089 -0.3100 -0.3093
 7068SOL    HW132666   0.583   2.516   4.412  1.9413 -1.4619 -0.3719
 7068SOL    HW232667   0.601   2.366   4.416 -1.2770 -1.5150 -0.6930
 7069SOL     OW32668   1.160   0.667   5.839 -1.1915 -0.3882  0.0575
 7069SOL    HW132669   1.206   0.651   5.757 -0.0742  1.4828  0.3268
 7069SOL    HW232670   1.119   0.583   5.859 -1.4943 -0.2131  0.1756
 7070SOL     OW32671   0.905   0.450   3.395 -0.2723  0.5183 -0.4423
 7070SOL    HW132672   0.890   0.399   3.315 -2.4085 -1.7541  1.3921
 7070SOL    HW232673   0.868   0.391   3.461  2.2289 -1.1993 -0.5655
 7071SOL     OW32674   1.267   4.215   2.731  0.4773 -0.5823  0.4459
 7071SOL    HW132675   1.228   4.260   2.657  2.0000  0.0727  0.0333
 7071SOL    HW232676   1.219   4.257   2.803  0.2177 -0.5186  0.2329
 7072SOL     OW32677   4.096   4.566   8.784 -0.6300  0.0865  0.5642
 7072SOL    HW132678   4.164   4.572   8.851 -0.8308 -2.4417  0.9775
 7072SOL    HW232679   4.023   4.519   8.824 -2.1802  2.1571  0.1451
 7073SOL     OW32680   1.929   3.529   7.710 -0.1153 -0.6450  0.1212
 7073SOL    HW132681   1.901   3.521   7.802 -0.2911  2.5082  0.3199
 7073SOL    HW232682   1.871   3.467   7.665  1.3187 -0.8394 -1.4289
 7074SOL     OW32683   2.803   3.696   4.128  0.5064 -0.4166  0.0460
 7074SOL    HW132684   2.771   3.685   4.038 -2.6113 -0.0781  1.1041
 7074SOL    HW232685   2.754   3.628   4.175 -0.2401 -1.3519 -2.0653
 7075SOL     OW32686   3.332   3.903   2.564 -0.0986  0.0672 -0.1715
 7075SOL    HW132687   3.293   3.822   2.530 -0.4372 -0.2859  1.0383
 7075SOL    HW232688   3.335   3.893   2.659  1.1449 -0.9715 -0.3199
 7076SOL     OW32689   3.198   3.383   8.753 -0.0033 -0.6386  0.1625
 7076SOL    HW132690   3.156   3.367   8.838  1.1294  0.4387  0.9160
 7076SOL    HW232691   3.276   3.329   8.767 -1.3407 -2.0321  2.2174
 7077SOL     OW32692   3.171   1.512   4.739 -0.4448 -0.1469  0.4194
 7077SOL    HW132693   3.214   1.595   4.720 -0.9058 -0.3858 -1.6893
 7077SOL    HW232694   3.219   1.477   4.814  3.2143  1.2375 -1.2782
 7078SOL     OW32695   3.400   0.656   5.245  0.1372  0.2091 -0.5851
 7078SOL    HW132696   3.426   0.662   5.153  1.8074  3.4994  0.0818
 7078SOL    HW232697   3.403   0.563   5.265 -0.0412  0.3927  0.3205
 7079SOL     OW32698   1.895   1.316   2.591 -0.3212  0.1470  0.3993
 7079SOL    HW132699   1.926   1.231   2.623  1.0422  0.3484 -0.4043
 7079SOL    HW232700   1.800   1.305   2.596  0.0931 -2.5194  2.4157
 7080SOL     OW32701   2.071   1.549   5.620 -0.0138  0.4364 -0.6279
 7080SOL    HW132702   2.094   1.555   5.712  1.2043 -2.7681 -0.6892
 7080SOL    HW232703   2.149   1.512   5.577  0.8020 -0.0077  1.2421
 7081SOL     OW32704   3.342   3.537   1.642  0.0349 -0.2760 -0.0407
 7081SOL    HW132705   3.261   3.532   1.593 -0.6353  1.5691  0.8643
 7081SOL    HW232706   3.388   3.453   1.641  2.3304  0.9816 -1.8922
 7082SOL     OW32707   2.860   1.381   4.512  0.3362  0.6273  0.1477
 7082SOL    HW132708   2.917   1.325   4.563  1.1684  0.6841 -0.7212
 7082SOL    HW232709   2.775   1.369   4.555 -0.2261 -0.2227 -1.1847
 7083SOL     OW32710   2.305   1.234   2.018 -0.6068 -0.2812 -0.3491
 7083SOL    HW132711   2.318   1.173   1.946  0.3633  0.1198 -0.5160
 7083SOL    HW232712   2.310   1.317   1.971  1.0413 -0.6353 -0.7939
 7084SOL     OW32713   2.032   0.033   5.858  0.2196 -0.0895 -0.3075
 7084SOL    HW132714   2.118   0.074   5.872 -0.0178  0.5242 -0.6382
 7084SOL    HW232715   1.982   0.071   5.930  2.8168  2.6788  0.0202
 7085SOL     OW32716   3.735   4.395   4.878 -0.1170  0.4146  0.6962
 7085SOL    HW132717   3.655   4.356   4.912  0.7445 -0.6786  1.4753
 7085SOL    HW232718   3.790   4.318   4.865  0.8538  1.1358  0.5305
 7086SOL     OW32719   4.314   1.539   3.667  0.0831 -0.3482 -0.1433
 7086SOL    HW132720   4.346   1.593   3.595 -1.8587 -1.1566 -1.6405
 7086SOL    HW232721   4.387   1.477   3.675  1.3107  1.2200  0.6665
 7087SOL     OW32722   1.893   0.633   9.252  0.1973  0.0104 -0.1221
 7087SOL    HW132723   1.889   0.558   9.192  0.1305  0.7079 -1.0025
 7087SOL    HW232724   1.945   0.686   9.190  0.9264  1.1952  1.5129
 7088SOL     OW32725   3.330   2.649  12.875  0.2579 -0.3698 -0.1501
 7088SOL    HW132726   3.357   2.655  12.784 -0.8479 -0.7255 -0.5009
 7088SOL    HW232727   3.346   2.741  12.893 -0.7968 -0.3144  0.5279
 7089SOL     OW32728   2.269   1.236  11.747  0.2463  0.1535  0.1911
 7089SOL    HW132729   2.281   1.267  11.837 -0.2075 -0.4729  0.4653
 7089SOL    HW232730   2.245   1.322  11.711 -0.9440  0.0179  0.6557
 7090SOL     OW32731   4.503   1.041  10.076  0.0161  0.2365 -0.3381
 7090SOL    HW132732   4.570   1.097  10.038 -1.4310  1.7744 -0.6155
 7090SOL    HW232733   4.513   1.071  10.167 -1.4413  1.6949 -0.6438
 7091SOL     OW32734   2.432   3.136   8.585  0.2418  0.1847  0.2693
 7091SOL    HW132735   2.508   3.191   8.566  0.6334 -0.2450  0.5809
 7091SOL    HW232736   2.434   3.137   8.681 -1.1584  0.0051  0.2971
 7092SOL     OW32737   4.211   1.001   1.678  0.0668  0.3875  0.0964
 7092SOL    HW132738   4.131   0.953   1.653  0.3408 -0.1044  0.1576
 7092SOL    HW232739   4.253   1.018   1.594 -0.6664 -0.3417 -0.4269
 7093SOL     OW32740   0.350   1.526   5.167 -0.1216  1.0693  0.2017
 7093SOL    HW132741   0.373   1.553   5.256  0.1330  0.5029  0.3057
 7093SOL    HW232742   0.400   1.589   5.116  0.0190  1.4698  0.8273
 7094SOL     OW32743   3.711   2.630   8.793 -0.4339  0.2738  0.1886
 7094SOL    HW132744   3.639   2.691   8.806 -1.2856 -0.4256 -1.2072
 7094SOL    HW232745   3.680   2.568   8.727 -1.3480 -0.1238  0.9757
 7095SOL     OW32746   4.416   3.438   2.602 -0.4130 -0.0006 -0.1687
 7095SOL    HW132747   4.325   3.461   2.585 -0.7088 -0.6803  0.4931
 7095SOL    HW232748   4.459   3.511   2.558  1.4946 -0.6339  0.6595
 7096SOL     OW32749   3.451   1.741   7.180 -0.2574 -0.5822  0.4531
 7096SOL    HW132750   3.536   1.717   7.217  0.5086 -1.1414 -1.6198
 7096SOL    HW232751   3.448   1.691   7.098 -2.5988 -1.6319  1.1658
 7097SOL     OW32752   0.800   4.257   6.664 -0.2317  0.0603  0.2891
 7097SOL    HW132753   0.852   4.328   6.627  0.3568 -0.3530  0.3293
 7097SOL    HW232754   0.774   4.201   6.591 -0.7610 -1.6587  1.8136
 7098SOL     OW32755   1.481   2.598   4.360 -0.7541 -0.3576 -0.6319
 7098SOL    HW132756   1.504   2.689   4.373  1.9978 -1.0885 -0.4063
 7098SOL    HW232757   1.515   2.587   4.271 -0.4735 -1.0598 -0.4413
 7099SOL     OW32758   2.199   3.813  14.917  0.0849  0.5244  0.1525
 7099SOL    HW132759   2.259   3.750  14.877  0.4752  0.0407  1.4990
 7099SOL    HW232760   2.195   3.875  14.845 -0.3588  0.7472  0.3705
 7100SOL     OW32761   1.087   2.012   3.889 -0.1407 -0.4546 -0.2286
 7100SOL    HW132762   1.002   1.984   3.923 -1.7580  1.4429 -2.7006
 7100SOL    HW232763   1.066   2.020   3.796 -0.1009 -0.1920 -0.2139
 7101SOL     OW32764   4.340   1.392   7.670 -0.5921  0.2886 -0.1471
 7101SOL    HW132765   4.253   1.369   7.637 -0.0472 -1.4706 -0.3650
 7101SOL    HW232766   4.369   1.446   7.597 -1.6912  0.3941 -0.4966
 7102SOL     OW32767   4.300   0.925   0.547 -0.0923 -0.0845  0.0004
 7102SOL    HW132768   4.344   0.996   0.594 -1.8151 -0.0783  1.6091
 7102SOL    HW232769   4.351   0.929   0.466 -2.5719  0.3323 -1.5471
 7103SOL     OW32770   2.948   2.490   4.083 -0.5595 -0.4587  0.3136
 7103SOL    HW132771   2.928   2.427   4.014 -1.7729  0.4149 -0.1241
 7103SOL    HW232772   2.862   2.531   4.090 -0.0954  0.5768 -0.1193
 7104SOL     OW32773   0.628   2.316  11.377  0.4345 -0.3377  0.3467
 7104SOL    HW132774   0.562   2.248  11.367 -1.3375  1.2317  1.4459
 7104SOL    HW232775   0.705   2.271  11.342  0.1603 -0.4130 -0.1660
 7105SOL     OW32776   0.286   3.394  15.333  0.0996  0.3322 -0.1374
 7105SOL    HW132777   0.331   3.312  15.354  0.3223  0.8916  1.5588
 7105SOL    HW232778   0.227   3.394  15.408  0.2935 -0.2407  0.0116
 7106SOL     OW32779   4.493   4.289  16.274  0.8172  0.1950 -0.0168
 7106SOL    HW132780   4.502   4.350  16.348 -3.2249  2.1705 -1.1467
 7106SOL    HW232781   4.576   4.242  16.276  1.3943  1.1587 -1.2203
 7107SOL     OW32782   2.725   4.447  13.129 -0.0529 -0.0973  0.1175
 7107SOL    HW132783   2.788   4.386  13.092 -0.3289  0.4703 -1.2716
 7107SOL    HW232784   2.707   4.393  13.206 -0.5323  0.0642  0.1225
 7108SOL     OW32785   3.361   1.395   4.987 -0.4051 -0.7109  0.1238
 7108SOL    HW132786   3.423   1.337   5.031  1.2444  0.1065 -1.1367
 7108SOL    HW232787   3.295   1.416   5.053 -1.3784  0.5141 -1.2329
 7109SOL     OW32788   1.011   1.341   9.953  0.2361 -0.2533  0.3416
 7109SOL    HW132789   1.099   1.356   9.919  0.3252 -0.3301  0.5389
 7109SOL    HW232790   0.961   1.342   9.872  0.9333 -0.8582 -0.0973
 7110SOL     OW32791   1.530   0.876  17.239  0.0097 -0.0142  0.0475
 7110SOL    HW132792   1.554   0.878  17.146 -0.4516  0.1708 -0.0679
 7110SOL    HW232793   1.455   0.817  17.244  1.7493 -2.3439 -1.1240
 7111SOL     OW32794   3.245   3.366   3.822  0.2496 -0.4867  0.2878
 7111SOL    HW132795   3.280   3.406   3.901  2.5366  0.2276 -1.1070
 7111SOL    HW232796   3.150   3.380   3.828  0.6369  1.8795  0.6710
 7112SOL     OW32797   1.958   0.216   3.295 -0.7122  0.6458 -0.3508
 7112SOL    HW132798   1.882   0.272   3.309 -0.7120  0.8224 -1.0781
 7112SOL    HW232799   2.019   0.276   3.251 -2.0216  2.0483 -0.2656
 7113SOL     OW32800   2.020   0.547   5.007 -0.4334  0.0105 -0.2067
 7113SOL    HW132801   1.957   0.485   4.970 -0.9185  0.5383 -0.2673
 7113SOL    HW232802   2.042   0.606   4.935  1.6903 -0.0995  0.3378
 7114SOL     OW32803   3.601   2.250  10.793 -0.2825  0.0327  0.6392
 7114SOL    HW132804   3.529   2.189  10.810  0.3683 -0.8234  0.3295
 7114SOL    HW232805   3.669   2.196  10.753  0.8628  0.9345  1.3602
 7115SOL     OW32806   1.718   4.549   2.382  0.2020  0.6328 -0.2216
 7115SOL    HW132807   1.653   4.539   2.313 -0.8553  0.9547  0.7421
 7115SOL    HW232808   1.716   4.465   2.428  2.2547  2.0161  2.4343
 7116SOL     OW32809   1.491   2.805   2.833 -0.3601 -0.2334 -0.1263
 7116SOL    HW132810   1.430   2.874   2.858  0.5784  1.4630 -2.4911
 7116SOL    HW232811   1.520   2.836   2.747 -0.9552  2.2081  0.5439
 7117SOL     OW32812   4.704   3.872  17.455  0.2086 -0.1488 -0.0811
 7117SOL    HW132813   4.641   3.865  17.383  2.3508  1.2219 -2.1133
 7117SOL    HW232814   4.669   3.923  17.528  1.4376 -0.9585  1.0561
 7118SOL     OW32815   0.659   4.018   7.064  0.0178  0.4765 -0.1848
 7118SOL    HW132816   0.708   3.968   7.000 -0.3483 -0.0558 -0.0509
 7118SOL    HW232817   0.573   3.975   7.064  0.6658 -0.7980 -0.9863
 7119SOL     OW32818   3.082   0.659  15.556  0.3888 -0.5739 -0.4952
 7119SOL    HW132819   3.005   0.611  15.587  1.4105 -1.8598  0.0685
 7119SOL    HW232820   3.088   0.634  15.463 -1.2388  1.6615 -1.2135
 7120SOL     OW32821   1.725   4.465  13.937  0.3081 -0.3993 -0.0910
 7120SOL    HW132822   1.816   4.493  13.930  0.1686  0.1085  0.1635
 7120SOL    HW232823   1.734   4.423  14.022  1.4289 -2.3980 -1.1748
 7121SOL     OW32824   3.560   1.567  12.225  0.4293 -0.6123 -0.0625
 7121SOL    HW132825   3.535   1.597  12.137  0.2283  0.5744  0.4022
 7121SOL    HW232826   3.574   1.476  12.196 -2.7833 -1.1989  0.2391
 7122SOL     OW32827   4.095   0.580   7.422  0.2146 -0.3814 -0.3824
 7122SOL    HW132828   4.116   0.488   7.404  0.6060 -0.1976 -0.8693
 7122SOL    HW232829   4.175   0.597   7.472  0.4623 -0.4275 -0.7627
 7123SOL     OW32830   3.181   3.728   7.253  0.2597  0.4292  0.1598
 7123SOL    HW132831   3.175   3.725   7.348  1.2903  0.0444  0.2172
 7123SOL    HW232832   3.190   3.634   7.236  0.7461  0.2222  1.5860
 7124SOL     OW32833   3.160   0.330   1.551 -0.4679  0.6982  0.1361
 7124SOL    HW132834   3.089   0.378   1.595 -0.5612  1.0399 -0.3812
 7124SOL    HW232835   3.206   0.290   1.625  1.1865  0.6356 -0.9287
 7125SOL     OW32836   2.834   2.808  12.341 -0.6385  0.2994 -0.3147
 7125SOL    HW132837   2.838   2.755  12.261  1.1053  0.0047 -0.0236
 7125SOL    HW232838   2.855   2.892  12.302  2.2871 -0.3761 -0.1558
 7126SOL     OW32839   1.083   2.493  10.972  0.1108 -0.1211  0.3078
 7126SOL    HW132840   1.090   2.547  11.051 -0.5190  0.6850 -0.1762
 7126SOL    HW232841   1.168   2.451  10.978  0.5252  0.4785 -1.2859
 7127SOL     OW32842   0.567   2.732   6.205 -0.2914 -0.0542 -0.1505
 7127SOL    HW132843   0.546   2.727   6.112  0.0687  0.6317 -0.2653
 7127SOL    HW232844   0.556   2.641   6.232  1.5578 -0.5513 -1.1321
 7128SOL     OW32845   3.202   2.162  13.271 -0.0803 -0.2848  0.0586
 7128SOL    HW132846   3.237   2.251  13.271  0.2236 -0.4042 -0.2317
 7128SOL    HW232847   3.185   2.139  13.362  0.9231 -0.2089  0.2685
 7129SOL     OW32848   0.165   4.353   1.734  0.0284  0.1921  0.4077
 7129SOL    HW132849   0.167   4.379   1.827 -2.1101 -2.3613  1.1649
 7129SOL    HW232850   0.217   4.422   1.692 -0.7182  0.0055 -0.8070
 7130SOL     OW32851   4.373   4.474  12.912 -0.5420 -0.2622 -0.2673
 7130SOL    HW132852   4.370   4.565  12.882  0.4480 -0.1373  0.0025
 7130SOL    HW232853   4.454   4.437  12.874 -0.3436  1.5442 -1.6171
 7131SOL     OW32854   0.022   1.028   5.074  0.4812  0.1270 -0.2751
 7131SOL    HW132855   0.007   1.060   4.985 -0.4369 -0.8801 -0.4879
 7131SOL    HW232856   4.659   0.992   5.099  0.3000  0.8165  0.1005
 7132SOL     OW32857   1.733   2.578  12.031 -0.0105  0.3396  0.4043
 7132SOL    HW132858   1.640   2.565  12.048  0.2043  0.3496  1.5913
 7132SOL    HW232859   1.746   2.634  12.108  0.7322 -0.1831  0.6644
 7133SOL     OW32860   2.847   2.541   2.458 -0.2981  0.8895 -0.0485
 7133SOL    HW132861   2.844   2.514   2.366 -0.6240  0.5790  0.0507
 7133SOL    HW232862   2.798   2.623   2.452 -0.4801  0.7668 -0.2697
 7134SOL     OW32863   4.347   1.779   4.439  0.0561 -0.1312  0.4861
 7134SOL    HW132864   4.401   1.784   4.361 -0.5908 -1.9855 -0.0741
 7134SOL    HW232865   4.260   1.787   4.399  0.5663  2.0330 -0.1832
 7135SOL     OW32866   1.340   4.686  12.296 -0.2492 -0.0277 -0.2787
 7135SOL    HW132867   1.391   4.612  12.263 -1.4066 -1.3067  0.8145
 7135SOL    HW232868   1.394   0.040  12.275 -2.7213  1.1774 -2.3385
 7136SOL     OW32869   3.298   1.504  15.256 -0.3018  0.0699  0.5425
 7136SOL    HW132870   3.371   1.523  15.315 -2.0207  2.6267  1.8686
 7136SOL    HW232871   3.345   1.537  15.179 -2.3111  1.7155  0.0203
 7137SOL     OW32872   1.795   2.193   0.410 -0.0135  0.1780 -0.0255
 7137SOL    HW132873   1.733   2.121   0.425  0.0358 -0.2894 -1.9884
 7137SOL    HW232874   1.844   2.154   0.337  0.5454  1.8625 -0.5369
 7138SOL     OW32875   1.848   3.807  12.984 -0.7710  0.2528 -0.1814
 7138SOL    HW132876   1.800   3.738  13.030 -0.8827  1.1374  1.0167
 7138SOL    HW232877   1.815   3.805  12.894 -0.8770 -0.8613 -0.1270
 7139SOL     OW32878   1.089   3.441   3.551  0.2182 -0.2631  0.2272
 7139SOL    HW132879   1.000   3.430   3.586  0.8993  3.7689  3.1859
 7139SOL    HW232880   1.085   3.406   3.462  0.3540  0.3450 -0.0109
 7140SOL     OW32881   2.878   0.201   3.817 -0.6627 -0.3804  0.0977
 7140SOL    HW132882   2.820   0.179   3.743 -0.4423 -3.5473  0.8507
 7140SOL    HW232883   2.839   0.157   3.892  2.5576 -1.3185  1.1916
 7141SOL     OW32884   4.414   1.131   2.618 -0.2730 -0.1208 -0.2332
 7141SOL    HW132885   4.480   1.186   2.660 -1.9017  1.0000  0.8697
 7141SOL    HW232886   4.463   1.050   2.613  0.3396  0.3284 -1.3923
 7142SOL     OW32887   4.212   0.606   1.070  0.0072  0.0389 -0.1864
 7142SOL    HW132888   4.149   0.562   1.013 -1.9127  1.9970  0.4302
 7142SOL    HW232889   4.263   0.532   1.104  0.9467  0.5581 -0.4710
 7143SOL     OW32890   2.170   0.283  13.745 -0.8564  0.0697  0.3362
 7143SOL    HW132891   2.075   0.277  13.737 -0.8079  0.1920 -0.2856
 7143SOL    HW232892   2.199   0.200  13.707 -0.6779 -1.7118  4.3237
 7144SOL     OW32893   0.367   0.098   1.208 -0.2860 -0.3460 -0.0249
 7144SOL    HW132894   0.381   0.193   1.214  0.0041 -0.4848  1.6528
 7144SOL    HW232895   0.295   0.091   1.271 -1.0886 -1.0202 -1.0276
 7145SOL     OW32896   2.473   4.682   6.753 -0.4210 -1.0290 -0.8245
 7145SOL    HW132897   2.415   4.650   6.822 -0.3371  0.0443 -0.2446
 7145SOL    HW232898   2.523   4.602   6.736  1.4318  0.1355 -0.8197
 7146SOL     OW32899   3.718   0.225  11.450 -0.6344 -0.3314 -0.4927
 7146SOL    HW132900   3.751   0.307  11.416 -2.9394  0.8455  0.0774
 7146SOL    HW232901   3.793   0.170  11.426 -0.0798 -0.1711  0.8952
 7147SOL     OW32902   0.589   3.949   6.564  0.2456 -0.2530  0.0576
 7147SOL    HW132903   0.528   4.023   6.565  2.3088  1.4178 -1.8111
 7147SOL    HW232904   0.530   3.877   6.589 -0.5732 -0.3861 -2.3205
 7148SOL     OW32905   4.198   1.734   7.510 -0.4183  0.0089  1.0229
 7148SOL    HW132906   4.279   1.731   7.561 -1.1179 -1.1676  2.0497
 7148SOL    HW232907   4.237   1.723   7.423 -2.6387 -2.0520  0.2891
 7149SOL     OW32908   0.576   3.250   7.243 -0.2068  0.1617 -0.0880
 7149SOL    HW132909   0.512   3.261   7.173  0.4790  0.4454 -0.6671
 7149SOL    HW232910   0.633   3.183   7.205 -0.8378 -0.6010  0.3167
 7150SOL     OW32911   4.221   3.754   3.953  0.6422 -0.5919  0.3082
 7150SOL    HW132912   4.194   3.837   3.914 -0.9488 -1.4592 -0.4447
 7150SOL    HW232913   4.174   3.760   4.036  2.8303  1.0751  1.4314
 7151SOL     OW32914   3.945   1.847   3.213 -0.0051  0.1211  0.0630
 7151SOL    HW132915   3.852   1.873   3.212 -0.2278 -0.6579  0.8473
 7151SOL    HW232916   3.991   1.928   3.189 -2.1887  0.9504 -1.3327
 7152SOL     OW32917   0.548   3.714   3.636  0.2521 -0.1315  0.1534
 7152SOL    HW132918   0.624   3.679   3.588  1.8152  1.5823  1.3679
 7152SOL    HW232919   0.590   3.792   3.672  1.0418 -0.0749 -0.8937
 7153SOL     OW32920   1.250   1.652  15.210 -0.2112  0.0323  0.1580
 7153SOL    HW132921   1.182   1.672  15.275  0.8605  0.5689  1.1189
 7153SOL    HW232922   1.195   1.651  15.132  0.5828  0.8688 -0.4119
 7154SOL     OW32923   0.071   3.834   6.564  0.1240 -0.2623  0.1901
 7154SOL    HW132924   0.096   3.758   6.511  5.2639  2.1295 -0.8588
 7154SOL    HW232925   0.001   3.799   6.619  0.3752 -1.1227 -0.0337
 7155SOL     OW32926   1.018   3.448   7.844 -0.1603 -0.7927 -0.2083
 7155SOL    HW132927   1.009   3.502   7.766  5.0481  1.2789  0.6479
 7155SOL    HW232928   0.941   3.464   7.898 -0.4964  0.1553 -0.9801
 7156SOL     OW32929   2.744   1.663   7.780  0.7443  0.0862 -0.2443
 7156SOL    HW132930   2.746   1.645   7.686 -1.4153 -2.9616  0.2984
 7156SOL    HW232931   2.651   1.641   7.787  0.3396  1.8836 -0.0152
 7157SOL     OW32932   4.092   2.152  12.125  0.1712 -0.2060  0.5769
 7157SOL    HW132933   4.062   2.224  12.180  0.8385  1.2924 -1.0293
 7157SOL    HW232934   4.141   2.203  12.060 -0.3781 -2.7200 -1.8222
 7158SOL     OW32935   2.466   3.936   4.777 -0.0893 -0.4036  0.4537
 7158SOL    HW132936   2.540   3.881   4.803  2.2324  2.2509 -0.5583
 7158SOL    HW232937   2.451   3.924   4.683 -1.0400  1.0355  0.4199
 7159SOL     OW32938   4.385   3.958  16.532 -0.6346 -0.1412  0.3997
 7159SOL    HW132939   4.407   3.921  16.617 -0.7351  0.2083  0.5761
 7159SOL    HW232940   4.436   4.039  16.539  0.2131 -0.8292  2.0288
 7160SOL     OW32941   1.509   1.026   4.343 -0.2768  0.3595  0.3254
 7160SOL    HW132942   1.556   1.108   4.357 -1.0199  0.6808  0.9490
 7160SOL    HW232943   1.457   1.047   4.265  1.0918 -0.3796 -0.7730
 7161SOL     OW32944   0.207   1.642   8.570  0.1925  0.7339 -0.2247
 7161SOL    HW132945   0.265   1.577   8.610 -0.5435 -2.8034 -4.8230
 7161SOL    HW232946   0.134   1.599   8.525  1.6633  0.7029 -2.6122
 7162SOL     OW32947   2.452   2.961   7.173 -0.3713  0.9478 -0.1925
 7162SOL    HW132948   2.411   2.931   7.254  0.2248 -0.8931 -0.5613
 7162SOL    HW232949   2.404   2.905   7.112  0.9138 -0.6596  0.2645
 7163SOL     OW32950   3.713   2.283   6.201 -0.6787 -0.2235  0.3126
 7163SOL    HW132951   3.777   2.228   6.155 -1.8218 -0.0868 -1.4496
 7163SOL    HW232952   3.661   2.302   6.123 -1.1401  1.4788  1.0339
 7164SOL     OW32953   1.651   4.717   5.924  0.5061  0.0469 -0.1117
 7164SOL    HW132954   1.644   4.622   5.930 -1.7294  0.2059 -0.0969
 7164SOL    HW232955   1.588   0.034   5.984  1.3290  1.9713 -0.4802
 7165SOL     OW32956   0.842   4.205  17.144  0.0625  0.6005 -0.4069
 7165SOL    HW132957   0.846   4.301  17.144  1.8894  0.5148  1.4236
 7165SOL    HW232958   0.818   4.194  17.051 -0.7999  2.3037 -0.3908
 7166SOL     OW32959   4.033   3.656   7.090  0.4164 -0.0494  0.1656
 7166SOL    HW132960   4.096   3.728   7.081 -0.1647  0.6220  1.5036
 7166SOL    HW232961   3.972   3.680   7.020  2.4309  1.3048 -1.1552
 7167SOL     OW32962   1.377   1.138   6.889  0.1488 -0.7161 -0.4833
 7167SOL    HW132963   1.444   1.105   6.829  2.0363  1.7077  0.2964
 7167SOL    HW232964   1.428   1.173   6.962 -1.6136  2.1606 -0.6430
 7168SOL     OW32965   3.573   2.209  17.607 -0.4275 -0.5603  0.2958
 7168SOL    HW132966   3.502   2.244  17.554  0.3065 -0.4141 -0.5925
 7168SOL    HW232967   3.542   2.124  17.638 -2.0533 -0.1001 -0.0669
 7169SOL     OW32968   0.636   4.704  11.134 -0.1277 -0.1133  0.2733
 7169SOL    HW132969   0.556   4.695  11.083  0.2758  1.0578 -0.5493
 7169SOL    HW232970   0.707   4.707  11.069  0.4049  1.1969  0.9326
 7170SOL     OW32971   3.949   4.466   7.172 -0.1564 -0.1367  0.3426
 7170SOL    HW132972   3.949   4.509   7.258 -0.5822  2.2820 -0.8613
 7170SOL    HW232973   3.866   4.419   7.182 -1.1374  1.6307  0.6052
 7171SOL     OW32974   2.422   0.341   9.737 -0.0887  0.1376  0.1478
 7171SOL    HW132975   2.452   0.263   9.784  0.3890  0.3104  0.1275
 7171SOL    HW232976   2.329   0.322   9.725 -0.1018 -1.0857  2.0655
 7172SOL     OW32977   4.531   1.072   3.612  0.3158  0.7299 -0.5661
 7172SOL    HW132978   4.526   1.016   3.534  0.4305  0.1938 -0.1883
 7172SOL    HW232979   4.464   1.137   3.590 -2.9278 -1.4668  2.9463
 7173SOL     OW32980   4.705   1.406   6.880 -0.7338 -0.1026 -0.4862
 7173SOL    HW132981   4.670   1.343   6.944  0.7059 -0.4217 -0.0227
 7173SOL    HW232982   4.688   1.492   6.918  1.5675  0.1421 -0.0426
 7174SOL     OW32983   1.665   0.618   5.842 -0.4624 -0.0775 -0.5468
 7174SOL    HW132984   1.587   0.576   5.805  0.6955 -1.6523 -1.1924
 7174SOL    HW232985   1.699   0.555   5.906 -1.1755  1.2512  1.1449
 7175SOL     OW32986   4.057   2.226  17.498 -0.0238 -0.0664 -0.4026
 7175SOL    HW132987   4.025   2.245  17.586  1.5149 -0.2434  0.2038
 7175SOL    HW232988   4.066   2.131  17.487 -0.4062 -0.5973  3.7810
 7176SOL     OW32989   3.802   0.811   7.894  0.5427 -0.1652 -0.0735
 7176SOL    HW132990   3.772   0.842   7.979 -1.7872 -0.2970 -0.8448
 7176SOL    HW232991   3.755   0.870   7.835 -0.3449 -1.1436 -0.3355
 7177SOL     OW32992   2.924   4.258  12.076 -0.3991 -0.0240 -0.2864
 7177SOL    HW132993   2.900   4.171  12.108 -0.2181 -0.5738 -1.6513
 7177SOL    HW232994   2.954   4.245  11.986 -0.2913  0.4128 -0.3137
 7178SOL     OW32995   1.753   3.062   3.916  0.4228  0.1493 -0.1845
 7178SOL    HW132996   1.718   3.100   3.836 -0.7605  1.1181  0.7899
 7178SOL    HW232997   1.735   2.968   3.907 -2.6061  0.8363 -1.2573
 7179SOL     OW32998   3.321   3.427   9.154  0.8769 -0.3070  0.3365
 7179SOL    HW132999   3.358   3.498   9.102 -0.6937  0.6351  0.5144
 7179SOL    HW233000   3.311   3.466   9.241  0.6457 -2.9150  1.4749
 7180SOL     OW33001   2.573   4.420   6.740  0.5261 -0.8018 -0.1115
 7180SOL    HW133002   2.479   4.399   6.741  0.6468 -1.2108  4.8555
 7180SOL    HW233003   2.603   4.359   6.808 -1.2587 -1.3760  0.1761
 7181SOL     OW33004   1.972   4.426  15.756 -0.1414 -0.3056  0.2137
 7181SOL    HW133005   1.877   4.423  15.751 -0.2068 -0.0300  1.3616
 7181SOL    HW233006   1.998   4.351  15.703 -0.0149  0.2808 -0.5597
 7182SOL     OW33007   3.430   2.850  13.152  0.3983  0.7943  0.1886
 7182SOL    HW133008   3.407   2.861  13.244  0.8205  0.9884  0.2716
 7182SOL    HW233009   3.413   2.756  13.148 -0.8538  1.1246 -1.7621
 7183SOL     OW33010   2.474   2.674   4.682 -0.4780  0.1662 -0.2613
 7183SOL    HW133011   2.507   2.761   4.704  0.8732 -0.0205 -1.5026
 7183SOL    HW233012   2.496   2.618   4.756 -0.3530  0.3292 -0.1748
 7184SOL     OW33013   3.531   2.784   7.224  0.2444  0.2915 -0.0816
 7184SOL    HW133014   3.504   2.704   7.179 -0.3482 -0.0997  0.9657
 7184SOL    HW233015   3.503   2.858   7.171  1.7495 -0.8030 -2.3911
 7185SOL     OW33016   1.069   3.287  16.253 -0.1777 -0.2094  0.6447
 7185SOL    HW133017   1.011   3.298  16.328 -0.8843  0.5525 -0.0096
 7185SOL    HW233018   1.127   3.363  16.250  0.7249 -0.8517  1.8928
 7186SOL     OW33019   4.312   2.257   4.299  0.0938  0.1459  0.8843
 7186SOL    HW133020   4.401   2.277   4.271 -0.7510  0.9230 -1.3074
 7186SOL    HW233021   4.327   2.202   4.376  0.2230 -0.0011  0.7542
 7187SOL     OW33022   2.429   4.037   5.750 -0.5053 -0.1394 -0.4435
 7187SOL    HW133023   2.398   4.122   5.779 -2.2422 -1.3851  1.3283
 7187SOL    HW233024   2.348   4.008   5.709  0.0730 -0.4634 -1.3671
 7188SOL     OW33025   1.429   1.460  12.974  0.6751 -0.1624  0.0390
 7188SOL    HW133026   1.376   1.493  12.902  0.6498  3.0198  1.5149
 7188SOL    HW233027   1.500   1.521  12.955 -0.8306  1.9857  1.4050
 7189SOL     OW33028   3.991   0.132   1.316 -0.1076  0.0134  0.1377
 7189SOL    HW133029   3.896   0.142   1.323  0.1313  1.1116  1.8286
 7189SOL    HW233030   4.005   0.191   1.242 -0.8123  2.3543  1.8731
 7190SOL     OW33031   2.250   2.117   3.655 -0.5736  0.3525 -0.4036
 7190SOL    HW133032   2.167   2.155   3.628 -0.7445  1.0578  1.1309
 7190SOL    HW233033   2.272   2.187   3.716  2.1296 -0.9401  0.1357
 7191SOL     OW33034   0.528   1.857  14.110  0.0276  0.0814 -0.7601
 7191SOL    HW133035   0.549   1.788  14.173  1.3693  1.4248  0.2965
 7191SOL    HW233036   0.478   1.811  14.043  0.0005  1.1272 -1.4623
 7192SOL     OW33037   1.935   0.523  13.580  0.2467 -0.5417 -0.2557
 7192SOL    HW133038   1.873   0.452  13.564 -0.2786 -0.2122  0.3365
 7192SOL    HW233039   2.015   0.488  13.540 -0.0554 -1.5817  0.0373
 7193SOL     OW33040   3.431   1.295   7.876 -0.8498  0.1341  0.5242
 7193SOL    HW133041   3.389   1.341   7.804  0.0262  0.0044 -0.0771
 7193SOL    HW233042   3.476   1.368   7.918  0.1284  1.2881 -2.5338
 7194SOL     OW33043   4.607   1.633   6.480 -0.1632 -0.0612 -0.2162
 7194SOL    HW133044   4.592   1.728   6.483 -0.0329 -0.0782  0.8390
 7194SOL    HW233045   4.596   1.604   6.390 -2.3369  0.1105 -0.0174
 7195SOL     OW33046   1.009   0.741  13.030 -0.3155 -0.1117  0.5083
 7195SOL    HW133047   0.996   0.817  12.974  0.8090  0.4109  0.9682
 7195SOL    HW233048   1.055   0.680  12.972 -0.1925 -1.8548  2.4187
 7196SOL     OW33049   4.402   2.056   3.810 -0.0905  0.0355  0.1936
 7196SOL    HW133050   4.391   2.048   3.904  0.5879  0.4744  0.3098
 7196SOL    HW233051   4.366   1.972   3.780  3.0350 -1.1939 -0.0843
 7197SOL     OW33052   0.976   0.971  13.265  0.9116 -0.3618 -0.5525
 7197SOL    HW133053   1.036   1.027  13.216  1.6721 -0.1803  0.5854
 7197SOL    HW233054   0.988   1.014  13.350 -0.5871 -0.3409 -0.3526
 7198SOL     OW33055   0.383   2.037   7.543 -0.5606  0.0658  0.0183
 7198SOL    HW133056   0.449   1.981   7.501 -1.6738  0.3358 -2.0804
 7198SOL    HW233057   0.360   1.971   7.608  0.2335  0.5767  0.8322
 7199SOL     OW33058   4.018   1.601   5.129 -0.2133 -0.3042 -0.0571
 7199SOL    HW133059   4.017   1.675   5.067 -0.0553  1.7485  2.3903
 7199SOL    HW233060   3.926   1.576   5.127 -0.3937  0.3174  0.5695
 7200SOL     OW33061   0.684   2.244   8.080 -0.2045 -0.7387  0.6848
 7200SOL    HW133062   0.652   2.205   8.161 -0.7696  0.8096  1.2138
 7200SOL    HW233063   0.777   2.224   8.087 -0.0803 -0.4122  0.0088
 7201SOL     OW33064   3.559   4.215   1.148 -0.2292 -0.0627  0.5534
 7201SOL    HW133065   3.585   4.158   1.220 -2.2490 -1.6982  0.0169
 7201SOL    HW233066   3.522   4.285   1.202  1.4563  1.3782 -0.1807
 7202SOL     OW33067   3.323   1.975  10.137  0.1669 -0.0502  0.0172
 7202SOL    HW133068   3.346   1.895  10.089 -0.7632 -1.3668  1.7606
 7202SOL    HW233069   3.378   2.041  10.095 -1.0872  0.7526 -0.3641
 7203SOL     OW33070   3.785   0.347   8.666  0.1356  0.1563  0.6426
 7203SOL    HW133071   3.765   0.425   8.614 -0.8133  0.4897  1.5091
 7203SOL    HW233072   3.725   0.369   8.737 -0.4226 -0.7575  0.4549
 7204SOL     OW33073   2.965   1.981  13.797  0.1343 -0.3603  0.1545
 7204SOL    HW133074   2.917   2.033  13.862 -2.4776 -0.2043 -1.8929
 7204SOL    HW233075   2.889   1.946  13.751 -0.7815  0.9498  0.6737
 7205SOL     OW33076   2.445   3.903   8.045 -0.5109  0.1007 -0.2909
 7205SOL    HW133077   2.362   3.892   7.999 -0.9462 -0.5836  0.6552
 7205SOL    HW233078   2.495   3.972   8.001  0.5475 -2.0119 -2.4186
 7206SOL     OW33079   3.573   1.783  11.110 -0.0650 -0.0074 -0.5246
 7206SOL    HW133080   3.520   1.704  11.121 -0.3516  0.3757  0.8983
 7206SOL    HW233081   3.499   1.843  11.120  0.4469  0.6474 -0.6473
 7207SOL     OW33082   2.375   2.588   1.539 -0.2598 -0.0435 -0.2291
 7207SOL    HW133083   2.415   2.503   1.554  0.3734  0.4758  0.9728
 7207SOL    HW233084   2.340   2.598   1.627  0.3846  0.2599 -0.0096
 7208SOL     OW33085   0.261   2.397   1.708  0.3394  0.2351  0.2755
 7208SOL    HW133086   0.355   2.415   1.716  0.0587  1.4672  0.8842
 7208SOL    HW233087   0.251   2.408   1.614  1.2086 -0.3931  0.1181
 7209SOL     OW33088   1.299   3.398  15.974  0.0413 -0.2447  0.5770
 7209SOL    HW133089   1.230   3.404  15.908  0.0775 -0.4942  0.5151
 7209SOL    HW233090   1.377   3.430  15.927 -1.2994  1.2469 -0.6580
 7210SOL     OW33091   3.628   1.289   5.824 -0.4503 -0.7399  0.0177
 7210SOL    HW133092   3.702   1.266   5.880  0.7097  1.0454 -0.7884
 7210SOL    HW233093   3.563   1.252   5.883  0.4152 -2.0171  0.1723
 7211SOL     OW33094   3.923   2.395   1.249 -0.3132 -0.1022  0.3161
 7211SOL    HW133095   4.004   2.440   1.274 -0.8525  1.5166 -0.8248
 7211SOL    HW233096   3.857   2.461   1.270  1.5282  1.6789  0.5257
 7212SOL     OW33097   3.276   1.169   5.590 -0.6728 -0.1297 -0.0549
 7212SOL    HW133098   3.319   1.104   5.646 -0.0895  1.2409  1.1021
 7212SOL    HW233099   3.264   1.247   5.645  0.4738  0.1191 -0.1556
 7213SOL     OW33100   3.235   3.158   2.937  0.7790  0.0393  0.3672
 7213SOL    HW133101   3.289   3.228   2.902  1.2920 -1.3753 -1.6408
 7213SOL    HW233102   3.290   3.080   2.945  1.8757  0.9472  1.5081
 7214SOL     OW33103   1.885   0.921  12.566 -0.1885  0.0641  0.3949
 7214SOL    HW133104   1.972   0.953  12.542 -0.4058  0.5074  0.2086
 7214SOL    HW233105   1.881   0.850  12.503 -3.1386  0.4291  0.1697
 7215SOL     OW33106   2.046   3.247   7.452  0.1911  0.7091  0.5457
 7215SOL    HW133107   2.014   3.324   7.405  2.3229  1.0870 -0.3119
 7215SOL    HW233108   2.115   3.294   7.500  0.7097 -0.1657  0.6610
 7216SOL     OW33109   2.190   0.187   6.345 -0.1935 -0.3883 -0.0167
 7216SOL    HW133110   2.099   0.217   6.348 -0.0822 -0.0086 -0.3712
 7216SOL    HW233111   2.212   0.139   6.425 -1.1143 -1.5787 -0.4754
 7217SOL     OW33112   2.709   3.932   3.929  0.8104 -0.0375  0.3189
 7217SOL    HW133113   2.792   3.909   3.887  0.3728 -2.3304  0.7335
 7217SOL    HW233114   2.657   3.851   3.922  2.0610 -0.6173 -2.4510
 7218SOL     OW33115   2.365   2.903   2.171  0.3294 -0.0356  0.5647
 7218SOL    HW133116   2.308   2.918   2.246  0.0524  0.4187  0.2631
 7218SOL    HW233117   2.411   2.987   2.172 -2.3725  1.4581 -0.5496
 7219SOL     OW33118   2.527   0.304  11.801  0.3001  0.2064  0.0633
 7219SOL    HW133119   2.455   0.283  11.861 -0.4524  0.6979 -0.6677
 7219SOL    HW233120   2.504   0.397  11.800  1.5200  0.4871 -1.2490
 7220SOL     OW33121   2.626   3.444   5.776 -0.6952 -0.7477 -0.1881
 7220SOL    HW133122   2.607   3.352   5.793  0.5775 -0.8346  0.7591
 7220SOL    HW233123   2.599   3.443   5.684 -0.6826  1.3688 -0.2260
 7221SOL     OW33124   1.125   3.368   6.753 -0.3459  0.1406 -0.0261
 7221SOL    HW133125   1.209   3.333   6.783 -1.2415 -3.9330 -2.2316
 7221SOL    HW233126   1.101   3.417   6.831 -0.8745 -0.7289  0.3480
 7222SOL     OW33127   4.409   2.513   3.376 -0.3392  0.1857 -0.2360
 7222SOL    HW133128   4.355   2.480   3.305 -0.2091  0.9847 -0.7122
 7222SOL    HW233129   4.465   2.578   3.334 -1.1013 -0.0217 -1.5592
 7223SOL     OW33130   1.168   1.127   2.878  0.1167 -0.2413  0.3053
 7223SOL    HW133131   1.103   1.061   2.852  0.1825 -1.4226  3.1460
 7223SOL    HW233132   1.235   1.129   2.810 -0.3711 -0.3894 -0.1853
 7224SOL     OW33133   4.100   0.300   7.338  0.3796  0.0691 -0.4414
 7224SOL    HW133134   4.092   0.246   7.259  1.0474 -1.4534  0.5423
 7224SOL    HW233135   4.194   0.313   7.348  0.2032  1.9544 -1.2044
 7225SOL     OW33136   1.857   2.079   0.678  0.1640  0.3718  0.9930
 7225SOL    HW133137   1.919   2.024   0.631 -0.1843 -1.2717  2.4803
 7225SOL    HW233138   1.832   2.143   0.610  2.4435 -0.9504 -1.0779
 7226SOL     OW33139   0.674   3.580   4.363  0.3325 -0.3316  0.4770
 7226SOL    HW133140   0.747   3.632   4.332  0.5298 -0.5485  0.5814
 7226SOL    HW233141   0.615   3.641   4.408  0.7543  0.9563 -0.7289
 7227SOL     OW33142   1.069   2.330  10.722 -0.1153 -0.3004 -0.2209
 7227SOL    HW133143   1.116   2.250  10.697  0.5728  0.1813 -0.4649
 7227SOL    HW233144   1.115   2.400  10.675  0.4338 -1.2158 -1.0529
 7228SOL     OW33145   0.885   0.757  11.454  0.0232  0.2862 -0.4337
 7228SOL    HW133146   0.903   0.802  11.372 -1.1626 -1.1353 -1.4649
 7228SOL    HW233147   0.795   0.734  11.434 -0.3117  0.0273  1.3715
 7229SOL     OW33148   1.330   4.478   6.690 -0.2867  0.4703  0.0612
 7229SOL    HW133149   1.422   4.451   6.685 -1.0032 -1.7464 -0.9956
 7229SOL    HW233150   1.299   4.435   6.611 -1.6843 -0.8175  1.3359
 7230SOL     OW33151   2.065   0.561   0.378  0.1663  0.2715  0.0273
 7230SOL    HW133152   1.980   0.600   0.397  0.2817  0.4712  0.1252
 7230SOL    HW233153   2.082   0.611   0.298 -1.0147  1.1253  0.3240
 7231SOL     OW33154   0.301   1.132   7.810  0.4404 -0.6749 -0.4540
 7231SOL    HW133155   0.283   1.114   7.718 -3.5800  0.8115  0.0463
 7231SOL    HW233156   0.303   1.049   7.858 -2.5626  0.5615  1.7821
 7232SOL     OW33157   3.238   3.111   7.825 -0.4514  0.7432  0.7314
 7232SOL    HW133158   3.300   3.093   7.754  1.0132  2.0885  1.6629
 7232SOL    HW233159   3.244   3.207   7.827 -2.7685  0.9764 -4.3252
 7233SOL     OW33160   4.697   1.474   8.502  0.3688  0.0710 -0.1045
 7233SOL    HW133161   4.615   1.510   8.536  0.5326 -0.6099  1.0148
 7233SOL    HW233162   4.660   1.432   8.424  2.1915  1.5042 -1.7130
 7234SOL     OW33163   3.416   1.886  12.869  0.1118  0.1193 -0.0267
 7234SOL    HW133164   3.423   1.981  12.863  0.9638  0.0782  0.2530
 7234SOL    HW233165   3.493   1.888  12.926 -0.1812  1.2750  0.3212
 7235SOL     OW33166   4.366   2.803   9.319  0.0982  0.5906 -0.1250
 7235SOL    HW133167   4.444   2.786   9.373 -0.0344  1.5262  0.3491
 7235SOL    HW233168   4.294   2.795   9.382  0.2946 -0.5430 -0.0330
 7236SOL     OW33169   1.098   3.850  12.464 -0.2463 -0.1897  0.0566
 7236SOL    HW133170   1.004   3.844  12.450 -0.7391 -2.5211  4.3844
 7236SOL    HW233171   1.115   3.786  12.395 -0.0817  0.7212 -0.7483
 7237SOL     OW33172   0.335   1.977  13.602  0.5510 -0.5141 -0.4505
 7237SOL    HW133173   0.338   1.882  13.608  1.6332 -0.4271  0.5468
 7237SOL    HW233174   0.417   2.004  13.644  0.0905  0.0128  0.1130
 7238SOL     OW33175   4.639   2.942   3.129  0.4860 -0.2073  0.6090
 7238SOL    HW133176   4.661   3.013   3.188 -1.0422 -1.0018  2.1471
 7238SOL    HW233177   4.575   2.985   3.071  0.6760  0.0917  0.6246
 7239SOL     OW33178   3.259   3.598   4.482  0.4211 -0.5280 -0.1097
 7239SOL    HW133179   3.314   3.675   4.465 -0.7868  0.5074  0.7163
 7239SOL    HW233180   3.245   3.565   4.393 -3.6538  0.5243  0.1784
 7240SOL     OW33181   3.952   4.473  13.772  0.2955  0.2568 -0.1938
 7240SOL    HW133182   4.017   4.430  13.828  0.9753  1.8359  0.2228
 7240SOL    HW233183   3.966   4.418  13.695 -2.2188  0.6197 -0.9333
 7241SOL     OW33184   1.064   1.693   7.062  0.3346 -0.3770 -0.7459
 7241SOL    HW133185   1.048   1.786   7.048 -0.6482 -0.6269 -1.2779
 7241SOL    HW233186   1.111   1.696   7.146  1.0072  2.2969 -1.2149
 7242SOL     OW33187   4.031   3.917   9.556  0.2267  0.0984 -0.2745
 7242SOL    HW133188   4.096   3.878   9.496  2.3106 -1.3549  2.9265
 7242SOL    HW233189   4.064   4.006   9.569  1.9092 -0.7929  1.6441
 7243SOL     OW33190   3.342   2.636  16.263 -0.3437 -0.0259  0.1193
 7243SOL    HW133191   3.366   2.706  16.203 -0.4117  0.0637  0.1967
 7243SOL    HW233192   3.362   2.674  16.349  2.7988  0.6105 -0.8680
 7244SOL     OW33193   1.594   3.681   3.274 -0.1306 -0.2192 -0.2835
 7244SOL    HW133194   1.681   3.691   3.235  0.7356  1.4349  2.0639
 7244SOL    HW233195   1.566   3.772   3.264 -1.5921 -0.5898  0.3998
 7245SOL     OW33196   3.032   2.989   5.305  0.0893 -0.5820 -0.6126
 7245SOL    HW133197   2.940   3.005   5.282 -0.0434  2.1787  1.8116
 7245SOL    HW233198   3.033   2.949   5.391  0.1126 -1.1907 -0.8943
 7246SOL     OW33199   2.652   1.683   4.936  0.1171 -0.0110  0.1852
 7246SOL    HW133200   2.614   1.764   4.903  0.5849 -0.1632 -0.7363
 7246SOL    HW233201   2.632   1.682   5.029  0.6696  0.5808  0.3100
 7247SOL     OW33202   4.677   4.170  14.610  0.0105  0.0398  0.1824
 7247SOL    HW133203   4.672   4.098  14.547  1.2894 -0.7582  0.9883
 7247SOL    HW233204   4.586   4.188  14.635  0.5829 -0.4502  2.6332
 7248SOL     OW33205   2.412   4.592   8.828  0.4830 -0.2456 -0.2265
 7248SOL    HW133206   2.504   4.618   8.824  0.0976  1.5407  2.9892
 7248SOL    HW233207   2.371   4.678   8.832  2.5865  0.6697  1.2468
 7249SOL     OW33208   2.138   2.590   8.439 -0.3155 -0.1541 -0.1026
 7249SOL    HW133209   2.046   2.582   8.465  0.6164  0.1454  3.3270
 7249SOL    HW233210   2.158   2.645   8.515  0.3836  0.2862 -0.5992
 7250SOL     OW33211   0.379   4.455   2.815 -0.7346 -0.0518 -0.4030
 7250SOL    HW133212   0.462   4.426   2.778 -1.3590 -0.0204 -1.8334
 7250SOL    HW233213   0.407   4.483   2.903 -1.2237 -0.5794 -0.0814
 7251SOL     OW33214   3.347   3.434   8.512 -0.5732  0.0116  0.2583
 7251SOL    HW133215   3.331   3.435   8.606 -0.1385 -2.7293  0.3652
 7251SOL    HW233216   3.261   3.469   8.490 -0.3978  0.6200  0.5122
 7252SOL     OW33217   4.446   2.685  13.202  0.3970 -0.6211 -0.0843
 7252SOL    HW133218   4.419   2.624  13.133 -0.1351  2.1021 -2.2958
 7252SOL    HW233219   4.364   2.734  13.205 -1.0132 -2.9201 -0.2202
 7253SOL     OW33220   1.316   1.233   8.869 -0.5756 -0.2227 -0.4440
 7253SOL    HW133221   1.390   1.183   8.905 -1.7450 -1.1193  0.7308
 7253SOL    HW233222   1.321   1.312   8.923 -2.3072 -0.3117 -0.1504
 7254SOL     OW33223   4.614   2.895  13.334  0.0863  0.0390 -0.2450
 7254SOL    HW133224   4.682   2.827  13.339 -1.7100 -1.6837  0.4319
 7254SOL    HW233225   4.546   2.834  13.305 -0.6917 -0.4537  2.5881
 7255SOL     OW33226   3.310   4.314  13.698 -0.1115 -0.6546  0.1666
 7255SOL    HW133227   3.370   4.385  13.676  0.4267 -0.8833  0.8671
 7255SOL    HW233228   3.250   4.326  13.625  0.5916  0.7034 -0.1860
 7256SOL     OW33229   4.128   4.253   5.559 -0.7445 -0.1270 -0.4202
 7256SOL    HW133230   4.186   4.293   5.494  0.7961 -0.7700  0.5801
 7256SOL    HW233231   4.109   4.326   5.617 -1.7084 -0.0878 -0.7814
 7257SOL     OW33232   3.412   1.120  12.903  0.3762 -0.1140  0.2282
 7257SOL    HW133233   3.386   1.196  12.954  1.6118  1.2548 -1.1767
 7257SOL    HW233234   3.463   1.065  12.962 -1.4230 -1.5036  0.5041
 7258SOL     OW33235   0.547   2.657   1.516 -0.3239 -0.1074 -0.0347
 7258SOL    HW133236   0.458   2.688   1.498 -0.8083 -0.4442  1.7427
 7258SOL    HW233237   0.522   2.589   1.579 -0.8979 -1.0438 -1.2809
 7259SOL     OW33238   1.368   3.933   3.442 -0.0167 -0.6796 -0.5823
 7259SOL    HW133239   1.296   3.989   3.471 -1.4863 -3.3240  0.8778
 7259SOL    HW233240   1.355   3.851   3.489  2.2114 -0.4638  0.4108
 7260SOL     OW33241   3.759   4.261   6.191  0.3519 -0.1018 -0.1238
 7260SOL    HW133242   3.841   4.214   6.204  1.1620  0.9309 -1.4500
 7260SOL    HW233243   3.690   4.203   6.223  1.0383 -1.9329 -2.0379
 7261SOL     OW33244   0.919   4.191  15.302  0.3849 -0.0287  0.0404
 7261SOL    HW133245   0.832   4.229  15.296  0.8686  0.7145 -2.2628
 7261SOL    HW233246   0.916   4.179  15.397  0.9592 -0.4435  0.0068
 7262SOL     OW33247   0.283   2.945   6.855  0.4924 -0.1258  0.2323
 7262SOL    HW133248   0.366   2.928   6.811 -0.8080 -2.4538 -1.3184
 7262SOL    HW233249   0.272   2.882   6.926  1.0635 -1.7189 -1.0856
 7263SOL     OW33250   3.137   0.129   5.793 -0.0279 -0.4240 -0.4240
 7263SOL    HW133251   3.208   0.173   5.841 -1.7085  2.0503 -0.2205
 7263SOL    HW233252   3.064   0.138   5.853  0.6510  0.5513  0.2561
 7264SOL     OW33253   3.935   4.184   8.827 -0.4270 -0.5963 -0.1939
 7264SOL    HW133254   3.902   4.263   8.869 -0.3361  0.0271 -1.2997
 7264SOL    HW233255   3.875   4.167   8.754 -0.9115 -2.2605  0.5942
 7265SOL     OW33256   3.515   2.525   1.359  0.4253 -0.3231 -0.3312
 7265SOL    HW133257   3.427   2.521   1.395  1.4985  1.0982  2.4850
 7265SOL    HW233258   3.573   2.492   1.428  0.8981 -0.7977 -0.9481
 7266SOL     OW33259   4.681   3.848   3.789  0.1394 -0.1172 -0.3060
 7266SOL    HW133260   4.589   3.858   3.811  0.1270 -0.1703 -0.3348
 7266SOL    HW233261   4.711   3.785   3.855  1.7262  0.2965 -0.6231
 7267SOL     OW33262   3.506   0.222   7.600  0.2089 -0.2021 -0.0619
 7267SOL    HW133263   3.477   0.149   7.547  1.9442  0.3632 -1.7887
 7267SOL    HW233264   3.551   0.281   7.540 -0.3098  1.2205  0.9357
 7268SOL     OW33265   0.103   0.561   8.198  0.2106 -0.4092 -0.5335
 7268SOL    HW133266   0.102   0.465   8.189 -2.1092 -0.4666  0.3063
 7268SOL    HW233267   0.013   0.594   8.205 -0.3824 -1.8899 -0.9216
 7269SOL     OW33268   1.067   2.921   6.170 -0.3461 -0.2136  0.4384
 7269SOL    HW133269   1.057   3.008   6.208  1.2732  0.6434 -1.0796
 7269SOL    HW233270   0.974   2.902   6.167 -0.0772 -1.7345  1.9117
 7270SOL     OW33271   0.774   2.243  13.103  0.2782  0.1063  0.0943
 7270SOL    HW133272   0.786   2.312  13.169  4.7432 -0.8844  0.3715
 7270SOL    HW233273   0.843   2.186  13.138 -0.3030  1.0346  2.7819
 7271SOL     OW33274   1.263   3.759  11.819  0.1631 -0.3200 -0.2337
 7271SOL    HW133275   1.188   3.717  11.862  0.6948 -1.7835 -0.7518
 7271SOL    HW233276   1.251   3.844  11.863  0.7777  0.3996 -1.4570
 7272SOL     OW33277   3.338   2.712  13.788 -0.7436  0.1810 -0.5976
 7272SOL    HW133278   3.431   2.719  13.810 -1.2071 -2.0344  1.9883
 7272SOL    HW233279   3.309   2.684  13.875 -0.1901 -3.0183 -1.4772
 7273SOL     OW33280   1.197   3.258   7.686 -0.0349  0.6101  0.3582
 7273SOL    HW133281   1.284   3.291   7.708  0.5237  0.0425 -0.9901
 7273SOL    HW233282   1.210   3.175   7.731 -0.1573  0.8388  0.8094
 7274SOL     OW33283   2.635   1.588   4.694 -0.3124  0.2234  0.1370
 7274SOL    HW133284   2.587   1.507   4.678 -0.4568  0.3162  0.1026
 7274SOL    HW233285   2.635   1.592   4.789 -0.0514 -0.2790  0.1605
 7275SOL     OW33286   0.647   3.782  17.212 -0.1473 -0.0825 -0.1116
 7275SOL    HW133287   0.558   3.752  17.231 -0.1924 -0.3125 -0.6758
 7275SOL    HW233288   0.701   3.730  17.271 -0.2327 -0.1403 -0.0853
 7276SOL     OW33289   2.063   4.157  16.219  0.1857  0.0600 -0.0413
 7276SOL    HW133290   1.996   4.224  16.232  0.0625 -0.3392  1.4498
 7276SOL    HW233291   2.093   4.139  16.308  0.8397  2.4241  0.2106
 7277SOL     OW33292   2.611   2.082   3.961  0.1123  0.3808  0.2172
 7277SOL    HW133293   2.556   2.035   4.023 -1.0438 -0.4009 -1.4059
 7277SOL    HW233294   2.569   2.167   3.948  2.2025  1.5190  0.8845
 7278SOL     OW33295   4.460   2.704   8.174 -0.4430 -0.0015  0.0696
 7278SOL    HW133296   4.456   2.724   8.267  2.6078 -1.3063  0.4721
 7278SOL    HW233297   4.395   2.759   8.130 -0.8111 -1.0606 -0.7224
 7279SOL     OW33298   2.080   2.322   8.274  0.3614  0.0038  0.6159
 7279SOL    HW133299   2.044   2.309   8.361 -0.6604 -0.6382  0.1016
 7279SOL    HW233300   2.145   2.390   8.288 -1.4755  1.9956 -0.5438
 7280SOL     OW33301   4.673   0.521   2.902  0.5740 -0.1259 -0.0523
 7280SOL    HW133302   4.692   0.454   2.837 -2.5485 -0.5576 -0.5355
 7280SOL    HW233303   4.640   0.599   2.857  1.1768 -0.2569 -0.7182
 7281SOL     OW33304   2.409   1.473   6.059 -0.1797  0.4058  1.0669
 7281SOL    HW133305   2.347   1.405   6.034 -0.9425  1.4567  0.0766
 7281SOL    HW233306   2.392   1.538   5.991  1.4620  1.5634  1.7638
 7282SOL     OW33307   1.645   4.231   3.891 -0.1997  0.5007 -0.6500
 7282SOL    HW133308   1.696   4.289   3.835  1.4759 -0.6059 -0.2682
 7282SOL    HW233309   1.655   4.283   3.971 -2.8000  1.3805 -0.9168
 7283SOL     OW33310   1.851   4.499   9.251 -0.0035  0.8355  0.0754
 7283SOL    HW133311   1.797   4.456   9.184 -0.8049 -0.0535  1.3018
 7283SOL    HW233312   1.794   4.520   9.325 -0.1068 -1.8637  0.7535
 7284SOL     OW33313   3.526   1.322  16.900  0.0153 -0.6435  0.0993
 7284SOL    HW133314   3.551   1.413  16.887 -2.7707  0.1682  0.3341
 7284SOL    HW233315   3.543   1.282  16.814  1.4938 -1.2137  0.6542
 7285SOL     OW33316   4.610   2.918  14.590  0.2305  0.5648 -0.1950
 7285SOL    HW133317   4.617   2.946  14.499 -3.0525 -0.3814 -0.7258
 7285SOL    HW233318   4.624   2.824  14.580  2.7639  0.8872  0.3842
 7286SOL     OW33319   1.610   4.459   5.933  0.6976 -0.2117 -0.5562
 7286SOL    HW133320   1.541   4.415   5.883  0.7278 -2.6546  1.5652
 7286SOL    HW233321   1.653   4.382   5.969 -0.0630  0.1959  1.2392
 7287SOL     OW33322   4.109   1.552   2.881  0.4341 -0.3897 -0.3692
 7287SOL    HW133323   4.080   1.568   2.971 -0.0558  2.2715 -0.9904
 7287SOL    HW233324   4.051   1.604   2.826 -1.2749 -1.7715  0.1206
 7288SOL     OW33325   1.142   3.709   6.693 -0.5696  0.7829  0.0985
 7288SOL    HW133326   1.120   3.632   6.641  3.1574 -1.1225  1.3069
 7288SOL    HW233327   1.190   3.664   6.763 -1.2207 -0.2194 -0.1105
 7289SOL     OW33328   0.566   1.597   4.449  0.5376  0.0321  0.8360
 7289SOL    HW133329   0.615   1.520   4.419  1.2573  0.3034  1.3186
 7289SOL    HW233330   0.630   1.661   4.419 -1.2694  1.2386 -0.4773
 7290SOL     OW33331   1.138   2.064   2.875 -0.1861  0.1085 -0.2008
 7290SOL    HW133332   1.107   1.980   2.841 -0.4288 -0.6089  1.8551
 7290SOL    HW233333   1.124   2.116   2.796  0.8277  0.8849  0.1283
 7291SOL     OW33334   2.070   3.214   4.677  0.2879 -0.1578  0.0271
 7291SOL    HW133335   2.158   3.241   4.650 -0.0233 -0.3002 -1.1286
 7291SOL    HW233336   2.044   3.181   4.591 -1.6763 -0.6847  0.8178
 7292SOL     OW33337   1.924   0.092   6.632  0.2248  0.1049 -0.1638
 7292SOL    HW133338   1.935   0.127   6.720 -1.0561 -0.2439  0.1320
 7292SOL    HW233339   1.913   4.719   6.642 -2.5768  0.6003  1.2115
 7293SOL     OW33340   1.980   0.678   7.056  0.6749  0.3361 -0.4283
 7293SOL    HW133341   2.073   0.663   7.071  0.9344  1.3448 -0.9587
 7293SOL    HW233342   1.972   0.635   6.971  0.7482  1.1886 -0.8682
 7294SOL     OW33343   0.824   0.346   9.006 -0.2763 -0.4900  0.3801
 7294SOL    HW133344   0.828   0.253   8.986  2.9622 -0.2945  0.0386
 7294SOL    HW233345   0.840   0.347   9.101  0.4527  0.6814  0.2392
 7295SOL     OW33346   3.740   2.857   3.598 -0.0937 -0.2961 -0.2614
 7295SOL    HW133347   3.789   2.937   3.580  0.6644 -0.3459  1.5689
 7295SOL    HW233348   3.684   2.879   3.672  2.4892  1.1365  1.2837
 7296SOL     OW33349   1.967   1.397   4.274  0.4103  0.3633 -0.3812
 7296SOL    HW133350   1.953   1.332   4.343 -0.2964 -1.0961 -1.8986
 7296SOL    HW233351   1.972   1.477   4.327 -1.6983 -1.0424  1.9452
 7297SOL     OW33352   2.898   3.810   5.574 -0.5728 -0.2886 -0.6094
 7297SOL    HW133353   2.813   3.850   5.589  0.8818  1.4683  2.8241
 7297SOL    HW233354   2.960   3.880   5.593  0.2824 -0.9582 -0.9012
 7298SOL     OW33355   4.591   0.097  14.108 -0.4665  0.0781 -0.3693
 7298SOL    HW133356   4.589   0.104  14.204 -1.2526 -1.7872 -0.2521
 7298SOL    HW233357   4.509   0.134  14.078 -0.7696  0.4837  0.9293
 7299SOL     OW33358   2.048   3.642   1.051 -0.6313  0.0222  0.1595
 7299SOL    HW133359   1.996   3.590   0.990 -0.6335  0.5164 -0.2607
 7299SOL    HW233360   2.072   3.710   0.988  0.2119  0.0810  0.5322
 7300SOL     OW33361   4.050   0.478   5.732 -0.5857  0.2377  0.0584
 7300SOL    HW133362   4.047   0.534   5.810 -0.1742  2.4244 -1.5235
 7300SOL    HW233363   3.994   0.406   5.761 -0.0254 -0.6374 -1.0639
 7301SOL     OW33364   2.900   2.271   7.624  0.3794 -0.0323  0.0762
 7301SOL    HW133365   2.925   2.206   7.558 -0.3735 -0.3242  0.0774
 7301SOL    HW233366   2.848   2.221   7.688 -0.7779  1.2573  0.1422
 7302SOL     OW33367   0.579   0.953  12.107 -0.1313  0.1952  0.0601
 7302SOL    HW133368   0.670   0.966  12.083 -0.0661 -0.7906 -0.2349
 7302SOL    HW233369   0.572   0.857  12.104 -1.6792  0.3383 -1.0909
 7303SOL     OW33370   1.577   1.613  13.193 -0.4801 -0.0067 -0.6660
 7303SOL    HW133371   1.505   1.676  13.201 -0.1539  0.5122 -1.7748
 7303SOL    HW233372   1.590   1.610  13.098  0.1048  1.0547 -0.6293
 7304SOL     OW33373   1.955   1.901   5.021 -0.0631 -0.4451 -0.0980
 7304SOL    HW133374   2.001   1.852   5.088  0.1244  0.7565  0.6485
 7304SOL    HW233375   1.905   1.825   4.990  1.8700 -0.6073 -2.7758
 7305SOL     OW33376   4.019   3.212   9.021  0.1687 -0.3348  0.4962
 7305SOL    HW133377   3.926   3.217   9.040  0.2493  1.4081  0.4758
 7305SOL    HW233378   4.033   3.119   9.036  2.4151 -0.0749  0.0321
 7306SOL     OW33379   1.673   1.023   2.573  0.3248  0.5619  0.2303
 7306SOL    HW133380   1.736   0.973   2.522 -1.5397 -1.2786 -0.2901
 7306SOL    HW233381   1.704   1.011   2.663 -0.3392 -0.5782  0.3158
 7307SOL     OW33382   4.483   1.096   8.705 -0.1427  0.1530  0.2367
 7307SOL    HW133383   4.549   1.165   8.710 -0.1258  0.0795  1.1309
 7307SOL    HW233384   4.507   1.047   8.784  1.3511  2.8160  1.4174
 7308SOL     OW33385   0.382   4.487   0.922 -0.0999 -0.0377 -0.2249
 7308SOL    HW133386   0.470   4.489   0.884  0.0596  0.4692  0.1693
 7308SOL    HW233387   0.355   4.576   0.898 -0.9033 -0.7428 -1.8715
 7309SOL     OW33388   0.273   2.272  15.920 -0.0230 -0.0603 -0.0854
 7309SOL    HW133389   0.253   2.363  15.941 -0.7857 -0.3632  0.4865
 7309SOL    HW233390   0.369   2.270  15.922  0.0127  1.6887  0.0094
 7310SOL     OW33391   2.397   0.156   5.616 -0.4459  0.0008 -0.3831
 7310SOL    HW133392   2.447   0.188   5.541  1.3416  2.3318  1.8066
 7310SOL    HW233393   2.319   0.212   5.614 -0.0479  0.4885 -1.7458
 7311SOL     OW33394   0.131   3.203   3.574 -0.0631 -0.3207 -0.7768
 7311SOL    HW133395   0.199   3.137   3.589 -0.5779 -0.8293 -0.6742
 7311SOL    HW233396   0.181   3.269   3.525  1.1220  0.7055  1.8412
 7312SOL     OW33397   3.283   2.551   6.451  0.5575  0.6334  0.2238
 7312SOL    HW133398   3.365   2.550   6.500  0.7422 -2.5246 -0.1539
 7312SOL    HW233399   3.305   2.516   6.365  1.1992 -0.1109  0.6894
 7313SOL     OW33400   4.587   0.799   0.738  0.3071  0.3034  0.1375
 7313SOL    HW133401   4.562   0.776   0.649  1.2951  0.4794 -0.1827
 7313SOL    HW233402   4.506   0.841   0.769 -1.2901 -1.1114 -2.1137
 7314SOL     OW33403   3.582   4.710   6.837  0.0895 -0.6899 -0.8563
 7314SOL    HW133404   3.487   4.712   6.846  0.2500 -3.0191  1.3468
 7314SOL    HW233405   3.591   0.033   6.753 -1.9726 -0.0939 -0.7708
 7315SOL     OW33406   1.873   3.021   8.214  0.1719  0.2932  0.2351
 7315SOL    HW133407   1.791   3.061   8.185  0.3085  0.1310 -0.3836
 7315SOL    HW233408   1.918   3.090   8.263 -0.0817  1.5823 -1.3520
 7316SOL     OW33409   1.057   0.433   3.758  0.7278  0.2327 -0.6217
 7316SOL    HW133410   1.018   0.515   3.786  0.8209 -0.5999  2.0533
 7316SOL    HW233411   1.141   0.465   3.725  0.2479 -0.3317 -2.3456
 7317SOL     OW33412   4.244   2.085   8.950 -0.0058  0.1195 -0.3540
 7317SOL    HW133413   4.322   2.139   8.959 -0.7617  1.0972  0.2967
 7317SOL    HW233414   4.218   2.087   9.042  0.5264  0.2073 -0.2063
 7318SOL     OW33415   1.486   2.473   5.068 -0.4339 -0.1172 -0.3630
 7318SOL    HW133416   1.523   2.451   4.982 -0.5804 -1.3353 -0.1037
 7318SOL    HW233417   1.465   2.388   5.106 -1.3639 -0.0195 -0.6501
 7319SOL     OW33418   3.832   1.392   7.869  0.2022 -0.1912 -0.3103
 7319SOL    HW133419   3.872   1.416   7.952 -0.3225 -0.0365 -0.1047
 7319SOL    HW233420   3.801   1.477   7.837 -0.2674  0.0379  0.7649
 7320SOL     OW33421   3.977   4.063   3.234  0.0323  0.2755 -0.1405
 7320SOL    HW133422   3.889   4.029   3.254 -0.0932  1.8238  1.9169
 7320SOL    HW233423   4.033   3.988   3.257 -0.7885  0.4598  2.5223
 7321SOL     OW33424   2.858   2.403   6.078  0.0683 -0.6367 -0.3813
 7321SOL    HW133425   2.829   2.384   6.167  1.0088  3.4747  0.7849
 7321SOL    HW233426   2.911   2.480   6.099 -2.7635  1.5824 -1.3175
 7322SOL     OW33427   1.716   1.493   6.576  0.7827  0.2171  0.4747
 7322SOL    HW133428   1.722   1.521   6.484 -0.5609  1.4900  0.7619
 7322SOL    HW233429   1.623   1.476   6.592  0.6236  0.0713 -0.5602
 7323SOL     OW33430   3.397   3.370  16.903 -0.1055 -0.5035 -0.4563
 7323SOL    HW133431   3.304   3.366  16.883 -0.2587  0.9705 -0.0794
 7323SOL    HW233432   3.391   3.434  16.975 -0.9307 -0.0001 -0.9714
 7324SOL     OW33433   1.889   4.650  13.635  0.3460 -0.0105  0.2102
 7324SOL    HW133434   1.905   4.617  13.547  0.7832  1.7031 -0.3605
 7324SOL    HW233435   1.810   4.601  13.658  0.3940  0.0491  0.5032
 7325SOL     OW33436   0.731   2.756  14.641  0.0083 -0.1264 -1.1245
 7325SOL    HW133437   0.815   2.801  14.630  0.3950 -0.3911  0.6842
 7325SOL    HW233438   0.682   2.823  14.689  0.3450 -1.4654  1.1221
 7326SOL     OW33439   1.930   0.451   5.607 -0.2211  0.2363  0.2931
 7326SOL    HW133440   1.837   0.431   5.595 -0.6816  0.9748  2.6630
 7326SOL    HW233441   1.944   0.438   5.701 -0.4033  1.1764  0.4514
 7327SOL     OW33442   2.769   0.018   5.001 -0.3564  0.5247 -0.3063
 7327SOL    HW133443   2.717   4.663   4.975 -1.2221  0.8598  0.4117
 7327SOL    HW233444   2.856   4.700   4.997 -1.2006 -1.6152  1.7877
 7328SOL     OW33445   1.424   1.851   6.265  0.3700  0.8418  0.2094
 7328SOL    HW133446   1.503   1.902   6.249  0.4615  0.4401 -0.6533
 7328SOL    HW233447   1.359   1.917   6.242  0.0843  0.9856  1.4298
 7329SOL     OW33448   1.379   0.464  13.308  0.1649 -0.4172  0.3124
 7329SOL    HW133449   1.418   0.520  13.375 -0.8015  1.3480 -0.6073
 7329SOL    HW233450   1.383   0.528  13.238  0.2072  0.5693  1.2206
 7330SOL     OW33451   3.203   4.316  14.487 -0.3191 -0.1436 -0.0147
 7330SOL    HW133452   3.216   4.359  14.402 -1.4068  0.3163  0.0542
 7330SOL    HW233453   3.131   4.259  14.463 -0.0214 -1.7741  2.9335
 7331SOL     OW33454   0.546   3.915   6.289  0.0092  0.0405 -0.7598
 7331SOL    HW133455   0.537   3.995   6.237  0.0916  1.1375  0.8859
 7331SOL    HW233456   0.604   3.948   6.358 -0.1958 -2.6065  0.6562
 7332SOL     OW33457   1.174   4.568   3.475  0.2618 -0.5708 -0.2859
 7332SOL    HW133458   1.249   4.527   3.517 -0.1637 -0.5152  0.5360
 7332SOL    HW233459   1.200   4.660   3.474  1.1534 -0.8352 -1.3839
 7333SOL     OW33460   3.827   2.801   3.911 -0.1120 -0.2169 -0.6309
 7333SOL    HW133461   3.894   2.765   3.853  1.6445  1.0009  0.6628
 7333SOL    HW233462   3.748   2.747   3.903 -2.0184  2.7009 -1.4036
 7334SOL     OW33463   3.445   0.199   5.670 -0.3195 -0.6551 -0.1893
 7334SOL    HW133464   3.391   0.273   5.642 -1.7491 -2.2027 -1.4876
 7334SOL    HW233465   3.454   0.143   5.594 -0.1535  1.2082 -1.5494
 7335SOL     OW33466   3.067   1.162   5.912 -0.3516 -0.1546  0.4034
 7335SOL    HW133467   3.016   1.156   5.831  0.1282 -1.3365  0.1780
 7335SOL    HW233468   3.142   1.210   5.877  1.4600 -3.5645 -0.4487
 7336SOL     OW33469   4.254   1.036   1.950  0.4208 -0.6174  0.1731
 7336SOL    HW133470   4.233   1.058   1.859 -0.1318 -0.7362  0.2776
 7336SOL    HW233471   4.207   1.104   1.999  2.0266  0.6072  0.0077
 7337SOL     OW33472   2.640   3.887   7.719 -0.2758  0.3140 -0.1087
 7337SOL    HW133473   2.565   3.841   7.683 -1.0054  2.1222 -0.8746
 7337SOL    HW233474   2.643   3.828   7.794  0.8066  1.5017  0.7886
 7338SOL     OW33475   3.526   3.257   2.370  0.1592  0.4140  0.0252
 7338SOL    HW133476   3.439   3.272   2.407 -0.5120 -0.9861 -1.0162
 7338SOL    HW233477   3.524   3.161   2.368  0.4473  0.4511 -1.7246
 7339SOL     OW33478   3.932   4.124  11.916 -0.0039 -0.1107 -0.1249
 7339SOL    HW133479   3.985   4.136  11.838  2.1322  0.0493  1.3460
 7339SOL    HW233480   3.990   4.161  11.983 -3.3585  0.2551  2.5751
 7340SOL     OW33481   2.892   1.336  14.160 -0.0419  0.6901  1.0798
 7340SOL    HW133482   2.950   1.388  14.215  0.6801  0.2540  0.7393
 7340SOL    HW233483   2.834   1.312  14.231 -0.6067  0.0497  0.4031
 7341SOL     OW33484   0.774   1.790   6.135 -0.5837  0.2867 -0.4015
 7341SOL    HW133485   0.753   1.723   6.070  3.2382 -3.1955  1.9224
 7341SOL    HW233486   0.867   1.778   6.156 -0.3961  2.9511  0.2808
 7342SOL     OW33487   2.580   3.074   8.179 -0.1676  0.3017 -0.0173
 7342SOL    HW133488   2.593   2.981   8.157 -1.5071  0.7056 -2.5700
 7342SOL    HW233489   2.489   3.086   8.205 -0.8275 -1.9714 -1.2404
 7343SOL     OW33490   0.939   3.483   8.774  0.0816 -0.3881 -0.0348
 7343SOL    HW133491   0.854   3.442   8.761  0.0230 -0.3315  0.1672
 7343SOL    HW233492   0.972   3.462   8.686 -1.3796  2.2851 -1.2247
 7344SOL     OW33493   2.166   4.610   2.077  0.2063  0.3054 -0.0094
 7344SOL    HW133494   2.124   4.608   2.163  1.8135 -0.3376  0.7711
 7344SOL    HW233495   2.104   4.559   2.025 -3.0763  2.3383  1.9355
 7345SOL     OW33496   1.083   3.354   9.918  0.1023 -0.3524 -0.5376
 7345SOL    HW133497   1.049   3.442   9.902 -0.9926 -0.8533 -1.0013
 7345SOL    HW233498   1.176   3.368   9.902  0.2171  1.6215  1.8000
 7346SOL     OW33499   0.885   0.974  17.298 -0.2979  0.8269  0.1536
 7346SOL    HW133500   0.864   0.913  17.228  1.7731  0.0287  0.2411
 7346SOL    HW233501   0.840   0.930  17.370  0.1103 -0.7150 -0.5363
 7347SOL     OW33502   0.568   1.848   8.250  0.1046  0.1515 -0.0231
 7347SOL    HW133503   0.634   1.860   8.182 -1.6487  0.0004 -1.7649
 7347SOL    HW233504   0.614   1.880   8.328  0.0649  0.6978 -0.2269
 7348SOL     OW33505   1.563   4.477   2.119 -0.0266 -0.9362  0.0666
 7348SOL    HW133506   1.593   4.484   2.028  0.3217  0.5569  0.2948
 7348SOL    HW233507   1.473   4.507   2.116 -0.3776 -1.8083  1.6265
 7349SOL     OW33508   2.313   1.701   2.249  0.1223 -0.2346  0.7184
 7349SOL    HW133509   2.289   1.683   2.159  0.3105  1.3143  0.3497
 7349SOL    HW233510   2.360   1.784   2.237 -1.0126  0.6047  1.9943
 7350SOL     OW33511   2.427   4.215   3.964 -0.3048 -0.0458 -0.0529
 7350SOL    HW133512   2.366   4.278   3.926  0.3897 -0.5706 -2.0316
 7350SOL    HW233513   2.369   4.145   3.937 -0.9820  0.1993  0.7623
 7351SOL     OW33514   2.841   0.177  13.652 -0.5006 -0.0156 -0.6764
 7351SOL    HW133515   2.748   0.197  13.637 -0.1707  1.4785 -0.7175
 7351SOL    HW233516   2.867   0.263  13.618  0.6189  0.0369  0.3349
 7352SOL     OW33517   1.583   0.835   6.949  0.1921  0.5311 -0.3661
 7352SOL    HW133518   1.670   0.877   6.953  0.4623 -0.1032  0.3950
 7352SOL    HW233519   1.530   0.914   6.944 -1.8915 -0.9176 -0.9432
 7353SOL     OW33520   4.134   0.366  10.751 -0.4620 -0.6195  0.2892
 7353SOL    HW133521   4.111   0.364  10.659 -1.5790  1.0248  0.5346
 7353SOL    HW233522   4.054   0.325  10.785 -0.6569  1.6317  2.5874
 7354SOL     OW33523   2.900   0.844   8.834 -0.6296  0.0912  0.0085
 7354SOL    HW133524   2.873   0.887   8.753  2.2877 -0.3241 -1.1921
 7354SOL    HW233525   2.959   0.779   8.796  0.3116 -0.5214  2.4977
 7355SOL     OW33526   2.526   3.717  13.297 -0.1490 -0.5153  0.0994
 7355SOL    HW133527   2.488   3.690  13.213 -2.2653 -1.4668  1.3912
 7355SOL    HW233528   2.578   3.792  13.267 -0.1007 -0.8372 -0.6396
 7356SOL     OW33529   0.887   4.188   2.353  0.0681  0.0351  0.0162
 7356SOL    HW133530   0.897   4.277   2.320  0.8419 -1.1592 -3.0042
 7356SOL    HW233531   0.962   4.173   2.412  0.1284 -1.5360 -0.4678
 7357SOL     OW33532   4.440   0.522   6.938  0.0127 -0.0775  0.0583
 7357SOL    HW133533   4.498   0.454   6.972 -0.9063 -1.4413 -1.0736
 7357SOL    HW233534   4.358   0.473   6.930 -0.6121  1.1004 -0.8326
 7358SOL     OW33535   0.955   2.780   3.650 -0.0395 -0.2053  0.1285
 7358SOL    HW133536   0.899   2.839   3.599  0.3729  0.5432  0.5312
 7358SOL    HW233537   1.041   2.797   3.610  0.6981 -1.8691  1.0146
 7359SOL     OW33538   1.502   0.138   2.776  0.3995  0.5735  0.2177
 7359SOL    HW133539   1.472   0.132   2.685  0.9929 -1.8193  0.1770
 7359SOL    HW233540   1.471   0.225   2.800  1.4752  1.5059 -1.7426
 7360SOL     OW33541   2.214   4.663   8.628  0.2228  0.5997 -0.2843
 7360SOL    HW133542   2.225   4.612   8.547  1.5550 -1.7341  1.3905
 7360SOL    HW233543   2.264   4.608   8.688  1.4546  0.6420 -1.2563
 7361SOL     OW33544   1.814   3.215   6.379 -0.0132  0.1783  0.3028
 7361SOL    HW133545   1.722   3.236   6.396 -0.1912 -1.8278  1.8084
 7361SOL    HW233546   1.804   3.127   6.342  1.5414  0.0802  0.1169
 7362SOL     OW33547   3.735   0.389  13.740 -0.3461 -0.3489 -0.3024
 7362SOL    HW133548   3.687   0.306  13.738  0.1482 -0.6324 -0.3811
 7362SOL    HW233549   3.815   0.359  13.782  0.5509  0.6183 -1.3207
 7363SOL     OW33550   0.451   4.704   0.637  0.5749 -0.2843  0.8656
 7363SOL    HW133551   0.510   0.014   0.568 -2.5624 -2.3095 -2.7056
 7363SOL    HW233552   0.472   0.035   0.713 -0.4849 -3.7408  3.5530
 7364SOL     OW33553   4.694   4.130   5.109 -0.3605 -0.4905  0.3184
 7364SOL    HW133554   0.006   4.044   5.086 -2.3699 -1.2354  0.2277
 7364SOL    HW233555   4.612   4.132   5.061  0.8070  1.1314 -1.5874
 7365SOL     OW33556   3.267   1.556   4.014 -0.0152 -0.4602 -0.8983
 7365SOL    HW133557   3.237   1.643   3.985  0.0479 -1.0754 -2.7984
 7365SOL    HW233558   3.187   1.524   4.055  1.4216 -2.2927  0.4472
 7366SOL     OW33559   1.924   4.122  17.266 -0.2713 -0.1103 -0.3148
 7366SOL    HW133560   1.952   4.034  17.241 -2.0674 -0.8455  0.2435
 7366SOL    HW233561   2.006   4.168  17.282  0.8444 -1.8712 -0.9701
 7367SOL     OW33562   3.723   3.448   4.713  0.5178  0.2411 -0.5729
 7367SOL    HW133563   3.651   3.508   4.696  0.7678  0.5049 -0.7002
 7367SOL    HW233564   3.753   3.467   4.802 -2.5149 -0.1609  0.5290
 7368SOL     OW33565   1.181   1.757   4.081  0.2177 -0.4340  0.0121
 7368SOL    HW133566   1.140   1.842   4.096 -0.4725 -0.8901  0.7700
 7368SOL    HW233567   1.166   1.741   3.988  2.3396  0.0695 -0.4117
 7369SOL     OW33568   1.157   4.060  11.895  0.6536  1.2223  0.7296
 7369SOL    HW133569   1.165   4.098  11.982  0.1149 -0.6845  1.6044
 7369SOL    HW233570   1.216   4.119  11.848  0.9885  0.5693  0.3144
 7370SOL     OW33571   1.364   0.049   2.108 -0.0858 -0.4640  0.0823
 7370SOL    HW133572   1.343   4.679   2.090  0.6729 -0.8690  1.2222
 7370SOL    HW233573   1.285   0.085   2.148 -0.6113  0.1850 -1.5432
 7371SOL     OW33574   1.929   1.549   7.480 -0.5481 -0.0506  0.4462
 7371SOL    HW133575   1.942   1.643   7.491  3.4157 -0.4527 -0.8786
 7371SOL    HW233576   2.019   1.531   7.453 -0.8335  0.2670 -0.7122
 7372SOL     OW33577   4.217   3.329   2.895  0.1526 -0.3233  0.1073
 7372SOL    HW133578   4.290   3.269   2.906 -0.2429 -0.7150  0.5811
 7372SOL    HW233579   4.259   3.376   2.823 -2.4744  2.5432  0.4392
 7373SOL     OW33580   4.402   4.273   5.830 -0.2361 -0.3721  0.0183
 7373SOL    HW133581   4.405   4.226   5.747 -1.7549 -1.4876  0.6027
 7373SOL    HW233582   4.475   4.232   5.874 -2.1528 -2.1268  1.5326
 7374SOL     OW33583   2.785   3.440   7.217  0.1520  0.2508 -0.3987
 7374SOL    HW133584   2.749   3.452   7.129 -1.7815  0.9065  0.4664
 7374SOL    HW233585   2.852   3.373   7.205 -1.5957 -0.9207 -3.5740
 7375SOL     OW33586   4.081   2.376  13.109  0.1339  0.1152 -0.0743
 7375SOL    HW133587   4.127   2.430  13.044 -0.6141  1.8251  0.8229
 7375SOL    HW233588   3.991   2.398  13.084  0.1727 -0.3235 -0.6252
 7376SOL     OW33589   2.556   2.313   6.102 -0.9028 -0.1992 -0.1449
 7376SOL    HW133590   2.638   2.266   6.085 -0.5343  0.5346 -0.4171
 7376SOL    HW233591   2.493   2.248   6.134 -2.0779  2.4077  2.8079
 7377SOL     OW33592   1.999   3.382  12.254 -0.1156  0.4809  0.0556
 7377SOL    HW133593   1.999   3.419  12.165  1.0114  1.3693  0.4335
 7377SOL    HW233594   2.091   3.389  12.280 -0.3810 -1.7705  1.6191
 7378SOL     OW33595   3.104   4.611   7.643  0.0376 -0.3611 -0.1886
 7378SOL    HW133596   3.051   4.532   7.629  1.0617 -1.0256 -0.3207
 7378SOL    HW233597   3.038   4.679   7.628 -0.9538 -0.9936  1.2517
 7379SOL     OW33598   3.861   0.944   5.975 -0.0471  0.4537 -0.7635
 7379SOL    HW133599   3.793   0.956   6.041 -0.1496 -0.0185 -0.7858
 7379SOL    HW233600   3.819   0.900   5.901  1.8942 -1.0975 -0.9459
 7380SOL     OW33601   1.270   1.332   3.784  0.2095  0.1516  0.2317
 7380SOL    HW133602   1.214   1.299   3.713 -0.3717  0.5004  0.5288
 7380SOL    HW233603   1.302   1.262   3.840 -1.7232 -0.8896  0.0488
 7381SOL     OW33604   4.440   2.385   6.689 -0.0536  0.2371  0.0783
 7381SOL    HW133605   4.386   2.324   6.639  1.2753  0.0393 -1.0834
 7381SOL    HW233606   4.505   2.326   6.727 -0.6330  0.0768  0.8165
 7382SOL     OW33607   2.734   2.012  10.894  0.2935 -0.2596  0.1359
 7382SOL    HW133608   2.710   2.104  10.883  2.0019  0.0878 -0.7207
 7382SOL    HW233609   2.684   1.974  10.821 -2.6922  3.5811  0.1624
 7383SOL     OW33610   2.027   4.039  14.083 -0.4239 -0.0020 -0.1134
 7383SOL    HW133611   2.049   3.972  14.019  2.2049  0.0794  0.7245
 7383SOL    HW233612   1.932   4.043  14.073 -0.5919 -0.0832  1.4981
 7384SOL     OW33613   1.861   3.397   8.950 -0.2402  0.3300  0.0855
 7384SOL    HW133614   1.790   3.456   8.976  0.5233  1.7282 -1.0465
 7384SOL    HW233615   1.928   3.424   9.013 -0.2062 -1.2574  0.7379
 7385SOL     OW33616   0.533   2.554   5.096 -0.1241 -0.2374 -0.0847
 7385SOL    HW133617   0.473   2.614   5.053 -0.2136 -2.5616 -3.1991
 7385SOL    HW233618   0.522   2.584   5.187  1.0724  0.6722 -0.2440
 7386SOL     OW33619   3.682   4.512  16.242  0.4307  0.0362  0.3543
 7386SOL    HW133620   3.718   4.583  16.188 -1.1866 -0.1577 -1.0085
 7386SOL    HW233621   3.711   4.543  16.327  1.9380  1.0945 -0.5410
 7387SOL     OW33622   0.513   0.034  13.362  0.2271 -0.1166 -0.1111
 7387SOL    HW133623   0.458   0.001  13.291 -1.3024 -0.9730  1.4841
 7387SOL    HW233624   0.508   4.682  13.423  0.1649 -0.5892 -0.6954
 7388SOL     OW33625   3.217   1.568   8.954  1.2814  0.1908  0.2095
 7388SOL    HW133626   3.292   1.626   8.967  1.9114 -0.6581  0.3754
 7388SOL    HW233627   3.221   1.520   8.871 -0.3079  0.6092 -0.1254
 7389SOL     OW33628   0.200   3.180   3.259 -0.0031  0.5302 -0.6775
 7389SOL    HW133629   0.111   3.156   3.282  0.2806  0.3289  0.2153
 7389SOL    HW233630   0.186   3.223   3.175  1.4170 -0.3981 -1.3881
 7390SOL     OW33631   2.387   1.185  10.413  0.2598 -0.4205 -0.1417
 7390SOL    HW133632   2.450   1.117  10.437  0.9997  0.0983 -0.6036
 7390SOL    HW233633   2.444   1.252  10.375 -0.7165 -1.6696 -3.7620
 7391SOL     OW33634   2.395   3.145   5.523 -0.1852  0.0722  0.3347
 7391SOL    HW133635   2.309   3.141   5.564 -0.7831 -1.3939 -1.0459
 7391SOL    HW233636   2.446   3.081   5.573 -2.5041 -0.2702  2.2693
 7392SOL     OW33637   2.609   2.803   8.094  0.7598 -0.1536  0.6523
 7392SOL    HW133638   2.673   2.830   8.029 -1.2987  1.3708 -0.7617
 7392SOL    HW233639   2.624   2.711   8.111  1.4923 -0.4843 -1.8523
 7393SOL     OW33640   3.234   0.768  15.741  0.3914 -0.5673 -0.5066
 7393SOL    HW133641   3.282   0.818  15.674 -0.1953  0.4940 -0.1335
 7393SOL    HW233642   3.161   0.731  15.691 -0.2716 -2.2609  1.7534
 7394SOL     OW33643   0.775   3.599  15.362 -0.7434 -0.4497 -0.1661
 7394SOL    HW133644   0.720   3.670  15.396 -0.1934  0.1010 -0.4267
 7394SOL    HW233645   0.717   3.523  15.370 -0.5671 -0.3336  2.3143
 7395SOL     OW33646   0.482   0.129  11.529  0.1126  0.2048  0.4695
 7395SOL    HW133647   0.516   0.045  11.559  1.8526  0.7859  0.1237
 7395SOL    HW233648   0.387   0.115  11.524  0.2863 -1.7451  3.0555
 7396SOL     OW33649   0.201   0.861  10.735  0.4434 -0.0896  0.2061
 7396SOL    HW133650   0.226   0.772  10.760  1.2384  0.3535  0.9733
 7396SOL    HW233651   0.280   0.900  10.699  0.1271  0.2224 -0.1499
 7397SOL     OW33652   1.417   0.737   8.502 -0.2209  0.0131 -0.0447
 7397SOL    HW133653   1.326   0.715   8.480  0.2592 -2.8232  0.8614
 7397SOL    HW233654   1.396   0.822   8.541  1.7212  1.0089 -1.1711
 7398SOL     OW33655   0.002   3.465   7.874  0.3258  0.0637 -0.2778
 7398SOL    HW133656   4.698   3.491   7.786 -1.1344  0.5520  0.2911
 7398SOL    HW233657   0.039   3.380   7.850  0.8598  0.7181 -1.7339
 7399SOL     OW33658   1.904   3.598   6.536  0.0014 -0.1817 -0.0370
 7399SOL    HW133659   1.828   3.548   6.567  0.6980 -0.0174  1.9028
 7399SOL    HW233660   1.966   3.577   6.605 -1.7652 -0.3410  1.4996
 7400SOL     OW33661   1.085   2.540   1.468 -0.0433 -0.1275 -0.0610
 7400SOL    HW133662   0.992   2.549   1.490 -0.1758 -2.5289  0.3154
 7400SOL    HW233663   1.090   2.553   1.373 -1.7112  3.7638  0.3421
 7401SOL     OW33664   1.111   1.492   2.583 -0.0801  0.7070  0.3813
 7401SOL    HW133665   1.150   1.428   2.523 -1.5829  0.5215 -0.4267
 7401SOL    HW233666   1.018   1.483   2.558  0.0412  1.3851 -0.3211
 7402SOL     OW33667   1.332   2.440  13.276 -0.4075 -0.4739  0.2701
 7402SOL    HW133668   1.388   2.397  13.212  2.0610  1.8224  0.9080
 7402SOL    HW233669   1.289   2.367  13.321  0.2977 -0.2082  1.3945
 7403SOL     OW33670   1.126   0.540  13.221  0.5793  0.2384  0.3955
 7403SOL    HW133671   1.203   0.590  13.193  0.5627  0.6536  1.1124
 7403SOL    HW233672   1.175   0.466  13.258  2.1854  0.1525 -1.8760
 7404SOL     OW33673   0.387   4.390   5.731  0.7164 -0.1824 -0.2678
 7404SOL    HW133674   0.476   4.422   5.719  0.0607  0.9478 -2.1425
 7404SOL    HW233675   0.383   4.358   5.821  0.1771  1.3296  0.2442
 7405SOL     OW33676   3.546   4.018   6.741 -0.0093 -0.5286 -0.1702
 7405SOL    HW133677   3.596   4.073   6.682  1.3161 -0.6202  0.8721
 7405SOL    HW233678   3.545   4.075   6.819 -0.1625 -0.6488 -0.0831
 7406SOL     OW33679   4.464   0.407   2.013 -0.7490  0.1202 -0.0494
 7406SOL    HW133680   4.392   0.352   1.982 -1.3125  1.2815 -0.8079
 7406SOL    HW233681   4.413   0.478   2.049  0.5782  0.7798  0.5270
 7407SOL     OW33682   3.995   3.164   0.520  0.4509  0.0703 -0.9663
 7407SOL    HW133683   3.987   3.170   0.424 -1.0854  1.5044 -0.7512
 7407SOL    HW233684   3.940   3.089   0.541 -0.4059  0.6780 -1.0450
 7408SOL     OW33685   1.484   1.797   9.126  0.2044 -0.0819 -0.0014
 7408SOL    HW133686   1.410   1.740   9.145 -1.4650  1.5848 -1.4276
 7408SOL    HW233687   1.531   1.779   9.208 -2.5721 -0.9059  1.4277
 7409SOL     OW33688   2.204   3.628   0.544  0.2269 -0.6715  0.3918
 7409SOL    HW133689   2.284   3.675   0.565  0.4056 -1.4785  1.5050
 7409SOL    HW233690   2.244   3.553   0.499  0.5912 -0.5665  0.5450
 7410SOL     OW33691   1.258   1.190   8.371 -0.5605  0.0701  0.0046
 7410SOL    HW133692   1.346   1.153   8.368 -0.1346  1.1934 -1.3927
 7410SOL    HW233693   1.208   1.120   8.413 -1.0282  0.5072  0.1748
 7411SOL     OW33694   1.564   4.325   6.619 -0.3942 -0.2531  0.0522
 7411SOL    HW133695   1.505   4.256   6.589 -0.2457 -0.6055  0.5729
 7411SOL    HW233696   1.632   4.276   6.666 -1.9734 -1.4252  1.1195
 7412SOL     OW33697   2.476   3.468   7.353 -0.0856 -0.0954 -0.1583
 7412SOL    HW133698   2.546   3.441   7.411  1.1244 -1.8581 -2.4287
 7412SOL    HW233699   2.524   3.476   7.270 -0.7359 -0.4418 -0.5726
 7413SOL     OW33700   2.904   1.324   6.674  0.0197 -0.0569  0.4951
 7413SOL    HW133701   2.858   1.383   6.614 -0.8663 -1.4504 -0.1955
 7413SOL    HW233702   2.989   1.328   6.631  0.1960 -0.9081  0.7555
 7414SOL     OW33703   1.760   2.408  12.421  0.6542 -0.5457 -0.3387
 7414SOL    HW133704   1.764   2.482  12.360  3.4038  0.6006  1.2626
 7414SOL    HW233705   1.716   2.334  12.379 -0.8113  0.6340 -0.9112
 7415SOL     OW33706   0.080   0.847   7.442 -0.0883  0.0426 -0.4736
 7415SOL    HW133707   0.104   0.930   7.482  0.2726 -0.3897  0.1864
 7415SOL    HW233708   0.105   0.856   7.350  0.7872 -2.5402 -0.4822
 7416SOL     OW33709   0.393   2.735   4.517 -0.6221  0.9842  0.0561
 7416SOL    HW133710   0.345   2.731   4.435  0.5793  1.1596 -0.6487
 7416SOL    HW233711   0.460   2.668   4.505 -0.1267  1.0052  2.7069
 7417SOL     OW33712   0.496   3.057   8.363 -0.4200 -0.0093  0.2845
 7417SOL    HW133713   0.431   3.122   8.336  1.2305  2.0129  1.1648
 7417SOL    HW233714   0.514   3.008   8.282 -0.0135  1.6552 -0.6398
 7418SOL     OW33715   1.683   1.850  11.155  0.2565 -0.3412  0.0588
 7418SOL    HW133716   1.695   1.759  11.182 -2.1893 -0.9321 -0.8194
 7418SOL    HW233717   1.633   1.884  11.229  0.1959  1.5652 -0.8537
 7419SOL     OW33718   2.876   3.424   9.462 -0.2977 -0.1301 -0.3869
 7419SOL    HW133719   2.919   3.509   9.462 -0.0400 -0.2660 -1.5431
 7419SOL    HW233720   2.783   3.448   9.461 -0.4936 -0.7581  1.3721
 7420SOL     OW33721   2.570   3.207   7.139  0.5078  0.4355  0.5618
 7420SOL    HW133722   2.521   3.126   7.149  1.2750 -0.1584 -0.4994
 7420SOL    HW233723   2.661   3.178   7.135  0.3074 -0.3764  1.9519
 7421SOL     OW33724   4.209   2.089   6.260 -0.1700 -0.2999 -0.0508
 7421SOL    HW133725   4.290   2.078   6.210  1.0094 -0.1383  1.7829
 7421SOL    HW233726   4.195   2.177   6.294 -0.3655  0.3853 -1.9476
 7422SOL     OW33727   0.006   0.553   8.893  0.2273  0.5083  0.1989
 7422SOL    HW133728   4.693   0.589   8.975  1.8672 -0.2712  1.2253
 7422SOL    HW233729   4.657   0.566   8.830  0.8911  1.3804 -0.3608
 7423SOL     OW33730   3.615   2.462   5.020 -0.1148 -0.1324  0.2620
 7423SOL    HW133731   3.647   2.552   5.013 -0.6755  0.1381  1.1896
 7423SOL    HW233732   3.563   2.451   4.940  2.1487 -2.8642 -0.8140
 7424SOL     OW33733   3.597   3.190   5.801  0.3135 -0.3704  0.0779
 7424SOL    HW133734   3.616   3.265   5.858  1.2475 -0.6989  0.2067
 7424SOL    HW233735   3.592   3.224   5.711  2.4843 -3.4914 -1.2451
 7425SOL     OW33736   2.655   4.325   9.371 -0.6796 -0.1242  0.4139
 7425SOL    HW133737   2.630   4.338   9.463 -0.0935  1.0761  0.4020
 7425SOL    HW233738   2.730   4.383   9.366  0.3687 -1.3499  2.1688
 7426SOL     OW33739   2.128   4.453  12.458 -0.9647  0.3918  0.5970
 7426SOL    HW133740   2.063   4.383  12.464 -0.3580 -0.2426 -0.2251
 7426SOL    HW233741   2.089   4.520  12.514  0.9068  1.5268  0.5506
 7427SOL     OW33742   3.032   4.244   0.680 -0.3220 -0.1109 -0.2504
 7427SOL    HW133743   3.067   4.330   0.702  0.6143 -0.6010  0.1825
 7427SOL    HW233744   3.023   4.197   0.763 -2.0683  1.8234  0.6509
 7428SOL     OW33745   3.236   2.004   4.654  0.1640 -0.4312  0.2520
 7428SOL    HW133746   3.199   2.089   4.678 -1.5424 -0.5542 -1.8777
 7428SOL    HW233747   3.157   1.962   4.619  0.6680 -1.6674  0.6068
 7429SOL     OW33748   4.609   4.515   3.953  0.0150  0.2741  0.7203
 7429SOL    HW133749   4.575   4.474   3.873 -0.2357  0.0235  0.9511
 7429SOL    HW233750   4.530   4.514   4.008  0.4881 -2.6935  1.3865
 7430SOL     OW33751   3.728   0.058   7.693  0.1732 -0.3249  0.3713
 7430SOL    HW133752   3.795   0.093   7.634 -1.2263  0.2223 -0.9037
 7430SOL    HW233753   3.655   0.112   7.662 -0.0901 -2.0930 -2.0642
 7431SOL     OW33754   4.003   4.247   0.765 -0.5941 -0.1143  0.0065
 7431SOL    HW133755   4.082   4.288   0.801  0.0624 -1.2896 -0.1102
 7431SOL    HW233756   4.011   4.278   0.675  1.7875  1.2792  0.6838
 7432SOL     OW33757   1.066   0.731   3.761 -0.6112 -0.1984  0.1187
 7432SOL    HW133758   1.151   0.746   3.719 -0.8761 -3.6074 -1.5888
 7432SOL    HW233759   1.002   0.742   3.691 -0.5344  2.2738  0.4476
 7433SOL     OW33760   0.740   3.374   8.981 -0.4867  0.0804 -0.1446
 7433SOL    HW133761   0.821   3.325   8.962 -0.1473  0.3538  0.5852
 7433SOL    HW233762   0.747   3.406   9.071  0.0763  1.6335 -0.7287
 7434SOL     OW33763   0.915   1.623   4.171  0.2838  0.0256  0.2329
 7434SOL    HW133764   0.895   1.603   4.079 -1.8749 -0.9693  0.9069
 7434SOL    HW233765   1.009   1.618   4.160  0.2181  1.1513 -0.9090
 7435SOL     OW33766   3.758   3.638   3.020  0.0025  0.4220  0.3286
 7435SOL    HW133767   3.835   3.612   3.070 -0.3275 -1.6627 -0.2816
 7435SOL    HW233768   3.686   3.611   3.077 -0.8261 -0.1858 -0.9961
 7436SOL     OW33769   4.436   0.976  13.453  0.7681 -0.0483  0.2743
 7436SOL    HW133770   4.481   0.996  13.371  0.5920  1.0398  0.4354
 7436SOL    HW233771   4.424   0.883  13.438 -1.8285  0.3893 -0.2889
 7437SOL     OW33772   0.334   3.357   5.311 -1.4125  0.0858 -0.4293
 7437SOL    HW133773   0.280   3.286   5.347 -1.4099  0.4301  0.2587
 7437SOL    HW233774   0.423   3.325   5.325 -1.9720 -1.4439 -0.2980
 7438SOL     OW33775   4.237   0.707   9.806 -0.5682 -0.2094  0.0321
 7438SOL    HW133776   4.288   0.787   9.811 -0.6035 -0.1214 -1.0914
 7438SOL    HW233777   4.272   0.675   9.890  2.3794  0.0238 -1.1269
 7439SOL     OW33778   4.239   4.514   8.552 -0.4002 -0.3855  0.1114
 7439SOL    HW133779   4.270   4.601   8.525  0.0457 -0.5111  0.2153
 7439SOL    HW233780   4.205   4.532   8.640  0.5428 -1.1280  0.6354
 7440SOL     OW33781   0.094   4.599  10.992 -0.5319 -0.1945 -0.3001
 7440SOL    HW133782   0.087   4.512  11.033  0.3546 -0.4981 -0.7887
 7440SOL    HW233783   0.188   4.612  10.995 -1.0295  2.9505  1.5152
 7441SOL     OW33784   1.977   0.186   5.135 -0.3791  0.4741 -1.0780
 7441SOL    HW133785   2.041   0.247   5.172 -0.5498  0.0476 -0.0750
 7441SOL    HW233786   2.017   0.159   5.053 -0.6341 -0.1433 -0.9940
 7442SOL     OW33787   0.262   2.802   6.390 -0.2451  0.5024  0.2446
 7442SOL    HW133788   0.187   2.786   6.448  0.6659 -0.3817  1.1774
 7442SOL    HW233789   0.280   2.715   6.355  0.6680  0.2762  1.2608
 7443SOL     OW33790   2.794   4.259  15.562  0.0254 -0.8018  0.0245
 7443SOL    HW133791   2.774   4.178  15.514  1.4023  0.8108 -3.1802
 7443SOL    HW233792   2.854   4.292  15.496  0.0769  0.5424  0.7380
 7444SOL     OW33793   3.385   2.004  13.529 -0.3089  0.5284 -0.4313
 7444SOL    HW133794   3.444   1.940  13.489 -2.2980 -0.1035 -2.2957
 7444SOL    HW233795   3.437   2.085  13.520 -0.7885  1.1487  2.2025
 7445SOL     OW33796   4.215   3.984  11.410 -0.1384 -0.2018  0.0096
 7445SOL    HW133797   4.136   3.931  11.401 -0.3125  0.0742 -0.0708
 7445SOL    HW233798   4.245   3.999  11.320 -2.1871  3.0379 -0.1364
 7446SOL     OW33799   0.490   3.582   7.116  0.1799 -0.2833  0.3369
 7446SOL    HW133800   0.513   3.584   7.023 -2.2070  2.4096 -0.2200
 7446SOL    HW233801   0.452   3.494   7.113  0.5204 -0.3879 -1.0972
 7447SOL     OW33802   3.135   3.263   0.919 -0.3390  0.1870  0.8585
 7447SOL    HW133803   3.058   3.209   0.937  0.1593 -0.3879  1.2661
 7447SOL    HW233804   3.135   3.272   0.824 -2.0706 -1.8123  0.6654
 7448SOL     OW33805   3.866   0.618   8.274 -0.0807  0.0719 -0.2217
 7448SOL    HW133806   3.803   0.558   8.314  0.9521 -1.1275 -0.4014
 7448SOL    HW233807   3.923   0.653   8.343 -1.4396 -0.7592  1.3132
 7449SOL     OW33808   2.302   2.199   5.822  0.2314 -0.1453  0.3478
 7449SOL    HW133809   2.319   2.293   5.834 -1.7247  0.3110 -0.4456
 7449SOL    HW233810   2.377   2.174   5.769  0.4667 -0.2423  0.7267
 7450SOL     OW33811   2.358   0.171   8.123 -0.0063  0.1783  0.4605
 7450SOL    HW133812   2.349   0.076   8.125  0.6467  0.1280  1.0569
 7450SOL    HW233813   2.273   0.180   8.080  0.9006  2.4920 -0.8223
 7451SOL     OW33814   0.825   3.937   7.253 -0.8493  0.5325  0.4513
 7451SOL    HW133815   0.779   3.995   7.192 -0.0193  1.4410  0.7061
 7451SOL    HW233816   0.774   3.858   7.233 -2.0195  1.5259 -0.4860
 7452SOL     OW33817   2.726   0.544   4.197  0.3461  0.1938  0.7295
 7452SOL    HW133818   2.710   0.494   4.116  0.9068  0.3526  0.5190
 7452SOL    HW233819   2.793   0.605   4.165 -1.0876  1.1112 -0.5259
 7453SOL     OW33820   2.710   0.778   0.089  0.8133  0.0403 -0.3086
 7453SOL    HW133821   2.686   0.869   0.072  0.6375 -0.0189 -0.3808
 7453SOL    HW233822   2.796   0.768   0.049  1.0786 -1.3994  0.6077
 7454SOL     OW33823   3.908   4.574   5.014 -0.6588 -0.1353  0.3462
 7454SOL    HW133824   3.913   4.551   5.107 -2.1899 -0.2980  0.3861
 7454SOL    HW233825   3.846   4.511   4.977 -0.6609  0.9159 -1.4057
 7455SOL     OW33826   1.911   1.492  13.502  0.2539  0.0393  0.6024
 7455SOL    HW133827   1.933   1.520  13.413  0.7247 -0.1151  0.6683
 7455SOL    HW233828   1.861   1.566  13.535 -0.3216  0.7582 -1.8985
 7456SOL     OW33829   1.746   4.259   8.087  0.1583 -0.6973 -0.7792
 7456SOL    HW133830   1.799   4.199   8.034  1.2746 -0.4363  0.0160
 7456SOL    HW233831   1.781   4.259   8.177 -1.2858  0.1804 -0.2274
 7457SOL     OW33832   3.486   4.031   3.527 -0.1224 -0.3409  0.4629
 7457SOL    HW133833   3.428   3.964   3.492  0.1355 -0.9575  1.1965
 7457SOL    HW233834   3.436   4.073   3.598 -1.3961  0.5483 -0.9745
 7458SOL     OW33835   0.931   0.208  17.143 -0.1793  0.0698  0.1994
 7458SOL    HW133836   0.851   0.174  17.184  2.0762 -0.4077  4.2007
 7458SOL    HW233837   0.956   0.269  17.213 -2.1555 -0.1274  1.0667
 7459SOL     OW33838   1.912   1.052   0.180  0.4114  0.2876  0.5366
 7459SOL    HW133839   1.993   1.101   0.190  0.6790  0.3908 -2.0649
 7459SOL    HW233840   1.917   1.037   0.085 -1.4094  1.3281  0.2780
 7460SOL     OW33841   3.248   4.324   3.571 -0.5086  0.6807 -0.2245
 7460SOL    HW133842   3.178   4.358   3.516  0.1179  0.7204 -0.9957
 7460SOL    HW233843   3.320   4.368   3.526 -0.2913 -1.4977 -2.0152
 7461SOL     OW33844   4.670   2.750   9.134  0.3289 -0.5080 -0.5098
 7461SOL    HW133845   0.013   2.775   9.199 -1.3894  2.2623  0.1221
 7461SOL    HW233846   4.708   2.757   9.046  0.2313 -0.9707 -0.5951
 7462SOL     OW33847   4.224   3.227   7.797 -0.1375 -0.0781 -0.2618
 7462SOL    HW133848   4.184   3.243   7.882  0.7211 -1.2070  0.3577
 7462SOL    HW233849   4.295   3.290   7.802 -0.1462  0.1734 -3.0943
 7463SOL     OW33850   0.110   2.100   3.680  0.0264  0.0413  0.0367
 7463SOL    HW133851   0.131   2.073   3.770  3.0917  1.3098 -0.2997
 7463SOL    HW233852   0.023   2.139   3.683 -0.5762 -1.0408 -3.5336
 7464SOL     OW33853   0.638   1.858   3.428 -0.4245 -0.5104  0.2148
 7464SOL    HW133854   0.718   1.831   3.382  0.2798 -0.2615  1.3073
 7464SOL    HW233855   0.596   1.901   3.354 -0.2094 -1.5942 -0.5461
 7465SOL     OW33856   4.501   1.282  12.745  0.0719 -0.2893  0.0609
 7465SOL    HW133857   4.415   1.245  12.763  0.4000 -0.6439  0.8851
 7465SOL    HW233858   4.474   1.349  12.682  0.5151  0.5909  0.8136
 7466SOL     OW33859   3.635   4.671   8.453  0.0236  0.3579  0.6296
 7466SOL    HW133860   3.641   4.593   8.507  0.3029  1.2292  1.8363
 7466SOL    HW233861   3.700   0.004   8.496 -1.4179  1.3714  1.5317
 7467SOL     OW33862   0.020   0.504   7.217 -0.1936  0.6289 -0.5444
 7467SOL    HW133863   4.716   0.435   7.156 -0.6831  1.0916 -0.8664
 7467SOL    HW233864   4.660   0.553   7.230  1.4003  2.4313  2.6965
 7468SOL     OW33865   2.773   0.676   9.301 -0.4814 -0.1377  0.1284
 7468SOL    HW133866   2.859   0.718   9.298 -0.1211 -0.9642 -0.9824
 7468SOL    HW233867   2.737   0.690   9.214  0.4403  1.6316  0.0326
 7469SOL     OW33868   4.417   2.033   8.331  0.4689  0.9524 -0.0748
 7469SOL    HW133869   4.359   2.054   8.258 -1.2599  3.9313  2.1634
 7469SOL    HW233870   4.374   1.954   8.362  0.5167  0.3691 -1.4741
 7470SOL     OW33871   2.956   4.390   7.545  0.2524  0.2465  0.3948
 7470SOL    HW133872   2.868   4.355   7.556 -0.0676  0.9972  0.2287
 7470SOL    HW233873   2.988   4.335   7.473 -3.3448 -0.1872 -0.8701
 7471SOL     OW33874   1.132   1.511   6.306 -0.2247  0.4573 -0.1728
 7471SOL    HW133875   1.216   1.550   6.284  0.0881 -1.1981 -1.9397
 7471SOL    HW233876   1.156   1.458   6.381 -1.2109  0.6955  0.3084
 7472SOL     OW33877   0.487   4.597   7.072 -0.4389 -0.4090  0.2140
 7472SOL    HW133878   0.454   4.590   6.982  0.9545 -2.5969 -0.1196
 7472SOL    HW233879   0.432   4.528   7.109  1.2114 -2.2757 -0.8344
 7473SOL     OW33880   1.153   0.876  17.310  0.1467 -0.3564  0.1283
 7473SOL    HW133881   1.070   0.887  17.264  0.3893  1.1603  0.0426
 7473SOL    HW233882   1.139   0.881  17.405 -2.1787  1.2384 -0.3015
 7474SOL     OW33883   1.308   3.260  17.102  0.1950 -0.2918 -0.0645
 7474SOL    HW133884   1.245   3.326  17.075  0.7374  1.0976  2.0292
 7474SOL    HW233885   1.276   3.219  17.182 -1.0157 -1.6735 -1.2592
 7475SOL     OW33886   2.742   3.771  16.711 -0.0941  0.0174  0.5981
 7475SOL    HW133887   2.801   3.796  16.781  1.9244 -0.8060 -0.8232
 7475SOL    HW233888   2.670   3.833  16.723  0.0229  0.9378 -3.3143
 7476SOL     OW33889   1.128   2.337   5.934 -0.3500 -0.4797 -0.3195
 7476SOL    HW133890   1.098   2.267   5.877 -2.2614 -0.7917  1.0521
 7476SOL    HW233891   1.203   2.364   5.881  1.1110 -0.0937  1.9314
 7477SOL     OW33892   0.565   0.329  10.563  0.2969  0.0256  0.3164
 7477SOL    HW133893   0.476   0.363  10.554  0.2207 -0.0690  0.7036
 7477SOL    HW233894   0.562   0.315  10.658  0.0519  0.8492  0.4341
 7478SOL     OW33895   2.556   4.220   4.680  0.4189  0.2602 -0.5454
 7478SOL    HW133896   2.481   4.180   4.635  1.2045  1.2459 -2.6992
 7478SOL    HW233897   2.502   4.262   4.747  1.2936 -1.0700  0.9981
 7479SOL     OW33898   3.264   3.859  11.808  0.3237 -0.1444  0.6359
 7479SOL    HW133899   3.198   3.924  11.831  0.2519 -0.0657  0.2149
 7479SOL    HW233900   3.350   3.891  11.835 -0.8996 -0.0823  4.3560
 7480SOL     OW33901   2.265   1.907  14.183  0.1535  0.6625 -0.1878
 7480SOL    HW133902   2.324   1.832  14.176 -4.0747 -2.9772  3.5719
 7480SOL    HW233903   2.331   1.974  14.199 -1.5646  1.4395  3.5411
 7481SOL     OW33904   3.742   0.428   6.052  0.2961 -0.5011  0.3798
 7481SOL    HW133905   3.825   0.384   6.036 -0.3686 -1.1570 -1.1969
 7481SOL    HW233906   3.767   0.501   6.109 -0.0591  0.1896 -0.3538
 7482SOL     OW33907   4.290   0.381   3.043 -0.0295 -0.4665 -0.5463
 7482SOL    HW133908   4.290   0.363   3.137 -1.5121  1.1864 -0.2302
 7482SOL    HW233909   4.365   0.329   3.013 -0.0590 -0.6454 -0.3126
 7483SOL     OW33910   0.982   1.621   9.187  0.0798 -0.0479  0.7154
 7483SOL    HW133911   0.936   1.674   9.253  0.9033 -0.1480  1.3706
 7483SOL    HW233912   0.947   1.532   9.190  1.9625 -0.8264 -0.1665
 7484SOL     OW33913   3.880   2.229   6.664 -0.4724 -0.0136  0.3581
 7484SOL    HW133914   3.910   2.306   6.711  1.2029 -0.2908 -0.2452
 7484SOL    HW233915   3.946   2.163   6.687 -0.6700 -0.3110  0.0692
 7485SOL     OW33916   4.411   3.038   9.192 -0.0017 -0.0654  0.8636
 7485SOL    HW133917   4.368   3.095   9.256 -0.2877 -0.1165  0.7163
 7485SOL    HW233918   4.397   2.947   9.220 -0.0363  0.0477  1.2224
 7486SOL     OW33919   0.417   4.379   4.468  0.3018  0.5991 -0.2324
 7486SOL    HW133920   0.478   4.440   4.508 -0.5127  2.6673 -2.1360
 7486SOL    HW233921   0.471   4.314   4.423 -0.4176 -0.2725  0.1653
 7487SOL     OW33922   0.125   4.298   2.389  0.3943 -0.2910 -0.0514
 7487SOL    HW133923   0.097   4.320   2.300  1.5634 -0.6401 -0.5072
 7487SOL    HW233924   0.042   4.317   2.432  0.3845 -1.4407  0.4436
 7488SOL     OW33925   0.004   1.277   5.206 -0.2078 -0.1437 -0.6028
 7488SOL    HW133926   4.631   1.284   5.215 -0.2489  2.6087 -3.2041
 7488SOL    HW233927   0.016   1.190   5.170  1.5202 -0.4000  0.6028
 7489SOL     OW33928   1.224   2.717   3.586 -0.1781  0.1394 -0.2336
 7489SOL    HW133929   1.319   2.705   3.581 -0.0591  0.8267  0.3725
 7489SOL    HW233930   1.195   2.669   3.508  3.1355 -0.3695 -1.1905
 7490SOL     OW33931   2.828   0.635  11.835  0.1805  0.1167 -0.0344
 7490SOL    HW133932   2.843   0.658  11.744  1.7725  2.2426  0.7576
 7490SOL    HW233933   2.883   0.701  11.878  0.7294 -2.9193  3.9243
 7491SOL     OW33934   0.596   4.019  15.955 -0.5711 -0.5651 -0.2560
 7491SOL    HW133935   0.529   3.989  16.016 -0.5345  1.8773  0.9857
 7491SOL    HW233936   0.676   4.041  16.001 -0.9911  1.4211 -0.4781
 7492SOL     OW33937   4.131   4.466   0.283  0.0972  0.1162 -0.0162
 7492SOL    HW133938   4.092   4.417   0.355  0.2090  1.1295  0.7295
 7492SOL    HW233939   4.104   4.550   0.318  0.5376  0.0179  0.5501
 7493SOL     OW33940   4.062   0.568   1.481  0.5974  0.4229 -0.5927
 7493SOL    HW133941   4.139   0.613   1.448  0.3057  0.6035 -1.0286
 7493SOL    HW233942   4.029   0.525   1.402  1.9968  0.2848 -1.0959
 7494SOL     OW33943   0.373   0.720   5.480  0.2672 -0.4466  0.1998
 7494SOL    HW133944   0.434   0.753   5.414 -0.4980  2.7191  1.1183
 7494SOL    HW233945   0.380   0.779   5.554 -1.0209  0.0081 -0.0521
 7495SOL     OW33946   1.245   1.208  12.329 -0.0717  0.5443  0.3607
 7495SOL    HW133947   1.225   1.294  12.366  0.1388  1.4891 -1.6999
 7495SOL    HW233948   1.338   1.221  12.310 -0.0633  0.3856  0.2944
 7496SOL     OW33949   3.336   2.624  13.514 -0.7670 -0.5030  0.4482
 7496SOL    HW133950   3.333   2.623  13.609 -0.0916  2.3636  0.4990
 7496SOL    HW233951   3.257   2.674  13.493 -1.1462 -0.6412  1.5987
 7497SOL     OW33952   3.270   3.387  10.759 -0.1121 -0.5269  0.0921
 7497SOL    HW133953   3.337   3.319  10.772  0.4729 -0.9963 -5.3221
 7497SOL    HW233954   3.250   3.362  10.668 -2.8609 -1.2407  0.8976
 7498SOL     OW33955   3.881   4.622   3.166  0.8408  0.2416 -0.1753
 7498SOL    HW133956   3.916   4.690   3.108 -2.1382  1.2206 -0.7884
 7498SOL    HW233957   3.910   4.646   3.254  2.1527 -0.0251 -0.5294
 7499SOL     OW33958   4.265   0.317   6.668  0.5589 -1.0260  0.3631
 7499SOL    HW133959   4.314   0.245   6.707 -0.1672 -1.5004  0.3896
 7499SOL    HW233960   4.209   0.333   6.743  1.7599 -0.2514  1.0979
 7500SOL     OW33961   3.591   3.011   6.782 -0.4179 -0.1423  0.0589
 7500SOL    HW133962   3.646   2.991   6.706 -2.4806  0.8496 -1.6874
 7500SOL    HW233963   3.594   2.928   6.830 -1.5116  0.1976  0.6959
 7501SOL     OW33964   0.043   4.598  15.217  0.1498 -0.3089 -0.3780
 7501SOL    HW133965   4.676   4.594  15.181  0.2571  0.1931 -0.7105
 7501SOL    HW233966   0.032   4.653  15.295 -0.4834  2.0505 -2.1011
 7502SOL     OW33967   4.248   4.426   2.272  0.1816 -0.0825  0.2330
 7502SOL    HW133968   4.240   4.515   2.236  2.0973  0.6866  1.7370
 7502SOL    HW233969   4.177   4.432   2.336  0.0972  2.6149 -0.0948
 7503SOL     OW33970   4.009   2.887   0.215  0.5028 -0.3634  0.1266
 7503SOL    HW133971   4.065   2.907   0.290  0.6874  0.1446 -0.1528
 7503SOL    HW233972   3.922   2.878   0.254  0.1692  0.1386 -0.5192
 7504SOL     OW33973   2.929   1.918   8.183  0.2302 -0.1294 -0.1662
 7504SOL    HW133974   2.867   1.850   8.208  0.4707  0.2441  1.4922
 7504SOL    HW233975   2.888   1.953   8.104  0.6334 -0.8647 -0.7012
 7505SOL     OW33976   4.239   4.084  14.881 -0.5839 -0.6813 -0.0477
 7505SOL    HW133977   4.202   4.172  14.874 -1.1847 -0.9936 -0.7551
 7505SOL    HW233978   4.301   4.107  14.950  0.0280 -3.1830  0.2389
 7506SOL     OW33979   2.158   1.528   9.654 -0.8285  0.1530 -0.0224
 7506SOL    HW133980   2.202   1.524   9.739  1.7520  0.6237 -1.3660
 7506SOL    HW233981   2.221   1.475   9.607 -0.8525 -0.2468  0.3925
 7507SOL     OW33982   1.586   3.179   2.768  0.1840 -0.1398  0.1482
 7507SOL    HW133983   1.624   3.251   2.818  0.1564 -0.9717  1.3769
 7507SOL    HW233984   1.546   3.221   2.692  0.9658 -2.7966 -1.7576
 7508SOL     OW33985   2.191   1.088   2.407  0.0853 -0.7543 -0.0808
 7508SOL    HW133986   2.136   1.069   2.331 -1.0008 -1.0766  0.7943
 7508SOL    HW233987   2.227   1.174   2.385 -2.3913  0.1723 -0.4875
 7509SOL     OW33988   0.448   3.681  14.286 -0.7674 -0.1927  0.1744
 7509SOL    HW133989   0.519   3.694  14.224 -0.5702  1.0626  0.6722
 7509SOL    HW233990   0.385   3.742  14.248  0.0190  2.8431  3.7037
 7510SOL     OW33991   4.521   1.312   1.929  0.1482 -0.1288  0.0494
 7510SOL    HW133992   4.457   1.339   1.863  0.4304 -1.6159 -0.8547
 7510SOL    HW233993   4.554   1.229   1.892 -1.1487 -0.2121 -0.9260
 7511SOL     OW33994   2.162   4.303   2.226  0.4167 -0.0802 -0.9483
 7511SOL    HW133995   2.159   4.222   2.277  0.3060 -0.8507 -2.1643
 7511SOL    HW233996   2.078   4.346   2.240  0.4733 -0.3155  0.0797
 7512SOL     OW33997   4.222   2.611   9.170  0.5853  0.1901  0.3407
 7512SOL    HW133998   4.280   2.666   9.222  1.9528  0.5744 -1.5641
 7512SOL    HW233999   4.285   2.582   9.103  0.8017  0.4846  0.4167
 7513SOL     OW34000   1.338   3.148  14.926  0.4418  0.2821  0.0364
 7513SOL    HW134001   1.367   3.058  14.941 -3.3397 -1.2957 -2.0440
 7513SOL    HW234002   1.317   3.146  14.833  1.7754 -0.6156 -0.2390
 7514SOL     OW34003   1.274   1.477   7.828  0.7313 -0.2450 -0.7459
 7514SOL    HW134004   1.196   1.502   7.779 -1.0805  1.0677  2.8465
 7514SOL    HW234005   1.294   1.389   7.797 -0.7553 -1.3832  1.5124
 7515SOL     OW34006   2.691   4.434   2.320  0.2379  0.0245 -0.5059
 7515SOL    HW134007   2.608   4.443   2.273  0.7919 -1.3219 -1.7556
 7515SOL    HW234008   2.753   4.459   2.251  0.5993 -2.6569 -1.1502
 7516SOL     OW34009   2.950   3.835   3.804 -0.0604 -0.2303  0.1814
 7516SOL    HW134010   3.043   3.837   3.824  0.3965 -0.6143 -1.9786
 7516SOL    HW234011   2.940   3.749   3.763  1.8290  1.7105 -4.2281
 7517SOL     OW34012   3.365   2.777   6.948 -0.0965  0.0480 -0.7419
 7517SOL    HW134013   3.454   2.788   6.915 -0.7640  2.1335 -1.8807
 7517SOL    HW234014   3.378   2.690   6.986  0.6791  0.0685 -0.9585
 7518SOL     OW34015   4.608   0.007   9.163 -0.4703 -0.0692  0.5842
 7518SOL    HW134016   4.691   4.714   9.118 -0.8415 -0.8880  0.1705
 7518SOL    HW234017   4.546   4.670   9.118 -0.0783  0.4332 -0.6121
 7519SOL     OW34018   4.391   0.921   2.280 -0.1089 -0.1531 -0.8448
 7519SOL    HW134019   4.475   0.898   2.320 -0.7995  1.7642  1.6831
 7519SOL    HW234020   4.407   1.014   2.269 -1.0250  0.1265  0.2101
 7520SOL     OW34021   0.669   3.484   0.702  0.2933  0.1038  0.3051
 7520SOL    HW134022   0.742   3.457   0.647  0.0602 -1.7121  0.8834
 7520SOL    HW234023   0.678   3.578   0.686 -0.2278 -0.3809 -2.7995
 7521SOL     OW34024   4.335   1.768   5.988 -0.3848 -0.0398 -0.1721
 7521SOL    HW134025   4.401   1.823   6.028  0.1002  0.8870 -2.2428
 7521SOL    HW234026   4.383   1.735   5.912  0.6931  0.7804  0.1553
 7522SOL     OW34027   0.306   4.682   7.375  0.0201  0.4573 -0.0535
 7522SOL    HW134028   0.329   4.641   7.291 -0.7828 -1.0063  0.4612
 7522SOL    HW234029   0.252   4.613   7.413 -1.8007  1.7136 -0.3591
 7523SOL     OW34030   2.205   4.624   7.338 -0.0092 -0.1811  0.5477
 7523SOL    HW134031   2.192   4.542   7.290  1.1320  1.0584 -1.8563
 7523SOL    HW234032   2.270   4.600   7.404 -0.1605 -2.0593  0.0086
 7524SOL     OW34033   4.147   3.271   0.927  0.4473 -0.7425  0.2546
 7524SOL    HW134034   4.102   3.311   1.001 -0.6437 -0.1519 -0.7291
 7524SOL    HW234035   4.194   3.342   0.884 -0.4958 -0.2843 -0.0196
 7525SOL     OW34036   0.416   3.843  13.703 -0.2088  0.2525  0.1271
 7525SOL    HW134037   0.382   3.755  13.688 -2.2204  0.8889  1.0961
 7525SOL    HW234038   0.436   3.836  13.796 -1.2671 -0.8121  0.2676
 7526SOL     OW34039   1.623   2.002   8.235 -0.1767 -0.2725 -0.1927
 7526SOL    HW134040   1.671   2.080   8.262 -0.8695  0.0301  0.1623
 7526SOL    HW234041   1.654   1.934   8.295 -0.4730 -0.2866 -0.0563
 7527SOL     OW34042   0.363   4.451   2.384 -0.1995 -0.0683 -0.0432
 7527SOL    HW134043   0.280   4.407   2.399 -0.3515 -0.5440 -2.3089
 7527SOL    HW234044   0.325   4.531   2.347  0.5225  1.1840  1.9349
 7528SOL     OW34045   0.282   3.620   5.444 -0.0525 -0.4073  1.2323
 7528SOL    HW134046   0.370   3.626   5.407 -0.7105 -0.1640 -0.2991
 7528SOL    HW234047   0.285   3.525   5.458 -2.0187 -0.6351  0.0286
 7529SOL     OW34048   1.052   1.694   8.204 -0.5237  0.6248 -0.7285
 7529SOL    HW134049   0.990   1.622   8.214 -2.6227  2.6644  0.9774
 7529SOL    HW234050   1.098   1.680   8.287  0.0981 -0.7490 -1.3014
 7530SOL     OW34051   3.151   1.381  11.462 -0.2561  0.9969 -0.0454
 7530SOL    HW134052   3.200   1.332  11.395 -1.6742 -1.3888  0.6862
 7530SOL    HW234053   3.128   1.461  11.413 -1.9834  1.1505  1.0389
 7531SOL     OW34054   3.678   1.288   1.066 -0.5307  0.1591  0.1760
 7531SOL    HW134055   3.647   1.378   1.076  1.4702  1.2905 -3.7132
 7531SOL    HW234056   3.681   1.248   1.153 -1.3730 -0.7901 -0.2385
 7532SOL     OW34057   2.953   2.739   7.051 -0.8233 -0.1693 -0.9444
 7532SOL    HW134058   2.871   2.771   7.088  1.2241  2.5764  1.2364
 7532SOL    HW234059   2.955   2.659   7.103 -1.0370 -0.0767 -0.7961
 7533SOL     OW34060   0.145   0.918   5.986 -0.1530  0.3251  0.3360
 7533SOL    HW134061   0.175   0.903   6.076  1.5460  0.6572 -0.1638
 7533SOL    HW234062   0.192   0.848   5.941 -0.5161  0.1675  0.2054
 7534SOL     OW34063   3.837   2.789   4.397 -0.1633  0.0643  0.0065
 7534SOL    HW134064   3.777   2.785   4.471 -0.1868  0.4544  0.0076
 7534SOL    HW234065   3.832   2.694   4.386 -1.9176  0.1912 -0.2892
 7535SOL     OW34066   4.157   2.556   7.147  0.2659  0.1836  0.2307
 7535SOL    HW134067   4.242   2.599   7.141 -0.8627  2.5829  1.2327
 7535SOL    HW234068   4.171   2.489   7.215 -0.6191 -0.2317  0.0054
 7536SOL     OW34069   2.066   1.032  15.711 -0.8195 -0.3533  0.4191
 7536SOL    HW134070   1.982   1.061  15.675 -1.1184  0.1800  1.5525
 7536SOL    HW234071   2.107   1.116  15.728  0.7951 -1.1054  0.3194
 7537SOL     OW34072   2.572   0.732   8.334 -0.1695 -0.0546  0.3847
 7537SOL    HW134073   2.541   0.727   8.244  0.5176 -0.8435  0.1963
 7537SOL    HW234074   2.489   0.762   8.372 -0.7551 -2.4260  0.9640
 7538SOL     OW34075   2.384   3.604   7.905  0.2376  0.0820  0.3967
 7538SOL    HW134076   2.377   3.680   7.847  0.8601 -0.1838 -0.0384
 7538SOL    HW234077   2.402   3.532   7.844 -0.7659  1.1593 -1.2016
 7539SOL     OW34078   2.423   3.567   8.256 -0.2313  0.4066  0.2571
 7539SOL    HW134079   2.511   3.529   8.251 -0.6309 -0.3779 -0.7107
 7539SOL    HW234080   2.444   3.655   8.289 -1.1422  0.5566  0.4420
 7540SOL     OW34081   2.104   1.878  11.146 -0.9796  0.2472  0.1510
 7540SOL    HW134082   2.177   1.929  11.112  0.4781 -1.7368  0.3144
 7540SOL    HW234083   2.031   1.919  11.100  1.2420  1.4694 -2.2883
 7541SOL     OW34084   0.181   4.311  14.639 -0.1467  0.2275  0.3197
 7541SOL    HW134085   0.096   4.267  14.644  1.1091 -1.8323  3.3841
 7541SOL    HW234086   0.239   4.235  14.626 -1.0166 -0.0064 -2.2356
 7542SOL     OW34087   3.854   3.169   6.294 -0.3682 -0.1623 -0.5100
 7542SOL    HW134088   3.766   3.132   6.286 -0.9729  0.7678  1.9708
 7542SOL    HW234089   3.841   3.232   6.364 -1.8089  1.4613 -2.2426
 7543SOL     OW34090   0.765   3.006   8.718  0.7416 -0.5131  0.2505
 7543SOL    HW134091   0.815   2.928   8.742  1.2965 -0.3654 -0.4290
 7543SOL    HW234092   0.709   2.966   8.651  0.0461  2.6536 -1.0234
 7544SOL     OW34093   3.876   0.017   1.051 -0.4758 -0.3781 -0.0173
 7544SOL    HW134094   3.873   4.718   1.144  1.0270 -1.0675 -0.1207
 7544SOL    HW234095   3.787   0.040   1.024 -0.2449 -1.0802 -1.3875
 7545SOL     OW34096   0.391   4.081   1.324  0.0606 -0.6162  0.2706
 7545SOL    HW134097   0.352   4.080   1.411 -1.2914 -0.4310 -0.3407
 7545SOL    HW234098   0.352   4.154   1.276 -2.8084 -1.4638  1.3802
 7546SOL     OW34099   1.266   0.189   6.817  0.2476 -0.0943 -0.4143
 7546SOL    HW134100   1.234   0.105   6.784 -3.1313 -0.2037  3.2970
 7546SOL    HW234101   1.350   0.159   6.851  0.1572  1.0527  0.7774
 7547SOL     OW34102   4.538   2.530   8.568 -0.7376  0.3219  0.1062
 7547SOL    HW134103   4.616   2.493   8.527  0.4101 -0.5753  3.1116
 7547SOL    HW234104   4.515   2.473   8.642  2.6221 -2.1277 -0.7663
 7548SOL     OW34105   0.336   2.706   9.513 -0.6423 -0.1030  0.0188
 7548SOL    HW134106   0.263   2.659   9.472 -1.1464  1.2938 -0.6652
 7548SOL    HW234107   0.354   2.647   9.586 -2.0253  0.2106  0.6173
 7549SOL     OW34108   3.554   0.982   7.374  0.4184  0.5147 -0.4689
 7549SOL    HW134109   3.468   1.022   7.363  0.0778 -0.1756 -0.2888
 7549SOL    HW234110   3.596   1.043   7.434  1.7017  0.4897 -1.3486
 7550SOL     OW34111   2.598   1.082   7.073 -0.6865 -0.1658  0.0170
 7550SOL    HW134112   2.581   0.990   7.054  0.8797 -0.8180  1.8169
 7550SOL    HW234113   2.524   1.115   7.023  0.0117  1.6434  0.1856
 7551SOL     OW34114   2.214   0.442   4.239  0.1844 -0.6447  0.1703
 7551SOL    HW134115   2.128   0.471   4.207 -1.0375 -2.5269  1.6924
 7551SOL    HW234116   2.270   0.482   4.173 -0.6119 -1.4191 -0.9785
 7552SOL     OW34117   2.165   3.679  14.228 -0.5443  0.4197  0.8760
 7552SOL    HW134118   2.137   3.644  14.143  0.0105  2.4032 -0.1304
 7552SOL    HW234119   2.213   3.600  14.255 -0.5328 -0.8573 -2.8696
 7553SOL     OW34120   4.116   4.529  13.127  0.3021  0.3234  0.0171
 7553SOL    HW134121   4.171   4.604  13.148  1.7196 -0.6384 -0.2595
 7553SOL    HW234122   4.047   4.536  13.193  1.8695 -0.9810  1.8006
 7554SOL     OW34123   2.234   1.154  12.243 -0.0392  0.0964  0.0817
 7554SOL    HW134124   2.323   1.170  12.274  0.6114 -0.7129 -1.3660
 7554SOL    HW234125   2.243   1.077  12.187 -3.4948 -1.9878  2.3988
 7555SOL     OW34126   2.549   2.058   4.469 -0.0186  0.1558 -0.3206
 7555SOL    HW134127   2.468   2.109   4.465 -0.9955 -1.4017 -0.2757
 7555SOL    HW234128   2.516   1.976   4.506  0.1017 -0.9075 -2.5308
 7556SOL     OW34129   1.992   3.803   7.995  0.0437 -0.0652 -1.0777
 7556SOL    HW134130   1.916   3.829   8.048 -0.3712 -0.9966 -1.2105
 7556SOL    HW234131   2.034   3.737   8.050 -0.2571  0.2336 -0.4817
 7557SOL     OW34132   3.338   1.965   6.271 -0.1438  0.0440 -0.0412
 7557SOL    HW134133   3.265   1.975   6.332 -2.3226 -1.2497 -2.4235
 7557SOL    HW234134   3.408   1.995   6.328 -1.0374 -0.0444  1.1116
 7558SOL     OW34135   4.721   1.124   7.326  0.5245 -0.0530 -0.1801
 7558SOL    HW134136   4.644   1.074   7.353  0.0634  0.7475 -0.0265
 7558SOL    HW234137   0.036   1.066   7.259 -0.0487  0.7334 -1.1830
 7559SOL     OW34138   1.674   2.321  10.280  0.1334 -0.2346 -0.5807
 7559SOL    HW134139   1.627   2.323  10.197  1.8600 -0.7438 -1.5828
 7559SOL    HW234140   1.635   2.250  10.330 -0.6899 -0.5545 -1.7025
 7560SOL     OW34141   0.292   2.720  16.958 -0.7364  0.0064 -0.0910
 7560SOL    HW134142   0.312   2.814  16.953  2.0813 -0.6664 -1.5742
 7560SOL    HW234143   0.347   2.703  17.034 -0.0180 -0.5238 -0.7281
 7561SOL     OW34144   1.728   2.978   5.557  0.0011  0.2464  0.2602
 7561SOL    HW134145   1.757   3.052   5.610 -0.8066 -0.9545  2.3391
 7561SOL    HW234146   1.711   3.014   5.470  1.9352  0.6173  0.0322
 7562SOL     OW34147   3.441   0.624   8.477 -0.2117 -0.6385  0.6696
 7562SOL    HW134148   3.402   0.553   8.426  0.8145 -0.1372 -0.8294
 7562SOL    HW234149   3.476   0.678   8.406 -1.7838  0.1882  0.5242
 7563SOL     OW34150   4.167   0.026   4.234  0.5318  0.3685 -0.2489
 7563SOL    HW134151   4.167   0.076   4.316 -0.9349  0.4507 -0.3033
 7563SOL    HW234152   4.094   4.688   4.248 -0.1163  1.1703 -0.1880
 7564SOL     OW34153   3.405   3.433   1.327  0.3549  0.0745 -0.2724
 7564SOL    HW134154   3.430   3.449   1.237 -2.3086  1.1317 -0.8280
 7564SOL    HW234155   3.381   3.518   1.365  2.2398  0.5098 -0.0469
 7565SOL     OW34156   1.576   4.311   8.375  0.1812 -0.1973  0.2249
 7565SOL    HW134157   1.581   4.249   8.447 -1.1280  0.2923  0.7316
 7565SOL    HW234158   1.482   4.329   8.371  0.1514 -0.2920  0.5271
 7566SOL     OW34159   3.501   0.409   9.547  0.3755 -0.0041 -0.7439
 7566SOL    HW134160   3.523   0.499   9.523  1.6842 -0.3876 -1.0064
 7566SOL    HW234161   3.425   0.408   9.489  1.3510 -0.4016 -2.0133
 7567SOL     OW34162   0.978   3.968  11.675  0.3583 -0.5897 -0.7515
 7567SOL    HW134163   1.015   3.991  11.761 -0.7971 -0.5063 -0.2796
 7567SOL    HW234164   1.025   4.030  11.619  1.1846 -0.4655  0.0795
 7568SOL     OW34165   1.408   2.563  14.856 -0.0115 -0.3909  0.4367
 7568SOL    HW134166   1.355   2.554  14.777  0.0504  2.4349  0.0964
 7568SOL    HW234167   1.348   2.587  14.927 -2.1768 -1.9722 -0.8848
 7569SOL     OW34168   0.629   0.299  11.118 -0.5746  0.4112  0.0784
 7569SOL    HW134169   0.637   0.244  11.196 -1.4005 -2.7608 -2.0877
 7569SOL    HW234170   0.721   0.327  11.114 -0.7671  0.8149 -1.6158
 7570SOL     OW34171   4.586   3.948   9.935 -0.1061 -0.5640 -0.5106
 7570SOL    HW134172   4.668   3.946   9.885 -0.8262 -1.2983 -1.6651
 7570SOL    HW234173   4.587   3.865   9.981 -1.1693 -0.8378 -0.9810
 7571SOL     OW34174   1.677   0.639   4.349 -0.0648 -0.3243  0.0232
 7571SOL    HW134175   1.584   0.625   4.367  0.2412  0.0595  1.8758
 7571SOL    HW234176   1.684   0.729   4.381 -3.1360 -0.3011  0.6009
 7572SOL     OW34177   3.379   1.708   3.498 -0.2323  0.0023 -0.1666
 7572SOL    HW134178   3.425   1.791   3.497 -1.9368  0.9582  0.6291
 7572SOL    HW234179   3.419   1.675   3.578  0.5021 -0.9634 -0.9263
 7573SOL     OW34180   3.757   1.528   5.137 -0.0319 -0.4772 -0.3610
 7573SOL    HW134181   3.720   1.444   5.110 -1.9290  0.1912  0.2011
 7573SOL    HW234182   3.726   1.589   5.070 -1.3636  1.2038  1.7971
 7574SOL     OW34183   0.270   2.454   5.583 -0.1556  0.0970  0.1188
 7574SOL    HW134184   0.258   2.392   5.655  3.1236  1.2282  1.6206
 7574SOL    HW234185   0.227   2.406   5.512  1.6091 -2.1210  0.5509
 7575SOL     OW34186   3.933   1.136   7.768 -0.4285  0.0602  0.5918
 7575SOL    HW134187   3.870   1.199   7.801 -0.7919 -0.7253  1.3974
 7575SOL    HW234188   3.870   1.069   7.742 -1.8274  2.3087 -1.8382
 7576SOL     OW34189   1.297   2.826   6.039  0.1116  0.5184  0.0462
 7576SOL    HW134190   1.252   2.792   5.962 -1.0084 -0.6466  1.2105
 7576SOL    HW234191   1.222   2.856   6.092  1.9718  0.6685  2.6094
 7577SOL     OW34192   3.205   3.776   5.640  0.2536 -0.1823  0.3953
 7577SOL    HW134193   3.168   3.750   5.724 -0.9269 -0.1907 -0.1211
 7577SOL    HW234194   3.173   3.866   5.637 -0.0300 -0.2803  0.4298
 7578SOL     OW34195   1.103   3.561   6.976  0.1402 -0.5973  0.2465
 7578SOL    HW134196   1.158   3.544   7.053  2.4860  1.2249 -1.0443
 7578SOL    HW234197   1.122   3.653   6.963 -3.6947 -0.1812 -2.3678
 7579SOL     OW34198   4.426   0.569  15.769 -0.1531 -0.8636  0.6538
 7579SOL    HW134199   4.420   0.477  15.793 -2.4712 -1.6925 -3.0562
 7579SOL    HW234200   4.520   0.590  15.771 -0.0790 -0.9469 -1.4573
 7580SOL     OW34201   4.684   0.676  15.704 -0.0349  0.5340  0.2362
 7580SOL    HW134202   0.001   0.764  15.709  0.2916  0.4170 -0.2009
 7580SOL    HW234203   0.035   0.616  15.720  1.4342  1.8375 -1.4246
 7581SOL     OW34204   0.921   0.186   3.219 -0.2319 -0.0264 -0.3556
 7581SOL    HW134205   0.934   0.092   3.234  3.3975  0.9671  2.6954
 7581SOL    HW234206   1.006   0.223   3.194  1.3493 -2.5596  1.2660
 7582SOL     OW34207   2.839   1.286   7.999 -0.4048 -0.0182  0.0880
 7582SOL    HW134208   2.865   1.371   7.963  0.6912 -0.7841 -0.9062
 7582SOL    HW234209   2.816   1.228   7.926  1.7748 -1.3028  0.4333
 7583SOL     OW34210   0.028   3.007  17.584  0.0736  0.2684  0.1345
 7583SOL    HW134211   0.009   2.919  17.551  3.2451  0.1484 -1.3260
 7583SOL    HW234212   0.109   2.999  17.635 -0.2270  0.5130  0.6584
 7584SOL     OW34213   0.841   3.627   1.346 -0.0398 -0.6052 -0.2228
 7584SOL    HW134214   0.885   3.549   1.313  0.7840  0.4747 -1.6391
 7584SOL    HW234215   0.887   3.642   1.429  2.9781 -1.6163 -1.7197
 7585SOL     OW34216   0.578   1.903   5.140 -0.0384 -0.4370  0.4988
 7585SOL    HW134217   0.487   1.923   5.116  0.8074  1.6378 -0.8836
 7585SOL    HW234218   0.581   1.820   5.092  2.1713 -0.0226 -0.0249
 7586SOL     OW34219   0.993   0.674   4.021 -0.0106  0.0839 -0.7808
 7586SOL    HW134220   1.007   0.708   3.933  1.3840  0.3916 -0.4305
 7586SOL    HW234221   0.908   0.632   4.010 -0.2651  0.7800 -1.4829
 7587SOL     OW34222   2.711   1.421  15.164  0.8213  0.3156  0.8111
 7587SOL    HW134223   2.651   1.482  15.207  0.5091  1.7244 -1.6196
 7587SOL    HW234224   2.656   1.345  15.142  0.7171  0.8690 -0.8648
 7588SOL     OW34225   4.169   4.582   2.604 -0.8008 -0.2438  0.4930
 7588SOL    HW134226   4.179   4.489   2.622  0.5169 -0.0365  0.8047
 7588SOL    HW234227   4.099   4.584   2.538 -0.8582 -2.8958  0.4890
 7589SOL     OW34228   1.912   3.802   1.987 -0.3143 -0.3803 -0.1387
 7589SOL    HW134229   1.986   3.854   2.018  0.3770 -1.0672 -0.6562
 7589SOL    HW234230   1.919   3.741   2.060 -1.4427  1.9229  1.9093
 7590SOL     OW34231   2.036   2.949   8.814  0.2580  0.1913 -0.6870
 7590SOL    HW134232   2.021   2.993   8.730 -1.9551  0.9660  0.1073
 7590SOL    HW234233   2.082   3.017   8.863 -2.6310  1.4168  0.3239
 7591SOL     OW34234   0.908   1.266   8.157  0.3265 -0.1775 -0.5024
 7591SOL    HW134235   0.923   1.176   8.185 -1.8006  0.0529  1.3705
 7591SOL    HW234236   0.981   1.307   8.204  1.4541 -0.2065 -2.2299
 7592SOL     OW34237   2.138   0.709   3.878 -0.0202  0.2982 -0.2698
 7592SOL    HW134238   2.193   0.762   3.821 -1.3313  1.5927 -0.3331
 7592SOL    HW234239   2.188   0.628   3.876  0.3282  0.5255 -0.9297
 7593SOL     OW34240   2.202   1.074   7.921 -0.3775  0.2656 -0.2536
 7593SOL    HW134241   2.155   1.061   8.004 -0.1805 -1.9265 -0.4978
 7593SOL    HW234242   2.216   1.168   7.912 -1.8166  0.4337 -0.7592
 7594SOL     OW34243   1.814   2.234   8.986 -0.2377 -0.0004  0.0356
 7594SOL    HW134244   1.760   2.306   8.953  0.1387  0.0193 -0.5270
 7594SOL    HW234245   1.769   2.149   8.981 -0.7617  0.3064 -0.4616
 7595SOL     OW34246   2.049   0.778   4.377 -0.2236  0.0337  0.4536
 7595SOL    HW134247   2.125   0.815   4.423  1.8893 -0.9975 -2.2022
 7595SOL    HW234248   2.069   0.789   4.284 -2.2248 -1.3985 -0.1428
 7596SOL     OW34249   0.133   2.002   5.048 -0.1225 -0.3932  0.6453
 7596SOL    HW134250   0.044   1.989   5.084  0.0107 -1.2980  0.6541
 7596SOL    HW234251   0.149   1.916   5.009  1.2664  1.1397 -2.0585
 7597SOL     OW34252   1.314   4.293   3.773  0.2507 -0.2115  0.0445
 7597SOL    HW134253   1.312   4.208   3.817  0.7138 -0.6066 -0.6997
 7597SOL    HW234254   1.400   4.284   3.733 -0.5988 -0.3064 -1.7613
 7598SOL     OW34255   4.318   2.526  11.345 -0.3431 -0.3845 -0.1224
 7598SOL    HW134256   4.331   2.512  11.438 -0.1236  1.2398  0.0868
 7598SOL    HW234257   4.241   2.582  11.336  0.3497  0.4441 -1.0065
 7599SOL     OW34258   4.185   2.887   7.016 -0.4841 -0.3071 -0.1804
 7599SOL    HW134259   4.167   2.946   6.943 -1.6198  2.7037  2.5194
 7599SOL    HW234260   4.136   2.928   7.088  0.8079 -1.5074  1.3639
 7600SOL     OW34261   1.189   4.349   7.861  0.5395 -0.2277  0.6740
 7600SOL    HW134262   1.148   4.271   7.824  0.8732 -0.2847  0.4269
 7600SOL    HW234263   1.109   4.401   7.869  0.0789 -0.9758  0.9766
 7601SOL     OW34264   0.803   4.107   1.885  0.6813 -0.4669 -0.0721
 7601SOL    HW134265   0.861   4.145   1.951  0.3486  0.4910 -0.3348
 7601SOL    HW234266   0.863   4.055   1.832  0.2905 -2.1242  1.1040
 7602SOL     OW34267   2.910   1.370   6.934 -1.0803 -0.5645 -0.0098
 7602SOL    HW134268   2.997   1.406   6.919 -1.7008  0.6083 -0.7502
 7602SOL    HW234269   2.884   1.365   6.842  0.8261  2.6811 -0.7167
 7603SOL     OW34270   2.000   3.848   6.466 -0.4505 -0.3770  0.1029
 7603SOL    HW134271   1.927   3.882   6.415 -1.6518 -2.0895  0.7109
 7603SOL    HW234272   1.965   3.763   6.491  2.7084 -1.5447  0.5091
 7604SOL     OW34273   4.635   1.840   1.985  0.8023  0.0740 -0.0507
 7604SOL    HW134274   0.005   1.863   1.997  0.6233  0.2811  0.9019
 7604SOL    HW234275   4.623   1.793   1.902 -0.4225 -1.2552  0.8816
 7605SOL     OW34276   1.885   0.000  14.003 -0.3325 -0.3525  0.5057
 7605SOL    HW134277   1.858   4.710  14.094 -1.7093 -0.4986  0.0884
 7605SOL    HW234278   1.822   0.061  13.963  1.2981  0.7862 -0.3183
 7606SOL     OW34279   2.237   1.779  13.295 -0.5622  0.1481  0.8297
 7606SOL    HW134280   2.235   1.871  13.321  1.5355  0.1409  1.0236
 7606SOL    HW234281   2.143   1.772  13.279 -0.4959 -0.3537  0.6570
 7607SOL     OW34282   1.565   2.601   4.059 -0.4848  0.0702 -0.1912
 7607SOL    HW134283   1.486   2.646   4.029  0.2861  1.5042 -0.0913
 7607SOL    HW234284   1.562   2.537   3.988 -0.8459 -2.0081  1.6818
 7608SOL     OW34285   1.669   1.520  12.200  0.5594  0.1059 -0.0519
 7608SOL    HW134286   1.707   1.600  12.237  0.9593 -0.2675  0.3495
 7608SOL    HW234287   1.659   1.462  12.275  1.9268  0.3665  0.3473
 7609SOL     OW34288   4.267   4.171   8.232 -0.9323  0.2132  0.7375
 7609SOL    HW134289   4.339   4.203   8.178 -2.8180  3.0844 -0.0475
 7609SOL    HW234290   4.292   4.080   8.247 -0.5713 -0.0977 -1.7537
 7610SOL     OW34291   4.656   2.771   9.488  0.0619  0.6023  0.5281
 7610SOL    HW134292   4.695   2.713   9.553 -2.4373 -1.5750  0.0615
 7610SOL    HW234293   0.001   2.793   9.423 -1.7280  1.7845 -0.8865
 7611SOL     OW34294   3.752   3.935   5.406  0.1386 -0.4124 -0.5408
 7611SOL    HW134295   3.716   3.980   5.329  0.5560 -0.9028 -1.0210
 7611SOL    HW234296   3.712   3.987   5.476  1.5538  2.3558 -1.7668
 7612SOL     OW34297   3.715   1.562   1.534  0.1997 -0.0275  0.0601
 7612SOL    HW134298   3.688   1.485   1.484 -1.2052 -0.8095  2.0520
 7612SOL    HW234299   3.760   1.605   1.461 -2.1517  1.5349 -0.4813
 7613SOL     OW34300   1.669   0.206  11.126 -0.3736 -0.3172 -0.4531
 7613SOL    HW134301   1.595   0.146  11.119  0.5274 -1.3569 -0.9912
 7613SOL    HW234302   1.627   0.284  11.163  0.5265 -1.1076  2.2280
 7614SOL     OW34303   0.893   1.521  16.328  0.2075  0.1000  0.1997
 7614SOL    HW134304   0.866   1.606  16.361 -0.6149  1.1548 -3.1737
 7614SOL    HW234305   0.805   1.487  16.310  1.4861 -3.2757  0.2437
 7615SOL     OW34306   2.531   3.471   9.426 -0.2811 -0.3246  0.0355
 7615SOL    HW134307   2.534   3.548   9.370  0.7633 -0.6713 -0.3833
 7615SOL    HW234308   2.522   3.518   9.509  0.4376  0.2967 -0.2318
 7616SOL     OW34309   1.249   3.331  12.331 -0.2693  0.6236 -0.3102
 7616SOL    HW134310   1.263   3.310  12.239  1.8536  3.0306 -0.5562
 7616SOL    HW234311   1.206   3.416  12.324 -2.6115 -0.6099 -0.7064
 7617SOL     OW34312   0.563   2.872   4.859  0.1072  0.1574 -0.3693
 7617SOL    HW134313   0.507   2.863   4.936  1.1888 -2.3319  0.1530
 7617SOL    HW234314   0.515   2.934   4.805  0.6114  0.4039 -0.5344
 7618SOL     OW34315   0.413   4.176   3.640 -0.2120 -0.6062 -0.2477
 7618SOL    HW134316   0.492   4.154   3.590  0.0699  1.2562 -0.6341
 7618SOL    HW234317   0.365   4.094   3.652  0.2133 -0.6541  1.1522
 7619SOL     OW34318   1.405   2.216   4.154 -0.6439 -1.1574 -0.1308
 7619SOL    HW134319   1.367   2.289   4.105  1.1203  2.2575  3.6789
 7619SOL    HW234320   1.374   2.233   4.243  0.2310 -1.3248  0.2117
 7620SOL     OW34321   0.790   4.425  13.253  0.2293 -0.0877 -0.3104
 7620SOL    HW134322   0.863   4.410  13.313 -0.1240  0.3862  0.2380
 7620SOL    HW234323   0.714   4.384  13.294 -0.7484  0.7178 -1.3377
 7621SOL     OW34324   2.524   4.667   7.183  0.1631  0.2787 -0.0343
 7621SOL    HW134325   2.499   4.648   7.273  0.2111  1.5074  0.2430
 7621SOL    HW234326   2.482   4.594   7.139 -0.8275  0.7285  0.1640
 7622SOL     OW34327   4.571   0.151  10.153  0.1202 -0.2538  0.0735
 7622SOL    HW134328   4.581   0.059  10.128  0.6066  0.5609 -2.7445
 7622SOL    HW234329   4.527   0.194  10.080  1.5969  2.1860  0.6163
 7623SOL     OW34330   2.754   1.024   0.646  0.2463 -0.1225  0.4953
 7623SOL    HW134331   2.710   1.055   0.726  2.2004  1.3951  0.9820
 7623SOL    HW234332   2.683   1.015   0.582  1.6318  0.7105 -1.1503
 7624SOL     OW34333   3.362   2.696   7.854  0.1438  0.0465 -0.4794
 7624SOL    HW134334   3.366   2.642   7.933 -0.1878  1.0322  0.2156
 7624SOL    HW234335   3.445   2.743   7.854 -0.4640  1.1082 -1.3973
 7625SOL     OW34336   1.252   2.923   2.629 -0.2166  1.1786 -0.2911
 7625SOL    HW134337   1.231   2.961   2.544 -1.7114 -1.3249 -1.0481
 7625SOL    HW234338   1.239   2.829   2.619  2.7966  0.9119 -1.8506
 7626SOL     OW34339   4.160   4.602   6.815 -0.4064  0.1975  0.4423
 7626SOL    HW134340   4.080   4.653   6.828 -0.9859 -0.7436  0.5878
 7626SOL    HW234341   4.137   4.542   6.743 -1.8189 -1.3212  2.1560
 7627SOL     OW34342   0.591   4.418   0.412 -0.2191 -0.2070  0.0643
 7627SOL    HW134343   0.634   4.503   0.426 -2.1179  0.6740  0.6958
 7627SOL    HW234344   0.644   4.387   0.339 -0.9910  1.0779 -1.0445
 7628SOL     OW34345   0.250   2.272   4.790 -0.1168 -0.0581 -0.4330
 7628SOL    HW134346   0.239   2.339   4.858  0.6519  1.4847 -1.8281
 7628SOL    HW234347   0.319   2.219   4.829  0.1154  1.5309  1.3101
 7629SOL     OW34348   1.904   0.115   6.918  0.2677  0.0508 -0.1208
 7629SOL    HW134349   1.918   0.185   6.982 -1.1600 -0.5010  0.7888
 7629SOL    HW234350   1.935   0.041   6.970 -0.9687  0.6944  1.5349
 7630SOL     OW34351   0.503   0.545   5.769 -0.0628 -0.1995  0.1059
 7630SOL    HW134352   0.541   0.552   5.681 -2.3107 -1.2576 -0.9331
 7630SOL    HW234353   0.453   0.626   5.779 -0.1842 -0.0502 -1.6213
 7631SOL     OW34354   0.067   4.321   6.557 -0.3278  0.4918  0.0737
 7631SOL    HW134355   0.041   4.266   6.632 -2.5083 -0.3864 -1.3298
 7631SOL    HW234356   4.708   4.369   6.540  0.0966  0.8076 -1.0331
 7632SOL     OW34357   3.627   4.459   6.924 -0.1268 -0.1645 -0.4952
 7632SOL    HW134358   3.557   4.466   6.988 -0.2554 -0.0752 -0.6459
 7632SOL    HW234359   3.622   4.552   6.903 -0.5670 -0.1740 -0.4315
 7633SOL     OW34360   0.549   3.315   3.170 -0.9810  0.1713  0.0764
 7633SOL    HW134361   0.610   3.342   3.101 -0.9667 -0.3297 -0.1109
 7633SOL    HW234362   0.488   3.388   3.178  0.1084  1.4798 -3.5657
 7634SOL     OW34363   2.748   0.113   7.172 -1.0646  0.5822 -0.3692
 7634SOL    HW134364   2.734   0.140   7.263 -2.3081 -1.1711 -0.0331
 7634SOL    HW234365   2.682   0.045   7.156  0.2946 -1.0724  1.1537
 7635SOL     OW34366   4.717   1.103  13.506 -0.5604  0.3211  0.3609
 7635SOL    HW134367   0.043   1.024  13.534 -1.5465 -0.0121  1.1076
 7635SOL    HW234368   4.633   1.066  13.477 -0.2105  0.5716 -0.9713
 7636SOL     OW34369   3.537   1.745   4.710 -0.5750 -0.3159  0.3553
 7636SOL    HW134370   3.450   1.755   4.748 -0.3729 -0.2114  0.7929
 7636SOL    HW234371   3.526   1.708   4.622  1.9328 -1.0109  0.3314
 7637SOL     OW34372   2.271   1.104   9.258  0.2242 -0.0079 -0.0974
 7637SOL    HW134373   2.297   1.012   9.258 -1.7438 -0.5797  1.3974
 7637SOL    HW234374   2.339   1.138   9.316  0.1043 -0.3749  0.2553
 7638SOL     OW34375   2.946   0.851   4.564 -0.4467 -0.5606  0.6204
 7638SOL    HW134376   2.935   0.888   4.652 -1.7640 -0.2445  0.3220
 7638SOL    HW234377   3.031   0.809   4.581 -0.3061 -0.0645  1.1410
 7639SOL     OW34378   4.128   2.534   1.339 -0.1462 -0.0485 -0.3583
 7639SOL    HW134379   4.135   2.629   1.329 -0.0894  0.2192  2.2646
 7639SOL    HW234380   4.131   2.521   1.434 -0.8191 -2.0942 -0.6280
 7640SOL     OW34381   4.373   4.368  10.301 -0.3280  0.1581  0.2093
 7640SOL    HW134382   4.390   4.302  10.369  1.0155  0.4064  0.1120
 7640SOL    HW234383   4.432   4.332  10.234 -3.2241  1.2660 -2.9337
 7641SOL     OW34384   2.369   2.878   8.521 -0.1527  0.2713 -0.0603
 7641SOL    HW134385   2.297   2.857   8.580 -0.8348  1.9651 -0.2784
 7641SOL    HW234386   2.387   2.970   8.540  2.0317 -0.6413  2.3987
 7642SOL     OW34387   2.697   0.929   7.999  0.1164  0.0028  0.3165
 7642SOL    HW134388   2.778   0.892   8.035  0.3559 -1.0653 -1.3306
 7642SOL    HW234389   2.669   0.874   7.926  1.8451 -1.2601  0.5974
 7643SOL     OW34390   0.748   3.236   6.205 -0.1801 -0.0570  0.6334
 7643SOL    HW134391   0.659   3.271   6.216 -0.3355 -0.5890  1.1022
 7643SOL    HW234392   0.747   3.245   6.110  2.1676 -0.7920  0.5593
 7644SOL     OW34393   2.311   2.249   5.420 -0.2532 -0.2125 -0.0674
 7644SOL    HW134394   2.402   2.223   5.409  0.6437  1.2165  3.7834
 7644SOL    HW234395   2.328   2.327   5.473 -0.7387 -0.1890  0.0526
 7645SOL     OW34396   0.822   4.603   4.052  0.1045  0.1357 -0.2588
 7645SOL    HW134397   0.806   4.512   4.077  0.1118  0.1971 -0.0306
 7645SOL    HW234398   0.865   4.640   4.129 -2.7023  1.3016  0.7292
 7646SOL     OW34399   2.942   3.673   0.603  0.5696  0.0712  0.0449
 7646SOL    HW134400   2.878   3.606   0.579  0.6946 -0.3396  0.8238
 7646SOL    HW234401   3.019   3.616   0.600 -0.1719 -1.0844  2.3838
 7647SOL     OW34402   3.808   0.678   9.018 -0.1637 -0.6502  0.4239
 7647SOL    HW134403   3.714   0.685   9.000 -0.7891 -2.9523  2.8673
 7647SOL    HW234404   3.851   0.751   8.973 -0.5009  0.1088  1.3087
 7648SOL     OW34405   3.314   3.048   5.545  0.0379  0.2547  0.0291
 7648SOL    HW134406   3.388   3.106   5.561  0.5069  0.4589 -2.9294
 7648SOL    HW234407   3.269   3.100   5.478  0.2776  0.7832  0.2768
 7649SOL     OW34408   2.653   4.080   8.873  0.1937  0.1363 -0.2093
 7649SOL    HW134409   2.747   4.066   8.878  0.1394  0.0176  0.4640
 7649SOL    HW234410   2.624   3.988   8.878 -0.0625  0.2414  0.1964
 7650SOL     OW34411   0.444   2.097  14.322 -0.5542  0.4514  0.3601
 7650SOL    HW134412   0.410   2.007  14.320  0.2143  0.1363  1.3591
 7650SOL    HW234413   0.530   2.078  14.285  0.3339 -0.6482  2.9706
 7651SOL     OW34414   0.848   1.157   2.467  0.5379 -0.2887 -0.0128
 7651SOL    HW134415   0.835   1.132   2.376  2.4087 -0.8850 -0.1139
 7651SOL    HW234416   0.803   1.241   2.472  0.7491 -0.2108  0.6554
 7652SOL     OW34417   1.374   1.893  10.332  0.1971 -0.1711 -0.0148
 7652SOL    HW134418   1.337   1.813  10.293 -0.3154 -1.0428  2.2553
 7652SOL    HW234419   1.309   1.959  10.308  0.1763  0.0781  0.7188
 7653SOL     OW34420   3.719   0.326   1.589 -0.1309  0.3402 -0.1112
 7653SOL    HW134421   3.734   0.417   1.562  2.4464  0.4075  1.4777
 7653SOL    HW234422   3.774   0.323   1.668 -0.1334  3.7383  0.0340
 7654SOL     OW34423   4.167   2.656   8.514 -0.0703 -0.2056  0.2714
 7654SOL    HW134424   4.075   2.668   8.540 -0.0906  0.0652  0.0756
 7654SOL    HW234425   4.159   2.596   8.440 -2.1186 -0.3272  0.5794
 7655SOL     OW34426   0.358   4.672   6.070 -0.6204 -0.5547 -0.1979
 7655SOL    HW134427   0.354   4.711   6.157 -3.1221  1.3756 -1.1896
 7655SOL    HW234428   0.441   4.710   6.040 -0.6098 -1.2525 -1.0535
 7656SOL     OW34429   2.186   4.085   2.364 -0.2626  0.2710  0.0798
 7656SOL    HW134430   2.232   4.006   2.391  0.6227  0.7941  0.0973
 7656SOL    HW234431   2.098   4.077   2.402 -1.2073  0.8882 -1.9651
 7657SOL     OW34432   1.654   4.104   5.185 -0.6062 -0.0580 -0.3296
 7657SOL    HW134433   1.591   4.150   5.242 -0.1368  0.2428 -0.0528
 7657SOL    HW234434   1.674   4.027   5.238 -0.9668  0.0108 -0.0950
 7658SOL     OW34435   2.575   2.214   8.929 -0.0256  0.2042 -0.3405
 7658SOL    HW134436   2.558   2.296   8.882 -1.1339 -0.7268 -1.5745
 7658SOL    HW234437   2.491   2.208   8.976  1.0468 -1.3234  1.3735
 7659SOL     OW34438   2.467   1.262   8.828  0.5467  0.1139  0.2864
 7659SOL    HW134439   2.512   1.344   8.806 -2.0433  0.8287 -2.4110
 7659SOL    HW234440   2.516   1.196   8.779 -2.1189 -0.8984 -1.0262
 7660SOL     OW34441   2.283   4.581   8.381 -0.8850  0.1639  0.3122
 7660SOL    HW134442   2.215   4.532   8.335 -0.0501  0.4150 -1.2062
 7660SOL    HW234443   2.352   4.586   8.315  0.4385 -2.1481  1.4982
 7661SOL     OW34444   0.032   1.980   4.303 -0.2239  0.6812 -0.4567
 7661SOL    HW134445   0.045   1.977   4.397 -1.1084 -0.7012 -0.3750
 7661SOL    HW234446   0.092   1.911   4.272  0.4923  0.5498  1.2497
 7662SOL     OW34447   2.674   0.219   9.591  0.1020  0.5435  0.1298
 7662SOL    HW134448   2.581   0.241   9.604  0.4048  1.5990  0.4903
 7662SOL    HW234449   2.720   0.295   9.626  1.7317 -0.7083  0.6869
 7663SOL     OW34450   0.467   1.938   0.667 -0.2391  0.3790  0.2293
 7663SOL    HW134451   0.499   1.868   0.724 -0.0842  0.2194 -0.0531
 7663SOL    HW234452   0.406   1.898   0.605 -0.5197  1.6336 -0.3093
 7664SOL     OW34453   2.297   2.822   1.047  0.2946 -0.4929  0.2385
 7664SOL    HW134454   2.332   2.907   1.019  1.1287 -0.7058  0.6429
 7664SOL    HW234455   2.249   2.791   0.970  0.1967 -0.3559  0.2440
 7665SOL     OW34456   3.594   0.876   5.542  0.5368 -0.3658  0.1759
 7665SOL    HW134457   3.627   0.849   5.456 -0.9580  2.3486 -1.2699
 7665SOL    HW234458   3.504   0.842   5.537 -0.4825  2.2404  0.9015
 7666SOL     OW34459   1.173   4.448   5.826 -0.0333 -0.0789 -0.1149
 7666SOL    HW134460   1.263   4.413   5.823 -0.9904 -2.4751 -1.2053
 7666SOL    HW234461   1.129   4.366   5.849 -0.1209  0.3686  1.3228
 7667SOL     OW34462   1.986   2.863   0.895 -0.0351 -0.1545 -0.5500
 7667SOL    HW134463   2.018   2.906   0.816  1.5153 -1.9013 -0.8808
 7667SOL    HW234464   1.979   2.942   0.949  2.1777  0.9808 -1.9482
 7668SOL     OW34465   0.062   1.110   1.460  0.6238  0.2108 -0.0311
 7668SOL    HW134466   0.131   1.089   1.523 -2.6321 -3.6593  2.2161
 7668SOL    HW234467   0.029   1.196   1.488 -2.8164 -0.6998 -1.3477
 7669SOL     OW34468   0.284   0.792   2.548 -0.0449  0.2340  0.2450
 7669SOL    HW134469   0.358   0.759   2.600 -1.2410  1.2809  2.5933
 7669SOL    HW234470   0.316   0.797   2.458 -2.2097  0.9130 -0.4822
 7670SOL     OW34471   2.637   4.133   8.216 -0.7526 -0.1217 -0.1875
 7670SOL    HW134472   2.707   4.083   8.173 -0.8927 -0.7552  0.3199
 7670SOL    HW234473   2.588   4.166   8.140  0.0300  1.7935  0.1395
 7671SOL     OW34474   1.377   4.716   8.829 -0.4703  0.1889 -0.3259
 7671SOL    HW134475   1.464   4.693   8.797 -0.9083  1.9797 -2.7685
 7671SOL    HW234476   1.354   4.627   8.856 -1.3181  0.7988  0.9825
 7672SOL     OW34477   2.056   3.572  13.945  0.6681 -0.1039 -1.0264
 7672SOL    HW134478   2.135   3.553  13.895  1.3557 -0.7490  0.2898
 7672SOL    HW234479   1.988   3.523  13.898 -0.3842  0.8633 -0.5377
 7673SOL     OW34480   1.915   2.312  14.085  0.4138  0.7036 -0.2507
 7673SOL    HW134481   1.941   2.288  14.174  1.8088 -1.0228 -1.1389
 7673SOL    HW234482   1.883   2.395  14.120 -3.1388 -1.3007  1.2238
 7674SOL     OW34483   1.688   0.045   4.079 -0.4309 -0.3013  0.3384
 7674SOL    HW134484   1.742   4.713   4.137  0.7820 -0.5920 -1.0561
 7674SOL    HW234485   1.694   4.708   4.004  1.0129 -0.1873  0.3721
 7675SOL     OW34486   2.638   4.614   7.968 -0.1035  0.0900 -0.0628
 7675SOL    HW134487   2.672   4.634   8.055  0.3542 -0.9845 -0.0011
 7675SOL    HW234488   2.723   4.603   7.925 -0.0899 -1.1053  0.2625
 7676SOL     OW34489   4.424   0.370   5.346 -0.3156 -0.1181  0.2032
 7676SOL    HW134490   4.432   0.393   5.439 -1.0484  1.6989 -0.1734
 7676SOL    HW234491   4.502   0.410   5.307 -0.0702  0.8804  1.7108
 7677SOL     OW34492   0.273   0.036   6.598 -0.0993 -0.0931 -0.9248
 7677SOL    HW134493   0.339   0.096   6.634 -0.8531 -0.5698  1.2423
 7677SOL    HW234494   0.249   4.702   6.672  0.8641  3.1589  1.8218
 7678SOL     OW34495   2.917   2.045   6.945  0.0516  0.4500  0.2705
 7678SOL    HW134496   2.946   2.135   6.958  4.5563 -0.6448 -2.3046
 7678SOL    HW234497   2.906   2.051   6.850 -0.2109 -0.8418  0.2177
 7679SOL     OW34498   4.511   3.226   7.833  0.5068 -0.1971 -0.1978
 7679SOL    HW134499   4.595   3.179   7.835  0.3050 -0.5431  0.0724
 7679SOL    HW234500   4.464   3.194   7.910  1.5264 -0.4357  0.3249
 7680SOL     OW34501   1.015   1.490   3.668 -0.3346  0.2335  0.2393
 7680SOL    HW134502   0.928   1.531   3.675  0.1317  1.1044  0.9653
 7680SOL    HW234503   1.065   1.542   3.732  1.7338 -1.1714 -0.2613
 7681SOL     OW34504   0.819   1.799  16.322  0.5188  0.3338  0.2512
 7681SOL    HW134505   0.843   1.879  16.275  0.8323  1.3974  2.2377
 7681SOL    HW234506   0.728   1.782  16.298  0.7017 -1.1214  0.5732
 7682SOL     OW34507   0.858   4.559   4.801  0.0673  0.0435 -0.4854
 7682SOL    HW134508   0.857   4.650   4.773  1.6523 -0.2375 -1.4886
 7682SOL    HW234509   0.905   4.553   4.884  0.3169 -1.1673 -0.7092
 7683SOL     OW34510   3.784   2.510   8.109  0.2344 -0.5391 -0.5342
 7683SOL    HW134511   3.826   2.477   8.188 -1.0477 -0.5594  0.1514
 7683SOL    HW234512   3.733   2.586   8.139 -0.7427 -1.2324 -0.4496
 7684SOL     OW34513   3.606   0.593   0.773 -0.6165  0.0866 -0.1794
 7684SOL    HW134514   3.560   0.661   0.823 -1.1390 -0.6013  0.2593
 7684SOL    HW234515   3.683   0.641   0.741 -0.4683 -2.0971 -3.1288
 7685SOL     OW34516   0.167   4.230   7.564 -0.1503 -0.3317  0.3693
 7685SOL    HW134517   0.086   4.185   7.542  0.1127 -0.1509 -0.9891
 7685SOL    HW234518   0.196   4.180   7.641  0.7133 -0.6931 -0.1841
 7686SOL     OW34519   3.446   3.313  11.323 -0.2089  0.3211  0.5356
 7686SOL    HW134520   3.422   3.266  11.243  1.5651  0.2990  0.0200
 7686SOL    HW234521   3.502   3.383  11.290 -0.0781 -0.1354 -0.2197
 7687SOL     OW34522   4.090   0.451  15.724  0.5004 -0.3093  0.0610
 7687SOL    HW134523   4.048   0.504  15.792  1.9064 -0.0345  0.7164
 7687SOL    HW234524   4.155   0.416  15.785  0.6123 -1.7313 -0.8904
 7688SOL     OW34525   4.491   2.876   0.133 -0.3340 -0.0041 -0.0309
 7688SOL    HW134526   4.546   2.807   0.096 -3.1799 -1.9788 -0.6263
 7688SOL    HW234527   4.408   2.839   0.102  0.0562 -1.7432  0.9878
 7689SOL     OW34528   2.184   3.122  14.997  0.3010 -0.9221 -0.7349
 7689SOL    HW134529   2.164   3.128  14.904 -1.3338  1.7981 -0.2122
 7689SOL    HW234530   2.221   3.205  15.029  1.4564 -1.2182 -1.3184
 7690SOL     OW34531   0.441   4.185   6.572  0.5780  0.5277  0.6105
 7690SOL    HW134532   0.402   4.249   6.512 -1.5791 -0.4404  0.9905
 7690SOL    HW234533   0.419   4.220   6.658 -0.2319 -2.4739  1.6003
 7691SOL     OW34534   0.427   2.143  11.336 -0.3736  0.1340 -0.5781
 7691SOL    HW134535   0.348   2.190  11.361  0.9089  1.9348  0.0381
 7691SOL    HW234536   0.404   2.050  11.334 -0.1655  0.0706  0.0091
 7692SOL     OW34537   2.307   3.622  12.063  0.2517 -0.7651  0.3962
 7692SOL    HW134538   2.367   3.552  12.039 -0.3683 -0.4506 -2.0424
 7692SOL    HW234539   2.259   3.638  11.982  1.0717 -0.8979 -0.1132
 7693SOL     OW34540   4.641   3.718   5.991  0.2220  0.0690  0.0720
 7693SOL    HW134541   4.582   3.771   5.938 -0.9415 -1.1387  0.1422
 7693SOL    HW234542   4.712   3.780   6.005  0.5440 -0.7676  2.0496
 7694SOL     OW34543   1.825   0.191   6.025  0.2084 -0.0145 -0.0349
 7694SOL    HW134544   1.809   0.169   6.117 -1.4833  1.7159  0.0786
 7694SOL    HW234545   1.784   0.120   5.975  0.0592  1.3635 -1.8863
 7695SOL     OW34546   0.793   1.048   3.876  0.1318  0.4129 -0.2609
 7695SOL    HW134547   0.719   1.041   3.816 -0.2697  2.1548  0.0244
 7695SOL    HW234548   0.869   1.032   3.820  0.2407  0.3584 -0.0995
 7696SOL     OW34549   3.173   0.660   5.841  0.3235 -0.4122 -0.8079
 7696SOL    HW134550   3.258   0.648   5.798  0.5706  0.8162 -0.6670
 7696SOL    HW234551   3.180   0.751   5.870 -3.6585 -0.8540  1.5361
 7697SOL     OW34552   1.269   4.448   5.135 -0.7232  0.0831  0.4553
 7697SOL    HW134553   1.285   4.378   5.072 -1.3038  0.5445 -0.2016
 7697SOL    HW234554   1.290   4.413   5.221 -1.5170 -1.7026 -0.0847
 7698SOL     OW34555   3.991   3.926   7.973  0.6165  0.6509 -0.0185
 7698SOL    HW134556   3.937   3.968   8.040  0.7226  0.7187  0.0244
 7698SOL    HW234557   3.929   3.904   7.903  1.1599  2.2203 -1.0072
 7699SOL     OW34558   3.879   4.058   8.203  0.0609 -0.1261  0.5007
 7699SOL    HW134559   3.817   4.098   8.264  0.5064 -0.5656  1.2530
 7699SOL    HW234560   3.910   3.986   8.258  1.1524 -1.9516 -2.5325
 7700SOL     OW34561   0.376   1.218   0.633 -0.3079 -0.0608  0.3365
 7700SOL    HW134562   0.437   1.260   0.573 -1.1766 -1.1233 -1.2639
 7700SOL    HW234563   0.428   1.142   0.657 -0.6762 -0.2469  0.5432
 7701SOL     OW34564   4.500   3.720  10.285  0.6076 -0.1430  0.3700
 7701SOL    HW134565   4.515   3.649  10.348  0.9684  0.3472  0.8320
 7701SOL    HW234566   4.412   3.694  10.258 -0.3202  0.5545  2.7054
 7702SOL     OW34567   1.565   4.212  17.595 -0.0667  0.6973 -0.0412
 7702SOL    HW134568   1.493   4.201  17.657 -0.6593 -0.4748 -0.9532
 7702SOL    HW234569   1.512   4.222  17.516  0.4393 -0.6280 -0.5428
 7703SOL     OW34570   2.620   2.851   8.629 -0.5970 -0.1809  0.3354
 7703SOL    HW134571   2.676   2.850   8.551  1.0537 -1.7670  1.5419
 7703SOL    HW234572   2.532   2.841   8.593  0.5110 -2.1061 -1.8816
 7704SOL     OW34573   0.460   2.934   2.238 -0.4781 -0.2826  0.3720
 7704SOL    HW134574   0.493   2.882   2.165  0.2203 -0.7261  0.9944
 7704SOL    HW234575   0.368   2.907   2.238 -0.3556 -0.7006 -0.3433
 7705SOL     OW34576   1.517   2.557   6.830 -0.1753 -0.4715 -0.3286
 7705SOL    HW134577   1.535   2.544   6.923  0.0363 -3.7188 -0.8503
 7705SOL    HW234578   1.425   2.581   6.844  0.5927  2.4867 -0.4072
 7706SOL     OW34579   0.688   0.754   2.300 -0.4762  0.0061  0.4122
 7706SOL    HW134580   0.714   0.763   2.391  1.2978  3.1061 -0.3955
 7706SOL    HW234581   0.658   0.664   2.309 -0.3463 -0.1272 -0.4092
 7707SOL     OW34582   3.252   1.840   7.340 -0.7368  0.6030 -0.2898
 7707SOL    HW134583   3.175   1.833   7.284 -1.6087  0.0861  0.9717
 7707SOL    HW234584   3.323   1.820   7.279  0.2215  0.8251  0.7538
 7708SOL     OW34585   1.668   4.394   4.126 -0.1295 -0.4078  0.5277
 7708SOL    HW134586   1.616   4.360   4.199 -1.0925 -1.5219 -0.6772
 7708SOL    HW234587   1.718   4.466   4.165 -2.1641  1.7769 -0.8415
 7709SOL     OW34588   1.827   1.846  15.785  0.2418 -0.4990 -0.2598
 7709SOL    HW134589   1.921   1.851  15.803  0.3003 -1.2267 -0.3578
 7709SOL    HW234590   1.831   1.802  15.700 -1.7384 -1.5257  0.1828
 7710SOL     OW34591   2.720   0.103   3.606  0.1174 -0.0363 -0.0492
 7710SOL    HW134592   2.639   0.053   3.603 -0.0021  0.2492 -1.9516
 7710SOL    HW234593   2.732   0.141   3.518 -0.8132  0.3884  0.0027
 7711SOL     OW34594   1.255   1.011   3.210 -0.0243 -0.2859  0.2443
 7711SOL    HW134595   1.305   0.997   3.291 -2.7604 -0.5188  1.8894
 7711SOL    HW234596   1.185   0.946   3.209  0.1972 -0.5292  0.4367
 7712SOL     OW34597   4.404   1.631   2.890 -0.7456 -0.4873 -0.5442
 7712SOL    HW134598   4.324   1.578   2.890 -2.4050  2.0230  2.5960
 7712SOL    HW234599   4.357   1.713   2.904  0.7542  0.5390 -1.5340
 7713SOL     OW34600   2.398   3.193   2.135  0.1646  0.2378 -0.2036
 7713SOL    HW134601   2.304   3.201   2.155  0.5057  0.6502  1.2399
 7713SOL    HW234602   2.441   3.259   2.189  0.4643 -0.1377  0.0104
 7714SOL     OW34603   2.594   0.736  15.151  0.3115 -0.2950 -0.4474
 7714SOL    HW134604   2.567   0.669  15.088  0.4725 -2.7195  2.0575
 7714SOL    HW234605   2.517   0.739  15.207 -1.3037 -1.6867 -2.5967
 7715SOL     OW34606   3.467   1.242   4.387 -0.7259  0.6881 -0.1536
 7715SOL    HW134607   3.428   1.166   4.344  1.5839 -1.7475  2.1033
 7715SOL    HW234608   3.412   1.309   4.344  0.9257  0.9376 -1.8818
 7716SOL     OW34609   2.548   3.559   8.695  0.3811  0.0017 -0.5143
 7716SOL    HW134610   2.466   3.515   8.671  0.9967 -0.1167 -2.3629
 7716SOL    HW234611   2.601   3.542   8.617  1.9544 -0.3657  0.6327
 7717SOL     OW34612   0.963   3.136   6.305 -0.1499  0.4171  0.3995
 7717SOL    HW134613   0.890   3.184   6.265 -0.8601  0.2570  1.4912
 7717SOL    HW234614   0.924   3.056   6.341  1.7156 -1.5352 -1.9787
 7718SOL     OW34615   2.807   4.371   0.602  0.6675 -0.0587  0.3861
 7718SOL    HW134616   2.732   4.319   0.629 -0.6859  0.2804 -2.7046
 7718SOL    HW234617   2.882   4.316   0.624  0.3794 -0.7739 -0.4184
 7719SOL     OW34618   3.040   1.358   7.638 -0.2900 -0.5493  0.1253
 7719SOL    HW134619   3.009   1.437   7.681 -1.8360 -0.2065 -1.6039
 7719SOL    HW234620   2.971   1.344   7.574 -0.9901  1.4090  0.4544
 7720SOL     OW34621   1.261   2.107   1.631  0.4824 -0.3317  0.4933
 7720SOL    HW134622   1.266   2.202   1.633  1.6625 -0.3507 -1.7149
 7720SOL    HW234623   1.326   2.076   1.569  1.0552  0.0502  0.9058
 7721SOL     OW34624   3.998   4.710   9.443  0.1386 -0.1290 -0.1689
 7721SOL    HW134625   4.082   0.006   9.483  0.4299 -1.9767  0.0440
 7721SOL    HW234626   3.984   4.617   9.462 -1.0463  0.7321  3.2403
 7722SOL     OW34627   1.414   0.675  13.835 -0.2688 -0.0372  0.3237
 7722SOL    HW134628   1.505   0.702  13.822 -0.2842  0.0964  0.4962
 7722SOL    HW234629   1.418   0.591  13.881 -0.8384 -0.1055  0.2413
 7723SOL     OW34630   0.870   2.582  10.676  0.6452 -0.3536  0.3019
 7723SOL    HW134631   0.937   2.592  10.609  0.3540  0.2768  0.1103
 7723SOL    HW234632   0.797   2.554  10.620  0.7395 -0.6117  0.3076
 7724SOL     OW34633   0.760   2.941   3.485 -0.2134  0.3813  0.3585
 7724SOL    HW134634   0.729   2.872   3.426  0.1499  0.5148  0.0132
 7724SOL    HW234635   0.719   3.018   3.445 -0.9029 -0.2738 -0.2059
 7725SOL     OW34636   2.844   2.144   4.732 -0.2649 -0.0685  0.4107
 7725SOL    HW134637   2.934   2.148   4.701 -0.6143  1.4363 -0.4238
 7725SOL    HW234638   2.801   2.197   4.664 -0.3169  0.7916  1.1086
 7726SOL     OW34639   2.061   0.775  14.051 -0.2924  0.2151  0.4810
 7726SOL    HW134640   2.113   0.714  14.104 -2.1273 -0.0060  2.0072
 7726SOL    HW234641   1.982   0.722  14.059  0.3973 -1.2363 -2.1381
 7727SOL     OW34642   2.642   2.605   4.458 -0.0895 -0.3734 -0.1969
 7727SOL    HW134643   2.578   2.638   4.521  0.1969 -0.8612  0.3561
 7727SOL    HW234644   2.593   2.622   4.377  2.1110  2.0723 -0.9889
 7728SOL     OW34645   2.656   2.046   7.470  0.2755 -0.3879  0.1103
 7728SOL    HW134646   2.570   2.090   7.474  0.3623 -0.2014 -0.0979
 7728SOL    HW234647   2.618   1.958   7.473  0.3552 -0.3886  1.2231
 7729SOL     OW34648   1.773   0.961  17.359 -0.2416 -0.1168 -0.3925
 7729SOL    HW134649   1.797   0.876  17.395  0.2727 -0.7295 -2.1533
 7729SOL    HW234650   1.721   0.945  17.280 -1.3791 -0.0376  0.3554
 7730SOL     OW34651   2.344   2.247  14.420 -0.3004  0.1961 -0.3770
 7730SOL    HW134652   2.366   2.178  14.356  0.9243  2.2482 -2.1818
 7730SOL    HW234653   2.287   2.200  14.481  0.0882 -0.2032 -0.3193
 7731SOL     OW34654   1.147   4.324  10.210 -0.1870 -0.8080 -0.1398
 7731SOL    HW134655   1.122   4.416  10.206  1.1729 -0.4599 -0.5250
 7731SOL    HW234656   1.066   4.274  10.222  1.2820 -3.3366 -0.7223
 7732SOL     OW34657   3.899   0.516   3.712  0.5527  0.3670 -0.1503
 7732SOL    HW134658   3.895   0.452   3.641 -1.6749  0.5185 -0.1576
 7732SOL    HW234659   3.863   0.456   3.778 -2.3991  0.9816 -1.1912
 7733SOL     OW34660   3.881   0.606   3.991 -0.2445 -1.0453  0.2969
 7733SOL    HW134661   3.901   0.515   4.012 -0.5768 -1.0618  0.5347
 7733SOL    HW234662   3.842   0.634   4.074  0.2810 -3.3513  1.3474
 7734SOL     OW34663   0.584   3.904  16.901  0.3640 -0.3459  0.0806
 7734SOL    HW134664   0.492   3.930  16.903  0.4320 -0.2527  1.5984
 7734SOL    HW234665   0.594   3.863  16.987 -1.2892  0.3756  0.6039
 7735SOL     OW34666   2.443   3.952  11.587 -0.2090  0.5005  0.2898
 7735SOL    HW134667   2.391   3.939  11.508 -0.2706  1.1827  0.2182
 7735SOL    HW234668   2.494   4.029  11.560 -0.7628  0.0524 -1.9797
 7736SOL     OW34669   4.617   1.084   1.785  0.3109  0.4848 -0.3602
 7736SOL    HW134670   4.649   1.132   1.709  2.7763 -0.2536  0.2007
 7736SOL    HW234671   4.533   1.051   1.755  0.9743 -0.1068 -1.5438
 7737SOL     OW34672   0.662   1.073   5.943  0.0396 -0.3617  0.4511
 7737SOL    HW134673   0.604   1.018   5.995 -0.7262 -2.0294 -2.2041
 7737SOL    HW234674   0.641   1.158   5.984  1.6077  1.4158 -2.4550
 7738SOL     OW34675   3.498   1.925  17.489 -0.4096 -0.1135 -0.1257
 7738SOL    HW134676   3.548   1.913  17.570 -1.4761 -1.5739  0.3216
 7738SOL    HW234677   3.444   1.849  17.467 -0.1997 -0.6831  1.3514
 7739SOL     OW34678   2.055   4.009   2.089  0.1379  0.0877  0.1703
 7739SOL    HW134679   1.971   4.048   2.065 -0.0175  1.1342  2.3644
 7739SOL    HW234680   2.057   4.013   2.185 -0.5951 -0.0462  0.1902
 7740SOL     OW34681   4.073   2.842   6.473  0.0418  0.0785  0.6343
 7740SOL    HW134682   3.987   2.813   6.442 -0.7023  1.3593  1.4889
 7740SOL    HW234683   4.114   2.757   6.483 -0.8043 -0.4975 -0.7060
 7741SOL     OW34684   2.597   0.394   7.544 -0.1468  0.0582  0.2180
 7741SOL    HW134685   2.676   0.438   7.575 -0.1974  1.5813 -1.8253
 7741SOL    HW234686   2.533   0.418   7.611 -0.8641  1.6573 -1.0182
 7742SOL     OW34687   0.232   4.261   9.928  0.1919  0.4639  0.0419
 7742SOL    HW134688   0.246   4.310  10.009  1.8415  1.9190 -1.1065
 7742SOL    HW234689   0.321   4.255   9.893  0.5476 -2.7345  1.5291
 7743SOL     OW34690   0.766   1.272  13.499  0.7061 -0.6186  0.5088
 7743SOL    HW134691   0.807   1.252  13.583  1.1275  0.8766  0.6608
 7743SOL    HW234692   0.820   1.345  13.467 -1.4624  0.0020 -1.6857
 7744SOL     OW34693   0.764   3.561   8.313 -0.3140  0.0855 -0.5112
 7744SOL    HW134694   0.700   3.528   8.376 -1.4591  0.2396 -1.6033
 7744SOL    HW234695   0.753   3.656   8.307 -0.4626  0.0429 -0.9079
 7745SOL     OW34696   1.796   2.625   0.627  0.1049  0.1371 -0.1006
 7745SOL    HW134697   1.824   2.580   0.707  2.6680  1.5550 -0.2121
 7745SOL    HW234698   1.802   2.557   0.561 -3.7945 -1.1990  0.9000
 7746SOL     OW34699   1.774   1.072   2.841  0.0163 -0.0150  0.1071
 7746SOL    HW134700   1.770   1.143   2.905  2.7306  0.7882 -0.5801
 7746SOL    HW234701   1.835   1.017   2.891  0.5117 -0.0511 -0.5378
 7747SOL     OW34702   0.682   1.915   7.643 -0.1181 -0.2718  0.0136
 7747SOL    HW134703   0.725   1.834   7.672  0.0555 -0.5310 -0.9877
 7747SOL    HW234704   0.592   1.899   7.671  0.3733 -1.8378  0.7019
 7748SOL     OW34705   1.855   4.368   5.744  0.4688 -0.1804 -0.1603
 7748SOL    HW134706   1.806   4.340   5.821 -1.2424 -0.7543 -1.4469
 7748SOL    HW234707   1.927   4.424   5.774  0.3669  0.3091 -0.8311
 7749SOL     OW34708   0.025   1.328   7.865 -0.3383 -0.2684 -0.1061
 7749SOL    HW134709   4.721   1.249   7.913  1.0792 -1.0261 -0.5716
 7749SOL    HW234710   4.684   1.329   7.792 -1.8893 -1.6049  1.2038
 7750SOL     OW34711   1.961   2.187   0.902  0.0997  0.4055 -0.3196
 7750SOL    HW134712   2.056   2.180   0.890 -0.0343 -0.6248 -0.7494
 7750SOL    HW234713   1.925   2.152   0.820 -2.0031  1.4421  0.1599
 7751SOL     OW34714   3.688   0.430   8.915  0.0088  0.0722 -0.6823
 7751SOL    HW134715   3.605   0.463   8.947  0.5744  1.1885 -0.3616
 7751SOL    HW234716   3.752   0.491   8.953 -0.6634 -0.6872  1.7008
 7752SOL     OW34717   1.173   2.605   3.850 -0.6512  0.0443  0.2263
 7752SOL    HW134718   1.167   2.677   3.913  0.4855  1.2938 -1.0790
 7752SOL    HW234719   1.195   2.646   3.766 -1.2114 -1.6622 -0.7609
 7753SOL     OW34720   3.882   0.734  16.175 -0.3462 -0.0669  0.0238
 7753SOL    HW134721   3.797   0.762  16.142 -2.0124 -2.8372  1.9061
 7753SOL    HW234722   3.940   0.768  16.108  0.8725  0.1782  1.1874
 7754SOL     OW34723   3.385   0.165   3.273  0.3774  0.4788 -0.2104
 7754SOL    HW134724   3.438   0.095   3.311  1.5482  0.7667 -1.3225
 7754SOL    HW234725   3.446   0.206   3.212  1.1507  0.2889  0.4429
 7755SOL     OW34726   0.786   3.036   7.396  0.1784 -0.4612  0.3298
 7755SOL    HW134727   0.821   3.077   7.475  0.1538  0.6969 -0.2581
 7755SOL    HW234728   0.691   3.038   7.411  0.2336 -2.0805  0.9281
 7756SOL     OW34729   0.582   1.975   5.385  0.0658  0.4231  0.2248
 7756SOL    HW134730   0.674   1.997   5.398  1.0004 -1.3372 -3.6181
 7756SOL    HW234731   0.583   1.961   5.291 -1.8313 -0.7384  0.3669
 7757SOL     OW34732   1.937   0.812  14.368  0.4991  0.0297  0.0885
 7757SOL    HW134733   2.010   0.865  14.335  0.5533  0.5905  1.1069
 7757SOL    HW234734   1.871   0.808  14.298  1.4370  0.2982 -0.8156
 7758SOL     OW34735   4.498   0.604   5.910  0.3086 -0.1107 -0.2092
 7758SOL    HW134736   4.422   0.660   5.928  0.6310  0.6779 -1.3187
 7758SOL    HW234737   4.475   0.532   5.969  0.2698 -1.4648 -1.8655
 7759SOL     OW34738   0.481   0.886  16.961 -0.2194  0.4256 -0.6061
 7759SOL    HW134739   0.423   0.891  17.037  0.5997  0.2963  0.0180
 7759SOL    HW234740   0.500   0.793  16.963 -2.0262  0.0337 -0.9966
 7760SOL     OW34741   3.846   1.138   7.456  0.2259  0.8756 -0.2427
 7760SOL    HW134742   3.918   1.090   7.414 -0.6878 -0.3524 -0.3869
 7760SOL    HW234743   3.853   1.094   7.541 -1.5443 -0.9651 -1.0576
 7761SOL     OW34744   3.700   2.694  10.012  0.0556  0.2379 -0.2881
 7761SOL    HW134745   3.635   2.749  10.055 -1.0187 -1.3835  0.1667
 7761SOL    HW234746   3.703   2.738   9.927 -1.0038 -2.0017 -1.4862
 7762SOL     OW34747   1.996   3.504   8.704  0.0391  0.1704 -0.0739
 7762SOL    HW134748   1.956   3.456   8.776  1.5171  0.8879  1.2330
 7762SOL    HW234749   1.933   3.574   8.688 -0.3927  0.1274  1.4561
 7763SOL     OW34750   2.645   0.478   8.147 -0.1315  0.0349 -0.0024
 7763SOL    HW134751   2.569   0.457   8.201  0.8317  1.9638  2.1344
 7763SOL    HW234752   2.627   0.436   8.063  2.3182 -0.5219 -0.2772
 7764SOL     OW34753   0.948   4.165  11.466  0.2767 -0.5710  0.1833
 7764SOL    HW134754   0.853   4.165  11.453  0.1568 -1.6665  1.0987
 7764SOL    HW234755   0.980   4.112  11.393  0.9041 -4.0426  3.0279
 7765SOL     OW34756   0.571   1.703  15.340 -0.0777  0.0945  0.3185
 7765SOL    HW134757   0.476   1.696  15.340 -0.1744  1.4407  1.5367
 7765SOL    HW234758   0.580   1.630  15.279 -0.2024 -0.0251  0.4440
 7766SOL     OW34759   0.203   2.173   6.199  0.2950  0.8495  0.2880
 7766SOL    HW134760   0.271   2.219   6.151  0.2830 -1.8215 -2.2518
 7766SOL    HW234761   0.240   2.088   6.220  0.5215  0.8626 -0.0674
 7767SOL     OW34762   2.873   4.562   7.867 -0.2205 -0.6239 -0.2015
 7767SOL    HW134763   2.865   4.471   7.838  0.3989 -0.4135 -1.0194
 7767SOL    HW234764   2.966   4.577   7.881 -0.5183  0.0019  1.1014
 7768SOL     OW34765   2.816   0.947   6.899 -0.1442 -0.3028 -0.9855
 7768SOL    HW134766   2.750   0.974   6.835 -0.3555  1.4064 -0.0246
 7768SOL    HW234767   2.885   1.012   6.887  1.6482 -2.2826 -1.4955
 7769SOL     OW34768   2.094   3.171   1.852 -0.4202 -0.2603  0.5379
 7769SOL    HW134769   2.101   3.245   1.792  0.1322  0.2654  1.2654
 7769SOL    HW234770   2.187   3.156   1.867  0.0069  0.1111 -1.6907
 7770SOL     OW34771   2.652   1.728   3.995 -0.2591  0.6234 -0.1907
 7770SOL    HW134772   2.564   1.763   4.002  0.2642  1.1115  3.8555
 7770SOL    HW234773   2.640   1.669   3.920 -2.9489 -1.0158  1.5552
 7771SOL     OW34774   2.726   0.382   5.080 -0.1666  0.2080 -0.6952
 7771SOL    HW134775   2.634   0.408   5.075 -0.2442 -0.1176 -0.9268
 7771SOL    HW234776   2.782   0.457   5.057  0.6599  0.3318  1.7005
 7772SOL     OW34777   2.543   1.949   3.241  0.6157 -0.3258  0.1591
 7772SOL    HW134778   2.554   1.917   3.151  0.3223  3.3291 -1.1909
 7772SOL    HW234779   2.517   2.040   3.222 -0.4483 -0.1552  2.4133
 7773SOL     OW34780   3.279   1.457   3.444 -0.4820 -0.1108  0.0032
 7773SOL    HW134781   3.237   1.434   3.527 -1.0309 -0.7022 -0.4456
 7773SOL    HW234782   3.309   1.547   3.460  1.5668 -0.9644  0.9277
 7774SOL     OW34783   4.005   2.459   5.516 -0.3828  0.5730  0.2333
 7774SOL    HW134784   4.026   2.380   5.567 -0.7654 -0.3222 -0.9794
 7774SOL    HW234785   4.033   2.436   5.427 -0.0376  1.9290 -0.0075
 7775SOL     OW34786   2.648   2.757   3.200 -0.1263  0.5387 -0.1263
 7775SOL    HW134787   2.588   2.707   3.256  2.0414 -0.7750  1.0544
 7775SOL    HW234788   2.722   2.696   3.206 -0.4440  0.3681  2.2306
 7776SOL     OW34789   2.228   1.279   6.034  0.6485  0.0138 -0.2221
 7776SOL    HW134790   2.274   1.195   6.036 -1.3433 -1.0844 -0.3675
 7776SOL    HW234791   2.139   1.247   6.053  0.3271  0.4102 -1.0709
 7777SOL     OW34792   0.324   0.164   4.248 -0.1146  0.7072  0.3385
 7777SOL    HW134793   0.323   0.259   4.257 -0.3784  0.8250 -0.9582
 7777SOL    HW234794   0.311   0.158   4.153 -0.6893  0.0663  0.4535
 7778SOL     OW34795   1.259   1.348   4.855 -0.2837  0.0712 -0.3036
 7778SOL    HW134796   1.180   1.379   4.812 -0.2271  1.4447  0.5946
 7778SOL    HW234797   1.274   1.277   4.793  1.7178 -0.0302  0.3004
 7779SOL     OW34798   1.496   2.110  10.404  0.1870  0.0450 -0.5670
 7779SOL    HW134799   1.486   2.016  10.394 -1.2397  0.1103  0.2296
 7779SOL    HW234800   1.551   2.112  10.482 -3.0412 -0.8168  1.7324
 7780SOL     OW34801   1.717   1.613   3.907 -0.0175  0.0290 -0.1564
 7780SOL    HW134802   1.638   1.602   3.960 -0.2002 -3.2472 -1.0937
 7780SOL    HW234803   1.684   1.561   3.833  0.4906 -0.0268 -0.3416
 7781SOL     OW34804   1.705   1.998   6.223 -0.5297  0.1062 -0.4161
 7781SOL    HW134805   1.713   2.065   6.291 -0.7219 -2.1582  1.8114
 7781SOL    HW234806   1.796   1.972   6.210 -0.7318 -1.0914  0.5418
 7782SOL     OW34807   3.452   2.534   7.507  0.4649 -0.0265 -0.3128
 7782SOL    HW134808   3.501   2.606   7.546  0.7776 -0.0009 -0.7603
 7782SOL    HW234809   3.464   2.471   7.579  0.1760 -0.0974 -0.3239
 7783SOL     OW34810   3.572   0.863  16.720 -0.2096 -0.3031  0.0472
 7783SOL    HW134811   3.540   0.849  16.630  0.2541  0.4946 -0.2434
 7783SOL    HW234812   3.555   0.957  16.721 -1.7758 -0.6160  1.7280
 7784SOL     OW34813   0.978   4.166  14.766 -0.2477  0.3796 -0.2297
 7784SOL    HW134814   0.967   4.231  14.835 -0.5254 -0.1165  0.1946
 7784SOL    HW234815   0.896   4.176  14.718 -0.0291  0.5994 -0.5601
 7785SOL     OW34816   4.081   0.851   3.002  0.4447 -0.1356  0.2885
 7785SOL    HW134817   4.068   0.904   3.080  0.4687  0.3248 -0.0233
 7785SOL    HW234818   4.086   0.916   2.932 -4.1281 -0.0050  0.0847
 7786SOL     OW34819   4.259   0.962   3.311  0.2509  1.0180 -0.1572
 7786SOL    HW134820   4.244   0.917   3.395  2.2960 -0.6128 -0.6689
 7786SOL    HW234821   4.178   0.940   3.266 -0.4138  1.0409  1.0078
 7787SOL     OW34822   4.690   4.424   7.215 -0.0674  0.0585  0.2931
 7787SOL    HW134823   0.001   4.391   7.132 -0.8331  1.4690 -0.5553
 7787SOL    HW234824   4.604   4.457   7.190  0.4928  0.1557 -1.4423
 7788SOL     OW34825   3.916   0.731   7.296 -0.9794  0.1089 -0.3263
 7788SOL    HW134826   3.967   0.664   7.341  2.7962  2.2813 -1.3830
 7788SOL    HW234827   3.825   0.704   7.306 -0.1069 -2.6552  0.1091
 7789SOL     OW34828   0.276   0.827   4.687  0.3459  0.0354 -0.0401
 7789SOL    HW134829   0.218   0.752   4.701  1.7745 -0.9956  0.4471
 7789SOL    HW234830   0.274   0.871   4.772  0.8685  0.0451 -0.0318
 7790SOL     OW34831   0.911   0.323   6.308  0.1476  0.6728 -0.2202
 7790SOL    HW134832   0.830   0.349   6.264 -1.9843  1.2494  4.0544
 7790SOL    HW234833   0.950   0.409   6.295 -1.9006  1.3591 -1.9563
 7791SOL     OW34834   2.630   2.248   2.359  0.0381 -0.0991  0.4674
 7791SOL    HW134835   2.655   2.260   2.267 -0.7660  1.8564  0.4974
 7791SOL    HW234836   2.698   2.204   2.409 -0.5908  1.1257  2.3877
 7792SOL     OW34837   0.611   0.114   4.623  0.1053  0.3589  0.3986
 7792SOL    HW134838   0.580   0.195   4.584  0.8414 -0.0418 -1.0003
 7792SOL    HW234839   0.681   0.145   4.680  0.8127 -0.3380 -0.0850
 7793SOL     OW34840   2.650   2.831  16.945 -0.2441  0.4225  0.5100
 7793SOL    HW134841   2.675   2.740  16.932  0.8877  0.9689 -1.1576
 7793SOL    HW234842   2.731   2.873  16.917  0.1755  1.1410  2.7956
 7794SOL     OW34843   3.244   3.284   6.545  0.1154 -0.2505 -0.0870
 7794SOL    HW134844   3.325   3.328   6.519 -0.9813  1.1349 -1.1441
 7794SOL    HW234845   3.178   3.351   6.527  0.6088  0.0870 -0.6354
 7795SOL     OW34846   2.433   0.392   4.597 -0.2705  0.3644 -0.3659
 7795SOL    HW134847   2.527   0.397   4.582 -0.3891 -1.4299 -1.6897
 7795SOL    HW234848   2.405   0.335   4.526 -1.1659  0.0066  0.2624
 7796SOL     OW34849   3.819   0.641  10.060 -0.1585  0.5169 -0.2252
 7796SOL    HW134850   3.768   0.573  10.017 -0.7706  0.9134 -0.1219
 7796SOL    HW234851   3.868   0.667   9.983  0.3135  0.3928  0.0297
 7797SOL     OW34852   2.848   3.147   7.073 -0.2341  0.3775 -0.4664
 7797SOL    HW134853   2.908   3.221   7.077  0.1477 -0.0235  1.5896
 7797SOL    HW234854   2.856   3.115   6.983  2.6837 -0.3376  0.0537
 7798SOL     OW34855   0.551   1.311   4.990  0.4205  0.0416 -0.7382
 7798SOL    HW134856   0.567   1.232   4.938 -2.4806 -0.2881 -1.1306
 7798SOL    HW234857   0.455   1.310   4.985  0.3369 -0.5231  1.2701
 7799SOL     OW34858   1.698   4.594  15.733  0.0638 -0.0939 -0.4628
 7799SOL    HW134859   1.680   4.679  15.691  0.3691 -0.1970 -0.8056
 7799SOL    HW234860   1.729   4.547  15.656  2.0606 -1.5540  1.2535
 7800SOL     OW34861   2.652   3.628  17.013  0.1998 -0.5712 -0.7852
 7800SOL    HW134862   2.721   3.602  16.952  1.8405  0.9672  0.4431
 7800SOL    HW234863   2.626   3.715  16.981 -1.4538 -1.3972 -1.7127
 7801SOL     OW34864   4.470   2.410   3.941 -0.0359 -0.1857  0.3799
 7801SOL    HW134865   4.431   2.497   3.947 -1.1781 -0.6610 -0.1437
 7801SOL    HW234866   4.393   2.359   3.916  0.2009 -0.0740 -0.5505
 7802SOL     OW34867   1.090   0.005   2.728 -0.4494  0.2976  0.0217
 7802SOL    HW134868   1.093   0.070   2.657  2.5217  1.8927  1.5727
 7802SOL    HW234869   1.117   4.646   2.683 -0.0646  0.8859 -0.8124
 7803SOL     OW34870   2.006   2.426   0.710  0.0568  0.9407 -0.2193
 7803SOL    HW134871   2.097   2.410   0.735 -0.6989 -0.6843  1.5417
 7803SOL    HW234872   2.009   2.425   0.615  0.8315  0.8187 -0.1917
 7804SOL     OW34873   2.820   0.286   7.804 -0.1484 -0.3337 -0.4800
 7804SOL    HW134874   2.892   0.326   7.853 -0.7495  1.0136 -0.7087
 7804SOL    HW234875   2.759   0.269   7.875  0.0988  1.2118  0.1081
 7805SOL     OW34876   3.820   2.478  13.056 -0.2334  0.0655  0.1859
 7805SOL    HW134877   3.761   2.509  13.124 -0.5789 -1.9194  0.7928
 7805SOL    HW234878   3.825   2.560  13.007  1.9376 -0.0802  0.1371
 7806SOL     OW34879   3.025   0.831  11.942  0.3022 -0.4511 -0.0048
 7806SOL    HW134880   3.006   0.900  11.878  1.1821  0.3855  0.6279
 7806SOL    HW234881   3.118   0.842  11.920  0.2357  0.5760  0.2466
 7807SOL     OW34882   4.490   2.401   6.300  0.4435  0.2465 -0.5383
 7807SOL    HW134883   4.396   2.387   6.286  0.5415 -1.4379  0.4274
 7807SOL    HW234884   4.527   2.369   6.218  0.8891 -1.3645  0.2890
 7808SOL     OW34885   3.746   4.308   7.225  0.2825  0.2313  0.2088
 7808SOL    HW134886   3.653   4.317   7.208  0.3087 -0.0253 -0.0802
 7808SOL    HW234887   3.743   4.225   7.273 -0.9898  1.2772  1.9246
 7809SOL     OW34888   1.640   0.263   7.009 -0.0789 -0.0668  0.3134
 7809SOL    HW134889   1.605   0.351   6.998 -0.2195 -0.1734 -0.0943
 7809SOL    HW234890   1.712   0.274   7.071 -1.2152  0.2263  1.5596
 7810SOL     OW34891   4.187   4.638   7.823 -0.6800 -0.4215 -0.3761
 7810SOL    HW134892   4.200   4.653   7.916 -0.9788 -2.1253 -0.0623
 7810SOL    HW234893   4.191   4.543   7.821 -1.8637 -0.5437  3.5874
 7811SOL     OW34894   2.418   1.694  13.515 -0.1562  0.7062  0.6760
 7811SOL    HW134895   2.420   1.705  13.420  0.9483  0.3697  0.6621
 7811SOL    HW234896   2.323   1.692  13.526 -0.3374  0.9665 -0.8709
 7812SOL     OW34897   4.434   2.797   9.645 -0.7639 -0.3420  0.3867
 7812SOL    HW134898   4.354   2.781   9.595 -0.4718  0.2789 -0.2820
 7812SOL    HW234899   4.505   2.789   9.582  0.6598 -3.1368  2.3634
 7813SOL     OW34900   0.132   4.080  17.372 -0.1948 -0.1225 -0.5160
 7813SOL    HW134901   0.071   4.012  17.398  1.8073 -1.1741  1.3580
 7813SOL    HW234902   0.189   4.081  17.448 -0.7959 -1.2683 -0.0616
 7814SOL     OW34903   2.521   2.958   2.747  0.0791  0.1034 -0.5831
 7814SOL    HW134904   2.500   2.995   2.832 -0.4896 -2.6982  0.4759
 7814SOL    HW234905   2.539   2.865   2.759 -2.3335 -0.3919 -0.8441
 7815SOL     OW34906   1.592   3.914   3.768 -0.0164 -0.0450 -0.4007
 7815SOL    HW134907   1.512   3.962   3.791 -0.1979 -0.6291  0.1837
 7815SOL    HW234908   1.569   3.825   3.796  0.2366 -0.0628 -0.2595
 7816SOL     OW34909   1.041   3.860   3.312  0.7699 -0.5146  0.2812
 7816SOL    HW134910   1.123   3.828   3.274  1.6850  1.5150  0.5582
 7816SOL    HW234911   0.988   3.805   3.255  1.7490 -1.1268 -0.0464
 7817SOL     OW34912   0.590   2.597  11.405 -0.0452  0.0235  0.1184
 7817SOL    HW134913   0.604   2.513  11.362 -0.0270 -0.4017  0.9525
 7817SOL    HW234914   0.681   2.613  11.429  0.7569 -1.3393 -2.0511
 7818SOL     OW34915   3.201   0.238  10.574 -0.2181 -0.0562 -0.5230
 7818SOL    HW134916   3.120   0.192  10.597  0.9034 -0.3212  2.9257
 7818SOL    HW234917   3.227   0.192  10.495 -1.6511 -0.8575 -0.5338
 7819SOL     OW34918   0.555   3.182   9.822 -0.4113  0.6165 -0.1107
 7819SOL    HW134919   0.480   3.234   9.851 -0.4881 -0.3774  1.4768
 7819SOL    HW234920   0.606   3.244   9.769  1.8547  0.2412  1.6143
 7820SOL     OW34921   1.814   4.236   6.715  0.1626 -0.0842  0.3028
 7820SOL    HW134922   1.844   4.205   6.801  1.1156  1.0909  0.4019
 7820SOL    HW234923   1.872   4.181   6.662 -0.5362  0.0536 -0.6079
 7821SOL     OW34924   0.992   0.149  10.918 -0.5263 -0.0043 -0.2877
 7821SOL    HW134925   0.946   0.214  10.970 -0.1446  0.2635 -0.2887
 7821SOL    HW234926   0.955   0.065  10.947 -0.9773 -0.0005 -0.8601
 7822SOL     OW34927   2.192   0.422   5.820 -0.8005  0.7047  0.7515
 7822SOL    HW134928   2.255   0.372   5.872 -1.5710 -1.0562 -0.0027
 7822SOL    HW234929   2.115   0.401   5.874 -1.1884  1.8998  0.6521
 7823SOL     OW34930   4.634   0.346  15.620 -0.5317 -0.2234 -0.1714
 7823SOL    HW134931   4.599   0.394  15.545 -0.6368 -0.6833 -0.4227
 7823SOL    HW234932   4.554   0.305  15.653 -1.5839  1.3587 -0.7350
 7824SOL     OW34933   0.277   2.457   4.137  0.0887 -0.5418 -0.4480
 7824SOL    HW134934   0.211   2.478   4.071 -0.2500  1.9327  0.6955
 7824SOL    HW234935   0.353   2.430   4.085 -0.1987 -0.2416 -1.0243
 7825SOL     OW34936   1.561   4.662   3.417 -0.1378  0.1904 -0.8103
 7825SOL    HW134937   1.632   4.674   3.353 -0.0714  1.0702 -0.5620
 7825SOL    HW234938   1.485   4.696   3.370 -0.7767 -1.3864 -0.9079
 7826SOL     OW34939   1.072   4.708  14.380  0.3163  0.7021  0.2429
 7826SOL    HW134940   0.979   4.688  14.393  0.3357  0.1060 -0.5438
 7826SOL    HW234941   1.077   0.031  14.296 -0.0279 -0.2408 -0.2795
 7827SOL     OW34942   4.094   0.145   4.021  0.7746 -0.0925  0.1776
 7827SOL    HW134943   4.114   0.105   4.106  0.0503  0.7253  0.7376
 7827SOL    HW234944   4.159   0.103   3.965  0.3461 -1.5990  0.8202
 7828SOL     OW34945   1.318   3.148   1.869 -0.6173 -0.0619 -0.6558
 7828SOL    HW134946   1.307   3.163   1.775  0.4781  1.7218 -0.4931
 7828SOL    HW234947   1.294   3.234   1.902 -0.0529 -0.1871  0.0756
 7829SOL     OW34948   3.973   2.246   0.079  0.0276 -0.7170  0.0338
 7829SOL    HW134949   4.001   2.260   0.170 -0.4008 -0.7593  0.1722
 7829SOL    HW234950   3.898   2.303   0.060  2.5565  1.9351 -2.0896
 7830SOL     OW34951   2.996   0.920   3.279 -0.3182 -0.0258 -0.6430
 7830SOL    HW134952   3.040   0.986   3.333 -0.8118  0.5694 -0.9651
 7830SOL    HW234953   3.073   0.873   3.246  0.9293  1.6894 -0.1944
 7831SOL     OW34954   0.199   2.948  10.714  0.4360 -0.6080  0.0624
 7831SOL    HW134955   0.123   2.999  10.741  0.8833 -0.1568  0.4616
 7831SOL    HW234956   0.228   2.914  10.799 -2.1337 -1.1858  0.6954
 7832SOL     OW34957   3.572   3.955  14.353 -0.4134  0.0318  0.5264
 7832SOL    HW134958   3.586   3.903  14.432  1.1949 -0.4200 -0.0722
 7832SOL    HW234959   3.518   4.032  14.371 -0.2145  0.2931 -0.0013
 7833SOL     OW34960   1.681   4.333   2.527  0.3872  0.1383  0.0668
 7833SOL    HW134961   1.660   4.348   2.619  0.1370  1.3231 -0.1851
 7833SOL    HW234962   1.596   4.291   2.513 -0.9955  2.3850  1.7458
 7834SOL     OW34963   1.174   0.867   8.057  0.7301  0.0416  0.0128
 7834SOL    HW134964   1.086   0.836   8.034  0.3195  1.3825 -0.2760
 7834SOL    HW234965   1.199   0.929   7.988 -0.1217  0.8180  0.3922
 7835SOL     OW34966   0.929   2.389   6.792 -0.5062  0.0593  0.2342
 7835SOL    HW134967   0.877   2.332   6.849 -1.2148 -0.7750 -1.2463
 7835SOL    HW234968   1.014   2.350   6.814 -0.7923 -0.4351  0.4750
 7836SOL     OW34969   2.603   2.321   3.761  0.1499  0.5677 -0.7501
 7836SOL    HW134970   2.539   2.340   3.692 -1.7615 -2.6781  0.1114
 7836SOL    HW234971   2.574   2.387   3.824 -1.6833 -2.4757  1.6183
 7837SOL     OW34972   0.226   2.704   0.177 -0.2937  0.5814 -0.9181
 7837SOL    HW134973   0.298   2.767   0.170  0.4542 -0.0643  0.9625
 7837SOL    HW234974   0.254   2.638   0.114 -1.1382 -0.2907 -0.3789
 7838SOL     OW34975   2.254   2.654   4.485  0.0194  0.1313  0.2737
 7838SOL    HW134976   2.212   2.740   4.483 -0.2000  0.0132 -0.2351
 7838SOL    HW234977   2.322   2.663   4.551 -0.5108 -1.2663  1.0126
 7839SOL     OW34978   2.355   1.428   9.519  0.3991  0.3839 -0.3109
 7839SOL    HW134979   2.434   1.375   9.529 -0.9792 -1.6112 -0.1383
 7839SOL    HW234980   2.384   1.465   9.435 -3.8133  2.1460 -0.9756
 7840SOL     OW34981   1.337   0.370   2.464  0.3021 -0.1415  0.1749
 7840SOL    HW134982   1.430   0.362   2.443  1.0357  0.3078  3.3193
 7840SOL    HW234983   1.346   0.374   2.559 -0.8174 -1.7250  0.3392
 7841SOL     OW34984   4.517   3.676   1.808 -0.0837 -0.3931 -0.4248
 7841SOL    HW134985   4.475   3.616   1.747  3.8159 -2.1604 -1.3128
 7841SOL    HW234986   4.454   3.749   1.809 -1.1064 -1.3081  2.1059
 7842SOL     OW34987   2.909   4.425   6.675 -0.3112  0.5309  0.3791
 7842SOL    HW134988   2.918   4.383   6.760 -0.0759  1.5044  0.8344
 7842SOL    HW234989   2.887   4.511   6.710 -3.7898  0.5775 -1.9452
 7843SOL     OW34990   1.238   0.107  12.031  0.7157 -0.2691  0.0607
 7843SOL    HW134991   1.288   0.188  12.037 -1.2063  0.7993  1.5676
 7843SOL    HW234992   1.201   0.097  12.119 -1.8732  0.3472 -0.9360
 7844SOL     OW34993   1.668   1.989   6.910  0.2565  0.1368  0.2966
 7844SOL    HW134994   1.631   2.075   6.930  2.5619  1.1515  0.2327
 7844SOL    HW234995   1.635   1.981   6.821  0.2335 -2.3031  0.5304
 7845SOL     OW34996   3.188   1.969   6.582  0.9453  0.2987 -0.3614
 7845SOL    HW134997   3.130   1.948   6.656  0.5839  0.3558 -0.6315
 7845SOL    HW234998   3.271   1.968   6.629  0.6442  1.6730  0.1815
 7846SOL     OW34999   1.126   0.532  14.597 -0.0886 -0.7231  0.1082
 7846SOL    HW135000   1.175   0.471  14.652 -1.5667 -1.6283  0.4332
 7846SOL    HW235001   1.162   0.504  14.513 -1.2240 -1.6247 -0.0825
 7847SOL     OW35002   4.023   4.037  12.726  0.0270 -0.4723 -0.0051
 7847SOL    HW135003   3.992   4.034  12.635  2.6716  0.1951 -0.9158
 7847SOL    HW235004   3.958   4.092  12.769 -1.7826 -1.5364 -1.3611
 7848SOL     OW35005   2.867   0.425  13.880  0.3955  0.2156 -0.1761
 7848SOL    HW135006   2.882   0.385  13.794 -2.3770 -0.4607 -0.3397
 7848SOL    HW235007   2.906   0.360  13.938  1.5834  0.4792 -0.6761
 7849SOL     OW35008   3.511   3.348   4.406  0.0402 -0.1483  0.0755
 7849SOL    HW135009   3.521   3.440   4.381 -2.3272  0.5335  1.6323
 7849SOL    HW235010   3.438   3.315   4.353  0.5781  0.7956 -1.2758
 7850SOL     OW35011   0.875   3.169   0.289  0.3325  0.4058 -0.0565
 7850SOL    HW135012   0.865   3.165   0.384 -0.1827  0.2457 -0.1183
 7850SOL    HW235013   0.942   3.237   0.286  0.8007 -0.1225 -1.4473
 7851SOL     OW35014   2.437   3.090   7.929  0.4053 -0.1395  0.0148
 7851SOL    HW135015   2.503   3.132   7.874 -0.7294  0.9824 -0.4764
 7851SOL    HW235016   2.492   3.071   8.005 -1.6711 -2.5286  0.9179
 7852SOL     OW35017   1.190   2.712  14.421  0.4260  0.0282 -0.0823
 7852SOL    HW135018   1.126   2.777  14.450 -0.0249 -1.1125  1.4696
 7852SOL    HW235019   1.198   2.750  14.334 -2.3746  0.7674 -0.0116
 7853SOL     OW35020   4.025   0.740   8.468 -0.4128  0.0602 -0.0726
 7853SOL    HW135021   4.106   0.750   8.417 -0.2191  1.2325  0.4751
 7853SOL    HW235022   4.061   0.726   8.556  0.7059  2.9978 -0.0793
 7854SOL     OW35023   4.125   3.762   5.152  0.6005 -0.4860  0.1929
 7854SOL    HW135024   4.034   3.767   5.123  0.0048 -1.4121  1.9420
 7854SOL    HW235025   4.167   3.765   5.066  1.5028 -0.2539  0.6407
 7855SOL     OW35026   2.189   3.161   4.053 -0.4032 -0.3030  0.1109
 7855SOL    HW135027   2.102   3.200   4.066  0.1094  1.4761 -1.9952
 7855SOL    HW235028   2.200   3.181   3.960 -1.9842  2.4880  0.5278
 7856SOL     OW35029   0.736   2.200  13.601  0.3599  0.3659 -0.2471
 7856SOL    HW135030   0.758   2.283  13.643  1.6691 -0.3940  0.5535
 7856SOL    HW235031   0.669   2.167  13.661  0.6900 -1.5741 -0.9685
 7857SOL     OW35032   4.708   3.336   5.344  0.1909 -0.3611 -0.0151
 7857SOL    HW135033   4.636   3.376   5.295  0.7333 -0.1401 -0.6349
 7857SOL    HW235034   0.016   3.399   5.409  0.8821  0.3926 -1.0698
 7858SOL     OW35035   4.249   0.988  16.043 -0.2512 -0.5110 -0.5704
 7858SOL    HW135036   4.281   1.044  15.972 -0.0823  0.1936  0.0653
 7858SOL    HW235037   4.238   1.046  16.119  0.7742 -2.3692  1.0005
 7859SOL     OW35038   2.282   2.905   6.587  0.1980 -0.1167 -0.2132
 7859SOL    HW135039   2.286   2.872   6.497 -0.9664  2.4512 -1.1819
 7859SOL    HW235040   2.323   2.991   6.581 -1.4624  0.6700 -0.1705
 7860SOL     OW35041   3.350   1.810   8.422  0.3595 -0.8948  0.2438
 7860SOL    HW135042   3.415   1.741   8.435  0.9511  0.1548  2.9460
 7860SOL    HW235043   3.389   1.887   8.464 -0.3558  0.3943 -1.4740
 7861SOL     OW35044   0.061   0.324  16.289  0.3050 -0.6590 -0.0879
 7861SOL    HW135045   4.718   0.269  16.332 -3.3381  1.4745 -2.7984
 7861SOL    HW235046   0.030   0.316  16.198  1.0705 -0.2174 -0.3910
 7862SOL     OW35047   3.757   0.372  15.898  0.0298 -0.2497 -0.0154
 7862SOL    HW135048   3.663   0.382  15.886  0.0146  0.3869  0.7211
 7862SOL    HW235049   3.778   0.309  15.828  0.6405 -0.6697  0.5382
 7863SOL     OW35050   4.245   3.730   4.910 -0.0559  0.4794  0.6445
 7863SOL    HW135051   4.339   3.726   4.894 -0.3010 -0.1879 -0.6159
 7863SOL    HW235052   4.219   3.680   4.833  2.2188  1.4646 -0.7406
 7864SOL     OW35053   0.638   3.048   3.873 -0.3918 -0.0075  0.1245
 7864SOL    HW135054   0.647   3.086   3.960 -3.3291  0.6639  0.1064
 7864SOL    HW235055   0.544   3.052   3.857 -0.4956  0.4433  0.8684
 7865SOL     OW35056   2.841   3.835   3.519 -0.3376 -0.0628 -0.3900
 7865SOL    HW135057   2.857   3.884   3.600  0.6229  1.9279 -1.7728
 7865SOL    HW235058   2.861   3.895   3.447  1.5037  0.9394  0.9272
 7866SOL     OW35059   3.157   2.102   5.602  0.2022  0.2286 -0.4934
 7866SOL    HW135060   3.081   2.060   5.560  0.8437 -1.8403  0.4092
 7866SOL    HW235061   3.135   2.094   5.695  0.4207 -2.0499 -0.6383
 7867SOL     OW35062   3.573   0.484   3.052 -0.1355 -0.1794  0.1832
 7867SOL    HW135063   3.643   0.522   2.998  2.5445 -1.0597  3.0556
 7867SOL    HW235064   3.605   0.396   3.073 -0.8342 -0.7071 -1.0008
 7868SOL     OW35065   3.080   0.500   3.124 -0.0219 -0.4023  0.2656
 7868SOL    HW135066   3.083   0.581   3.176 -1.8613  0.5416 -1.1049
 7868SOL    HW235067   3.055   0.533   3.038  2.5548 -2.2943 -1.1972
 7869SOL     OW35068   3.896   1.950   4.047 -0.0505 -0.2262  0.4635
 7869SOL    HW135069   3.878   2.015   3.980  0.2751  1.5477  2.1069
 7869SOL    HW235070   3.989   1.932   4.033  0.2054  2.1161 -0.9021
 7870SOL     OW35071   3.753   3.880  13.237  0.6710 -0.3101 -0.4160
 7870SOL    HW135072   3.774   3.831  13.316  1.4340  1.7916  0.6803
 7870SOL    HW235073   3.658   3.873  13.228  0.5200  1.1040 -0.0042
 7871SOL     OW35074   2.689   1.003  16.823 -0.5764 -0.2508  0.2023
 7871SOL    HW135075   2.649   0.991  16.909  2.5662 -0.6054  1.6333
 7871SOL    HW235076   2.764   1.058  16.849 -1.1992 -0.1629  1.7783
 7872SOL     OW35077   4.310   2.370  10.159  0.4755  0.0467  0.5413
 7872SOL    HW135078   4.295   2.443  10.220 -2.9408  1.0249 -1.4911
 7872SOL    HW235079   4.356   2.312  10.220  1.1981 -0.2003 -0.2362
 7873SOL     OW35080   0.739   4.177   0.652 -0.2689 -0.1890 -0.5865
 7873SOL    HW135081   0.814   4.231   0.629 -1.3704  1.4598 -0.3052
 7873SOL    HW235082   0.778   4.111   0.710 -3.6749  0.8962  2.9467
 7874SOL     OW35083   0.270   3.503   2.594  0.0808  0.4916 -0.7530
 7874SOL    HW135084   0.259   3.590   2.556 -0.2854  1.2392  1.0850
 7874SOL    HW235085   0.194   3.452   2.565 -0.7699  1.6590 -0.5699
 7875SOL     OW35086   2.904   3.263   1.746  0.4218  0.2344  0.0655
 7875SOL    HW135087   2.844   3.196   1.712  0.8055 -0.5490  0.9615
 7875SOL    HW235088   2.984   3.212   1.737  1.8029  2.2861  0.6742
 7876SOL     OW35089   4.141   0.393   6.898  0.0402 -0.4541 -0.1339
 7876SOL    HW135090   4.099   0.478   6.888  0.4331 -0.2366  0.0508
 7876SOL    HW235091   4.071   0.345   6.943 -0.6215  0.2585 -0.4206
 7877SOL     OW35092   3.555   4.374   1.563  0.6520  0.2593 -0.4529
 7877SOL    HW135093   3.591   4.306   1.506  0.4292  0.0842 -0.3837
 7877SOL    HW235094   3.628   4.402   1.618 -0.1969 -0.8828  1.2562
 7878SOL     OW35095   4.250   4.586  16.632  0.2126  0.0246  0.4282
 7878SOL    HW135096   4.268   4.638  16.554  0.0990 -0.9330 -0.2403
 7878SOL    HW235097   4.158   4.560  16.620  0.2630  0.5485 -1.1102
 7879SOL     OW35098   1.026   3.076  12.950  0.7051  0.0101  0.1278
 7879SOL    HW135099   0.956   3.068  12.885  1.6806  0.2284 -0.9387
 7879SOL    HW235100   1.091   3.121  12.898  1.8523 -0.1427  1.4207
 7880SOL     OW35101   3.527   0.469  14.534  0.1924 -0.0195 -0.1625
 7880SOL    HW135102   3.443   0.463  14.580  0.3711  0.3530  0.2127
 7880SOL    HW235103   3.500   0.451  14.444 -0.9429  1.2278 -0.0766
 7881SOL     OW35104   2.854   0.682   6.811 -0.5220  0.3745  0.2083
 7881SOL    HW135105   2.840   0.653   6.901 -0.8529 -0.2177 -0.0283
 7881SOL    HW235106   2.867   0.776   6.814 -1.4951  0.5471 -1.0557
 7882SOL     OW35107   4.138   2.967   9.981  0.0339 -0.0207  0.1006
 7882SOL    HW135108   4.223   2.981   9.940  1.5251 -2.2772  2.3605
 7882SOL    HW235109   4.128   2.872   9.985 -0.3530  0.0413  0.7381
 7883SOL     OW35110   1.326   0.688  17.247 -0.0649 -0.0424  0.3474
 7883SOL    HW135111   1.257   0.747  17.276  0.5179  0.4831  0.6605
 7883SOL    HW235112   1.322   0.693  17.152 -3.2644 -0.4737  0.4607
 7884SOL     OW35113   2.292   0.309   3.595 -0.2704  0.0593 -0.1128
 7884SOL    HW135114   2.206   0.266   3.588 -0.5122  0.8913 -2.0237
 7884SOL    HW235115   2.276   0.370   3.524 -2.0287  1.1721  1.2392
 7885SOL     OW35116   0.810   3.310   6.904  0.0899 -0.0758  0.0232
 7885SOL    HW135117   0.840   3.258   6.829  1.1197  0.3527  0.1358
 7885SOL    HW235118   0.808   3.243   6.972 -3.9216 -1.9505 -1.9136
 7886SOL     OW35119   0.648   0.914  15.183 -0.4487 -0.4740 -0.4358
 7886SOL    HW135120   0.655   0.918  15.278  1.1357 -1.2994 -0.5328
 7886SOL    HW235121   0.609   0.827  15.182 -0.1393 -0.6117 -0.1764
 7887SOL     OW35122   0.691   2.111   4.601  0.7299  0.0932  0.2057
 7887SOL    HW135123   0.686   2.176   4.531  1.8196 -0.3993 -0.3313
 7887SOL    HW235124   0.767   2.059   4.576  0.5783 -0.4180  0.8188
 7888SOL     OW35125   1.716   1.649  16.793 -0.4459 -0.8579 -0.5396
 7888SOL    HW135126   1.672   1.724  16.833  0.7626 -0.9491  0.9963
 7888SOL    HW235127   1.782   1.694  16.741 -0.9783  0.0916 -0.4007
 7889SOL     OW35128   0.062   1.793   4.578  0.6980 -0.6030 -0.0175
 7889SOL    HW135129   0.038   1.801   4.671  2.4371 -2.9020  0.6321
 7889SOL    HW235130   0.157   1.779   4.588  1.0751  2.2975  0.3995
 7890SOL     OW35131   1.297   3.154   5.426 -0.5884  0.3159 -0.4147
 7890SOL    HW135132   1.253   3.223   5.376  1.6173  1.2811 -1.0239
 7890SOL    HW235133   1.224   3.139   5.486  0.4832  3.2652  1.6408
 7891SOL     OW35134   3.438   1.972   6.712 -0.8446  0.0239 -0.0490
 7891SOL    HW135135   3.520   1.985   6.759 -0.8030  1.6982 -0.5735
 7891SOL    HW235136   3.371   1.975   6.780 -1.7583  0.2609 -0.9484
 7892SOL     OW35137   4.429   4.253   8.035  0.4630 -0.4911  0.0109
 7892SOL    HW135138   4.519   4.252   8.003  0.4537 -0.3586 -0.0215
 7892SOL    HW235139   4.390   4.316   7.974 -1.0618 -0.8101  0.6490
 7893SOL     OW35140   0.283   1.901   2.445  0.1430  0.8890 -0.4973
 7893SOL    HW135141   0.305   1.833   2.381  1.3228  0.0835  0.7565
 7893SOL    HW235142   0.209   1.866   2.495  1.9812  0.2803  1.8265
 7894SOL     OW35143   2.510   3.171   3.831  0.4284  0.0215 -0.0572
 7894SOL    HW135144   2.526   3.089   3.785 -1.8534 -0.7055  0.4322
 7894SOL    HW235145   2.449   3.217   3.773 -1.9696 -1.3944  1.3271
 7895SOL     OW35146   1.235   3.734   4.005  0.0080 -0.5341 -0.1647
 7895SOL    HW135147   1.262   3.653   3.961 -0.2543  0.2471 -1.7791
 7895SOL    HW235148   1.165   3.747   3.941 -0.0134 -0.8490 -0.2075
 7896SOL     OW35149   4.343   2.723   6.063 -0.5470  0.1413 -0.2102
 7896SOL    HW135150   4.427   2.732   6.109 -1.0830 -1.7643  1.1526
 7896SOL    HW235151   4.297   2.671   6.129 -0.4672 -0.7252 -0.8295
 7897SOL     OW35152   2.727   0.200   6.866  0.7813  0.4335  0.0427
 7897SOL    HW135153   2.731   0.110   6.899  0.5491  0.3833 -0.0729
 7897SOL    HW235154   2.647   0.235   6.904  2.1340  1.6750  1.7556
 7898SOL     OW35155   4.453   4.223  10.520  0.3269  0.3237 -0.3239
 7898SOL    HW135156   4.471   4.129  10.526 -0.5050  0.2478  0.8553
 7898SOL    HW235157   4.529   4.261  10.564  1.4867 -0.6602 -1.4575
 7899SOL     OW35158   4.279   2.722   3.768 -0.8598 -0.6277  0.4373
 7899SOL    HW135159   4.271   2.695   3.859 -0.3181 -1.4592  0.2447
 7899SOL    HW235160   4.186   2.721   3.748 -0.6770 -1.9280 -0.3721
 7900SOL     OW35161   1.016   3.726   8.827 -0.1579  0.1193 -0.0523
 7900SOL    HW135162   0.964   3.748   8.904  1.9609  3.4826  0.4191
 7900SOL    HW235163   0.994   3.634   8.817  0.5346  0.1654 -2.0176
 7901SOL     OW35164   0.669   1.900   3.709  0.3186  0.1504  0.1123
 7901SOL    HW135165   0.582   1.898   3.750  1.0331 -0.3439  1.6101
 7901SOL    HW235166   0.659   1.919   3.616  6.4965 -2.2776 -1.0311
 7902SOL     OW35167   2.779   4.290   7.820  0.0584 -0.0502 -0.5698
 7902SOL    HW135168   2.833   4.214   7.842 -2.9190 -2.3606 -1.2476
 7902SOL    HW235169   2.703   4.249   7.779 -1.4439  2.1517  0.0364
 7903SOL     OW35170   3.841   2.744   1.576 -0.1171 -0.1523  0.3527
 7903SOL    HW135171   3.823   2.785   1.660  2.1263 -0.3157  0.9112
 7903SOL    HW235172   3.916   2.691   1.602 -0.3327 -0.9107 -0.5617
 7904SOL     OW35173   3.531   4.652   7.507 -0.0742 -0.4382 -0.5017
 7904SOL    HW135174   3.612   4.616   7.542  0.5422  0.5618 -0.9052
 7904SOL    HW235175   3.547   4.667   7.414  0.4248  0.9346 -0.1886
 7905SOL     OW35176   0.114   3.209   5.742  0.1836 -0.4955 -0.0185
 7905SOL    HW135177   0.028   3.168   5.752  0.1359 -0.5948 -0.8536
 7905SOL    HW235178   0.092   3.295   5.777  1.2009  0.3787 -1.5010
 7906SOL     OW35179   0.168   0.567   4.061 -1.0193 -0.4073  0.1216
 7906SOL    HW135180   0.072   0.568   4.069 -1.1438 -0.6976 -1.2521
 7906SOL    HW235181   0.182   0.504   3.990 -0.1936 -0.7680  0.6086
 7907SOL     OW35182   0.353   0.206  17.263  0.0433  0.0267 -0.0168
 7907SOL    HW135183   0.414   0.261  17.313  1.3221  0.7553 -2.3698
 7907SOL    HW235184   0.385   0.120  17.293 -0.9660 -0.4843 -0.4071
 7908SOL     OW35185   2.465   4.124   0.697  0.7779 -0.2851  0.5610
 7908SOL    HW135186   2.432   4.172   0.621 -0.8724 -1.7090  0.3853
 7908SOL    HW235187   2.557   4.123   0.673  0.4032  0.5236 -0.8945
 7909SOL     OW35188   4.460   0.554  15.204  0.5568  0.1264  0.2848
 7909SOL    HW135189   4.527   0.494  15.171  0.8897 -1.2058  3.2870
 7909SOL    HW235190   4.490   0.574  15.293  3.4055 -0.9699 -0.4101
 7910SOL     OW35191   0.353   0.312   3.370 -0.7455 -0.1754 -0.4889
 7910SOL    HW135192   0.392   0.286   3.287  0.3218  1.3927 -0.4706
 7910SOL    HW235193   0.262   0.314   3.339 -0.8801 -0.0514 -0.0895
 7911SOL     OW35194   4.005   4.654  12.357 -0.2315  0.4183 -0.2059
 7911SOL    HW135195   3.973   0.011  12.402 -0.2092 -0.1627  0.8366
 7911SOL    HW235196   4.067   4.607  12.413 -0.5316 -0.4675 -0.6048
 7912SOL     OW35197   1.668   0.296   5.592 -0.2401 -0.4959  0.4552
 7912SOL    HW135198   1.691   0.249   5.512  0.4670 -0.3344  0.5670
 7912SOL    HW235199   1.700   0.233   5.658 -1.0661  1.8319  3.0798
 7913SOL     OW35200   4.672   1.890   5.627 -0.2169  0.1475  0.2758
 7913SOL    HW135201   4.702   1.979   5.608  1.0332 -0.3819 -0.2808
 7913SOL    HW235202   4.644   1.864   5.539  1.1651 -1.0114  0.1843
 7914SOL     OW35203   3.283   1.513   8.068  0.7374 -0.2595 -0.3940
 7914SOL    HW135204   3.337   1.550   7.998 -2.0012  1.7727 -1.4224
 7914SOL    HW235205   3.230   1.585   8.101  0.1898 -0.1700 -1.4813
 7915SOL     OW35206   3.996   2.376  16.712  0.2772 -0.2760  0.1934
 7915SOL    HW135207   4.083   2.351  16.742 -0.7273 -0.5426  2.8598
 7915SOL    HW235208   3.949   2.292  16.711  0.3289 -0.2942 -3.5043
 7916SOL     OW35209   4.439   1.263   5.220  0.0136  0.2831 -0.9733
 7916SOL    HW135210   4.407   1.342   5.176  0.6024  1.9422  1.5869
 7916SOL    HW235211   4.361   1.210   5.237 -0.0572  0.3385 -1.1268
 7917SOL     OW35212   1.833   3.998   3.875 -0.2467  0.0231 -0.0433
 7917SOL    HW135213   1.793   4.083   3.859  1.0147  0.4516 -0.8988
 7917SOL    HW235214   1.757   3.943   3.858 -0.9919  1.3431 -0.9106
 7918SOL     OW35215   3.886   1.675  10.727 -0.1137  0.5182  0.2104
 7918SOL    HW135216   3.944   1.742  10.765  2.2672  0.0420 -2.5504
 7918SOL    HW235217   3.861   1.723  10.648 -1.3653 -1.0554 -0.3349
 7919SOL     OW35218   0.881   2.921   2.789 -0.0562 -0.0448 -0.1519
 7919SOL    HW135219   0.903   2.888   2.702 -4.5244  2.4423 -2.2363
 7919SOL    HW235220   0.846   2.840   2.826 -0.4094  0.0840 -0.1959
 7920SOL     OW35221   0.607   2.682  10.813 -0.3656 -0.0584  0.0371
 7920SOL    HW135222   0.553   2.755  10.783 -1.1110 -0.6118  0.0481
 7920SOL    HW235223   0.668   2.672  10.740 -0.8538  3.0347 -0.7847
 7921SOL     OW35224   4.037   3.764   7.357 -0.3292 -0.3829 -0.0725
 7921SOL    HW135225   4.123   3.724   7.355  1.5521  3.6521 -0.1018
 7921SOL    HW235226   4.013   3.758   7.265 -0.9215 -1.8880  0.1804
 7922SOL     OW35227   3.190   3.780   2.016 -0.1477  0.7536 -0.1681
 7922SOL    HW135228   3.254   3.739   1.958  1.2102  0.4417  1.5557
 7922SOL    HW235229   3.236   3.863   2.030  1.0212 -0.0627  0.7910
 7923SOL     OW35230   2.516   2.509   2.404 -0.4537  0.3340 -0.2906
 7923SOL    HW135231   2.536   2.418   2.380  1.1167  0.0941  1.9280
 7923SOL    HW235232   2.559   2.554   2.332  0.2317  2.6259  1.5496
 7924SOL     OW35233   1.432   2.991  12.703 -0.2027  0.1863 -0.3433
 7924SOL    HW135234   1.352   2.997  12.756  0.3130  1.6628  0.2651
 7924SOL    HW235235   1.446   3.076  12.661 -0.4727  0.8432  0.8821
 7925SOL     OW35236   2.735   2.762   6.133  0.0967  0.2861  0.4241
 7925SOL    HW135237   2.749   2.826   6.062 -1.6780  1.0766  0.7848
 7925SOL    HW235238   2.827   2.733   6.131  0.4546  1.4579 -0.3039
 7926SOL     OW35239   2.256   3.472   6.530 -0.0553  0.4619  0.3365
 7926SOL    HW135240   2.212   3.506   6.608  0.7928 -0.6716  1.3200
 7926SOL    HW235241   2.185   3.412   6.505  0.0305  0.2768  0.5381
 7927SOL     OW35242   2.689   1.622   5.318 -0.1669  0.0835 -0.0833
 7927SOL    HW135243   2.674   1.550   5.379  1.2212 -0.7051 -0.6790
 7927SOL    HW235244   2.784   1.620   5.304 -0.3791  0.2337 -1.5013
 7928SOL     OW35245   2.490   4.074   5.116 -0.7436  0.4364 -0.5235
 7928SOL    HW135246   2.530   4.158   5.137  0.0354  0.0594 -0.4823
 7928SOL    HW235247   2.564   4.021   5.086 -1.0307 -0.1880 -0.1190
 7929SOL     OW35248   0.594   3.721   0.943 -0.3634 -0.3184  0.5915
 7929SOL    HW135249   0.668   3.743   1.001  0.4040 -1.8023  0.1957
 7929SOL    HW235250   0.536   3.676   1.005  0.4665 -3.3358 -0.8321
 7930SOL     OW35251   4.428   2.335  16.144  0.2476 -0.3919 -0.3825
 7930SOL    HW135252   4.424   2.300  16.055 -0.6689 -0.0117 -0.4883
 7930SOL    HW235253   4.367   2.409  16.147 -2.1492 -2.4635  1.3699
 7931SOL     OW35254   2.140   3.505   1.842  0.0596 -0.5736 -0.2824
 7931SOL    HW135255   2.125   3.462   1.759  1.8493 -0.2091 -0.8052
 7931SOL    HW235256   2.052   3.507   1.880 -0.0353 -3.4067 -0.3943
 7932SOL     OW35257   2.453   3.133   5.032  0.0991  0.3283  0.0671
 7932SOL    HW135258   2.370   3.107   4.991  1.8735 -1.8198 -2.1421
 7932SOL    HW235259   2.414   3.173   5.110 -0.6383  0.7374 -0.5116
 7933SOL     OW35260   0.957   0.155  17.479  0.0531  0.3320  0.1187
 7933SOL    HW135261   1.014   0.157  17.555 -0.1783  2.3360  0.2249
 7933SOL    HW235262   0.922   0.243  17.467 -0.6939  0.0345  0.0971
 7934SOL     OW35263   2.214   3.523   2.137  0.5864 -0.2436  0.3139
 7934SOL    HW135264   2.222   3.484   2.051 -1.8802 -0.5649  0.2279
 7934SOL    HW235265   2.305   3.550   2.146  0.2643  0.5897  1.2303
 7935SOL     OW35266   0.695   4.499   2.827 -0.2334  0.1654  0.3693
 7935SOL    HW135267   0.659   4.413   2.850 -1.0552  0.2295 -0.6249
 7935SOL    HW235268   0.671   4.549   2.905 -0.2609 -0.2748  0.6454
 7936SOL     OW35269   4.698   0.027   6.117 -0.1127 -0.5319 -0.0605
 7936SOL    HW135270   4.625   0.087   6.107  0.9390  1.1393  2.2648
 7936SOL    HW235271   0.028   0.084   6.174  0.1524  1.5531 -2.4039
 7937SOL     OW35272   2.152   4.633  15.711  0.1592  0.1285  0.7204
 7937SOL    HW135273   2.123   4.631  15.620  3.4098  0.9082 -0.3410
 7937SOL    HW235274   2.094   4.569  15.751  0.3117 -0.9598 -0.8288
 7938SOL     OW35275   2.083   0.435   3.181  0.6510  0.3434 -0.3051
 7938SOL    HW135276   2.001   0.478   3.206  0.2197 -0.2810 -0.6427
 7938SOL    HW235277   2.099   0.467   3.093  1.1651  1.0954  0.0619
 7939SOL     OW35278   1.210   0.465  17.345  0.1312  0.0167 -0.5133
 7939SOL    HW135279   1.272   0.395  17.321  1.1201  1.1179 -1.1440
 7939SOL    HW235280   1.255   0.530  17.292 -1.4241  0.3239 -1.4469
 7940SOL     OW35281   3.639   0.773   6.429 -0.5677  0.0931  0.2241
 7940SOL    HW135282   3.666   0.794   6.519  1.4408  0.3955 -0.4289
 7940SOL    HW235283   3.548   0.750   6.445 -0.4633 -1.0534 -0.8021
 7941SOL     OW35284   1.621   4.068  12.236  0.3085 -0.3379  0.1075
 7941SOL    HW135285   1.550   4.003  12.239  0.8382 -1.0210 -1.8718
 7941SOL    HW235286   1.688   4.012  12.196 -0.1556  0.6090 -2.0172
 7942SOL     OW35287   2.819   4.426   4.499 -0.7162  0.2712 -0.1468
 7942SOL    HW135288   2.870   4.418   4.418  0.1713  0.1281  0.4331
 7942SOL    HW235289   2.797   4.334   4.486  0.8736 -0.2073  0.5701
 7943SOL     OW35290   4.094   4.302   3.069  0.4863 -0.4573 -0.0470
 7943SOL    HW135291   4.172   4.315   3.122  0.1606 -1.7263  0.7294
 7943SOL    HW235292   4.048   4.251   3.135  1.5170 -3.8904 -1.9355
 7944SOL     OW35293   0.266   1.112  12.633 -0.0841 -0.4747  0.2525
 7944SOL    HW135294   0.270   1.102  12.728 -0.2239  0.7275  0.3852
 7944SOL    HW235295   0.172   1.128  12.622 -0.2772 -1.6334  0.2358
 7945SOL     OW35296   1.748   3.143  16.949 -0.0871 -0.3404 -0.2534
 7945SOL    HW135297   1.766   3.080  17.019 -1.9194  0.8474  1.3040
 7945SOL    HW235298   1.825   3.148  16.894  0.4659 -0.6735  0.4945
 7946SOL     OW35299   2.237   4.513   2.506  0.4232 -0.1281 -0.6311
 7946SOL    HW135300   2.211   4.605   2.500 -0.8109 -0.4428 -0.0833
 7946SOL    HW235301   2.280   4.502   2.421 -0.5771 -1.5069 -0.9608
 7947SOL     OW35302   0.514   1.463   3.202 -0.2231  0.1901  0.3537
 7947SOL    HW135303   0.577   1.528   3.231  0.6184  0.4962 -2.2047
 7947SOL    HW235304   0.554   1.422   3.125 -0.9593  1.5252 -0.7434
 7948SOL     OW35305   1.612   2.953   7.099  0.3080 -0.1031 -0.2479
 7948SOL    HW135306   1.653   2.868   7.110  0.4332  0.2607  2.1199
 7948SOL    HW235307   1.616   2.969   7.005 -0.3814 -1.5861 -0.5194
 7949SOL     OW35308   3.005   1.049   4.910 -0.4183  0.0566  0.6183
 7949SOL    HW135309   2.990   0.970   4.962 -0.7552 -1.3746 -1.6974
 7949SOL    HW235310   3.095   1.058   4.942 -0.0075  3.5572 -1.5204
 7950SOL     OW35311   2.441   4.228   2.469  0.2975  0.2904 -0.5886
 7950SOL    HW135312   2.522   4.190   2.437  0.5667  0.8319 -0.5489
 7950SOL    HW235313   2.423   4.285   2.394 -1.5522  0.0154 -0.3503
 7951SOL     OW35314   3.017   2.163   8.284 -0.0285  0.0804  0.2502
 7951SOL    HW135315   3.076   2.144   8.357  3.5520  2.7405 -1.9393
 7951SOL    HW235316   2.972   2.079   8.277  0.8774 -0.4011  0.3078
 7952SOL     OW35317   0.119   4.643   9.026  0.2138  0.3599 -0.4559
 7952SOL    HW135318   0.104   4.679   8.938 -1.4658  0.1119 -0.2617
 7952SOL    HW235319   0.155   4.556   9.008  1.1780  1.0252 -1.7807
 7953SOL     OW35320   1.048   3.680  16.518 -0.2485 -0.0363 -0.4342
 7953SOL    HW135321   0.981   3.746  16.501  1.7101  2.1016  0.2007
 7953SOL    HW235322   1.119   3.727  16.475 -1.3140  1.8583 -0.0910
 7954SOL     OW35323   3.657   0.839   5.818  0.0639 -0.0495  0.1115
 7954SOL    HW135324   3.634   0.833   5.725  1.5701  0.0721 -0.2717
 7954SOL    HW235325   3.659   0.749   5.850 -1.5004 -0.3509 -0.6128
 7955SOL     OW35326   3.959   0.124   2.994  0.5940  0.4994  0.0743
 7955SOL    HW135327   4.006   0.054   2.951 -1.9595 -1.2138  0.0613
 7955SOL    HW235328   3.958   0.188   2.923 -0.1098  0.0957 -0.2828
 7956SOL     OW35329   1.275   2.960  15.537 -0.0833  0.1756 -0.0982
 7956SOL    HW135330   1.273   3.055  15.529  2.7959  0.3638  1.3837
 7956SOL    HW235331   1.266   2.954  15.632 -2.2569 -1.3465 -0.4001
 7957SOL     OW35332   4.654   1.696   9.607  0.5543  0.0823  0.2092
 7957SOL    HW135333   4.658   1.610   9.648  0.7461 -0.6430 -1.3553
 7957SOL    HW235334   4.705   1.685   9.527  0.1852  1.0272 -0.1526
 7958SOL     OW35335   3.491   0.070   2.265 -0.0702 -0.2306  0.1159
 7958SOL    HW135336   3.476   0.049   2.357 -1.4729  1.0922  0.1846
 7958SOL    HW235337   3.508   0.164   2.264 -1.9650  0.0796 -1.6011
 7959SOL     OW35338   0.720   1.332  10.016  0.0434 -0.7031 -0.2339
 7959SOL    HW135339   0.722   1.426  10.035  3.5419 -0.6404 -0.8693
 7959SOL    HW235340   0.636   1.334   9.972  0.2625  3.0591 -0.5143
 7960SOL     OW35341   2.194   3.574  14.522  0.4858  0.0799 -0.4137
 7960SOL    HW135342   2.124   3.580  14.588  0.9972  2.0193 -0.0416
 7960SOL    HW235343   2.266   3.630  14.551 -0.6172  0.5509  1.4055
 7961SOL     OW35344   0.042   3.582   6.381  0.9450  0.5070 -0.1105
 7961SOL    HW135345   0.102   3.624   6.320 -0.1041  0.9262 -0.8373
 7961SOL    HW235346   0.044   3.500   6.332 -0.9357 -0.8258  2.0326
 7962SOL     OW35347   1.269   0.248  12.502 -0.2706  0.6454  0.4610
 7962SOL    HW135348   1.248   0.202  12.420  0.9133  1.4921 -0.3172
 7962SOL    HW235349   1.186   0.239  12.548  0.3032  2.0969  1.7849
 7963SOL     OW35350   0.583   2.402   6.801  0.1885 -0.2908  1.0177
 7963SOL    HW135351   0.612   2.315   6.830 -0.6335 -0.0849  2.4176
 7963SOL    HW235352   0.632   2.469   6.847 -1.4537  1.6623 -0.0953
 7964SOL     OW35353   4.012   1.169   3.161 -0.5866  0.3133  0.1511
 7964SOL    HW135354   3.952   1.240   3.137 -2.5550 -2.0303 -1.9260
 7964SOL    HW235355   4.082   1.177   3.096 -0.1881  0.0007  0.5444
 7965SOL     OW35356   0.379   2.056   8.099  0.1057 -1.0886 -0.5150
 7965SOL    HW135357   0.461   2.071   8.053 -0.2774  2.1001 -0.1724
 7965SOL    HW235358   0.380   1.961   8.110  2.2714 -1.2042 -1.8854
 7966SOL     OW35359   0.544   2.656   3.205 -0.2624  0.6660  0.0248
 7966SOL    HW135360   0.498   2.588   3.157 -0.3673  0.3277  0.6074
 7966SOL    HW235361   0.489   2.734   3.198  0.1827  0.7922 -2.0758
 7967SOL     OW35362   0.290   0.547   8.630 -0.2721  0.4232  0.5214
 7967SOL    HW135363   0.269   0.608   8.559 -0.8021 -0.6804 -0.2817
 7967SOL    HW235364   0.342   0.602   8.689  0.4216  0.0158  0.2926
 7968SOL     OW35365   2.707   0.992   9.802  0.2156  0.2714 -0.1496
 7968SOL    HW135366   2.728   1.085   9.793 -0.6727  0.3637 -1.3606
 7968SOL    HW235367   2.708   0.973   9.896 -0.4033 -0.7201 -0.3348
 7969SOL     OW35368   1.241   1.084   7.186  0.2822  0.3104 -0.1744
 7969SOL    HW135369   1.256   1.034   7.105 -0.4110 -0.3811  0.1168
 7969SOL    HW235370   1.215   1.169   7.150  1.9094  1.2972  1.0118
 7970SOL     OW35371   2.144   1.839   0.846  0.8105 -0.3502  0.7074
 7970SOL    HW135372   2.094   1.791   0.779 -0.5074  1.8933  0.0992
 7970SOL    HW235373   2.180   1.770   0.902  2.4471  1.3383  1.7474
 7971SOL     OW35374   1.621   0.135   6.499  0.0185 -0.0520  0.3332
 7971SOL    HW135375   1.579   0.207   6.453 -0.4948  0.7634  2.1015
 7971SOL    HW235376   1.678   0.185   6.557  1.8118 -0.8624 -0.7140
 7972SOL     OW35377   4.539   3.690   5.314 -0.4794 -0.5604 -0.2667
 7972SOL    HW135378   4.549   3.746   5.237  0.3323  2.1869  1.8771
 7972SOL    HW235379   4.511   3.607   5.274 -1.0474 -0.3712 -0.2658
 7973SOL     OW35380   1.070   0.712   8.431 -0.1331  0.1431  0.1174
 7973SOL    HW135381   1.021   0.693   8.511  1.1583  0.0350  0.8832
 7973SOL    HW235382   1.024   0.646   8.380  1.9567 -0.4838 -0.9892
 7974SOL     OW35383   3.438   0.407  10.607  0.0555 -0.1367  0.6516
 7974SOL    HW135384   3.396   0.473  10.662  1.0770  1.1656 -0.1352
 7974SOL    HW235385   3.360   0.363  10.574  0.0032  1.4423 -1.2955
 7975SOL     OW35386   4.376   0.916  13.055  0.2801  0.0888  0.7332
 7975SOL    HW135387   4.425   0.927  13.136  0.1516 -0.6694  0.9108
 7975SOL    HW235388   4.443   0.913  12.986 -0.9029 -1.9895 -0.3345
 7976SOL     OW35389   1.606   3.657   6.395  0.1474 -0.0773 -0.3081
 7976SOL    HW135390   1.552   3.608   6.458  0.0806  0.8846  0.3914
 7976SOL    HW235391   1.679   3.685   6.450 -0.5395  0.8108  0.1610
 7977SOL     OW35392   2.461   4.130   1.605 -0.0587 -0.0775 -0.3225
 7977SOL    HW135393   2.539   4.078   1.588  2.3529  3.2107  0.7707
 7977SOL    HW235394   2.494   4.196   1.665 -2.5509  0.3709  0.5550
 7978SOL     OW35395   3.447   1.957   1.158  0.2202  0.5309  0.1248
 7978SOL    HW135396   3.357   1.955   1.127  0.7969  0.8165 -1.6075
 7978SOL    HW235397   3.446   1.912   1.242 -0.4575 -0.4589 -0.4111
 7979SOL     OW35398   4.128   4.267   8.476  0.0573 -0.0617 -0.2182
 7979SOL    HW135399   4.169   4.341   8.521  2.0753 -0.7735 -0.8624
 7979SOL    HW235400   4.160   4.285   8.388 -0.0228  2.3876  0.2580
 7980SOL     OW35401   3.836   3.748   5.121  0.4142 -0.0835  0.0202
 7980SOL    HW135402   3.759   3.759   5.177  0.3058 -1.8872  0.2186
 7980SOL    HW235403   3.800   3.714   5.039  0.4444 -0.9097  0.3422
 7981SOL     OW35404   2.105   2.134   4.947  0.0134 -0.3693  0.7063
 7981SOL    HW135405   2.073   2.074   5.014 -0.0526 -0.5736  0.4916
 7981SOL    HW235406   2.101   2.079   4.869  1.8183 -1.3785  1.3523
 7982SOL     OW35407   3.603   2.530   3.682  0.0367 -0.1744 -0.0510
 7982SOL    HW135408   3.604   2.439   3.713 -1.6546 -0.3397 -0.5076
 7982SOL    HW235409   3.595   2.567   3.769 -1.5977  1.9642 -1.1208
 7983SOL     OW35410   2.973   3.947   8.383  0.4878 -0.0604  0.0056
 7983SOL    HW135411   2.916   4.024   8.388 -0.0956 -0.4997  0.0809
 7983SOL    HW235412   2.952   3.901   8.464  1.6548 -0.6356 -0.0170
 7984SOL     OW35413   1.512   3.884   2.845  0.7170  0.3718 -0.8068
 7984SOL    HW135414   1.471   3.823   2.907 -0.8294  1.0626 -1.1373
 7984SOL    HW235415   1.469   3.858   2.764  0.4427 -0.7959 -0.2801
 7985SOL     OW35416   3.934   0.975   1.553 -0.0766 -0.2158  0.3045
 7985SOL    HW135417   3.872   0.918   1.507 -0.1031 -0.5497  0.7497
 7985SOL    HW235418   3.955   1.053   1.501 -1.2865  1.0570  1.7463
 7986SOL     OW35419   0.855   2.801  11.246 -0.2973 -0.2618 -0.7729
 7986SOL    HW135420   0.865   2.707  11.256 -1.7318 -0.3618 -0.1806
 7986SOL    HW235421   0.861   2.834  11.336  0.4770  2.4304 -1.8044
 7987SOL     OW35422   4.286   1.874   6.566 -0.3966  0.5639 -0.1695
 7987SOL    HW135423   4.346   1.873   6.640 -1.3297  1.6618  0.6016
 7987SOL    HW235424   4.279   1.779   6.551 -2.0520  0.6016  0.3450
 7988SOL     OW35425   1.077   3.188  14.670  0.0473 -0.1075 -0.1504
 7988SOL    HW135426   1.138   3.135  14.620 -0.4939 -0.6241 -0.2643
 7988SOL    HW235427   1.006   3.124  14.669  0.7400 -0.8693  0.4282
 7989SOL     OW35428   2.050   1.248   6.559  0.3248 -0.4619 -0.0732
 7989SOL    HW135429   2.135   1.212   6.531  0.0103  0.2220 -1.9369
 7989SOL    HW235430   2.014   1.276   6.474 -0.2468  0.1598  0.3772
 7990SOL     OW35431   3.325   0.359   0.443  0.5463  0.7183  0.1782
 7990SOL    HW135432   3.305   0.372   0.350  1.9206 -1.7651 -0.4473
 7990SOL    HW235433   3.386   0.433   0.454  0.3940  1.6176 -4.8899
 7991SOL     OW35434   0.033   4.313   7.905 -0.1204 -0.3430  1.0723
 7991SOL    HW135435   0.015   4.261   7.826  0.6212  2.4417 -0.9586
 7991SOL    HW235436   0.124   4.339   7.890  0.2720 -1.6308  1.2495
 7992SOL     OW35437   1.309   2.190  17.650  0.3691  0.6988 -0.1290
 7992SOL    HW135438   1.337   2.156  17.565 -1.0682  0.9413 -0.7099
 7992SOL    HW235439   1.387   2.210   0.012  0.5411  1.6879 -0.7775
 7993SOL     OW35440   2.701   0.049   5.448  0.1992  0.5570  0.3066
 7993SOL    HW135441   2.772   4.707   5.456  0.7509  1.0962 -0.2676
 7993SOL    HW235442   2.732   0.109   5.381  0.6642  1.5219  1.3793
 7994SOL     OW35443   0.431   2.424   3.096  0.1466 -0.0105  0.0408
 7994SOL    HW135444   0.473   2.389   3.017 -1.1108 -0.0883 -0.5923
 7994SOL    HW235445   0.493   2.392   3.161 -0.4050 -0.4203  0.3606
 7995SOL     OW35446   4.329   3.237   3.810 -0.0248 -0.1181  0.5925
 7995SOL    HW135447   4.395   3.187   3.858 -0.9775 -0.7722  1.2188
 7995SOL    HW235448   4.338   3.324   3.849 -3.4498  0.5169 -0.0123
 7996SOL     OW35449   3.579   3.122  10.475 -0.5207 -0.2106 -0.1046
 7996SOL    HW135450   3.594   3.031  10.501  2.1269  0.0834 -0.5131
 7996SOL    HW235451   3.577   3.127  10.380 -2.1194 -0.4647 -0.0812
 7997SOL     OW35452   0.747   2.752   7.422  0.1111  0.1094  0.0183
 7997SOL    HW135453   0.671   2.764   7.479  0.2139  0.4832  0.0782
 7997SOL    HW235454   0.772   2.844   7.412  0.7507  0.0867  1.3877
 7998SOL     OW35455   2.967   0.087  10.685 -0.7146 -0.0921 -0.5139
 7998SOL    HW135456   2.996   0.007  10.730  2.5952  1.3267 -0.0757
 7998SOL    HW235457   2.875   0.060  10.684 -1.1568  1.4486 -0.7680
 7999SOL     OW35458   2.496   3.777  12.785 -0.3637 -0.0976 -0.5203
 7999SOL    HW135459   2.570   3.719  12.802 -1.9317 -2.2472 -1.1375
 7999SOL    HW235460   2.533   3.828  12.713  0.0354 -0.3842 -0.5162
 8000SOL     OW35461   3.784   2.342   2.132  0.4224  0.1737 -0.5443
 8000SOL    HW135462   3.770   2.252   2.103 -1.3534  1.0252 -2.2823
 8000SOL    HW235463   3.877   2.348   2.113 -0.0363  2.8278 -1.9531
 8001SOL     OW35464   2.565   3.224   0.613 -0.3214  0.4372 -0.5172
 8001SOL    HW135465   2.511   3.152   0.647  0.5998 -0.3761 -0.7541
 8001SOL    HW235466   2.543   3.303   0.661  0.3956  1.5254 -1.9831
 8002SOL     OW35467   0.242   3.599   3.845 -0.4737  0.2698 -0.0651
 8002SOL    HW135468   0.291   3.676   3.871  2.7926 -1.0223 -2.5037
 8002SOL    HW235469   0.246   3.609   3.750  0.1829  0.4161 -0.0187
 8003SOL     OW35470   2.855   4.571   7.284  0.1540 -0.3785  0.3995
 8003SOL    HW135471   2.946   4.554   7.307  0.5746 -0.3374 -1.2442
 8003SOL    HW235472   2.817   4.607   7.364 -1.3434  2.1532 -1.4435
 8004SOL     OW35473   0.248   0.586  10.766  0.2761  0.5321  0.0517
 8004SOL    HW135474   0.340   0.561  10.754 -0.3093 -2.2132  1.3332
 8004SOL    HW235475   0.196   0.512  10.734  2.6221 -1.6398  1.2549
 8005SOL     OW35476   2.805   3.193  16.222  0.4781 -0.4519 -0.1725
 8005SOL    HW135477   2.829   3.184  16.314 -0.1549  3.0145  0.3195
 8005SOL    HW235478   2.895   3.205  16.190  0.7744 -1.4344  0.2792
 8006SOL     OW35479   1.420   3.911   8.175 -0.0022 -0.3251  0.1052
 8006SOL    HW135480   1.330   3.892   8.202 -0.1533  0.0041 -0.1668
 8006SOL    HW235481   1.404   3.973   8.105 -0.4250 -0.6626 -0.0967
 8007SOL     OW35482   2.088   3.422   4.340  0.2705  0.0651  0.5706
 8007SOL    HW135483   2.012   3.365   4.331  0.8039 -0.7075  1.0816
 8007SOL    HW235484   2.097   3.439   4.434 -1.4092  1.7989  0.4195
 8008SOL     OW35485   0.950   2.270   4.007 -0.1968 -0.3904 -0.2654
 8008SOL    HW135486   1.032   2.248   3.962  1.6334  0.2478  2.7637
 8008SOL    HW235487   0.982   2.316   4.085  0.5480  0.5137 -1.1010
 8009SOL     OW35488   3.017   0.457   1.051 -0.0185 -0.2050  0.0142
 8009SOL    HW135489   2.964   0.483   1.126  2.7546  2.2752  1.0925
 8009SOL    HW235490   2.996   0.523   0.985  0.1902 -0.9243 -0.7751
 8010SOL     OW35491   2.032   2.381   0.450  0.3567 -0.2249  0.0353
 8010SOL    HW135492   1.962   2.328   0.412  1.8434 -2.5801  0.5232
 8010SOL    HW235493   2.100   2.313   0.451  1.1949  0.6034  0.1497
 8011SOL     OW35494   3.690   1.837   7.576  0.4830  0.0193  0.4750
 8011SOL    HW135495   3.645   1.919   7.594 -0.8564 -1.1451  2.5332
 8011SOL    HW235496   3.780   1.864   7.559 -0.6131  2.3233 -1.6516
 8012SOL     OW35497   4.215   3.969  12.501  0.2843  0.3095  0.0822
 8012SOL    HW135498   4.153   3.966  12.573 -1.9565  0.6934 -1.8524
 8012SOL    HW235499   4.224   3.878  12.473 -2.9516 -0.2330  0.8123
 8013SOL     OW35500   4.496   1.471   3.975 -0.8445  0.2561 -0.3312
 8013SOL    HW135501   4.553   1.505   4.044 -0.6833  1.3611 -1.0173
 8013SOL    HW235502   4.544   1.484   3.893 -0.9726 -1.8089 -0.7308
 8014SOL     OW35503   0.897   1.215  13.759  0.3363 -0.2832  0.9308
 8014SOL    HW135504   0.974   1.195  13.705 -0.4597 -0.5710 -0.1082
 8014SOL    HW235505   0.940   1.277  13.818  2.1005  0.0671 -0.7155
 8015SOL     OW35506   3.925   1.872   9.612 -0.1915 -0.0348 -0.5170
 8015SOL    HW135507   3.895   1.803   9.552  1.6150 -1.8609  0.6915
 8015SOL    HW235508   3.914   1.831   9.698  2.3416  0.8515  0.2048
 8016SOL     OW35509   2.830   3.567   7.473 -0.0520 -0.0747  0.5464
 8016SOL    HW135510   2.794   3.521   7.398  0.7442  0.4776 -0.1765
 8016SOL    HW235511   2.849   3.657   7.446  1.8645 -0.6431 -0.0248
 8017SOL     OW35512   3.331   4.441   5.240  1.0026 -0.2758  0.3518
 8017SOL    HW135513   3.303   4.486   5.320 -0.9799  1.0705 -1.1042
 8017SOL    HW235514   3.272   4.486   5.180  0.9722 -2.2654 -1.0946
 8018SOL     OW35515   3.716   3.750   0.028  0.1237  0.3756  0.6303
 8018SOL    HW135516   3.688   3.660   0.011  1.7648 -0.0576  0.1648
 8018SOL    HW235517   3.689   3.755   0.120 -0.4842 -1.4871  0.5564
 8019SOL     OW35518   2.906   0.898   9.391 -0.0398  0.6060 -0.0142
 8019SOL    HW135519   2.812   0.907   9.372  0.2196  2.9769 -0.1739
 8019SOL    HW235520   2.897   0.895   9.486 -0.8621 -2.8471 -0.1760
 8020SOL     OW35521   0.096   0.468  10.089  0.6408  0.6702  0.1044
 8020SOL    HW135522   0.008   0.443  10.114  0.4182 -0.9053 -2.2895
 8020SOL    HW235523   0.143   0.386  10.074 -0.4143 -0.6560  3.9283
 8021SOL     OW35524   2.671   2.311   8.374 -0.0720  0.6396 -0.4991
 8021SOL    HW135525   2.731   2.379   8.344  2.0354 -0.0829  2.1094
 8021SOL    HW235526   2.600   2.347   8.320 -1.2378 -0.3466  0.3645
 8022SOL     OW35527   0.733   0.758   6.352  0.0437 -0.2440  0.3709
 8022SOL    HW135528   0.660   0.742   6.291  0.4405  1.5427 -0.5895
 8022SOL    HW235529   0.680   0.792   6.425 -0.1209  0.3226 -0.0047
 8023SOL     OW35530   0.604   4.611  14.598 -0.0108  0.1538 -0.4097
 8023SOL    HW135531   0.583   4.594  14.506 -0.2327  0.0580 -0.3416
 8023SOL    HW235532   0.567   4.531  14.636 -0.6412  0.8680  0.4818
 8024SOL     OW35533   1.448   2.119   0.401 -0.4780  0.0423  0.0924
 8024SOL    HW135534   1.497   2.051   0.448 -0.2555  0.5350  0.5736
 8024SOL    HW235535   1.370   2.139   0.454 -0.7145  0.3629 -0.3748
 8025SOL     OW35536   3.653   0.272   8.300  0.2555 -0.3868 -0.4775
 8025SOL    HW135537   3.583   0.218   8.336 -0.5117 -0.2472 -1.7530
 8025SOL    HW235538   3.597   0.344   8.270 -0.8567 -1.4149 -0.8708
 8026SOL     OW35539   1.891   2.603   0.905 -0.5119  0.0756 -0.2599
 8026SOL    HW135540   1.942   2.534   0.862  0.6981  0.3554  0.6946
 8026SOL    HW235541   1.949   2.679   0.905 -1.8249  1.0796  2.4179
 8027SOL     OW35542   1.446   0.313   8.485 -0.3737  0.4160  0.5732
 8027SOL    HW135543   1.471   0.393   8.439 -0.6848  0.4662  0.4909
 8027SOL    HW235544   1.364   0.291   8.441 -0.8143  0.9379  1.1151
 8028SOL     OW35545   1.245   0.457   6.870  0.1367 -0.6023 -0.1453
 8028SOL    HW135546   1.231   0.433   6.961  3.8208  0.2694  0.6654
 8028SOL    HW235547   1.232   0.372   6.827  2.2337 -0.9209 -0.1567
 8029SOL     OW35548   2.044   0.285  12.597  0.1888 -0.2963  0.8273
 8029SOL    HW135549   2.130   0.300  12.636 -0.1736  0.4960  1.3391
 8029SOL    HW235550   1.980   0.324  12.657  0.5774 -1.3013  1.9007
 8030SOL     OW35551   0.310   2.401  17.472 -0.1597 -0.0054 -0.7602
 8030SOL    HW135552   0.306   2.306  17.481 -0.7857  0.0887 -0.0683
 8030SOL    HW235553   0.253   2.440  17.538 -0.0890 -1.8270  0.3645
 8031SOL     OW35554   1.988   3.499   6.281  0.0036 -0.5570 -0.0006
 8031SOL    HW135555   2.034   3.430   6.329 -1.5603 -1.6995 -0.1351
 8031SOL    HW235556   1.953   3.549   6.354  0.3860 -0.1338 -0.1104
 8032SOL     OW35557   3.945   3.320  10.910 -0.0861 -0.2471 -0.1682
 8032SOL    HW135558   3.958   3.260  10.836 -1.6025 -0.4946 -0.2339
 8032SOL    HW235559   3.861   3.353  10.878 -0.4019 -0.6068  0.2941
 8033SOL     OW35560   3.515   1.947   3.473  0.4055  0.1759 -0.2418
 8033SOL    HW135561   3.590   1.945   3.532  0.3427  2.3821 -0.0924
 8033SOL    HW235562   3.493   2.039   3.458  2.1150  0.2952 -2.2036
 8034SOL     OW35563   3.820   3.440  11.337 -0.3925 -0.3227  0.2342
 8034SOL    HW135564   3.819   3.488  11.420 -1.0108 -2.8990  1.7093
 8034SOL    HW235565   3.733   3.462  11.305 -0.0138 -1.4561 -1.5421
 8035SOL     OW35566   1.754   3.383   5.441  0.3441 -0.1891  0.5923
 8035SOL    HW135567   1.792   3.340   5.365 -0.1032  0.2159  0.1376
 8035SOL    HW235568   1.760   3.475   5.416  1.1527 -0.7769 -1.3651
 8036SOL     OW35569   1.395   4.134   9.497  0.2344  0.2406 -0.0975
 8036SOL    HW135570   1.307   4.166   9.478 -1.0879 -2.1463  2.0574
 8036SOL    HW235571   1.411   4.078   9.421  1.6662 -0.0891  0.4493
 8037SOL     OW35572   1.958   4.351   3.070  0.4106 -0.9170  0.5953
 8037SOL    HW135573   2.047   4.363   3.102  0.7883 -1.6343 -0.2082
 8037SOL    HW235574   1.934   4.274   3.121 -1.3608 -0.0983  1.0015
 8038SOL     OW35575   2.684   3.909   1.288 -0.2637  0.0493 -0.8179
 8038SOL    HW135576   2.665   3.815   1.289  0.3750 -0.0473  2.4842
 8038SOL    HW235577   2.686   3.928   1.194  0.0000  0.0926 -0.8051
 8039SOL     OW35578   4.428   4.718   4.352  0.3630  0.4226 -0.4440
 8039SOL    HW135579   4.360   4.654   4.372  1.4511 -0.8640 -0.8181
 8039SOL    HW235580   4.418   0.012   4.258  1.6292 -1.4328 -0.8831
 8040SOL     OW35581   0.953   1.003   6.700  0.4255 -0.2686  0.0537
 8040SOL    HW135582   0.883   1.066   6.681  0.3269 -0.6542 -0.8999
 8040SOL    HW235583   1.032   1.056   6.710  0.9943 -1.1504  0.2268
 8041SOL     OW35584   0.692   3.398   6.613  0.1319 -0.0996  0.0534
 8041SOL    HW135585   0.751   3.368   6.682 -0.0324 -1.4442 -0.3991
 8041SOL    HW235586   0.732   3.482   6.591  3.0771 -1.2116  1.1823
 8042SOL     OW35587   1.368   1.021  15.169  0.0902  0.0243  0.0436
 8042SOL    HW135588   1.438   1.008  15.105 -0.6410  1.8998 -1.1316
 8042SOL    HW235589   1.393   0.947  15.224  1.3279  1.1223  0.9172
 8043SOL     OW35590   1.848   1.438   9.260 -0.3156 -0.2333 -0.3905
 8043SOL    HW135591   1.795   1.410   9.336  1.6687 -0.3032  0.9626
 8043SOL    HW235592   1.928   1.390   9.283 -0.2176  0.5719  0.9733
 8044SOL     OW35593   2.204   0.398   1.376  0.0945  0.5016  0.5540
 8044SOL    HW135594   2.120   0.435   1.350  0.6977  1.2879 -0.2888
 8044SOL    HW235595   2.227   0.467   1.439  2.7101 -1.2175  1.4914
 8045SOL     OW35596   2.329   4.248  14.821  0.1622  0.7005 -0.0618
 8045SOL    HW135597   2.244   4.292  14.827 -0.2628 -0.1824  0.5491
 8045SOL    HW235598   2.383   4.320  14.852  1.0641  1.7360 -4.1815
 8046SOL     OW35599   3.115   1.111   3.790 -0.7123  0.2608 -0.2498
 8046SOL    HW135600   3.094   1.042   3.727  0.4778  2.1009 -2.6668
 8046SOL    HW235601   3.192   1.084   3.840 -1.3034 -0.9949 -0.0008
 8047SOL     OW35602   0.660   1.460   7.819  0.1498  0.1350  0.4781
 8047SOL    HW135603   0.734   1.475   7.760  1.2177 -0.2678  1.7174
 8047SOL    HW235604   0.696   1.456   7.908  1.7924  0.4644 -0.1728
 8048SOL     OW35605   0.945   4.091   0.278  0.1345  0.0792  0.2607
 8048SOL    HW135606   0.855   4.073   0.253 -1.1793  1.9518  3.6344
 8048SOL    HW235607   0.996   4.063   0.202 -0.9939 -0.7133 -0.1935
 8049SOL     OW35608   3.412   3.710   9.088 -0.8464  0.2325  0.2414
 8049SOL    HW135609   3.425   3.791   9.038  1.8482 -1.0068 -1.0485
 8049SOL    HW235610   3.400   3.747   9.176 -0.0713 -1.4947  1.0817
 8050SOL     OW35611   2.810   0.358   6.027  0.1392 -0.1325 -0.8053
 8050SOL    HW135612   2.824   0.445   5.989  0.1846  1.1322  2.0790
 8050SOL    HW235613   2.762   0.386   6.105 -0.0779  2.5278 -1.8944
 8051SOL     OW35614   1.316   3.219   1.436 -0.4095  0.6572 -0.1432
 8051SOL    HW135615   1.300   3.301   1.484  0.6572  0.3666  0.7173
 8051SOL    HW235616   1.265   3.168   1.498  1.5444  1.9644  2.5340
 8052SOL     OW35617   0.742   0.540   3.984 -0.0116 -0.3595  0.0990
 8052SOL    HW135618   0.705   0.568   3.900 -2.3975 -1.6129  0.7360
 8052SOL    HW235619   0.669   0.482   4.005 -0.0864  0.0322  0.9270
 8053SOL     OW35620   1.976   3.047   4.483  0.3648 -0.8244 -0.4292
 8053SOL    HW135621   1.954   2.954   4.478  0.4176 -0.8071 -0.9622
 8053SOL    HW235622   1.905   3.093   4.438  0.3121  0.1103  0.6210
 8054SOL     OW35623   3.961   0.114   3.741 -0.4098 -0.3741 -0.4712
 8054SOL    HW135624   4.051   0.142   3.723 -0.2991 -0.2444  0.2817
 8054SOL    HW235625   3.920   0.166   3.672  1.8240  0.9635 -0.8046
 8055SOL     OW35626   2.146   1.375  17.653 -0.0369  0.1274 -0.3802
 8055SOL    HW135627   2.125   1.397  17.563  1.1815  1.5980 -0.3075
 8055SOL    HW235628   2.059   1.358   0.000 -0.9316  2.7045 -1.3197
 8056SOL     OW35629   3.672   1.121   3.150  0.2502  0.5204  0.0727
 8056SOL    HW135630   3.594   1.091   3.103  0.9411 -1.2449  0.0714
 8056SOL    HW235631   3.682   1.047   3.209  1.4430 -0.6062 -1.5319
 8057SOL     OW35632   2.162   2.074   5.250 -0.1350 -0.1613 -0.5955
 8057SOL    HW135633   2.177   1.990   5.293 -0.5300 -0.4096 -0.9420
 8057SOL    HW235634   2.187   2.136   5.318 -1.3151 -2.1499  1.6498
 8058SOL     OW35635   1.791   3.070  15.640 -0.2770  0.0932 -0.9576
 8058SOL    HW135636   1.820   3.130  15.571  1.0752 -1.2181 -1.5276
 8058SOL    HW235637   1.852   3.089  15.711  1.3160 -2.0681 -1.7593
 8059SOL     OW35638   4.163   2.931   0.445  0.1078  0.0308  0.3498
 8059SOL    HW135639   4.242   2.880   0.426  0.1629  0.2062  0.1146
 8059SOL    HW235640   4.204   3.017   0.453  1.8762 -0.7670 -0.0063
 8060SOL     OW35641   1.767   0.087   4.504  0.3129  0.6264 -0.2725
 8060SOL    HW135642   1.689   0.047   4.467  0.1155  1.5008 -0.8134
 8060SOL    HW235643   1.814   0.013   4.542  0.4535  0.2945 -1.0905
 8061SOL     OW35644   2.024   0.999   9.557 -0.0964 -0.6362  0.3061
 8061SOL    HW135645   2.117   1.015   9.574 -0.6084  1.8594  0.7244
 8061SOL    HW235646   2.011   0.907   9.580  2.5186 -0.8257  1.0611
 8062SOL     OW35647   0.396   1.082  15.213 -0.1399  0.0449 -0.5918
 8062SOL    HW135648   0.307   1.115  15.215 -0.5786 -1.1672 -0.0207
 8062SOL    HW235649   0.404   1.007  15.272 -1.1440  0.5161  0.1310
 8063SOL     OW35650   2.844   3.140   5.508 -0.3549 -0.7344  0.5099
 8063SOL    HW135651   2.934   3.142   5.540 -0.5779  0.7050  1.0527
 8063SOL    HW235652   2.835   3.227   5.469  0.3892 -0.6628  0.5014
 8064SOL     OW35653   2.964   0.333   2.824 -0.8583  0.3156 -0.0213
 8064SOL    HW135654   3.025   0.403   2.847 -0.6461  1.3744 -3.8407
 8064SOL    HW235655   2.884   0.375   2.855 -0.2662 -0.7728  2.9803
 8065SOL     OW35656   2.740   4.639  10.668 -0.0212 -0.2081  0.7561
 8065SOL    HW135657   2.699   4.588  10.598  3.5320 -0.7946 -0.8635
 8065SOL    HW235658   2.752   4.569  10.732  0.0650 -2.3096 -1.5560
 8066SOL     OW35659   2.882   3.148   1.443 -0.0805  0.6070  0.4028
 8066SOL    HW135660   2.943   3.075   1.453 -0.1650  0.5641  0.6223
 8066SOL    HW235661   2.818   3.132   1.513 -0.4891 -0.4138 -0.2132
 8067SOL     OW35662   2.751   0.519   6.291  0.0318 -0.5003 -0.1663
 8067SOL    HW135663   2.703   0.539   6.371  0.0417 -0.2104 -0.2322
 8067SOL    HW235664   2.793   0.604   6.273  1.1798 -1.1085 -0.3651
 8068SOL     OW35665   2.443   2.108  12.244  0.1884 -0.1316  0.2937
 8068SOL    HW135666   2.482   2.024  12.218  0.5943 -0.3115  1.4764
 8068SOL    HW235667   2.493   2.175  12.197  0.0592 -1.2376 -1.4329
 8069SOL     OW35668   1.160   3.042   0.621 -0.8470  0.0796 -0.4385
 8069SOL    HW135669   1.227   3.014   0.559  1.5110  0.2906  2.0342
 8069SOL    HW235670   1.209   3.053   0.702 -0.8450  0.2057 -0.4563
 8070SOL     OW35671   0.236   3.193   7.472 -0.2751 -0.0482 -0.2440
 8070SOL    HW135672   0.259   3.187   7.379 -0.0465  1.6283 -0.3025
 8070SOL    HW235673   0.319   3.216   7.515  0.8174 -2.0785 -1.2960
 8071SOL     OW35674   1.934   4.418   5.218 -0.3098  0.1734  0.1237
 8071SOL    HW135675   2.012   4.369   5.244  0.5873  0.7973 -1.4042
 8071SOL    HW235676   1.883   4.404   5.298 -1.5254  1.2494 -0.4700
 8072SOL     OW35677   4.533   4.253   4.430 -0.0180  0.2780  0.4985
 8072SOL    HW135678   4.483   4.191   4.378  0.5138  1.9639 -2.0478
 8072SOL    HW235679   4.484   4.333   4.410  0.3288  0.1428 -0.8775
 8073SOL     OW35680   4.176   2.337   5.313 -0.3212 -0.6245 -0.0227
 8073SOL    HW135681   4.138   2.370   5.232  1.4720  1.4930  0.0132
 8073SOL    HW235682   4.270   2.331   5.294 -0.7195 -1.3720 -1.7146
 8074SOL     OW35683   2.602   1.997   5.952  0.4121 -0.2577  0.1315
 8074SOL    HW135684   2.540   1.954   5.893  1.8401 -1.0397 -0.7929
 8074SOL    HW235685   2.682   1.985   5.900 -1.5313  1.5084 -3.2510
 8075SOL     OW35686   2.241   2.554   4.912 -0.0980  0.3089  0.6697
 8075SOL    HW135687   2.212   2.508   4.990 -0.0811 -0.6913  0.0876
 8075SOL    HW235688   2.330   2.578   4.939 -0.0861 -0.4539  1.3019
 8076SOL     OW35689   2.599   0.090   7.763 -0.9389  0.4753  0.0624
 8076SOL    HW135690   2.591   0.163   7.824  0.0533  0.4378  0.2330
 8076SOL    HW235691   2.579   0.015   7.820 -0.3257 -0.0597 -0.4325
 8077SOL     OW35692   2.564   4.554  12.482  0.0776  0.4425 -0.1460
 8077SOL    HW135693   2.608   4.513  12.408  0.2056 -1.5532  1.0327
 8077SOL    HW235694   2.509   4.485  12.519  0.0350  0.4902 -0.1194
 8078SOL     OW35695   3.701   3.046   3.326 -0.1770 -0.0753  0.0508
 8078SOL    HW135696   3.722   3.129   3.283  0.1838  0.2665  0.8962
 8078SOL    HW235697   3.737   3.067   3.412 -0.4189 -1.1003  0.4057
 8079SOL     OW35698   4.097   0.706  11.471  0.9190 -0.2293  0.3054
 8079SOL    HW135699   4.008   0.708  11.437 -0.1172  2.1088  3.1743
 8079SOL    HW235700   4.114   0.800  11.471 -0.0886 -0.0646 -1.2253
 8080SOL     OW35701   0.745   2.420   7.870 -0.3119 -0.1263 -0.0128
 8080SOL    HW135702   0.683   2.378   7.811  1.6078  1.5254 -3.1758
 8080SOL    HW235703   0.739   2.362   7.946 -0.3589 -1.5269 -1.0897
 8081SOL     OW35704   3.788   3.144   1.248 -0.6646  0.3218  0.5117
 8081SOL    HW135705   3.828   3.062   1.219 -1.0677  0.1274  0.5032
 8081SOL    HW235706   3.846   3.168   1.321 -1.4797  0.7240  1.0279
 8082SOL     OW35707   3.838   3.485   6.224 -0.3797 -0.3028  0.2375
 8082SOL    HW135708   3.881   3.563   6.261  0.4287 -0.3283 -0.6541
 8082SOL    HW235709   3.899   3.420   6.259  1.2264  0.3782 -1.2474
 8083SOL     OW35710   4.183   3.037   6.791  0.0241  0.3941  0.0380
 8083SOL    HW135711   4.222   3.124   6.802  0.0069  0.2096  1.5392
 8083SOL    HW235712   4.100   3.054   6.746 -0.0923 -0.8487 -0.2119
 8084SOL     OW35713   2.387   1.687   8.169 -0.1201 -0.0727 -0.2043
 8084SOL    HW135714   2.399   1.595   8.191 -0.1765  0.3346  1.5210
 8084SOL    HW235715   2.326   1.713   8.238  2.7525 -1.6716  2.9238
 8085SOL     OW35716   0.285   2.089   4.118  0.0523  0.0901 -0.2375
 8085SOL    HW135717   0.245   2.121   4.198  0.1878  0.2618 -0.2402
 8085SOL    HW235718   0.302   1.995   4.129 -0.7616 -0.3033 -2.2889
 8086SOL     OW35719   0.939   2.405  11.489 -0.0874  0.2212  0.3414
 8086SOL    HW135720   0.882   2.482  11.490  0.5457  0.6989 -0.3034
 8086SOL    HW235721   0.916   2.355  11.567 -1.7176 -0.9505 -0.8732
 8087SOL     OW35722   3.237   2.554  16.699 -0.0561 -0.0792  0.0779
 8087SOL    HW135723   3.178   2.613  16.746  1.2275  1.2734  0.0000
 8087SOL    HW235724   3.196   2.471  16.723 -0.3075  0.2293  0.7291
 8088SOL     OW35725   2.673   0.414   4.449 -0.3830 -0.3236 -0.1415
 8088SOL    HW135726   2.717   0.462   4.378 -2.8832 -0.3132 -1.7027
 8088SOL    HW235727   2.750   0.389   4.500  0.1249  2.0063  0.2505
 8089SOL     OW35728   4.294   1.733   7.233 -0.2069  0.2881 -0.2082
 8089SOL    HW135729   4.229   1.702   7.170  1.3053 -0.6267 -1.3107
 8089SOL    HW235730   4.372   1.759   7.184  0.8046 -3.6278 -0.6533
 8090SOL     OW35731   2.804   0.183   0.289 -0.3437  0.0912  0.0475
 8090SOL    HW135732   2.869   0.206   0.223 -0.5684  1.9757  0.4958
 8090SOL    HW235733   2.740   0.253   0.291  0.5316  0.8842  0.2472
 8091SOL     OW35734   3.273   2.496   6.175  0.1972  0.6245  0.1201
 8091SOL    HW135735   3.334   2.541   6.116  0.5219 -1.2674 -0.9801
 8091SOL    HW235736   3.262   2.412   6.130 -0.6245 -0.2572  1.9590
 8092SOL     OW35737   0.209   1.191   6.973  0.2117  0.3667 -0.1390
 8092SOL    HW135738   0.155   1.269   6.991  0.1878 -0.1415  2.0346
 8092SOL    HW235739   0.299   1.222   6.978  0.1201  0.9540 -2.0288
 8093SOL     OW35740   2.171   3.886   4.396 -0.2930 -0.6465  0.0386
 8093SOL    HW135741   2.092   3.897   4.343 -1.5887 -0.9725  1.9146
 8093SOL    HW235742   2.227   3.829   4.343  1.3333  0.6108  0.3994
 8094SOL     OW35743   2.146   3.735  13.493 -0.2525 -0.2915 -0.2719
 8094SOL    HW135744   2.074   3.709  13.549 -0.4082  1.1734  0.2062
 8094SOL    HW235745   2.158   3.659  13.437 -2.7766 -1.7692  1.2171
 8095SOL     OW35746   1.660   2.242   5.343 -0.0691 -0.2250  0.0203
 8095SOL    HW135747   1.725   2.191   5.293  0.4371  0.3698  0.0792
 8095SOL    HW235748   1.578   2.205   5.310  0.3466 -0.1408 -1.1237
 8096SOL     OW35749   3.492   2.008  10.563  0.7713  0.6990  0.1462
 8096SOL    HW135750   3.576   2.038  10.596  1.4395  0.0189 -0.9608
 8096SOL    HW235751   3.440   2.021  10.643 -0.6286 -0.3340 -0.5946
 8097SOL     OW35752   4.132   2.873  11.149  0.3219 -0.1761  0.1892
 8097SOL    HW135753   4.171   2.807  11.093  1.1291 -0.4828  1.1165
 8097SOL    HW235754   4.165   2.952  11.106  1.5033 -1.3954 -1.1341
 8098SOL     OW35755   2.602   1.088   2.382  0.4641 -0.1204 -0.7701
 8098SOL    HW135756   2.540   1.160   2.392 -0.7613 -1.2349 -0.3644
 8098SOL    HW235757   2.576   1.043   2.302 -0.6503  2.7641 -2.0405
 8099SOL     OW35758   2.251   2.206   0.409 -0.2991  0.1653 -0.4776
 8099SOL    HW135759   2.281   2.297   0.414 -2.8157  1.0191 -1.1140
 8099SOL    HW235760   2.288   2.180   0.324  0.4411  0.2850 -0.1934
 8100SOL     OW35761   3.016   3.665   3.009  0.1688  0.8216  0.2851
 8100SOL    HW135762   2.931   3.645   2.970  0.7734 -0.9166 -0.1480
 8100SOL    HW235763   3.076   3.613   2.956 -0.2349 -1.0861  1.7145
 8101SOL     OW35764   0.473   1.379   9.943  0.9176 -0.3020 -0.0977
 8101SOL    HW135765   0.382   1.376   9.975  1.2812 -1.4842  0.7999
 8101SOL    HW235766   0.463   1.367   9.849 -0.6599 -1.2811  0.1872
 8102SOL     OW35767   0.701   2.140  14.858  0.3561  0.5420 -0.3620
 8102SOL    HW135768   0.764   2.132  14.786  0.6011  1.1489 -0.2110
 8102SOL    HW235769   0.756   2.125  14.935  0.1192  1.4538 -0.0111
 8103SOL     OW35770   3.081   1.462   5.606  0.4011  0.2010  0.0823
 8103SOL    HW135771   3.161   1.498   5.568 -0.9008  0.6471 -2.2626
 8103SOL    HW235772   3.046   1.413   5.531 -2.7326  1.5511  0.6297
 8104SOL     OW35773   1.302   4.395   3.154 -0.2873 -0.0459 -0.6518
 8104SOL    HW135774   1.346   4.478   3.135  0.6397 -0.2955  0.4163
 8104SOL    HW235775   1.242   4.395   3.079  0.9190  1.0942 -1.5969
 8105SOL     OW35776   0.361   1.688  12.513  0.2772  0.1469 -0.3351
 8105SOL    HW135777   0.301   1.762  12.529  0.1792  0.2511 -1.1715
 8105SOL    HW235778   0.302   1.622  12.550  0.4131  0.3826  0.3017
 8106SOL     OW35779   3.131   2.595   5.900  0.6853 -0.0249  0.3157
 8106SOL    HW135780   3.170   2.682   5.905 -1.8651  1.0496  1.4578
 8106SOL    HW235781   3.107   2.595   5.808 -1.7056 -2.7349  0.9507
 8107SOL     OW35782   0.508   4.153   7.288 -0.1131 -0.0196 -0.1741
 8107SOL    HW135783   0.596   4.190   7.282 -0.5364  1.1444  0.7861
 8107SOL    HW235784   0.518   4.080   7.227 -1.8250 -1.1852  0.9448
 8108SOL     OW35785   2.425   2.229  12.875 -0.2879 -0.0200 -0.1817
 8108SOL    HW135786   2.489   2.170  12.913  1.8924  1.4961 -1.4941
 8108SOL    HW235787   2.416   2.186  12.790  0.7398  2.1415 -1.3814
 8109SOL     OW35788   1.023   0.190   2.516 -0.1001 -0.3001  0.4775
 8109SOL    HW135789   1.079   0.204   2.441 -0.5426  0.7645  0.3565
 8109SOL    HW235790   1.036   0.275   2.557 -0.8306 -0.4510  1.0367
 8110SOL     OW35791   3.185   3.735   7.517 -0.1813 -0.0515 -0.0447
 8110SOL    HW135792   3.273   3.696   7.515 -0.9367 -1.8231  0.7404
 8110SOL    HW235793   3.169   3.739   7.612  2.1790 -1.8016  0.4435
 8111SOL     OW35794   1.986   3.764  11.599 -0.0305  0.6114  0.6408
 8111SOL    HW135795   2.014   3.824  11.669 -0.4073  1.5190  0.0063
 8111SOL    HW235796   2.070   3.765  11.554  0.4866 -0.4910  1.5860
 8112SOL     OW35797   0.898   3.856   6.072 -0.2851  0.3004  0.5259
 8112SOL    HW135798   0.882   3.762   6.079  0.6353  0.1032 -0.1315
 8112SOL    HW235799   0.908   3.864   5.978  0.3153  0.9293  0.6379
 8113SOL     OW35800   0.209   4.151   8.447  0.4668  0.2173  0.6057
 8113SOL    HW135801   0.139   4.203   8.408  1.5604  1.8799  0.8419
 8113SOL    HW235802   0.278   4.142   8.381 -1.9818  3.0940 -2.3992
 8114SOL     OW35803   3.493   4.388   3.461 -0.1122 -0.0644 -0.4941
 8114SOL    HW135804   3.526   4.298   3.452 -2.2481 -1.0978  2.0010
 8114SOL    HW235805   3.558   4.444   3.419  1.7064 -1.8707 -0.0894
 8115SOL     OW35806   2.445   1.408   5.044  0.2211  0.2399  0.3559
 8115SOL    HW135807   2.416   1.328   5.001 -0.8646  0.3745  0.8498
 8115SOL    HW235808   2.421   1.460   4.967 -0.2505  0.3287  0.5642
 8116SOL     OW35809   4.123   0.040   1.837  0.4303  0.4758 -0.0473
 8116SOL    HW135810   4.038   0.019   1.876  0.1500  0.5173 -0.6292
 8116SOL    HW235811   4.094   0.070   1.751  0.4764 -0.0800 -0.2565
 8117SOL     OW35812   2.908   0.002   6.474  0.1681  0.2423  0.0777
 8117SOL    HW135813   2.859   4.642   6.470 -0.1262  0.4209  0.0710
 8117SOL    HW235814   2.846   0.066   6.508 -1.2917 -1.4811  0.6531
 8118SOL     OW35815   2.091   1.542   2.764  0.1390  0.0328  0.3061
 8118SOL    HW135816   2.034   1.472   2.796  1.2757 -1.2047 -0.3850
 8118SOL    HW235817   2.074   1.550   2.670  1.4585  0.9455  0.1525
 8119SOL     OW35818   3.862   1.736   8.856  0.0569 -0.3873 -0.2437
 8119SOL    HW135819   3.840   1.701   8.769  0.1992 -1.8219  0.3004
 8119SOL    HW235820   3.935   1.793   8.833 -1.2104  0.6999 -1.5933
 8120SOL     OW35821   0.448   2.429  14.117  0.2162  0.4720 -0.1441
 8120SOL    HW135822   0.522   2.435  14.057  0.1335  0.2925 -0.2636
 8120SOL    HW235823   0.505   2.405  14.190 -0.9340 -1.5139  0.0733
 8121SOL     OW35824   0.191   2.471  14.173  0.0539 -0.0620  0.7430
 8121SOL    HW135825   0.160   2.398  14.227 -1.0856 -1.4129 -1.7352
 8121SOL    HW235826   0.281   2.447  14.155  0.1518  0.9304 -0.1623
 8122SOL     OW35827   0.408   2.157   0.961  0.0940 -0.1853  0.0335
 8122SOL    HW135828   0.495   2.191   0.939  0.6041 -0.5588  1.4743
 8122SOL    HW235829   0.448   2.110   1.034 -0.0712  2.1670  1.6347
 8123SOL     OW35830   1.236   0.884   4.937 -0.5319 -0.1709 -0.2592
 8123SOL    HW135831   1.219   0.915   5.026 -0.1740 -3.0671  0.8209
 8123SOL    HW235832   1.181   0.938   4.879 -2.0423 -1.2419  0.1624
 8124SOL     OW35833   4.642   1.314   8.756 -0.0946  0.2598  0.2793
 8124SOL    HW135834   4.703   1.362   8.812  0.2229 -0.3224  0.4251
 8124SOL    HW235835   4.664   1.360   8.675  0.4296 -0.6816 -0.1136
 8125SOL     OW35836   3.173   3.589   6.152 -0.2287  0.2781 -0.6726
 8125SOL    HW135837   3.266   3.568   6.143  0.1473  1.6496 -0.0827
 8125SOL    HW235838   3.178   3.682   6.130  3.0580  0.3101  0.1597
 8126SOL     OW35839   3.383   3.849   4.427 -0.3204  0.5933 -0.1618
 8126SOL    HW135840   3.335   3.912   4.373 -0.1033 -0.0434 -1.0933
 8126SOL    HW235841   3.447   3.819   4.363 -0.9337 -0.8605 -0.0818
 8127SOL     OW35842   4.430   1.263   5.750 -0.6867  0.5785 -0.9645
 8127SOL    HW135843   4.472   1.304   5.675 -0.9538 -0.1854 -1.5264
 8127SOL    HW235844   4.439   1.337   5.811  0.6261 -0.3006 -0.1029
 8128SOL     OW35845   1.569   1.561   2.803  0.1367  0.2611  0.1895
 8128SOL    HW135846   1.510   1.486   2.803 -0.3716  0.6548 -1.1980
 8128SOL    HW235847   1.510   1.635   2.821  0.8610  0.7750  0.4513
 8129SOL     OW35848   1.718   1.592   8.177 -0.1065 -0.1195 -0.0788
 8129SOL    HW135849   1.711   1.618   8.085  0.8267  0.1077 -0.0842
 8129SOL    HW235850   1.811   1.595   8.196 -0.2880  1.2599  0.6113
 8130SOL     OW35851   4.408   2.943   9.845 -0.4256  0.3894 -0.4229
 8130SOL    HW135852   4.438   2.868   9.898  0.7451 -0.2031 -1.9384
 8130SOL    HW235853   4.419   2.903   9.759 -0.9353  1.4614 -0.9849
 8131SOL     OW35854   3.165   4.381   9.037 -0.1421  0.1381 -0.3931
 8131SOL    HW135855   3.187   4.326   9.113  0.1310  0.3366 -0.3299
 8131SOL    HW235856   3.093   4.329   8.999  0.8018 -0.5954 -1.1638
 8132SOL     OW35857   2.022   1.108   6.098 -0.1502 -0.1145  0.2447
 8132SOL    HW135858   1.991   1.022   6.128 -0.0456  0.1926  1.2262
 8132SOL    HW235859   1.987   1.158   6.171  0.6587 -1.0150  1.2413
 8133SOL     OW35860   1.050   0.157   5.969 -0.4301  0.1036  0.7751
 8133SOL    HW135861   0.955   0.172   5.967 -0.2749  0.9009 -0.4438
 8133SOL    HW235862   1.059   0.062   5.972 -1.0055  0.0674  1.4505
 8134SOL     OW35863   3.601   2.687  13.800  0.0313  0.0458 -0.5469
 8134SOL    HW135864   3.697   2.684  13.805  0.0538 -0.0899 -1.0163
 8134SOL    HW235865   3.584   2.707  13.707 -1.7174  1.1422  0.0126
 8135SOL     OW35866   3.816   1.891   2.892 -0.2331 -0.3791  0.0115
 8135SOL    HW135867   3.897   1.909   2.941 -0.5874  1.2201  0.0118
 8135SOL    HW235868   3.791   1.984   2.896 -2.5848 -1.1030  1.9650
 8136SOL     OW35869   1.282   2.539   1.746 -0.3080  0.0103  0.1547
 8136SOL    HW135870   1.193   2.527   1.714  0.2720  1.7472 -2.0659
 8136SOL    HW235871   1.327   2.535   1.662  0.2189  1.3199  0.3764
 8137SOL     OW35872   2.918   2.240   6.418 -0.2758  0.4069  0.4827
 8137SOL    HW135873   2.850   2.217   6.354  0.5212  0.6039 -0.4331
 8137SOL    HW235874   2.871   2.311   6.461 -2.9335 -0.4981 -0.8732
 8138SOL     OW35875   2.334   0.878   8.345  0.2311 -0.0958 -0.3741
 8138SOL    HW135876   2.254   0.826   8.345  1.4772 -1.9961 -1.8450
 8138SOL    HW235877   2.301   0.965   8.367 -2.3242 -1.3367  0.6911
 8139SOL     OW35878   1.365   3.273  12.944 -0.2446  0.3785  0.1378
 8139SOL    HW135879   1.443   3.329  12.945  0.5938 -0.8303  1.3124
 8139SOL    HW235880   1.360   3.242  13.034 -2.7498 -1.2149 -0.5377
 8140SOL     OW35881   0.524   0.696   2.637 -0.8184 -0.3723  0.5257
 8140SOL    HW135882   0.558   0.655   2.558 -0.4277  1.6092 -0.3255
 8140SOL    HW235883   0.544   0.630   2.703 -0.9896 -0.5320  0.4167
 8141SOL     OW35884   0.293   1.262   3.808  0.1910  0.8709 -0.3801
 8141SOL    HW135885   0.229   1.205   3.764  0.7066  1.0244 -1.3265
 8141SOL    HW235886   0.308   1.197   3.877  2.9135  0.3063 -1.5171
 8142SOL     OW35887   3.087   4.240  10.355 -0.0054 -0.2403 -0.1054
 8142SOL    HW135888   3.075   4.146  10.342 -0.6614 -0.1295 -0.3089
 8142SOL    HW235889   3.107   4.263  10.265  1.3005 -0.9047  0.0090
 8143SOL     OW35890   2.037   2.742   5.045 -0.4683 -0.2868 -0.1979
 8143SOL    HW135891   2.117   2.790   5.023  0.0934 -0.1204  2.2366
 8143SOL    HW235892   2.011   2.716   4.957  1.2352 -1.1915 -0.4383
 8144SOL     OW35893   3.798   2.938   4.811 -0.4706  0.0296 -0.5242
 8144SOL    HW135894   3.831   2.869   4.753  2.2361  3.5339 -3.1443
 8144SOL    HW235895   3.839   3.015   4.772 -0.2045  1.2934  2.3313
 8145SOL     OW35896   1.477   0.660  11.988 -0.5792  0.4145 -0.1974
 8145SOL    HW135897   1.398   0.644  11.936 -0.7728  0.5524  0.0581
 8145SOL    HW235898   1.540   0.605  11.941 -1.5792 -1.4319  0.5930
 8146SOL     OW35899   3.244   0.333   8.416 -0.1512  0.1400  0.1688
 8146SOL    HW135900   3.296   0.346   8.496 -0.8064 -0.2326  0.6632
 8146SOL    HW235901   3.302   0.266   8.380  0.6811 -0.3077  2.3395
 8147SOL     OW35902   2.804   3.890   4.332 -0.5799  0.0319 -0.0384
 8147SOL    HW135903   2.799   3.811   4.278  1.8981 -0.9337  1.1800
 8147SOL    HW235904   2.788   3.841   4.412  0.2572  0.4211  0.3729
 8148SOL     OW35905   0.508   4.031   4.987 -0.0582  0.1527  0.4899
 8148SOL    HW135906   0.512   4.097   4.917 -0.0810  1.4944  1.7599
 8148SOL    HW235907   0.418   3.999   4.978  0.2078 -0.4534 -0.0366
 8149SOL     OW35908   0.612   2.121   2.466  0.1052 -0.0662  0.7419
 8149SOL    HW135909   0.608   2.052   2.400 -1.2075  0.3489  0.3768
 8149SOL    HW235910   0.704   2.147   2.461  0.5464 -2.0210 -1.3115
 8150SOL     OW35911   3.342   3.615  11.704  0.2286  0.1151  0.3059
 8150SOL    HW135912   3.333   3.561  11.783 -0.0496  0.0483  0.2257
 8150SOL    HW235913   3.325   3.702  11.741 -0.8824 -1.0883  2.6107
 8151SOL     OW35914   1.820   4.291  16.259 -0.1509  0.1286  0.9276
 8151SOL    HW135915   1.859   4.368  16.299  1.5846 -0.0276 -0.4803
 8151SOL    HW235916   1.772   4.325  16.182  0.5387  0.0085  0.4491
 8152SOL     OW35917   1.830   4.585   6.414 -0.4832 -0.2668 -0.3991
 8152SOL    HW135918   1.844   4.569   6.507  0.4834  1.3727 -0.2621
 8152SOL    HW235919   1.739   4.559   6.399 -0.1824 -0.4284 -1.9367
 8153SOL     OW35920   3.177   0.780   4.734 -0.2259 -0.3002  0.5326
 8153SOL    HW135921   3.272   0.770   4.725 -0.6377 -2.7583 -1.0823
 8153SOL    HW235922   3.148   0.695   4.767 -1.3294 -0.1315 -0.0223
 8154SOL     OW35923   2.983   1.905   2.491 -0.2028  0.1834 -0.2982
 8154SOL    HW135924   2.958   1.813   2.500  1.2282 -0.1576  0.2383
 8154SOL    HW235925   3.040   1.893   2.415  1.0796 -0.0875  0.7028
 8155SOL     OW35926   1.155   2.948   6.824  0.4477  0.7321  0.1547
 8155SOL    HW135927   1.224   3.013   6.810  1.9424 -0.7275  0.6523
 8155SOL    HW235928   1.160   2.887   6.751 -1.2535 -0.2063  0.8298
 8156SOL     OW35929   0.359   2.795  11.322  0.4143 -0.2784 -0.2515
 8156SOL    HW135930   0.363   2.767  11.230  1.5841 -1.6915  0.2143
 8156SOL    HW235931   0.418   2.870  11.317 -0.4517  0.4990  1.3016
 8157SOL     OW35932   1.898   1.748   3.205 -0.0167 -0.2065 -0.5148
 8157SOL    HW135933   1.822   1.732   3.149  0.0371 -1.5687 -0.1860
 8157SOL    HW235934   1.965   1.772   3.141  0.0855  1.9392  0.3792
 8158SOL     OW35935   3.956   4.593   7.403 -0.0441  0.0593  0.0032
 8158SOL    HW135936   4.045   4.562   7.418  0.1414  1.7495  2.4284
 8158SOL    HW235937   3.966   4.686   7.427  0.9513  0.1563 -0.7794
 8159SOL     OW35938   4.585   2.385   0.462 -0.1541  0.2978 -0.0849
 8159SOL    HW135939   4.576   2.469   0.417 -2.8791 -0.8306 -1.6376
 8159SOL    HW235940   4.546   2.327   0.397 -0.1157  0.6847 -0.4532
 8160SOL     OW35941   3.346   4.424   1.778  0.1055  0.0196  0.2054
 8160SOL    HW135942   3.399   4.409   1.700 -0.0199  1.1765 -0.0927
 8160SOL    HW235943   3.271   4.379   1.738  0.0781  1.1119 -0.9733
 8161SOL     OW35944   0.417   4.379   3.287 -1.0328  0.6021  0.2502
 8161SOL    HW135945   0.460   4.412   3.366  2.2984 -0.8787 -0.9769
 8161SOL    HW235946   0.338   4.336   3.319 -1.8491  2.3055  0.5347
 8162SOL     OW35947   2.198   3.032   5.257 -0.2278  0.2303 -0.6219
 8162SOL    HW135948   2.182   2.995   5.170  1.1501  1.7662 -1.5290
 8162SOL    HW235949   2.237   3.118   5.243 -0.5387  0.8394  2.2297
 8163SOL     OW35950   0.518   2.903   8.584 -0.2192  0.3747 -0.0223
 8163SOL    HW135951   0.537   2.970   8.518  3.0615  0.5386  1.0773
 8163SOL    HW235952   0.454   2.944   8.642  1.2994  0.3611  1.6592
 8164SOL     OW35953   0.341   0.940   5.685 -0.2772 -0.0466 -0.1595
 8164SOL    HW135954   0.327   1.032   5.708 -1.2829  0.4166 -2.5849
 8164SOL    HW235955   0.294   0.897   5.757 -0.3647 -0.3199 -0.3778
 8165SOL     OW35956   3.333   1.465   4.294 -0.2323 -0.6330  0.3090
 8165SOL    HW135957   3.239   1.478   4.306  0.0023  0.5831  0.8248
 8165SOL    HW235958   3.351   1.495   4.205  0.4078  2.1452  1.3898
 8166SOL     OW35959   2.501   0.541   3.077  0.0543 -0.0072 -0.8499
 8166SOL    HW135960   2.419   0.517   3.034 -0.8737  1.4703  0.0954
 8166SOL    HW235961   2.531   0.619   3.030 -1.6689  0.8232 -0.5487
 8167SOL     OW35962   4.061   1.194   3.449 -0.4188  0.2833 -1.2261
 8167SOL    HW135963   4.036   1.154   3.366  0.0121 -2.4860 -0.0171
 8167SOL    HW235964   4.031   1.123   3.506  0.4154  0.7283 -0.2297
 8168SOL     OW35965   1.105   2.787   4.052  0.2600 -0.1930  0.5169
 8168SOL    HW135966   1.040   2.855   4.033  2.5568  0.9187 -3.2672
 8168SOL    HW235967   1.173   2.839   4.095  0.0554  0.5860 -0.0905
 8169SOL     OW35968   3.934   2.738   7.276  0.3138 -0.0633 -0.1929
 8169SOL    HW135969   3.987   2.719   7.354 -0.4146  0.7832  0.5095
 8169SOL    HW235970   4.006   2.764   7.218  0.7061  0.0682  0.3459
 8170SOL     OW35971   1.875   4.199   2.207 -0.6516 -0.3840  0.5027
 8170SOL    HW135972   1.883   4.208   2.302 -0.9900 -1.8311  0.6592
 8170SOL    HW235973   1.779   4.208   2.209 -0.6567 -0.4567  0.5812
 8171SOL     OW35974   2.338   0.135   8.849 -0.4104 -0.0195  0.1333
 8171SOL    HW135975   2.258   0.140   8.903  0.6760 -0.9504  1.8109
 8171SOL    HW235976   2.355   0.229   8.846  1.8064 -0.3674  1.7368
 8172SOL     OW35977   1.965   3.995   7.519  0.3773 -0.4033 -0.1876
 8172SOL    HW135978   2.022   3.923   7.547 -0.3307 -1.2088 -0.8445
 8172SOL    HW235979   1.922   3.965   7.440 -0.8801  0.6271  0.1133
 8173SOL     OW35980   0.240   0.533   7.029 -0.2904  0.6591  0.1418
 8173SOL    HW135981   0.206   0.510   6.943  0.4905  0.7097 -0.1838
 8173SOL    HW235982   0.164   0.558   7.082 -1.5662 -1.1608 -0.8171
 8174SOL     OW35983   0.182   4.082   7.795  0.7825 -0.6894 -0.5365
 8174SOL    HW135984   0.267   4.090   7.837 -0.5515  0.7606  1.8530
 8174SOL    HW235985   0.133   4.044   7.868  1.0084 -0.0392 -0.0525
 8175SOL     OW35986   2.128   3.184   2.145  0.2859 -0.1209 -0.4310
 8175SOL    HW135987   2.134   3.212   2.054 -1.6500  0.4509 -0.3872
 8175SOL    HW235988   2.057   3.120   2.138 -0.3042  0.4850 -0.0041
 8176SOL     OW35989   2.935   3.703   1.345 -0.3011 -0.9388  0.1251
 8176SOL    HW135990   2.918   3.772   1.281 -1.3225  1.6302  3.1201
 8176SOL    HW235991   2.959   3.639   1.278 -2.0838  0.0528 -1.4320
 8177SOL     OW35992   3.018   4.634   4.936 -1.0179  0.1828  0.2621
 8177SOL    HW135993   3.064   4.718   4.929 -0.7602  0.1472  1.5670
 8177SOL    HW235994   3.069   4.578   4.878 -1.0442 -0.8273  1.2149
 8178SOL     OW35995   2.662   3.946   2.310 -0.4088  0.7476  0.4488
 8178SOL    HW135996   2.670   4.040   2.325 -0.4738  0.3617  2.8452
 8178SOL    HW235997   2.680   3.943   2.216 -3.9002 -2.2048 -0.1276
 8179SOL     OW35998   1.733   4.547   3.049 -0.0266  0.1233 -0.0138
 8179SOL    HW135999   1.789   4.479   3.085 -0.9190 -0.5778  0.0602
 8179SOL    HW236000   1.743   4.611   3.121  0.6241 -1.2486  1.1074
 8180SOL     OW36001   4.425   0.800   2.784 -0.0280 -0.1344 -0.2592
 8180SOL    HW136002   4.395   0.795   2.874  2.1679  1.6592  0.5725
 8180SOL    HW236003   4.345   0.805   2.731 -0.5942 -0.1524  0.5923
 8181SOL     OW36004   3.252   2.854   5.880 -0.0907  1.2321  0.0494
 8181SOL    HW136005   3.216   2.880   5.795 -1.6829 -3.8754 -0.8365
 8181SOL    HW236006   3.284   2.939   5.911 -0.1505  1.4312 -0.4349
 8182SOL     OW36007   3.807   0.189   9.530 -0.1978  0.5285 -0.1570
 8182SOL    HW136008   3.822   0.234   9.447  0.0720 -1.7288 -1.3269
 8182SOL    HW236009   3.854   0.109   9.507 -0.0302  1.1207 -1.8471
 8183SOL     OW36010   4.563   4.452   5.365 -0.2559 -0.0228 -0.3598
 8183SOL    HW136011   4.506   4.509   5.416  1.9752  1.2214  0.7366
 8183SOL    HW236012   4.525   4.472   5.279  3.2240  2.4993 -1.3259
 8184SOL     OW36013   1.019   3.797   2.031  0.1757 -0.5013  0.3345
 8184SOL    HW136014   0.944   3.787   1.972  0.6016  0.2656 -0.3216
 8184SOL    HW236015   0.986   3.870   2.083  1.0656  0.8149 -0.9505
 8185SOL     OW36016   2.421   1.832  11.340 -0.7659 -0.4035  0.1086
 8185SOL    HW136017   2.403   1.921  11.371 -0.4371  0.2853 -1.6903
 8185SOL    HW236018   2.452   1.859  11.254  2.6260 -0.0094  1.4668
 8186SOL     OW36019   0.983   0.125   5.494  0.2018  0.8955 -0.5284
 8186SOL    HW136020   1.039   0.125   5.417  0.6216 -0.0855 -0.2207
 8186SOL    HW236021   0.965   0.031   5.489 -2.3418  1.3348  0.4286
 8187SOL     OW36022   3.614   0.860  11.213  0.4617  0.1060 -0.2969
 8187SOL    HW136023   3.601   0.936  11.156  1.9039 -0.8608 -1.9070
 8187SOL    HW236024   3.563   0.799  11.159 -0.2667  1.6375 -1.3614
 8188SOL     OW36025   1.749   0.623   7.193 -0.1333 -0.4919 -0.1812
 8188SOL    HW136026   1.824   0.649   7.139 -1.1232  0.8666 -0.8815
 8188SOL    HW236027   1.704   0.580   7.120  0.1282  0.2645 -0.7784
 8189SOL     OW36028   2.614   2.892   4.720  0.1360  0.3906 -0.2930
 8189SOL    HW136029   2.659   2.937   4.791  2.5921 -1.4443 -0.7016
 8189SOL    HW236030   2.623   2.949   4.644 -1.8034  1.4574  0.2635
 8190SOL     OW36031   1.336   4.460   5.552  0.3950 -0.5968  0.3610
 8190SOL    HW136032   1.422   4.472   5.511 -0.5510 -0.7608 -1.6905
 8190SOL    HW236033   1.293   4.533   5.506 -0.2979 -2.7778 -2.4258
 8191SOL     OW36034   4.545   3.740   4.786  0.5513  0.3268  0.6193
 8191SOL    HW136035   4.640   3.735   4.790  0.4934 -1.7445 -0.9992
 8191SOL    HW236036   4.541   3.771   4.696  2.6001 -0.1424  0.3671
 8192SOL     OW36037   3.441   3.515   6.157 -0.0654  0.1230 -0.1273
 8192SOL    HW136038   3.496   3.444   6.124 -2.4304 -0.6982 -2.2813
 8192SOL    HW236039   3.448   3.493   6.250 -0.6351  0.9169  0.1105
 8193SOL     OW36040   4.386   0.086   9.784 -0.2324 -0.5023  0.1815
 8193SOL    HW136041   4.324   0.094   9.711  0.2489 -0.1851 -0.1906
 8193SOL    HW236042   4.324   0.078   9.857 -1.5160 -0.0847 -0.8532
 8194SOL     OW36043   4.165   3.466   3.968  0.3895  0.6038 -0.3487
 8194SOL    HW136044   4.217   3.438   4.043  1.3399 -0.2415 -1.3326
 8194SOL    HW236045   4.189   3.559   3.960 -2.6631  1.3700 -0.8636
 8195SOL     OW36046   1.945   1.910  14.582 -0.7922  0.1934  0.4117
 8195SOL    HW136047   2.005   1.862  14.525 -0.6103 -0.1209  0.8705
 8195SOL    HW236048   1.956   1.987  14.527  0.5348 -0.4761 -0.2649
 8196SOL     OW36049   2.053   4.318   8.742  0.8241 -0.2198 -0.2733
 8196SOL    HW136050   2.027   4.350   8.655  2.3653 -0.4072 -0.8084
 8196SOL    HW236051   2.144   4.290   8.733  0.1804 -2.5995  0.6728
 8197SOL     OW36052   0.731   3.905   8.352 -0.1178 -0.2924 -0.4161
 8197SOL    HW136053   0.788   3.980   8.372 -1.6214  1.0436 -1.2230
 8197SOL    HW236054   0.681   3.946   8.282  2.3153 -1.8252 -3.0465
 8198SOL     OW36055   0.595   3.137   5.126 -0.2698 -0.5658  0.2009
 8198SOL    HW136056   0.576   3.216   5.076  1.5435  1.4922  2.7376
 8198SOL    HW236057   0.511   3.114   5.166  0.7106 -0.3695  2.4083
 8199SOL     OW36058   2.836   4.389   8.549 -0.7804  0.3529 -0.2136
 8199SOL    HW136059   2.870   4.393   8.638 -2.8401 -1.5314  0.6642
 8199SOL    HW236060   2.822   4.295   8.538 -1.6182  0.3230  1.0680
 8200SOL     OW36061   3.204   0.336   0.692  0.1849  0.4406 -0.3523
 8200SOL    HW136062   3.261   0.331   0.615  0.7880  0.5032  0.0899
 8200SOL    HW236063   3.195   0.428   0.713  2.0085  0.2805  1.0599
 8201SOL     OW36064   3.460   4.305   4.124  0.1474 -0.0742 -0.6356
 8201SOL    HW136065   3.375   4.282   4.088  0.4567 -2.6595  0.3023
 8201SOL    HW236066   3.465   4.396   4.095  2.9367 -0.7316 -2.2355
 8202SOL     OW36067   1.180   0.807   5.397  0.3075 -0.5005 -0.2449
 8202SOL    HW136068   1.256   0.817   5.454 -1.4907  0.8523  1.9039
 8202SOL    HW236069   1.177   0.881   5.337 -1.6720 -0.7502 -0.4488
 8203SOL     OW36070   1.256   3.149  16.105 -0.2029  0.0559  0.3947
 8203SOL    HW136071   1.188   3.165  16.169 -1.0586  1.0572 -0.7724
 8203SOL    HW236072   1.287   3.235  16.077  0.4561 -0.2632  0.1323
 8204SOL     OW36073   1.621   1.296  10.088 -0.3752 -0.9489  0.1655
 8204SOL    HW136074   1.655   1.383  10.065  0.5472 -1.0891  0.9691
 8204SOL    HW236075   1.640   1.251  10.006  0.5299  1.8694 -1.1741
 8205SOL     OW36076   0.154   1.695   5.009 -0.3138  0.1561 -0.2012
 8205SOL    HW136077   0.097   1.631   5.052  0.7159 -1.3540 -1.1264
 8205SOL    HW236078   0.239   1.656   4.991  0.6208  0.5125  3.3035
 8206SOL     OW36079   4.328   0.352   5.668 -0.1052 -0.2904  0.3863
 8206SOL    HW136080   4.294   0.283   5.725  0.7670 -0.4465  0.7129
 8206SOL    HW236081   4.251   0.408   5.669 -1.0770 -1.5601 -1.7491
 8207SOL     OW36082   1.753   3.600   4.963 -0.1871 -0.4992 -0.2115
 8207SOL    HW136083   1.721   3.516   4.929 -2.2091  0.0745  0.2937
 8207SOL    HW236084   1.845   3.584   4.945 -0.5318 -1.7487 -0.8508
 8208SOL     OW36085   0.016   4.300  11.634  0.1060  0.6201 -0.0004
 8208SOL    HW136086   4.693   4.266  11.711  1.4903 -1.0944  0.0486
 8208SOL    HW236087   0.081   4.232  11.618  1.6233  2.0082  0.2083
 8209SOL     OW36088   3.001   4.415   2.641  0.4672  0.5488  0.7589
 8209SOL    HW136089   2.945   4.488   2.615  1.0135  1.0585  0.9944
 8209SOL    HW236090   3.020   4.370   2.558 -0.0859  0.5878  0.6159
 8210SOL     OW36091   3.516   4.143   2.396 -0.3090  0.7431 -0.0596
 8210SOL    HW136092   3.552   4.076   2.454  0.3532  0.6155 -0.6117
 8210SOL    HW236093   3.593   4.184   2.358  0.0916 -0.4010 -0.4988
 8211SOL     OW36094   0.185   3.110   7.188 -0.2899  0.0935 -0.4255
 8211SOL    HW136095   0.092   3.128   7.171  0.2061  2.0929 -1.0434
 8211SOL    HW236096   0.169   3.015   7.193 -1.8255  0.3283 -0.8168
 8212SOL     OW36097   3.097   4.164   1.079  0.2655  0.3095  0.4621
 8212SOL    HW136098   3.171   4.141   1.023  0.7062  2.4223  0.1638
 8212SOL    HW236099   3.128   4.255   1.087  1.0812 -0.0341  1.2880
 8213SOL     OW36100   3.658   0.801   4.539 -0.3718 -0.6328  0.8210
 8213SOL    HW136101   3.720   0.736   4.506  0.3542  0.7070 -0.4448
 8213SOL    HW236102   3.618   0.829   4.457 -0.1743 -0.3892  0.8076
 8214SOL     OW36103   3.530   0.600   7.920  0.7683  0.1757 -0.5079
 8214SOL    HW136104   3.434   0.600   7.919  0.7709  1.8398  0.1940
 8214SOL    HW236105   3.537   0.525   7.861 -2.0343 -0.1041 -0.4677
 8215SOL     OW36106   1.740   2.416   4.221 -0.0984  0.1630 -0.7060
 8215SOL    HW136107   1.758   2.325   4.198 -0.9663 -0.3247  0.5339
 8215SOL    HW236108   1.672   2.438   4.157 -1.1110 -1.9634 -0.3687
 8216SOL     OW36109   2.013   1.642  11.555 -0.4009 -0.1894 -0.2506
 8216SOL    HW136110   2.055   1.556  11.565  1.1702  0.4125 -1.7853
 8216SOL    HW236111   2.077   1.679  11.495  1.5581 -0.2491  1.8074
 8217SOL     OW36112   3.748   4.011  16.975 -0.6416  0.3139 -0.3302
 8217SOL    HW136113   3.729   4.103  16.993 -1.3262  0.1872 -0.4168
 8217SOL    HW236114   3.660   3.985  16.947 -1.6914  1.2183  2.1930
 8218SOL     OW36115   0.749   4.551   7.736 -0.0402  0.4699 -0.3846
 8218SOL    HW136116   0.770   4.614   7.667 -0.7430  0.9261 -0.1811
 8218SOL    HW236117   0.693   4.488   7.691  0.8494 -0.8702  0.3898
 8219SOL     OW36118   2.384   2.453   0.417  0.1771 -0.2400  0.3469
 8219SOL    HW136119   2.330   2.532   0.426  0.3191  0.2925 -3.2858
 8219SOL    HW236120   2.444   2.486   0.350  0.0291  0.2959  0.4782
 8220SOL     OW36121   1.583   0.360   2.356  0.1675  0.8216  0.3868
 8220SOL    HW136122   1.628   0.410   2.424 -1.8963  3.1485  0.0388
 8220SOL    HW236123   1.609   0.394   2.270 -0.0902  0.6115  0.2252
 8221SOL     OW36124   2.288   0.923   0.902  0.2450  0.6527  0.2497
 8221SOL    HW136125   2.340   1.000   0.925 -0.6707  0.7385  2.0482
 8221SOL    HW236126   2.254   0.902   0.989 -0.9850  0.6131 -0.2363
 8222SOL     OW36127   3.709   0.434   3.372 -0.4989 -0.0940 -0.8355
 8222SOL    HW136128   3.661   0.502   3.324 -1.4426  0.6742  1.2139
 8222SOL    HW236129   3.634   0.400   3.421  0.7604 -1.4847  0.1194
 8223SOL     OW36130   0.060   1.124   3.719  0.0193  0.1283  0.2788
 8223SOL    HW136131   0.020   1.076   3.792  0.5788 -0.8046 -0.0226
 8223SOL    HW236132   4.699   1.125   3.670  0.2431  0.6811 -0.0752
 8224SOL     OW36133   1.117   3.569   6.281  0.0699 -0.5618  0.1387
 8224SOL    HW136134   1.119   3.515   6.360 -1.1797 -0.1317  0.4599
 8224SOL    HW236135   1.038   3.537   6.237 -0.3837 -1.0160  1.2890
 8225SOL     OW36136   3.531   1.567   3.654 -0.6028  0.4428 -0.4939
 8225SOL    HW136137   3.502   1.528   3.737  1.8901  0.2122  0.2645
 8225SOL    HW236138   3.626   1.572   3.659 -0.7085  3.1010 -1.2619
 8226SOL     OW36139   2.149   1.033  10.700 -0.1588 -0.1804  0.0626
 8226SOL    HW136140   2.070   0.980  10.695 -1.4872  2.0181 -2.2391
 8226SOL    HW236141   2.112   1.106  10.651 -0.5916 -0.3587  0.1239
 8227SOL     OW36142   0.267   0.899   7.948  0.1861  0.5242  0.5015
 8227SOL    HW136143   0.217   0.874   8.025 -0.7474 -1.0870 -0.6346
 8227SOL    HW236144   0.353   0.883   7.986 -0.3138 -3.6664 -0.2254
 8228SOL     OW36145   0.595   4.438   2.534  0.0967  0.0713 -0.2873
 8228SOL    HW136146   0.616   4.350   2.502 -0.3544  0.3369 -1.3202
 8228SOL    HW236147   0.517   4.453   2.480 -0.7304 -1.4977  0.4751
 8229SOL     OW36148   1.371   1.067   2.684 -0.5067  0.2149 -0.5482
 8229SOL    HW136149   1.298   1.037   2.630  0.8010 -0.5735 -1.8755
 8229SOL    HW236150   1.445   1.021   2.645 -1.0271  0.7071 -2.1083
 8230SOL     OW36151   0.142   0.267   6.003  0.4715  0.6170  0.1166
 8230SOL    HW136152   0.225   0.238   5.964 -0.2405  0.6020 -1.3983
 8230SOL    HW236153   0.070   0.253   5.941  0.9975 -1.1012 -0.1038
 8231SOL     OW36154   1.880   4.306   3.755 -0.0316  0.2880 -0.4954
 8231SOL    HW136155   1.837   4.369   3.698 -1.7535  0.0774  0.5921
 8231SOL    HW236156   1.950   4.272   3.699  1.8402  0.9016  1.4693
 8232SOL     OW36157   4.423   3.782   5.546  0.2693 -0.1496 -0.4007
 8232SOL    HW136158   4.501   3.747   5.504  0.0088  0.6324 -1.5319
 8232SOL    HW236159   4.369   3.731   5.485 -2.2996  0.5509  1.2836
 8233SOL     OW36160   1.144   2.708   6.575 -0.0310  0.4214  1.0583
 8233SOL    HW136161   1.112   2.768   6.507 -0.8565  0.5419  1.5585
 8233SOL    HW236162   1.083   2.635   6.563 -2.7497  2.9900 -0.9345
 8234SOL     OW36163   3.633   2.438  10.997  0.3824 -0.5464 -0.2882
 8234SOL    HW136164   3.538   2.435  10.998  0.3479  0.3106 -1.2296
 8234SOL    HW236165   3.653   2.372  10.930 -0.5450 -2.9357  1.7898
 8235SOL     OW36166   3.550   4.134   3.923  0.4568 -0.1323 -0.5084
 8235SOL    HW136167   3.525   4.192   3.996  1.2384 -0.8728  0.3486
 8235SOL    HW236168   3.578   4.198   3.858  2.5974 -1.5649 -0.9837
 8236SOL     OW36169   4.426   1.203  16.851  0.0243  0.1174  0.2421
 8236SOL    HW136170   4.509   1.251  16.851  0.4684 -0.6631  1.5801
 8236SOL    HW236171   4.409   1.209  16.757  1.4253  1.0183  0.0396
 8237SOL     OW36172   1.389   3.246  17.655 -0.4640 -0.3985 -0.3690
 8237SOL    HW136173   1.364   3.337  17.672  0.4533 -0.0495 -0.8337
 8237SOL    HW236174   1.388   3.199   0.050 -1.2879  1.1169  0.4721
 8238SOL     OW36175   2.688   0.992  10.087  0.7511  0.4285  0.6487
 8238SOL    HW136176   2.609   0.967  10.134  2.5224 -1.2217  2.8043
 8238SOL    HW236177   2.755   1.008  10.154  0.5129 -0.4243  1.0928
 8239SOL     OW36178   0.981   3.767   3.547 -0.2448  0.5267  0.4216
 8239SOL    HW136179   0.952   3.849   3.587 -0.1885  0.8631 -0.2382
 8239SOL    HW236180   1.006   3.807   3.464 -0.7307  1.0125  0.5095
 8240SOL     OW36181   2.008   4.666  12.606  0.4701  0.1024  0.3466
 8240SOL    HW136182   2.020   0.034  12.576 -3.1602  0.7891  0.9584
 8240SOL    HW236183   1.975   4.668  12.695 -0.7615  1.5406 -0.1401
 8241SOL     OW36184   1.246   3.181  17.412 -0.2680 -0.3153 -0.3281
 8241SOL    HW136185   1.300   3.192  17.490  0.8855 -3.4717 -0.6726
 8241SOL    HW236186   1.189   3.257  17.417  0.2269 -0.1581  2.6420
 8242SOL     OW36187   3.803   4.678   5.719 -0.0612  0.0218 -0.1390
 8242SOL    HW136188   3.886   4.678   5.671 -2.4664  1.2643 -4.2575
 8242SOL    HW236189   3.777   4.592   5.684 -0.9174  0.2973 -0.1685
 8243SOL     OW36190   0.839   4.423   6.094  0.0965 -0.4067 -0.2419
 8243SOL    HW136191   0.932   4.403   6.103  0.4223  0.9447 -0.6987
 8243SOL    HW236192   0.808   4.370   6.021  0.7903  1.8736 -2.1771
 8244SOL     OW36193   4.553   1.095  11.333  0.6938 -0.2399  0.6024
 8244SOL    HW136194   4.591   1.175  11.370  3.5612 -0.4387 -1.9880
 8244SOL    HW236195   4.570   1.031  11.403 -0.2948 -2.0144 -0.7768
 8245SOL     OW36196   0.018   1.629   5.612  0.3751 -0.0972 -0.4208
 8245SOL    HW136197   0.059   1.625   5.699 -2.9401 -1.0848  1.0747
 8245SOL    HW236198   0.030   1.723   5.599  3.6533 -0.0005  3.4071
 8246SOL     OW36199   1.721   3.613   5.271  0.1584  0.0919  0.2053
 8246SOL    HW136200   1.632   3.590   5.246 -0.7997  2.6570  1.2838
 8246SOL    HW236201   1.770   3.624   5.189  0.5228 -0.5246  0.3398
 8247SOL     OW36202   0.550   2.320   2.864 -0.9689  0.6363  0.1596
 8247SOL    HW136203   0.515   2.230   2.861  2.2938 -0.6733  1.9768
 8247SOL    HW236204   0.529   2.362   2.780 -0.2630  2.3420  0.8613
 8248SOL     OW36205   0.396   0.265   5.238 -0.4381  0.5437  0.3579
 8248SOL    HW136206   0.470   0.231   5.288 -1.2622 -0.9896  0.5446
 8248SOL    HW236207   0.333   0.194   5.253 -1.9118  1.5071 -1.2905
 8249SOL     OW36208   4.515   1.180   0.141 -0.3139 -0.7899 -0.2459
 8249SOL    HW136209   4.573   1.241   0.095  0.1601 -0.2415  1.0790
 8249SOL    HW236210   4.500   1.121   0.067  1.5294 -0.3474 -0.9693
 8250SOL     OW36211   1.833   4.084   7.859  0.0086 -0.0567  0.6278
 8250SOL    HW136212   1.835   4.024   7.785 -1.4059  0.6521  0.0328
 8250SOL    HW236213   1.740   4.103   7.862  0.0670  0.5814 -1.5456
 8251SOL     OW36214   0.043   1.503  15.013  0.4777  0.1989  0.3550
 8251SOL    HW136215   0.068   1.413  15.030  0.4578 -0.6926 -4.2624
 8251SOL    HW236216   0.121   1.535  14.967 -0.3647  0.4053 -0.9350
 8252SOL     OW36217   3.843   3.461   7.019  0.0932  0.4039  0.2627
 8252SOL    HW136218   3.908   3.498   7.079  0.5431  1.0166 -0.6142
 8252SOL    HW236219   3.805   3.542   6.986 -1.7978 -0.4881  0.2755
 8253SOL     OW36220   0.975   0.672   0.248 -0.9861 -0.4571 -0.2439
 8253SOL    HW136221   0.980   0.680   0.343  3.0163 -0.6053 -0.4419
 8253SOL    HW236222   0.882   0.653   0.233 -1.0480 -0.7441  0.5189
 8254SOL     OW36223   0.987   0.674   4.491 -0.1039  0.0662 -0.2890
 8254SOL    HW136224   0.931   0.692   4.416 -0.5864 -1.9480 -0.4233
 8254SOL    HW236225   1.066   0.728   4.486  0.5563 -0.8521  0.1441
 8255SOL     OW36226   0.749   2.636   4.967  0.2431 -0.3923  0.5338
 8255SOL    HW136227   0.705   2.670   4.889 -0.1782 -1.0790  0.4669
 8255SOL    HW236228   0.673   2.629   5.026  0.3386  0.5904  0.7633
 8256SOL     OW36229   0.498   3.517   6.835  0.8336  0.1114  0.3052
 8256SOL    HW136230   0.545   3.436   6.816 -0.2259 -0.5942  0.7042
 8256SOL    HW236231   0.421   3.513   6.778 -1.2827  1.7451  2.9724
 8257SOL     OW36232   3.052   4.049   5.957 -0.5741 -0.6663 -0.3078
 8257SOL    HW136233   3.048   4.022   6.049 -0.0214 -1.5987 -0.5585
 8257SOL    HW236234   3.129   4.106   5.960  1.1535 -2.9725 -1.1649
 8258SOL     OW36235   0.274   1.575   7.126 -0.3953 -0.0467 -0.0701
 8258SOL    HW136236   0.300   1.489   7.158 -0.8505  0.4407  1.6320
 8258SOL    HW236237   0.185   1.587   7.158  0.1207  0.0204  1.3882
 8259SOL     OW36238   3.129   0.184   7.788 -0.2434 -0.2838 -0.3720
 8259SOL    HW136239   3.191   0.131   7.838 -1.0553 -0.3399  0.5864
 8259SOL    HW236240   3.109   0.245   7.859 -1.3675  0.4084 -1.2816
 8260SOL     OW36241   3.346   4.118   1.005  0.6425  0.1272 -0.1603
 8260SOL    HW136242   3.413   4.175   1.042 -0.7116  1.1047  0.8003
 8260SOL    HW236243   3.403   4.042   0.992  0.0936  0.1660 -2.9410
 8261SOL     OW36244   0.430   1.746   1.827  0.2011 -0.3515 -0.3417
 8261SOL    HW136245   0.440   1.811   1.758  0.5068 -0.2399 -0.1902
 8261SOL    HW236246   0.518   1.710   1.831  0.2411 -0.1341  0.5915
 8262SOL     OW36247   3.260   3.342  11.901  0.4063  0.6339  0.3135
 8262SOL    HW136248   3.167   3.318  11.902 -0.1145  2.5387 -1.6778
 8262SOL    HW236249   3.300   3.258  11.879 -0.1121 -0.2033  2.5577
 8263SOL     OW36250   2.435   0.976   7.616 -0.1619 -0.0061  0.2424
 8263SOL    HW136251   2.449   0.889   7.579  1.8599  1.1369 -1.6362
 8263SOL    HW236252   2.490   0.972   7.694 -0.0747 -1.0127  0.1342
 8264SOL     OW36253   2.614   4.092  11.834  1.0643  0.0956  0.4458
 8264SOL    HW136254   2.647   4.131  11.753 -1.0139  1.0612  0.0708
 8264SOL    HW236255   2.689   4.041  11.866  0.1369 -1.3934  0.2603
 8265SOL     OW36256   1.496   1.260  15.385  0.4985 -0.4845 -0.0519
 8265SOL    HW136257   1.414   1.283  15.341  0.1289 -1.4152  0.1448
 8265SOL    HW236258   1.563   1.282  15.320  0.0786  0.0383 -0.3051
 8266SOL     OW36259   2.637   3.399   5.220 -0.4644  0.0608 -0.4737
 8266SOL    HW136260   2.576   3.361   5.283  1.3689  0.1838  1.3817
 8266SOL    HW236261   2.720   3.399   5.269  0.9367  1.7731 -2.8035
 8267SOL     OW36262   2.819   1.209   7.131  0.7486  0.3482  0.2651
 8267SOL    HW136263   2.832   1.261   7.051 -1.1265  0.9630  0.3569
 8267SOL    HW236264   2.747   1.155   7.099  1.9054 -1.4225  0.6550
 8268SOL     OW36265   3.989   4.714   4.599  0.1830  0.6988  0.1978
 8268SOL    HW136266   4.038   4.678   4.674 -0.9681 -1.5055 -0.0978
 8268SOL    HW236267   3.913   4.656   4.602 -1.1605  2.4522 -0.2755
 8269SOL     OW36268   2.940   3.124   8.086  0.5247 -0.6258  0.4713
 8269SOL    HW136269   2.971   3.181   8.016 -1.3805  1.6108  1.4753
 8269SOL    HW236270   2.866   3.092   8.035 -0.3092  0.6915  0.8595
 8270SOL     OW36271   1.293   3.209  13.192 -0.1066 -0.3575  0.9012
 8270SOL    HW136272   1.343   3.197  13.272 -0.6881 -1.3231  1.1159
 8270SOL    HW236273   1.223   3.266  13.225  1.3930 -0.7717  4.7396
 8271SOL     OW36274   2.633   1.483   3.886  0.0930  0.7725 -0.3704
 8271SOL    HW136275   2.599   1.427   3.816  1.2836 -0.1416 -0.2400
 8271SOL    HW236276   2.551   1.493   3.935  1.1414  1.9154  1.1562
 8272SOL     OW36277   0.725   2.004  13.974  1.0400  0.0671 -0.4185
 8272SOL    HW136278   0.742   2.075  14.035  2.1661 -0.7066  0.1731
 8272SOL    HW236279   0.649   1.963  14.016  1.5048 -1.3312 -0.9237
 8273SOL     OW36280   0.231   0.061   5.203 -0.2688  0.3928  0.1464
 8273SOL    HW136281   0.248   0.025   5.115  0.0423 -1.0189  0.7824
 8273SOL    HW236282   0.253   4.702   5.250  0.2678 -0.2097 -1.1224
 8274SOL     OW36283   2.400   2.131   7.504  0.3383 -0.2976  0.3258
 8274SOL    HW136284   2.346   2.142   7.425 -1.6817  0.5326  1.8348
 8274SOL    HW236285   2.366   2.207   7.551  0.2464 -0.1841  0.0792
 8275SOL     OW36286   3.159   0.993   7.620 -0.1353 -0.2148 -0.4830
 8275SOL    HW136287   3.231   0.933   7.639 -1.8597 -1.2247  2.9395
 8275SOL    HW236288   3.167   1.056   7.692  0.0235 -2.4393  1.4746
 8276SOL     OW36289   3.557   3.024   8.616 -0.0753 -0.1223 -0.1930
 8276SOL    HW136290   3.554   2.931   8.639 -1.2020  0.9538  3.9454
 8276SOL    HW236291   3.473   3.028   8.570  0.0009 -0.4437 -0.3650
 8277SOL     OW36292   4.090   3.818   9.254 -0.3056  0.0349  0.3283
 8277SOL    HW136293   4.108   3.727   9.229 -2.1781 -0.1534 -0.3261
 8277SOL    HW236294   4.152   3.863   9.197 -2.2530  2.8661  0.4236
 8278SOL     OW36295   3.955   1.730   2.731 -0.1331  0.4926  0.6157
 8278SOL    HW136296   3.890   1.774   2.786 -0.0715  0.8180  0.4312
 8278SOL    HW236297   3.962   1.792   2.658  4.5491  0.2907  0.8764
 8279SOL     OW36298   0.399   4.131   1.978  0.3042 -0.1597 -0.1959
 8279SOL    HW136299   0.315   4.092   1.953 -0.0872  1.1939 -0.9771
 8279SOL    HW236300   0.393   4.101   2.069  0.7097  0.0047 -0.1165
 8280SOL     OW36301   0.566   3.383   4.968 -0.1119 -0.0692 -0.4242
 8280SOL    HW136302   0.476   3.353   4.952 -0.1908 -0.0898  0.0513
 8280SOL    HW236303   0.558   3.478   4.973  0.4376 -0.0597  0.3612
 8281SOL     OW36304   1.837   3.088   9.885  0.4350 -0.3765 -0.2493
 8281SOL    HW136305   1.855   3.010   9.938 -1.4758  0.3971  1.5109
 8281SOL    HW236306   1.745   3.074   9.863 -0.3867 -0.9922  3.6561
 8282SOL     OW36307   1.978   3.687   7.203 -0.3492  0.3028 -0.6388
 8282SOL    HW136308   1.930   3.693   7.285 -1.7988 -0.2516 -1.4427
 8282SOL    HW236309   1.967   3.592   7.199  1.8485  0.0450 -0.4079
 8283SOL     OW36310   0.062   3.420  13.657 -0.5926 -0.6105  0.3226
 8283SOL    HW136311   0.064   3.326  13.674 -0.4373 -0.9104 -1.3888
 8283SOL    HW236312   0.029   3.465  13.735 -0.0793 -2.0574  1.3847
 8284SOL     OW36313   2.887   1.517  15.909 -0.0871  0.4908  0.2990
 8284SOL    HW136314   2.959   1.562  15.953 -2.4970  3.3090  1.3652
 8284SOL    HW236315   2.896   1.539  15.816  0.5236  0.8187  0.4388
 8285SOL     OW36316   3.359   0.241   5.100  0.1817  0.2828 -0.1363
 8285SOL    HW136317   3.348   0.287   5.183 -2.4620 -0.9823  0.2400
 8285SOL    HW236318   3.445   0.270   5.069  0.5993  0.9639  1.6812
 8286SOL     OW36319   4.346   2.866   7.430 -0.1813  0.2261 -0.1542
 8286SOL    HW136320   4.387   2.847   7.515  1.4996  3.4117 -0.2692
 8286SOL    HW236321   4.398   2.937   7.392 -0.5533  0.9981  0.7930
 8287SOL     OW36322   4.323   2.726   5.456 -0.1239  0.3579  0.2516
 8287SOL    HW136323   4.235   2.733   5.418  0.1222  3.6512  0.2962
 8287SOL    HW236324   4.354   2.808   5.418  1.0788 -1.3039 -2.3565
 8288SOL     OW36325   1.162   0.271   3.169 -0.1470  0.1414  0.4777
 8288SOL    HW136326   1.152   0.365   3.153  0.8037 -0.4385 -3.4399
 8288SOL    HW236327   1.245   0.258   3.216  0.8641 -0.7879 -1.6003
 8289SOL     OW36328   0.076   3.669   4.730 -0.0694 -0.3361 -0.4153
 8289SOL    HW136329   0.106   3.589   4.774 -1.6647 -0.6155  0.1803
 8289SOL    HW236330   0.157   3.710   4.702 -0.1037  1.1688  1.6530
 8290SOL     OW36331   3.946   1.751   4.585 -0.2084 -0.0121 -0.3814
 8290SOL    HW136332   3.993   1.817   4.534 -0.3321  2.0302  2.1566
 8290SOL    HW236333   3.964   1.773   4.676 -2.4431 -0.4927  0.1723
 8291SOL     OW36334   3.558   1.721   5.643 -0.1956  0.0605  0.0798
 8291SOL    HW136335   3.554   1.630   5.672 -0.5054  0.3913  1.1101
 8291SOL    HW236336   3.600   1.709   5.558  0.6141 -0.6954  0.5945
 8292SOL     OW36337   2.913   4.104  13.978 -0.0354  0.1959 -0.4233
 8292SOL    HW136338   2.865   4.061  13.907 -0.1790  0.9268 -0.7745
 8292SOL    HW236339   2.945   4.027  14.025  1.0140  0.9789  0.1315
 8293SOL     OW36340   2.703   1.038   6.311 -0.1882 -0.1097 -0.8641
 8293SOL    HW136341   2.660   0.977   6.251  0.1087 -0.3085 -0.8752
 8293SOL    HW236342   2.760   1.097   6.262 -0.0535  0.2092 -0.3226
 8294SOL     OW36343   2.658   2.518   7.999 -0.5976 -0.4166 -0.4349
 8294SOL    HW136344   2.713   2.453   8.042 -0.2431  0.3944  0.3322
 8294SOL    HW236345   2.584   2.472   7.960 -0.9718 -0.2312  0.0576
 8295SOL     OW36346   1.887   0.313   4.337  0.0955 -0.1059  0.1326
 8295SOL    HW136347   1.932   0.365   4.404 -0.2426 -1.0676  1.1204
 8295SOL    HW236348   1.808   0.295   4.388 -2.0650  0.6281 -2.9230
 8296SOL     OW36349   3.589   0.460   5.052 -0.4351  0.4262  0.1668
 8296SOL    HW136350   3.544   0.544   5.043 -2.6252 -0.6002  1.4222
 8296SOL    HW236351   3.664   0.475   5.110  0.8000  0.2611 -1.3949
 8297SOL     OW36352   2.164   4.089  11.148  0.2176  0.2420 -0.3038
 8297SOL    HW136353   2.091   4.055  11.096  0.3456 -0.6974  0.1267
 8297SOL    HW236354   2.112   4.154  11.195  2.4069  0.7604  1.4122
 8298SOL     OW36355   2.071   2.895  13.747 -0.6394  0.2847  0.3699
 8298SOL    HW136356   2.114   2.854  13.672 -1.1546 -0.8442  0.6936
 8298SOL    HW236357   2.086   2.827  13.812 -0.2803 -0.9810 -1.0303
 8299SOL     OW36358   3.872   1.080  11.411  0.1779 -0.1887 -0.1411
 8299SOL    HW136359   3.933   1.007  11.421 -1.5169 -1.5645  0.2323
 8299SOL    HW236360   3.930   1.153  11.393 -0.8619  0.4584 -0.9030
 8300SOL     OW36361   1.126   2.508  10.490 -0.1803  0.1096  0.2736
 8300SOL    HW136362   1.128   2.423  10.448  0.3261  0.2863 -0.0542
 8300SOL    HW236363   1.219   2.526  10.499 -0.1176  0.0829 -0.3262
 8301SOL     OW36364   2.157   0.363   9.771 -0.1725  0.4669  0.0818
 8301SOL    HW136365   2.101   0.285   9.772  1.3917 -0.6315  0.2449
 8301SOL    HW236366   2.116   0.413   9.842 -1.7462 -2.5779  1.3166
 8302SOL     OW36367   0.659   4.217   1.383  0.4539  0.4091  0.5855
 8302SOL    HW136368   0.588   4.153   1.386  0.7872  0.0189  0.2156
 8302SOL    HW236369   0.680   4.229   1.476 -2.2963  0.2058  1.2261
 8303SOL     OW36370   1.750   3.594   5.771  0.2842 -1.1946 -0.0324
 8303SOL    HW136371   1.774   3.545   5.850  2.2922 -0.7036 -0.3481
 8303SOL    HW236372   1.829   3.573   5.721  0.1828  0.1307 -0.7536
 8304SOL     OW36373   1.612   2.866   5.286  0.0973  0.3537 -0.1019
 8304SOL    HW136374   1.580   2.796   5.344  0.7651  0.9245  0.9505
 8304SOL    HW236375   1.638   2.816   5.209 -1.9833  0.2960 -0.7687
 8305SOL     OW36376   3.327   3.694   6.429  0.2973  0.2970  0.7206
 8305SOL    HW136377   3.302   3.724   6.342  0.4968 -0.6824  0.3243
 8305SOL    HW236378   3.399   3.630   6.426  1.3241  1.5249 -0.7205
 8306SOL     OW36379   0.070   0.062   4.559 -0.4405 -0.4370 -0.4325
 8306SOL    HW136380   0.018   4.713   4.520 -0.5058  0.0931 -1.2911
 8306SOL    HW236381   0.026   0.144   4.540  1.1262  0.5909  0.3580
 8307SOL     OW36382   0.129   2.702  13.441  0.1767 -0.3718 -0.1110
 8307SOL    HW136383   0.152   2.747  13.522  1.9646 -0.9838 -0.2761
 8307SOL    HW236384   0.048   2.664  13.475  1.2536 -2.1878  0.4259
 8308SOL     OW36385   2.006   1.079   2.668 -0.3943 -0.0197  0.1888
 8308SOL    HW136386   2.057   1.048   2.743  0.8338 -0.9062 -1.0201
 8308SOL    HW236387   2.026   1.012   2.603  0.7225  1.9112 -1.4518
 8309SOL     OW36388   0.562   2.066  13.754  0.4459 -0.5910  0.3641
 8309SOL    HW136389   0.627   2.038  13.819 -1.6293 -3.1708  1.3449
 8309SOL    HW236390   0.492   2.102  13.808  0.2000 -0.7811  0.1740
 8310SOL     OW36391   1.678   0.150  16.301 -0.6747  0.0608  0.3517
 8310SOL    HW136392   1.666   0.059  16.325 -1.7752  0.0715 -0.1766
 8310SOL    HW236393   1.713   0.148  16.212  1.3348 -1.7624  1.1746
 8311SOL     OW36394   3.416   2.157  17.337  0.5131 -0.0555 -0.3615
 8311SOL    HW136395   3.450   2.097  17.404  0.3268 -1.6028 -1.6303
 8311SOL    HW236396   3.476   2.230  17.345  1.9386 -0.9689 -2.4934
 8312SOL     OW36397   4.472   3.674  17.566  0.1610 -0.4910  0.7685
 8312SOL    HW136398   4.398   3.715  17.611  0.0267 -0.4871  0.5472
 8312SOL    HW236399   4.522   3.754  17.550 -0.5259 -0.3910 -0.8549
 8313SOL     OW36400   2.237   1.864   9.853 -0.3571 -0.2200  0.4724
 8313SOL    HW136401   2.300   1.825   9.914  1.4294  1.1429 -0.5116
 8313SOL    HW236402   2.278   1.949   9.835 -0.4861 -0.0891  0.7816
 8314SOL     OW36403   3.658   1.991  10.941 -0.0454  0.4926 -0.1127
 8314SOL    HW136404   3.563   1.995  10.953  0.1380 -1.6961  2.1496
 8314SOL    HW236405   3.674   1.916  10.998 -0.5549  0.9911  0.6875
 8315SOL     OW36406   3.584   2.400  12.012 -0.1362 -0.1367 -0.4291
 8315SOL    HW136407   3.611   2.309  11.996 -1.9280 -1.0886  1.8778
 8315SOL    HW236408   3.597   2.453  11.933 -1.2400 -0.2246 -0.6650
 8316SOL     OW36409   2.359   0.397   8.952  0.1823  0.5785 -1.2529
 8316SOL    HW136410   2.341   0.399   9.046  0.2897 -2.4307 -1.1603
 8316SOL    HW236411   2.452   0.418   8.947  0.0653  0.9120 -1.9434
 8317SOL     OW36412   1.558   2.769   6.319  0.4252  0.5767  0.0520
 8317SOL    HW136413   1.546   2.803   6.407  0.1492 -0.3690  0.3777
 8317SOL    HW236414   1.507   2.690   6.337  0.9343  0.0592 -0.7651
 8318SOL     OW36415   4.331   1.927  12.867 -0.1460  0.7992  0.4091
 8318SOL    HW136416   4.289   2.010  12.845 -0.1648  0.6639 -0.0581
 8318SOL    HW236417   4.281   1.895  12.942  3.5184  0.8263  2.8917
 8319SOL     OW36418   1.383   0.798   3.012 -1.1248  0.1304 -1.1622
 8319SOL    HW136419   1.475   0.783   3.033 -1.0229  1.1088 -0.9182
 8319SOL    HW236420   1.362   0.882   3.053 -0.8819 -1.3482  1.9940
 8320SOL     OW36421   2.445   1.625   7.271 -0.3595  0.6327 -0.3202
 8320SOL    HW136422   2.399   1.661   7.195 -0.1878 -1.9608 -1.6593
 8320SOL    HW236423   2.422   1.534   7.250  3.7964 -0.1865 -1.2211
 8321SOL     OW36424   1.971   4.350  14.060 -0.2081  0.0071 -0.6092
 8321SOL    HW136425   1.914   4.279  14.088 -0.6845  0.0395 -1.4929
 8321SOL    HW236426   2.035   4.303  14.007  1.5743  1.0045  0.6597
 8322SOL     OW36427   2.963   3.109  15.978  0.0339  0.3331 -0.5919
 8322SOL    HW136428   3.013   3.184  15.944 -0.3109  1.5655  1.6060
 8322SOL    HW236429   3.025   3.040  15.955  0.9606  0.3241  2.0128
 8323SOL     OW36430   3.928   4.617   4.279  0.4690 -0.1251 -0.3168
 8323SOL    HW136431   3.871   4.626   4.355 -0.3292  1.5098 -1.1044
 8323SOL    HW236432   3.875   4.557   4.226 -0.4277  0.2089  0.2005
 8324SOL     OW36433   0.939   0.406  17.337  0.0528 -0.4684  0.5605
 8324SOL    HW136434   0.916   0.484  17.389  0.2275  1.8992 -2.8902
 8324SOL    HW236435   1.034   0.414  17.331 -0.1489  0.4552 -1.4539
 8325SOL     OW36436   0.375   0.592   6.062  0.3128 -0.1520  0.8811
 8325SOL    HW136437   0.456   0.601   6.113  1.4736 -1.8584 -0.6524
 8325SOL    HW236438   0.310   0.592   6.132  1.0863  0.3718  1.6111
 8326SOL     OW36439   4.373   0.185   7.082  0.2930 -0.0896  0.8042
 8326SOL    HW136440   4.321   0.113   7.117 -1.1531  0.7754  0.4696
 8326SOL    HW236441   4.357   0.258   7.143 -0.5332  1.0869 -0.8084
 8327SOL     OW36442   2.210   1.876  14.726 -0.1601  0.4510  0.5290
 8327SOL    HW136443   2.167   1.791  14.736  0.6200 -0.2809 -2.1854
 8327SOL    HW236444   2.137   1.936  14.744  0.4847  1.6872 -0.9094
 8328SOL     OW36445   1.301   1.135   6.372 -0.4433  0.1695  0.1513
 8328SOL    HW136446   1.232   1.132   6.306 -1.1981 -0.8631  0.9857
 8328SOL    HW236447   1.312   1.042   6.387  0.1549  0.4961  1.6982
 8329SOL     OW36448   3.430   3.825   4.738  0.7702 -0.2394  0.1876
 8329SOL    HW136449   3.404   3.825   4.830  0.4998  0.0180  0.1118
 8329SOL    HW236450   3.360   3.773   4.700 -0.6296  1.0966  0.9271
 8330SOL     OW36451   0.206   2.001   8.852  0.2890 -0.5377 -0.2471
 8330SOL    HW136452   0.281   1.960   8.895 -0.8628 -2.4766 -0.0979
 8330SOL    HW236453   0.158   1.926   8.818 -0.5894  0.1846 -0.5901
 8331SOL     OW36454   3.862   4.434   8.912  0.3242 -0.2508  0.7698
 8331SOL    HW136455   3.914   4.440   8.992  0.5297 -1.6291  0.7494
 8331SOL    HW236456   3.782   4.472   8.947  0.0853 -0.9753  1.0190
 8332SOL     OW36457   0.945   3.416   0.518  0.3740  0.0701  0.3360
 8332SOL    HW136458   0.968   3.324   0.535  3.2007  0.4466 -1.4656
 8332SOL    HW236459   1.028   3.461   0.531  0.6517 -0.2251 -0.4147
 8333SOL     OW36460   2.294   3.771   2.652 -0.0775 -0.0562  0.2525
 8333SOL    HW136461   2.267   3.679   2.659 -0.4378  0.0124 -0.2435
 8333SOL    HW236462   2.369   3.753   2.595 -0.7679  1.5619 -1.1598
 8334SOL     OW36463   1.825   2.041   2.333  0.0051  0.1675 -0.4640
 8334SOL    HW136464   1.910   1.998   2.319  0.4189  1.0121 -0.5064
 8334SOL    HW236465   1.773   1.967   2.300 -0.1116  1.0259 -2.1678
 8335SOL     OW36466   3.401   0.020   2.715  0.1193  0.0649  0.3133
 8335SOL    HW136467   3.355   4.715   2.795  1.8019 -2.2846  0.4799
 8335SOL    HW236468   3.389   0.115   2.721  0.5582  0.3174 -2.8766
 8336SOL     OW36469   0.051   3.550  17.183 -0.2932 -0.3368 -0.2917
 8336SOL    HW136470   4.717   3.622  17.213 -2.2382 -1.1239 -2.0527
 8336SOL    HW236471   0.110   3.557  17.258 -0.9244 -1.2143  0.2846
 8337SOL     OW36472   0.035   0.660  10.898  0.0022 -0.4887 -0.1449
 8337SOL    HW136473   0.119   0.628  10.868 -0.8885 -2.4345 -0.5342
 8337SOL    HW236474   4.694   0.651  10.826  0.3732 -1.2842 -0.3641
 8338SOL     OW36475   2.288   3.745  12.313 -0.0831  0.5307 -0.2683
 8338SOL    HW136476   2.294   3.678  12.382 -1.8055  0.4854 -0.1719
 8338SOL    HW236477   2.302   3.685  12.239 -1.2161  0.3180 -0.3067
 8339SOL     OW36478   1.875   0.467   6.499 -0.5583  0.2359 -0.1646
 8339SOL    HW136479   1.797   0.491   6.449 -2.4425 -1.6090  1.8286
 8339SOL    HW236480   1.893   0.388   6.449  0.5185 -0.6288  1.5716
 8340SOL     OW36481   2.061   4.324  11.300 -0.3249  0.1239 -0.3732
 8340SOL    HW136482   2.046   4.417  11.287 -0.7054  0.3646  1.7637
 8340SOL    HW236483   2.114   4.327  11.380 -1.4287  2.7720  0.2364
 8341SOL     OW36484   3.330   2.306   0.835 -0.6383 -0.0285  0.1176
 8341SOL    HW136485   3.391   2.268   0.898 -3.5263  0.3286  3.1107
 8341SOL    HW236486   3.244   2.305   0.875 -1.4521 -0.2885 -1.6406
 8342SOL     OW36487   1.021   2.405   5.382 -0.0226  0.2037 -0.9673
 8342SOL    HW136488   1.002   2.371   5.295 -1.0471 -1.4523 -0.0977
 8342SOL    HW236489   1.117   2.403   5.385 -0.0920 -0.2192  1.3757
 8343SOL     OW36490   4.192   3.022   4.716 -0.9916  0.1039  0.2248
 8343SOL    HW136491   4.153   3.046   4.800 -3.3607  1.5499 -1.2864
 8343SOL    HW236492   4.232   2.936   4.727 -1.7403 -0.0983  1.3617
 8344SOL     OW36493   4.262   2.162  15.266 -0.5564 -0.2686  0.1860
 8344SOL    HW136494   4.267   2.074  15.303  1.1376 -0.3097 -0.1053
 8344SOL    HW236495   4.174   2.160  15.230 -0.4956 -0.7176  0.0612
 8345SOL     OW36496   1.410   1.501   6.883 -0.3581  0.0224 -0.2693
 8345SOL    HW136497   1.425   1.541   6.969  0.2225 -0.3173 -0.2181
 8345SOL    HW236498   1.488   1.446   6.876  0.1254  0.7841 -0.8430
 8346SOL     OW36499   0.509   4.141   9.872  0.7536  0.1526 -0.2275
 8346SOL    HW136500   0.448   4.083   9.919  1.8530 -0.7671  0.0514
 8346SOL    HW236501   0.587   4.087   9.879 -1.2576 -2.9210 -1.4088
 8347SOL     OW36502   4.613   0.624   3.482  0.5624  0.2164  0.4132
 8347SOL    HW136503   4.629   0.547   3.537 -1.2462 -1.7793 -1.8509
 8347SOL    HW236504   4.608   0.683   3.557 -0.5263 -0.5049  0.9174
 8348SOL     OW36505   3.908   0.078   3.388 -0.2932  0.1739  0.2571
 8348SOL    HW136506   4.001   0.059   3.371 -0.2257  1.2673 -0.5808
 8348SOL    HW236507   3.902   0.034   3.473  0.4966 -2.2267 -0.9247
 8349SOL     OW36508   0.677   0.523   8.424  0.2795  0.5258 -0.1768
 8349SOL    HW136509   0.674   0.600   8.481  0.4296  1.7051 -1.7596
 8349SOL    HW236510   0.619   0.463   8.471  2.8409 -1.0959  0.9334
 8350SOL     OW36511   0.311   3.123  13.000  0.7370  0.1724 -0.1118
 8350SOL    HW136512   0.328   3.045  12.947 -0.0248  0.7241 -1.1445
 8350SOL    HW236513   0.240   3.094  13.058  1.3379 -1.5398 -0.2078
 8351SOL     OW36514   2.425   2.693   8.308 -0.6817 -0.4442 -0.4554
 8351SOL    HW136515   2.456   2.760   8.246 -0.2115 -0.7657 -0.5733
 8351SOL    HW236516   2.449   2.739   8.388 -1.7107 -0.9552  0.1359
 8352SOL     OW36517   0.134   2.913   9.317  0.1395  0.4551  0.3369
 8352SOL    HW136518   0.093   2.967   9.249 -0.3040  1.2773  1.2575
 8352SOL    HW236519   0.185   2.973   9.370  1.9245 -0.6628 -0.1182
 8353SOL     OW36520   4.561   2.533  11.233 -0.1767 -0.1624  0.3952
 8353SOL    HW136521   4.479   2.512  11.277 -0.6704  1.3387  0.2036
 8353SOL    HW236522   4.626   2.523  11.303  0.2960  0.2263  0.0102
 8354SOL     OW36523   0.747   3.077   6.469  0.4776 -0.1539 -0.2845
 8354SOL    HW136524   0.795   3.115   6.542  0.5051 -0.9808  0.1279
 8354SOL    HW236525   0.692   3.150   6.440 -0.0701 -1.4866 -2.6624
 8355SOL     OW36526   3.099   4.100   6.684 -0.2363  0.1457 -0.1237
 8355SOL    HW136527   3.161   4.067   6.619 -0.2491  0.0246 -0.0731
 8355SOL    HW236528   3.149   4.152   6.747  1.0387 -1.9193  0.5506
 8356SOL     OW36529   2.095   3.711  15.133 -0.3791 -0.0073 -0.0851
 8356SOL    HW136530   2.115   3.768  15.059 -1.8442 -2.3232 -2.2948
 8356SOL    HW236531   2.112   3.626  15.091  1.9518 -0.5959  2.0685
 8357SOL     OW36532   2.974   1.534  17.655 -0.5561 -0.5981 -0.2543
 8357SOL    HW136533   2.955   1.462   0.027  1.6976  1.1304  2.5325
 8357SOL    HW236534   3.028   1.591   0.021  2.8135 -2.0388 -2.0384
 8358SOL     OW36535   2.626   1.375   7.493 -0.7788 -0.4543  0.2920
 8358SOL    HW136536   2.719   1.361   7.473 -0.9389  1.1274 -1.6159
 8358SOL    HW236537   2.633   1.465   7.525  1.8003 -1.3514  2.2480
 8359SOL     OW36538   3.216   1.766   2.732  0.3152 -0.7283 -0.6188
 8359SOL    HW136539   3.247   1.676   2.721  2.9004  0.2715 -1.4070
 8359SOL    HW236540   3.298   1.801   2.766 -0.7961 -0.7164  2.1220
 8360SOL     OW36541   0.374   4.502   1.615  0.2185 -0.2024 -0.2673
 8360SOL    HW136542   0.434   4.432   1.643  0.4559 -0.1281 -0.5870
 8360SOL    HW236543   0.443   4.567   1.603  0.4525 -0.5616 -0.8850
 8361SOL     OW36544   4.379   1.994  11.478  0.0881  0.2740 -0.2104
 8361SOL    HW136545   4.336   1.925  11.528 -0.8718 -1.0249 -2.8288
 8361SOL    HW236546   4.337   2.072  11.513  0.7179  0.8145 -0.6650
 8362SOL     OW36547   4.111   0.681   1.751 -0.1564  0.7520 -0.2211
 8362SOL    HW136548   4.060   0.759   1.773 -0.0996 -0.0868  2.8823
 8362SOL    HW236549   4.087   0.675   1.659 -1.5453 -1.9353  0.3231
 8363SOL     OW36550   4.099   3.713  12.627 -0.0723 -0.4992  0.1984
 8363SOL    HW136551   4.155   3.668  12.689 -2.4555 -3.0522  0.4819
 8363SOL    HW236552   4.138   3.689  12.543 -0.1363 -0.5216  0.1753
 8364SOL     OW36553   2.629   3.625   1.321  0.2932  0.1912  0.0509
 8364SOL    HW136554   2.722   3.605   1.334  0.6696  3.1696  2.0734
 8364SOL    HW236555   2.591   3.616   1.409  0.3931 -1.8287 -0.1147
 8365SOL     OW36556   3.565   3.589   6.539 -0.4585  0.0091  0.1061
 8365SOL    HW136557   3.650   3.612   6.503 -0.2256 -1.0914 -0.0263
 8365SOL    HW236558   3.544   3.659   6.601  2.9608  0.3088  0.9070
 8366SOL     OW36559   2.822   0.815   7.539  0.0929 -0.8183 -0.9294
 8366SOL    HW136560   2.894   0.752   7.550  0.2011 -0.5884 -0.3408
 8366SOL    HW236561   2.745   0.765   7.513 -1.7898  1.6349 -0.0427
 8367SOL     OW36562   1.508   2.438   0.873 -0.1816  0.3713 -0.1445
 8367SOL    HW136563   1.587   2.404   0.914 -1.5550 -2.8078 -0.1758
 8367SOL    HW236564   1.448   2.428   0.947 -0.4326  1.3830 -0.2121
 8368SOL     OW36565   1.348   3.887   5.759  0.3807  0.5830 -0.5469
 8368SOL    HW136566   1.443   3.891   5.763  0.3145 -1.5492  2.5142
 8368SOL    HW236567   1.337   3.793   5.773  1.4109  0.6716  0.8895
 8369SOL     OW36568   0.627   0.872   2.073 -0.7085 -0.0810 -0.3267
 8369SOL    HW136569   0.564   0.939   2.101 -1.1102 -1.0762  1.1790
 8369SOL    HW236570   0.652   0.832   2.156  0.9979  0.9627 -0.3511
 8370SOL     OW36571   3.620   1.773   6.526  0.5624  0.9452  0.5867
 8370SOL    HW136572   3.626   1.759   6.621 -0.5439 -3.3961  0.0365
 8370SOL    HW236573   3.666   1.855   6.510  1.1907  0.3039 -0.8964
 8371SOL     OW36574   2.116   0.823   4.119  0.4319 -0.4686  0.8733
 8371SOL    HW136575   2.176   0.883   4.075 -0.3711 -0.8321 -0.7052
 8371SOL    HW236576   2.103   0.769   4.042  0.5075  1.8450 -0.7674
 8372SOL     OW36577   0.505   2.074   8.585  0.0698 -0.0416  0.2507
 8372SOL    HW136578   0.591   2.033   8.584 -0.7335 -1.7281  0.3661
 8372SOL    HW236579   0.443   2.010   8.549 -0.9813  1.6858 -1.0413
 8373SOL     OW36580   0.173   1.664   1.817 -0.1775 -0.4862 -0.3853
 8373SOL    HW136581   0.267   1.651   1.835 -0.4541 -2.3705 -0.3169
 8373SOL    HW236582   0.166   1.760   1.819 -1.3449 -0.5765 -0.8579
 8374SOL     OW36583   3.803   1.905   5.223 -0.3093 -0.3168  0.2319
 8374SOL    HW136584   3.757   1.831   5.263  0.7960 -1.0498  0.1318
 8374SOL    HW236585   3.736   1.971   5.205  0.4541  0.6926  1.1178
 8375SOL     OW36586   0.019   3.641   5.501  0.2056 -0.3193  0.4431
 8375SOL    HW136587   0.112   3.663   5.497 -0.0345  0.2525 -1.9269
 8375SOL    HW236588   4.697   3.670   5.421 -2.2719 -1.5166  1.3756
 8376SOL     OW36589   1.130   2.232   5.024  0.4653 -0.4986 -0.6040
 8376SOL    HW136590   1.111   2.143   5.055 -2.3873  0.7272  1.1790
 8376SOL    HW236591   1.047   2.274   5.047  0.9591  1.0674 -1.6797
 8377SOL     OW36592   1.933   2.780   4.550 -0.6721 -0.7101  0.5378
 8377SOL    HW136593   1.963   2.741   4.632 -0.0990 -0.5232  0.4181
 8377SOL    HW236594   1.866   2.715   4.529 -0.6783 -0.1976 -1.0296
 8378SOL     OW36595   3.449   1.032   1.875  0.3958  0.4051 -0.7849
 8378SOL    HW136596   3.490   1.037   1.788 -1.4034 -1.7922 -1.7602
 8378SOL    HW236597   3.365   0.997   1.845  0.3896 -1.7851  1.7892
 8379SOL     OW36598   1.563   2.476   5.470  0.1375 -0.0713  0.2964
 8379SOL    HW136599   1.602   2.397   5.431 -0.9102  0.1673 -1.2148
 8379SOL    HW236600   1.622   2.480   5.546 -1.4858 -0.0979  1.5455
 8380SOL     OW36601   0.349   3.603   3.261 -0.1253  0.2130 -0.7081
 8380SOL    HW136602   0.320   3.638   3.177  0.5489 -2.3214 -2.0095
 8380SOL    HW236603   0.268   3.571   3.302  0.3130 -0.1358 -0.1067
 8381SOL     OW36604   3.443   1.495   8.298  0.0661  0.1768 -0.3039
 8381SOL    HW136605   3.404   1.491   8.211  2.4988  2.2863 -1.4741
 8381SOL    HW236606   3.391   1.420   8.327  0.5336  0.0493  0.2009
 8382SOL     OW36607   2.587   0.534   8.840 -0.2622 -0.2439  0.2818
 8382SOL    HW136608   2.556   0.624   8.834 -1.2805 -0.4770  1.9402
 8382SOL    HW236609   2.638   0.525   8.760  0.7312 -1.7038  1.0695
 8383SOL     OW36610   3.735   3.635  13.684  0.0507 -0.2250  0.3292
 8383SOL    HW136611   3.797   3.657  13.754  0.4900  0.5570 -0.2966
 8383SOL    HW236612   3.789   3.588  13.620 -1.0823 -2.9267  1.3800
 8384SOL     OW36613   0.009   4.025   1.507 -0.0305 -1.6437 -0.3440
 8384SOL    HW136614   0.096   4.059   1.526  0.0717 -2.2711  0.3282
 8384SOL    HW236615   4.713   3.974   1.586 -1.8455  0.9492  0.9271
 8385SOL     OW36616   1.516   3.208   0.500  0.4030 -0.7454  0.0253
 8385SOL    HW136617   1.485   3.218   0.590 -1.0627  0.9869 -0.6980
 8385SOL    HW236618   1.607   3.237   0.511 -0.4137  0.9745  2.0319
 8386SOL     OW36619   2.212   0.552   3.449  0.3151  0.2652 -0.5615
 8386SOL    HW136620   2.136   0.593   3.491 -1.3252 -1.4824 -1.8364
 8386SOL    HW236621   2.193   0.568   3.357  1.7707  0.4153 -0.8262
 8387SOL     OW36622   1.477   1.882  15.830  0.0789 -0.1475  0.2944
 8387SOL    HW136623   1.502   1.790  15.830  0.6413  0.0061  0.3282
 8387SOL    HW236624   1.554   1.926  15.793  1.0820 -0.8037  1.6251
 8388SOL     OW36625   4.576   0.085  16.398  0.1544  0.0574 -0.5106
 8388SOL    HW136626   4.546   0.173  16.422  0.2491 -0.2594  0.7796
 8388SOL    HW236627   4.509   0.030  16.439  0.9349  0.3032  1.0989
 8389SOL     OW36628   2.411   1.008  10.731 -0.2307 -0.1510  0.2651
 8389SOL    HW136629   2.317   0.996  10.720 -0.1938  1.6666 -2.0211
 8389SOL    HW236630   2.438   0.951  10.659  1.4203 -1.4336  1.9080
 8390SOL     OW36631   2.464   2.946   0.640 -0.1415  0.0246  0.2943
 8390SOL    HW136632   2.559   2.950   0.651 -0.1981 -0.0669  0.8180
 8390SOL    HW236633   2.441   2.869   0.692 -1.5065  0.1726 -0.0970
 8391SOL     OW36634   4.686   1.553   1.341  0.2059 -0.0090 -0.2037
 8391SOL    HW136635   0.051   1.511   1.337  1.1530  1.9502 -0.1699
 8391SOL    HW236636   4.694   1.608   1.419  1.5453  1.7911 -1.6039
 8392SOL     OW36637   2.964   3.205   2.026  0.1554  0.1333 -0.1308
 8392SOL    HW136638   2.933   3.130   1.974 -0.8865  0.4929 -0.0313
 8392SOL    HW236639   2.935   3.273   1.965 -0.9737  1.0397  1.4195
 8393SOL     OW36640   4.028   0.801  15.947  0.0670  0.1733 -0.0069
 8393SOL    HW136641   4.070   0.857  16.011  1.1275  0.4642 -0.9719
 8393SOL    HW236642   4.088   0.800  15.873  1.0538  0.5563  0.8039
 8394SOL     OW36643   2.537   0.231   7.350 -0.3889  0.4164 -0.9601
 8394SOL    HW136644   2.561   0.281   7.428  1.7307 -1.0436 -0.7014
 8394SOL    HW236645   2.545   0.148   7.396 -0.2861  0.5453 -0.7447
 8395SOL     OW36646   2.861   0.814  11.554  0.5401 -0.1394 -0.7114
 8395SOL    HW136647   2.776   0.838  11.516 -0.3642 -1.5631  0.4260
 8395SOL    HW236648   2.878   0.873  11.627 -1.3087  0.2708 -0.6172
 8396SOL     OW36649   3.506   1.533   4.480 -0.7742 -0.0509  0.0388
 8396SOL    HW136650   3.478   1.468   4.544 -1.5315 -0.2306 -0.4700
 8396SOL    HW236651   3.442   1.514   4.411 -0.6645 -0.9006  0.1661
 8397SOL     OW36652   2.156   0.378   5.196  0.3989 -0.6290 -0.5843
 8397SOL    HW136653   2.117   0.412   5.116 -1.3112 -1.2662 -0.0324
 8397SOL    HW236654   2.138   0.443   5.265  1.5226  1.5735 -2.3747
 8398SOL     OW36655   1.128   3.264   6.053 -0.5846 -0.1333 -0.1673
 8398SOL    HW136656   1.048   3.213   6.042  1.5720 -3.5349 -0.1060
 8398SOL    HW236657   1.133   3.264   6.149 -1.2362 -1.7143 -0.1300
 8399SOL     OW36658   2.374   3.063   0.948  0.1566 -0.5062 -0.1890
 8399SOL    HW136659   2.351   3.125   0.880  0.3425 -0.0526  0.1627
 8399SOL    HW236660   2.334   3.095   1.029  2.4638  1.1260  0.3197
 8400SOL     OW36661   3.315   3.983   6.565  0.4667 -0.1591  0.8596
 8400SOL    HW136662   3.289   3.892   6.577 -1.6403  0.1321 -1.4233
 8400SOL    HW236663   3.385   3.995   6.629  1.3935  0.3987 -0.2491
 8401SOL     OW36664   0.695   3.969   7.644 -0.4605 -0.2641 -0.2117
 8401SOL    HW136665   0.680   3.910   7.570  1.2576  1.2320 -1.7548
 8401SOL    HW236666   0.663   3.919   7.720  2.5496 -1.6209  0.2022
 8402SOL     OW36667   2.722   2.764   3.792  0.1738  0.2268 -0.2151
 8402SOL    HW136668   2.754   2.771   3.702  0.3963  1.2898 -0.0615
 8402SOL    HW236669   2.784   2.816   3.843 -1.8103  0.9003  1.5071
 8403SOL     OW36670   1.052   3.208  17.689  0.0918  0.2824  0.2372
 8403SOL    HW136671   0.957   3.195  17.682  0.3699 -2.0334  0.5021
 8403SOL    HW236672   1.081   3.118  17.670  2.3878  0.7743  1.4453
 8404SOL     OW36673   0.775   3.721  14.976 -0.6282  0.3200 -0.2924
 8404SOL    HW136674   0.774   3.767  14.892 -0.2081 -0.7624 -0.8895
 8404SOL    HW236675   0.766   3.629  14.951  2.3919  0.1548 -0.7829
 8405SOL     OW36676   1.538   1.382   0.195  0.1208  0.1025 -0.3542
 8405SOL    HW136677   1.571   1.302   0.237  1.5791  1.9716  2.0822
 8405SOL    HW236678   1.554   1.441   0.269 -1.1539 -2.0740  1.6891
 8406SOL     OW36679   3.692   3.677   8.607  0.0456 -0.5990  0.6144
 8406SOL    HW136680   3.734   3.622   8.673  0.2450 -0.7108  0.3930
 8406SOL    HW236681   3.661   3.613   8.543  0.0868  0.1482 -0.1564
 8407SOL     OW36682   1.684   0.872   4.485 -0.2435  0.5408 -0.1185
 8407SOL    HW136683   1.621   0.928   4.440  2.0858  2.2662 -1.2716
 8407SOL    HW236684   1.647   0.868   4.573 -0.2846  1.2759 -0.0990
 8408SOL     OW36685   0.959   1.963  12.080  0.0008 -0.3000  0.0639
 8408SOL    HW136686   0.904   2.015  12.139  0.8886  0.4240  0.2467
 8408SOL    HW236687   0.958   2.023  12.005  0.8144  0.1980  0.4483
 8409SOL     OW36688   1.472   0.898  15.377 -0.2519 -0.5262  0.3052
 8409SOL    HW136689   1.414   0.835  15.421 -0.4261  0.6750  1.8129
 8409SOL    HW236690   1.522   0.928  15.453 -1.1337 -2.3318  1.5938
 8410SOL     OW36691   2.541   2.898   7.722 -0.2306 -0.0279  0.1542
 8410SOL    HW136692   2.457   2.865   7.691  1.1030 -0.2860 -3.1245
 8410SOL    HW236693   2.522   2.924   7.813  0.4906  0.4465  0.1778
 8411SOL     OW36694   3.074   0.661   3.605  0.1192 -0.4892  0.8328
 8411SOL    HW136695   3.069   0.610   3.686 -0.0428 -0.7358  0.6669
 8411SOL    HW236696   3.075   0.593   3.537 -2.3826  0.8336 -0.5097
 8412SOL     OW36697   1.438   3.494  16.405  0.6802 -0.1599  0.4055
 8412SOL    HW136698   1.351   3.505  16.367  0.8259 -0.5407 -0.0491
 8412SOL    HW236699   1.487   3.568  16.370 -0.6479  0.8740  0.7362
 8413SOL     OW36700   1.340   3.445   2.785  0.3292 -0.1689 -0.1457
 8413SOL    HW136701   1.339   3.374   2.720  0.6026 -0.5365  0.2559
 8413SOL    HW236702   1.332   3.521   2.727 -0.6561 -0.2171 -0.0633
 8414SOL     OW36703   0.485   4.582   1.239 -0.4359 -0.5013  0.5396
 8414SOL    HW136704   0.443   4.662   1.207 -0.6584 -0.0883  1.8791
 8414SOL    HW236705   0.409   4.527   1.259  0.1821 -1.4362  0.3382
 8415SOL     OW36706   2.678   2.553   8.602 -0.4942  0.3921  0.2423
 8415SOL    HW136707   2.589   2.589   8.596 -0.5913 -0.0756 -1.1954
 8415SOL    HW236708   2.707   2.535   8.512  0.0389 -1.8754  0.8745
 8416SOL     OW36709   2.881   3.122   3.704  0.6143  0.7545  0.7925
 8416SOL    HW136710   2.943   3.145   3.634  1.1271  1.0535  1.3461
 8416SOL    HW236711   2.810   3.090   3.649  0.5457  0.9935  0.7448
 8417SOL     OW36712   2.734   1.896   2.220 -0.2196 -0.3253 -0.2351
 8417SOL    HW136713   2.816   1.851   2.241 -0.7158 -0.3716  1.6487
 8417SOL    HW236714   2.677   1.821   2.210 -2.8941  1.3088  2.7106
 8418SOL     OW36715   1.513   0.261   4.191 -0.5905 -0.5719 -0.0442
 8418SOL    HW136716   1.549   0.182   4.151  1.4669 -0.4003  1.4549
 8418SOL    HW236717   1.457   0.287   4.119 -0.2534  1.6505  0.4648
 8419SOL     OW36718   1.444   1.474   2.032  0.4858  0.0405  0.4514
 8419SOL    HW136719   1.520   1.473   2.091  1.3007  1.4646 -0.5688
 8419SOL    HW236720   1.466   1.401   1.974  2.0811  1.2666 -0.4998
 8420SOL     OW36721   4.620   0.320   7.022 -0.1031 -0.4329  0.0739
 8420SOL    HW136722   4.675   0.276   6.957  0.5041  0.1256  0.2117
 8420SOL    HW236723   4.564   0.251   7.058 -0.9397 -1.2055 -2.6727
 8421SOL     OW36724   3.471   1.752   5.066 -0.6966 -0.1933 -0.2550
 8421SOL    HW136725   3.429   1.780   5.147  1.3588 -1.5699  1.2781
 8421SOL    HW236726   3.396   1.780   5.014 -0.9551 -1.4327 -0.5443
 8422SOL     OW36727   2.482   1.165   9.435  0.2249 -0.4086 -0.0490
 8422SOL    HW136728   2.556   1.222   9.457  0.5370 -1.9623  2.9296
 8422SOL    HW236729   2.515   1.124   9.355 -0.3933  1.7687 -1.4207
 8423SOL     OW36730   0.127   3.095  13.938  0.5811 -0.1585 -0.0413
 8423SOL    HW136731   0.124   2.999  13.946  0.9793 -0.1880 -0.2743
 8423SOL    HW236732   0.154   3.112  14.028 -1.8014 -2.2722  1.0664
 8424SOL     OW36733   4.172   4.445   3.930 -0.4468  0.0836 -0.6525
 8424SOL    HW136734   4.198   4.393   3.854  0.5502  1.2664 -1.1249
 8424SOL    HW236735   4.085   4.475   3.902 -0.7267 -0.3004 -0.1721
 8425SOL     OW36736   3.110   4.210   8.601 -0.3104  0.5458 -0.2890
 8425SOL    HW136737   3.107   4.285   8.660 -1.6856 -0.0965  0.4613
 8425SOL    HW236738   3.019   4.217   8.571 -0.1471  1.8958 -0.4886
 8426SOL     OW36739   4.463   2.417  13.364  0.2104 -0.0836  0.0956
 8426SOL    HW136740   4.519   2.491  13.388 -0.1542  0.2269 -0.0126
 8426SOL    HW236741   4.518   2.341  13.385 -0.3884 -0.6500 -0.3933
 8427SOL     OW36742   1.319   2.712   7.883 -0.1876 -0.2916  0.0778
 8427SOL    HW136743   1.284   2.663   7.809 -2.4407  0.9120  0.3498
 8427SOL    HW236744   1.242   2.734   7.934  0.5264 -0.8662  1.3901
 8428SOL     OW36745   3.896   4.418  11.953  0.6267 -0.1791  0.2015
 8428SOL    HW136746   3.847   4.444  12.030  0.5442 -0.1115  0.1252
 8428SOL    HW236747   3.832   4.441  11.885  1.9256  2.5594 -0.1112
 8429SOL     OW36748   2.845   2.841   3.512  0.3331 -0.1138 -0.1329
 8429SOL    HW136749   2.814   2.832   3.422 -2.7196  1.0401  0.7712
 8429SOL    HW236750   2.934   2.872   3.496  0.6933 -1.6784 -1.1411
 8430SOL     OW36751   0.944   1.836   3.493  0.3593  0.1186 -0.3687
 8430SOL    HW136752   0.996   1.821   3.415 -1.3800 -0.9202 -1.3284
 8430SOL    HW236753   0.990   1.907   3.539 -1.0403  0.2173  0.8694
 8431SOL     OW36754   2.630   0.093  12.462  0.6320  0.2201  0.0566
 8431SOL    HW136755   2.684   0.050  12.396  2.4935 -0.2297  1.8720
 8431SOL    HW236756   2.585   0.014  12.492  2.5795 -0.3524  1.5149
 8432SOL     OW36757   4.198   2.907   2.954 -0.1248  0.4739  0.4335
 8432SOL    HW136758   4.134   2.842   2.923  2.6473  0.5894 -5.5129
 8432SOL    HW236759   4.265   2.900   2.886 -1.3939  1.0855 -0.8824
 8433SOL     OW36760   0.701   1.424   0.098  0.1800  0.4010  0.1982
 8433SOL    HW136761   0.705   1.423   0.194 -1.1098 -1.0994  0.2294
 8433SOL    HW236762   0.612   1.455   0.080 -0.0795  0.6722  1.9895
 8434SOL     OW36763   2.046   4.426   6.308  0.0317 -0.2243 -0.2196
 8434SOL    HW136764   1.971   4.485   6.307  1.2735  1.3293  0.1378
 8434SOL    HW236765   2.117   4.488   6.298 -2.5182  2.2652 -2.7000
 8435SOL     OW36766   3.318   2.541   9.093 -0.3471  0.5075  0.3525
 8435SOL    HW136767   3.299   2.625   9.136  0.6440  0.1780  1.3970
 8435SOL    HW236768   3.413   2.548   9.086 -0.3053  0.2951  0.7391
 8436SOL     OW36769   2.379   0.242  17.079 -0.0286 -0.2137 -0.1551
 8436SOL    HW136770   2.365   0.199  16.995  0.8577  1.7611 -1.3094
 8436SOL    HW236771   2.432   0.179  17.126 -0.1267 -0.1046  0.1054
 8437SOL     OW36772   4.079   3.564   9.080 -0.3945  0.3560  0.3222
 8437SOL    HW136773   4.093   3.546   8.987 -1.6222  1.1806 -0.0267
 8437SOL    HW236774   4.117   3.488   9.123 -1.1989 -1.4682 -2.2302
 8438SOL     OW36775   3.153   0.954  17.097 -0.1618  0.5405  0.1657
 8438SOL    HW136776   3.164   1.049  17.104  2.0165  0.2418  0.8350
 8438SOL    HW236777   3.062   0.951  17.127  0.0981  2.2925  1.1191
 8439SOL     OW36778   3.461   4.571  12.368 -0.1124 -0.6593 -0.4267
 8439SOL    HW136779   3.553   4.545  12.361  0.9940  2.9970  0.1480
 8439SOL    HW236780   3.454   4.607  12.457  0.7321  1.0626 -1.0412
 8440SOL     OW36781   2.762   3.051  12.437 -0.5513 -0.3939  0.5022
 8440SOL    HW136782   2.832   3.104  12.475 -0.6478  1.9642 -2.5610
 8440SOL    HW236783   2.703   3.028  12.508 -0.8198 -0.7282  0.1714
 8441SOL     OW36784   0.931   2.338   3.072 -0.4111 -0.0388 -0.5210
 8441SOL    HW136785   1.023   2.341   3.046 -0.7744  0.1863 -1.7901
 8441SOL    HW236786   0.929   2.274   3.143 -0.4220 -0.1284 -0.6026
 8442SOL     OW36787   3.742   1.446  10.843 -0.1215 -0.4055 -0.0628
 8442SOL    HW136788   3.824   1.398  10.829 -0.1981 -0.8514  1.0361
 8442SOL    HW236789   3.757   1.526  10.793  2.2110 -0.8093 -0.0440
 8443SOL     OW36790   0.880   0.522   2.629  0.4105 -0.4550 -0.4857
 8443SOL    HW136791   0.874   0.610   2.591 -0.9729  1.5798  4.4661
 8443SOL    HW236792   0.820   0.471   2.575  1.9697 -1.6876 -1.0544
 8444SOL     OW36793   2.151   0.507  15.410  0.2705  0.3744 -0.1383
 8444SOL    HW136794   2.161   0.535  15.319  0.4235  1.6685  0.2693
 8444SOL    HW236795   2.153   0.597  15.444  0.4676  0.0210  0.7872
 8445SOL     OW36796   1.989   3.330  11.012 -0.1038 -0.8076 -0.1863
 8445SOL    HW136797   2.025   3.254  10.967 -1.0930 -1.6761  0.5019
 8445SOL    HW236798   1.895   3.314  11.017 -0.2455  0.2220  0.3040
 8446SOL     OW36799   2.190   0.577  14.180 -0.7784  0.0583 -0.0594
 8446SOL    HW136800   2.145   0.504  14.138 -1.1379 -0.1475  0.6994
 8446SOL    HW236801   2.261   0.538  14.231  1.3502  2.7548 -0.9636
 8447SOL     OW36802   4.288   2.408  17.150  0.6399 -0.7774 -0.4152
 8447SOL    HW136803   4.244   2.423  17.234 -1.3939 -1.8075 -1.2950
 8447SOL    HW236804   4.214   2.426  17.091  1.3177 -0.0660 -1.0517
 8448SOL     OW36805   2.817   4.070   7.088 -0.6529  0.4449  0.0863
 8448SOL    HW136806   2.753   4.063   7.018 -0.4628  0.0179 -0.0437
 8448SOL    HW236807   2.875   3.997   7.066 -2.3972  0.3306 -4.0784
 8449SOL     OW36808   1.635   0.868   2.287  0.3160 -0.2250 -0.3934
 8449SOL    HW136809   1.631   0.963   2.272  0.1268 -0.1246  0.3069
 8449SOL    HW236810   1.697   0.842   2.219 -0.6522 -0.3787 -1.2188
 8450SOL     OW36811   3.501   2.362   5.476 -0.2335 -0.1509 -0.0720
 8450SOL    HW136812   3.595   2.381   5.473 -0.2354 -0.0189  0.5893
 8450SOL    HW236813   3.457   2.436   5.434  0.1421  0.1090 -0.0065
 8451SOL     OW36814   3.031   4.667   0.727 -1.1246  0.4686 -0.5307
 8451SOL    HW136815   3.023   4.589   0.782 -0.3202 -0.1197 -1.2575
 8451SOL    HW236816   3.085   4.621   0.663  0.2739  0.1986  0.8406
 8452SOL     OW36817   1.425   2.396  11.455 -0.3511  0.5000 -0.1448
 8452SOL    HW136818   1.405   2.308  11.488 -0.3803  0.5507 -0.0260
 8452SOL    HW236819   1.347   2.418  11.405 -0.2918  2.7266  0.7456
 8453SOL     OW36820   0.003   4.692   4.147 -0.2699  0.0714 -0.4010
 8453SOL    HW136821   0.015   4.597   4.144  1.7713  0.4151 -3.1071
 8453SOL    HW236822   4.647   4.702   4.092 -0.2716  1.8083 -0.0759
 8454SOL     OW36823   1.590   2.514   7.093  0.5388  0.1869  0.1646
 8454SOL    HW136824   1.517   2.543   7.148  1.3627  1.8091  0.4191
 8454SOL    HW236825   1.656   2.581   7.113  3.1675 -2.9091  1.7408
 8455SOL     OW36826   1.042   2.868   7.727 -0.0910 -0.1287 -0.3945
 8455SOL    HW136827   0.987   2.926   7.781 -0.4406 -1.1058  0.2890
 8455SOL    HW236828   1.008   2.779   7.730  1.6752 -0.7793  0.1594
 8456SOL     OW36829   3.650   0.090  14.032  1.0346  0.4248 -0.3278
 8456SOL    HW136830   3.696   0.006  14.041 -1.1692 -0.6340  1.2004
 8456SOL    HW236831   3.679   0.115  13.945  0.0996 -1.9086 -1.3114
 8457SOL     OW36832   0.719   3.874   8.786  0.3961 -0.1525  0.3437
 8457SOL    HW136833   0.677   3.819   8.720 -1.1038  0.7838  0.5115
 8457SOL    HW236834   0.696   3.964   8.764 -2.5012 -0.6244  1.4848
 8458SOL     OW36835   1.459   4.705   5.180 -0.4726  0.0799 -0.0578
 8458SOL    HW136836   1.541   0.025   5.151 -1.9184  1.8618 -1.5950
 8458SOL    HW236837   1.396   0.040   5.135 -0.4020  0.9898  0.9862
 8459SOL     OW36838   0.366   4.014  10.104  0.1287 -0.3601 -0.4096
 8459SOL    HW136839   0.402   3.964  10.177  0.3622  1.1187  0.5001
 8459SOL    HW236840   0.299   3.952  10.075  0.2654 -1.5323  1.8312
 8460SOL     OW36841   4.133   2.631  13.350  0.0353  0.1135  0.3968
 8460SOL    HW136842   4.166   2.719  13.330  0.8264 -0.5581 -1.2581
 8460SOL    HW236843   4.040   2.643  13.368 -0.5453 -2.5802 -0.7472
 8461SOL     OW36844   0.915   1.470  12.076  0.1861 -0.1217 -0.2305
 8461SOL    HW136845   0.988   1.526  12.099 -1.1162  1.6418 -0.3728
 8461SOL    HW236846   0.845   1.532  12.094 -0.0914 -0.2032 -1.0118
 8462SOL     OW36847   1.174   4.266   7.149 -0.0047 -0.4015 -0.1180
 8462SOL    HW136848   1.123   4.202   7.100  0.5838  0.4863 -1.8944
 8462SOL    HW236849   1.104   4.324   7.177  0.2369  0.1717 -0.6955
 8463SOL     OW36850   1.567   1.824   0.716 -0.6397  0.5099 -0.4824
 8463SOL    HW136851   1.580   1.761   0.787 -3.1343 -0.2864 -0.7072
 8463SOL    HW236852   1.596   1.777   0.638  0.4657  2.3591 -1.1877
 8464SOL     OW36853   3.372   3.254   7.576 -0.1304 -0.6213  0.2025
 8464SOL    HW136854   3.392   3.226   7.487  0.9066 -2.3905  0.9749
 8464SOL    HW236855   3.293   3.304   7.555  0.8203  0.7655 -0.0791
 8465SOL     OW36856   4.590   4.187   1.331 -0.2081  0.2241 -0.4934
 8465SOL    HW136857   4.658   4.187   1.264  1.0485 -2.1874  0.7785
 8465SOL    HW236858   4.618   4.126   1.400 -0.1566 -0.0062 -0.7182
 8466SOL     OW36859   1.040   2.987   5.380 -0.5068  0.6467 -0.2369
 8466SOL    HW136860   1.104   2.918   5.360  0.6571  2.3406 -2.2986
 8466SOL    HW236861   0.980   2.959   5.310 -0.4501 -2.8523  1.1153
 8467SOL     OW36862   4.050   4.716   5.561  0.2399  1.2999 -0.6137
 8467SOL    HW136863   4.061   0.076   5.512  0.8948  0.2637 -2.2083
 8467SOL    HW236864   4.097   0.020   5.640 -0.6189  1.7200 -0.2433
 8468SOL     OW36865   2.093   4.048   5.439  0.0519  0.1489 -0.3568
 8468SOL    HW136866   2.076   4.093   5.521  2.4427  0.6752 -0.1516
 8468SOL    HW236867   2.018   3.989   5.428 -0.9465  1.0345  1.8441
 8469SOL     OW36868   3.221   0.345  14.758  0.4092  0.0034 -0.0870
 8469SOL    HW136869   3.190   0.355  14.668  1.3314  0.5288 -0.3471
 8469SOL    HW236870   3.261   0.430  14.774  0.6399  0.1634 -1.5299
 8470SOL     OW36871   2.298   1.987   7.719 -0.4210 -0.1012  0.2125
 8470SOL    HW136872   2.330   2.039   7.646 -0.9382 -3.1107 -2.1332
 8470SOL    HW236873   2.340   1.901   7.710 -0.2182  0.1227 -0.9369
 8471SOL     OW36874   0.872   3.748   5.803 -0.1460 -0.2613 -0.4616
 8471SOL    HW136875   0.937   3.678   5.794 -0.3974 -0.0268 -4.0795
 8471SOL    HW236876   0.902   3.812   5.739 -2.3235 -0.7094 -1.9473
 8472SOL     OW36877   2.116   3.057   7.696 -0.2790 -0.5575 -0.4103
 8472SOL    HW136878   2.079   3.129   7.645  1.2904  0.0044 -0.7792
 8472SOL    HW236879   2.069   3.068   7.779 -0.6301 -0.9212 -0.5634
 8473SOL     OW36880   4.158   0.242   5.474  0.5981  0.2131  0.3475
 8473SOL    HW136881   4.250   0.268   5.481  0.3445  1.1115  0.3104
 8473SOL    HW236882   4.129   0.318   5.425 -1.7630 -0.9903 -0.1394
 8474SOL     OW36883   0.486   4.065   4.626 -0.1870  0.0983  0.5944
 8474SOL    HW136884   0.464   4.151   4.661 -0.1236 -0.5565  2.2321
 8474SOL    HW236885   0.574   4.075   4.589 -0.2812 -0.2310  0.2860
 8475SOL     OW36886   2.537   0.044  11.262 -0.0340 -0.3420 -0.3767
 8475SOL    HW136887   2.473   0.068  11.195 -1.2689 -0.1635  0.8761
 8475SOL    HW236888   2.548   0.124  11.314  1.2269  0.4095 -1.7873
 8476SOL     OW36889   3.350   2.173   7.952  0.3881  0.4338  0.0680
 8476SOL    HW136890   3.415   2.218   7.898  0.8429 -0.6130 -0.2463
 8476SOL    HW236891   3.290   2.133   7.889  1.7507  0.1733 -1.0738
 8477SOL     OW36892   3.699   2.667   4.863 -0.0001  0.4997  0.4074
 8477SOL    HW136893   3.635   2.613   4.816 -0.6642 -0.8402  2.8058
 8477SOL    HW236894   3.661   2.753   4.845 -3.8624 -1.6632 -1.8322
 8478SOL     OW36895   0.825   0.530   5.590 -0.3990  0.0895 -0.0005
 8478SOL    HW136896   0.880   0.476   5.647  0.3374 -0.1358 -0.9312
 8478SOL    HW236897   0.789   0.464   5.531 -0.8278  1.5542 -1.3808
 8479SOL     OW36898   3.740   4.012   2.531 -0.2004  0.2476 -0.1786
 8479SOL    HW136899   3.829   3.979   2.538 -1.0334 -1.8240  0.3718
 8479SOL    HW236900   3.693   3.929   2.531 -1.4272  0.9330  0.6330
 8480SOL     OW36901   0.809   3.068   4.386 -0.2410  0.1360  0.3991
 8480SOL    HW136902   0.791   3.157   4.354  1.2222  0.0073 -0.7849
 8480SOL    HW236903   0.721   3.059   4.422 -0.9970  0.9403 -1.2078
 8481SOL     OW36904   4.164   4.215   4.837  0.6070  0.6132 -0.4577
 8481SOL    HW136905   4.143   4.123   4.847  0.5008  0.7356  0.4424
 8481SOL    HW236906   4.237   4.201   4.776 -0.8616  0.0024 -2.0614
 8482SOL     OW36907   1.339   2.152  15.337  0.2693  0.4746  0.3953
 8482SOL    HW136908   1.384   2.233  15.312 -0.3832 -0.5264 -3.9741
 8482SOL    HW236909   1.404   2.099  15.290 -0.5170 -1.4492  1.4596
 8483SOL     OW36910   3.436   0.857   2.285  0.5027  0.4678 -0.0489
 8483SOL    HW136911   3.493   0.806   2.342 -0.6495  0.3393  0.9682
 8483SOL    HW236912   3.464   0.829   2.197 -0.1828  0.3460 -0.2275
 8484SOL     OW36913   1.232   2.973  13.063 -0.2760  0.6462  0.3990
 8484SOL    HW136914   1.247   3.050  13.119  2.3920 -0.9965  1.9283
 8484SOL    HW236915   1.151   2.997  13.017 -0.2178 -1.4025 -0.7510
 8485SOL     OW36916   2.883   2.293   3.873 -0.5465 -0.4575 -0.2865
 8485SOL    HW136917   2.929   2.336   3.801 -1.9673 -2.4068 -2.3263
 8485SOL    HW236918   2.789   2.307   3.862 -0.7397 -3.7013 -2.5403
 8486SOL     OW36919   0.618   0.289  10.841  0.0923 -0.0061  0.0595
 8486SOL    HW136920   0.574   0.373  10.831  1.8923  1.0108  0.6956
 8486SOL    HW236921   0.611   0.286  10.937 -2.4734  0.0241 -0.1260
 8487SOL     OW36922   0.675   4.519   8.494  0.0117  0.5455  0.5672
 8487SOL    HW136923   0.727   4.588   8.455  0.9624 -0.7766 -0.5168
 8487SOL    HW236924   0.639   4.560   8.573  0.4056 -0.6385  1.3740
 8488SOL     OW36925   4.376   0.558   9.606  0.1689 -0.4876  0.3249
 8488SOL    HW136926   4.315   0.622   9.641  0.3107 -0.7835  1.1193
 8488SOL    HW236927   4.329   0.501   9.544 -0.9032  0.9726 -0.1916
 8489SOL     OW36928   1.833   0.178   2.396  0.1517  0.0349  0.1251
 8489SOL    HW136929   1.784   0.108   2.351 -1.0056  1.3385 -0.6536
 8489SOL    HW236930   1.805   0.164   2.486  0.8592  0.6124  0.4300
 8490SOL     OW36931   2.449   3.610   2.219 -0.0067 -0.1673 -0.0983
 8490SOL    HW136932   2.531   3.611   2.170 -1.8158 -1.9297 -3.1754
 8490SOL    HW236933   2.457   3.617   2.314  1.5281  0.6600 -0.2836
 8491SOL     OW36934   2.689   4.087  17.369  0.0571 -0.3269  0.3586
 8491SOL    HW136935   2.701   4.006  17.419 -0.0935 -0.1998  0.5975
 8491SOL    HW236936   2.665   4.048  17.285  0.0860 -0.6559  0.5051
 8492SOL     OW36937   0.732   0.156   3.824 -0.5554 -0.0610  0.0928
 8492SOL    HW136938   0.676   0.197   3.759  0.6607 -1.0309 -1.5962
 8492SOL    HW236939   0.689   0.071   3.825  0.1211 -0.4024  1.0796
 8493SOL     OW36940   0.064   4.014   3.590 -0.0106  0.5279 -0.0665
 8493SOL    HW136941   0.048   3.942   3.652  1.0382  0.0588 -0.3375
 8493SOL    HW236942   0.130   3.974   3.533  1.1196  2.3573 -0.0642
 8494SOL     OW36943   1.040   3.956   0.511 -0.5483  0.3875  0.2425
 8494SOL    HW136944   0.970   4.002   0.466  0.6236  0.9631 -1.0103
 8494SOL    HW236945   1.102   4.029   0.523 -0.3409  0.5394 -1.8392
 8495SOL     OW36946   2.798   1.429   2.997  0.1797 -0.4138  0.3114
 8495SOL    HW136947   2.839   1.512   3.024 -0.6708  0.5790 -1.4469
 8495SOL    HW236948   2.770   1.393   3.081 -0.7343 -0.5727 -0.0660
 8496SOL     OW36949   2.396   2.493  14.276  0.7332 -0.6155  0.0033
 8496SOL    HW136950   2.380   2.407  14.315 -0.0299 -1.4466 -2.1000
 8496SOL    HW236951   2.348   2.553  14.332  2.4322  0.0844  0.6899
 8497SOL     OW36952   1.281   3.480   0.098  0.3970 -0.0147  0.0623
 8497SOL    HW136953   1.354   3.452   0.153  0.2738 -0.9708 -0.2541
 8497SOL    HW236954   1.303   3.567   0.065 -0.6463  1.0264  2.1180
 8498SOL     OW36955   0.459   2.026  14.825 -0.1290 -0.1243  0.3295
 8498SOL    HW136956   0.481   1.986  14.741  3.0053  2.4626 -0.0644
 8498SOL    HW236957   0.538   2.076  14.846 -0.7317  2.0831 -2.6514
 8499SOL     OW36958   3.468   0.756   5.006  0.1965  0.2154  0.0052
 8499SOL    HW136959   3.458   0.843   5.045  1.9612  0.4595 -0.1082
 8499SOL    HW236960   3.541   0.786   4.952 -0.6334  0.4764 -0.9836
 8500SOL     OW36961   2.472   3.090  12.911  0.4895 -0.0103  0.8486
 8500SOL    HW136962   2.518   3.016  12.873 -0.0635  1.0805 -1.9188
 8500SOL    HW236963   2.546   3.139  12.948  0.0397  1.2179  0.1134
 8501SOL     OW36964   0.537   1.574   3.844  0.2584  0.4193  0.4915
 8501SOL    HW136965   0.549   1.481   3.824 -0.1313  0.9070 -1.9808
 8501SOL    HW236966   0.528   1.606   3.755 -3.1198  0.2849  0.8114
 8502SOL     OW36967   3.354   1.134   7.304  0.0070 -0.2448  0.3823
 8502SOL    HW136968   3.394   1.207   7.256  0.3647  0.9732  2.5389
 8502SOL    HW236969   3.275   1.177   7.336 -0.4666 -0.0701 -1.0327
 8503SOL     OW36970   2.921   3.210   7.727 -0.3803 -0.2180  0.4816
 8503SOL    HW136971   2.927   3.117   7.706 -0.3021 -0.9508  3.7397
 8503SOL    HW236972   2.972   3.244   7.654 -1.8401 -1.6562 -1.2354
 8504SOL     OW36973   2.805   2.869   9.035  0.3377  0.0078  0.2699
 8504SOL    HW136974   2.803   2.928   9.110 -2.2607 -0.2856  0.4630
 8504SOL    HW236975   2.715   2.843   9.014  0.1709  0.4459  0.4505
 8505SOL     OW36976   0.436   3.610   8.690  0.0915  0.1916  0.1551
 8505SOL    HW136977   0.517   3.643   8.650 -0.8973  0.6311 -1.4848
 8505SOL    HW236978   0.430   3.669   8.765  1.4535  0.9817 -0.3549
 8506SOL     OW36979   1.979   0.282   2.893 -0.2073  0.3575 -0.1113
 8506SOL    HW136980   1.887   0.274   2.868 -0.1024 -0.2024 -0.3258
 8506SOL    HW236981   2.023   0.314   2.814  1.5824  1.9311  1.5318
 8507SOL     OW36982   0.724   3.162  13.979  0.1087 -0.4098  0.1810
 8507SOL    HW136983   0.703   3.138  13.889  1.9093 -1.9919  0.2036
 8507SOL    HW236984   0.652   3.122  14.028  0.9366 -2.3686 -0.2063
 8508SOL     OW36985   0.261   3.728   7.981  0.8630 -0.5092 -0.5902
 8508SOL    HW136986   0.223   3.715   8.068  0.5998 -0.1539 -0.6510
 8508SOL    HW236987   0.325   3.794   8.005  0.3931 -0.3727  0.2647
 8509SOL     OW36988   4.394   4.332   6.678  0.2891 -0.2551  0.2439
 8509SOL    HW136989   4.456   4.271   6.638 -0.5432 -1.5287  0.8703
 8509SOL    HW236990   4.446   4.388   6.735 -0.9158  0.0390  1.0630
 8510SOL     OW36991   2.499   1.253   8.489  0.0859  0.4470 -0.3319
 8510SOL    HW136992   2.570   1.307   8.524  0.5802 -1.4302  1.5871
 8510SOL    HW236993   2.510   1.275   8.397 -0.2973 -1.4922 -0.8467
 8511SOL     OW36994   3.812   1.827  10.518 -0.2656  0.3579 -0.2818
 8511SOL    HW136995   3.804   1.763  10.447 -1.4821  1.4196 -1.0904
 8511SOL    HW236996   3.819   1.906  10.464 -0.2772  0.0728 -0.6991
 8512SOL     OW36997   0.053   0.215   6.824  0.0292 -0.3635 -0.3880
 8512SOL    HW136998   0.149   0.222   6.823 -0.0782  1.1341  0.2202
 8512SOL    HW236999   0.038   0.121   6.815 -1.7715 -0.2620  1.4648
 8513SOL     OW37000   3.084   2.201  15.436 -0.5937  0.1098 -0.0631
 8513SOL    HW137001   3.154   2.232  15.494  0.3484 -0.3980 -0.9382
 8513SOL    HW237002   3.103   2.255  15.359  0.0931 -0.2054 -0.1167
 8514SOL     OW37003   0.366   0.099   7.990  0.1117 -0.3654 -0.3719
 8514SOL    HW137004   0.383   0.143   7.907  0.5015  0.9691  0.4307
 8514SOL    HW237005   0.316   0.022   7.959 -0.3061  0.3290 -1.4261
 8515SOL     OW37006   4.378   2.842   2.382  0.5633 -0.2079  0.3052
 8515SOL    HW137007   4.467   2.808   2.384  0.7998  0.4357  0.6384
 8515SOL    HW237008   4.332   2.764   2.413  1.2516 -0.5695  0.4099
 8516SOL     OW37009   2.704   3.065   1.207  0.5481 -0.0535 -0.7358
 8516SOL    HW137010   2.682   3.056   1.114 -1.5919 -2.1126 -0.0370
 8516SOL    HW237011   2.722   2.975   1.233  3.4332 -0.7004 -4.9269
 8517SOL     OW37012   0.249   4.347  17.552 -0.5738 -0.9801 -0.3297
 8517SOL    HW137013   0.289   4.422  17.596 -2.5193 -0.6202  0.8095
 8517SOL    HW237014   0.331   4.297  17.551  0.4302  0.6747 -1.0441
 8518SOL     OW37015   0.970   2.535   2.607  0.4201  0.2291  0.6965
 8518SOL    HW137016   0.959   2.518   2.513 -0.7539 -0.3345  0.9319
 8518SOL    HW237017   0.911   2.472   2.648 -0.7612 -0.5749 -2.1938
 8519SOL     OW37018   3.036   0.623   6.153 -0.1635 -0.1235  0.4503
 8519SOL    HW137019   3.131   0.611   6.149  0.0845  0.7884  4.1027
 8519SOL    HW237020   3.022   0.540   6.198 -1.8222 -0.3397 -0.4799
 8520SOL     OW37021   3.447   3.134  12.033 -0.0172  0.5502  0.6415
 8520SOL    HW137022   3.391   3.087  11.971  1.5918 -0.2927 -0.1900
 8520SOL    HW237023   3.503   3.059  12.054  0.3457  0.3414 -1.0466
 8521SOL     OW37024   3.464   0.126  17.503 -0.3343  0.0862 -0.0924
 8521SOL    HW137025   3.450   0.141  17.597 -2.4303  0.0709 -0.4015
 8521SOL    HW237026   3.377   0.088  17.490 -0.8902  1.4988 -0.4242
 8522SOL     OW37027   1.705   4.268  16.527 -0.0516  0.2601  0.0087
 8522SOL    HW137028   1.639   4.200  16.519  0.1087  0.4860 -3.1367
 8522SOL    HW237029   1.741   4.259  16.439 -0.0807  2.6824 -0.2665
 8523SOL     OW37030   3.437   1.257   1.638 -0.0401 -0.9091 -0.2065
 8523SOL    HW137031   3.479   1.181   1.598  2.2183  1.1404 -1.7584
 8523SOL    HW237032   3.488   1.278   1.717  2.6986 -1.5858 -1.7838
 8524SOL     OW37033   4.645   3.014   8.479  0.3956 -0.5541  0.1656
 8524SOL    HW137034   0.007   2.969   8.464 -0.2721 -1.0253 -2.1920
 8524SOL    HW237035   4.662   3.104   8.507 -0.0496 -0.2984 -0.4036
 8525SOL     OW37036   3.069   3.433  14.368 -0.8292  0.0762 -0.6973
 8525SOL    HW137037   3.029   3.423  14.282 -1.5732  1.9937 -0.5580
 8525SOL    HW237038   3.137   3.496  14.346  0.0906 -1.0196 -0.9743
 8526SOL     OW37039   3.635   1.678   5.375 -0.1510  0.0482 -0.5052
 8526SOL    HW137040   3.702   1.612   5.355  0.7495  1.0940 -0.9415
 8526SOL    HW237041   3.566   1.658   5.312  0.2387 -1.2275 -0.5344
 8527SOL     OW37042   3.314   2.245   4.980  0.3710  0.2378  0.1850
 8527SOL    HW137043   3.262   2.242   4.900 -2.1032  0.8071  1.7732
 8527SOL    HW237044   3.381   2.178   4.965  0.1060 -0.3093  1.4634
 8528SOL     OW37045   3.866   3.547   4.066 -0.1127  0.2373  0.1781
 8528SOL    HW137046   3.804   3.539   3.993 -2.1976 -2.0003  2.1591
 8528SOL    HW237047   3.891   3.460   4.097 -1.6210 -0.3547 -0.2480
 8529SOL     OW37048   4.413   4.182  15.051  0.5349 -0.7095  0.4347
 8529SOL    HW137049   4.367   4.258  15.085  0.0842 -1.0786  0.6602
 8529SOL    HW237050   4.498   4.225  15.051  0.1045  0.1957 -2.9452
 8530SOL     OW37051   1.114   3.299   2.634 -1.2033  0.2640  0.7830
 8530SOL    HW137052   1.049   3.254   2.687 -0.3112 -2.7006 -0.6365
 8530SOL    HW237053   1.076   3.267   2.552  1.3892  1.0433 -0.7014
 8531SOL     OW37054   2.585   3.945  12.597 -0.0992 -0.1955  0.2500
 8531SOL    HW137055   2.613   3.965  12.507  0.2300  0.6262  0.5326
 8531SOL    HW237056   2.561   4.029  12.638  0.8073 -0.0981  0.5697
 8532SOL     OW37057   1.477   1.533   8.863 -0.4161 -0.2826  0.3973
 8532SOL    HW137058   1.541   1.464   8.846 -2.2288 -2.2689  1.7333
 8532SOL    HW237059   1.435   1.513   8.947 -2.1517 -1.6197 -0.7832
 8533SOL     OW37060   2.964   0.454   0.539 -0.3221 -0.1728  0.2626
 8533SOL    HW137061   3.018   0.393   0.588  1.2377 -0.8287 -2.2750
 8533SOL    HW237062   2.876   0.416   0.548  0.8859 -2.8626  0.5326
 8534SOL     OW37063   0.707   0.816  16.098 -0.3429 -0.1191 -0.3245
 8534SOL    HW137064   0.744   0.783  16.179  1.4052  2.4870 -0.0762
 8534SOL    HW237065   0.726   0.740  16.044  1.4605  0.2183 -0.1444
 8535SOL     OW37066   0.891   3.354  10.292 -0.4188  0.0118  0.5626
 8535SOL    HW137067   0.984   3.339  10.307  0.0216 -1.6523 -3.7230
 8535SOL    HW237068   0.849   3.312  10.367 -0.6358 -0.8274 -0.0355
 8536SOL     OW37069   0.323   2.274   8.485  0.0940  0.3670  0.1849
 8536SOL    HW137070   0.368   2.241   8.562  2.3312  0.9435 -0.8603
 8536SOL    HW237071   0.396   2.327   8.453  0.3688 -0.3006 -0.2982
 8537SOL     OW37072   2.232   0.793  10.481 -0.2297 -0.5775 -0.5905
 8537SOL    HW137073   2.180   0.837  10.547 -0.9875  1.1696 -2.3558
 8537SOL    HW237074   2.276   0.865  10.436 -0.3713 -0.9684 -1.3603
 8538SOL     OW37075   2.664   1.055   0.110 -0.1462  0.2601  0.1962
 8538SOL    HW137076   2.701   1.116   0.047 -2.3319  0.3924 -0.9822
 8538SOL    HW237077   2.578   1.094   0.126  1.0116  3.1560 -0.8308
 8539SOL     OW37078   2.051   3.855  13.878 -0.1377 -0.1001 -0.0371
 8539SOL    HW137079   2.012   3.813  13.802 -0.7438 -0.2884  0.3823
 8539SOL    HW237080   2.055   3.774  13.928  1.5911 -0.6894 -1.1406
 8540SOL     OW37081   1.617   0.358   5.210  0.5242  0.4186  0.8911
 8540SOL    HW137082   1.587   0.365   5.119 -0.2370  0.0016  1.1124
 8540SOL    HW237083   1.572   0.428   5.258  0.7824  0.4151  1.1404
 8541SOL     OW37084   2.803   4.662   2.848  0.0464 -0.8592  0.3209
 8541SOL    HW137085   2.720   4.674   2.803 -0.4472 -0.9090  1.2241
 8541SOL    HW237086   2.826   4.578   2.807  0.6847 -0.7327  0.4101
 8542SOL     OW37087   3.004   3.910  14.981 -0.3633 -0.1121 -0.0520
 8542SOL    HW137088   3.010   3.968  14.906 -1.6987 -0.3873 -0.3553
 8542SOL    HW237089   3.008   3.973  15.053  0.9139 -0.4517  0.1733
 8543SOL     OW37090   4.676   2.916   6.476  0.0561 -0.5378  0.1566
 8543SOL    HW137091   4.687   2.915   6.571  1.3487  1.0117  0.0149
 8543SOL    HW237092   4.590   2.874   6.473 -0.2287  0.1244 -1.1948
 8544SOL     OW37093   4.503   3.432   5.181  0.1436 -0.7962 -0.4188
 8544SOL    HW137094   4.529   3.465   5.095 -2.1718  1.0900 -0.4075
 8544SOL    HW237095   4.416   3.405   5.152  0.9197 -1.8406 -1.7489
 8545SOL     OW37096   0.777   3.296   2.320  0.0032 -0.2476 -0.0562
 8545SOL    HW137097   0.690   3.301   2.360 -0.0036 -0.2610 -0.0693
 8545SOL    HW237098   0.772   3.205   2.292  0.3796 -0.1015 -0.5916
 8546SOL     OW37099   4.103   0.493  10.411  0.7834  0.0819 -0.5029
 8546SOL    HW137100   4.121   0.403  10.437  1.3100  0.2148 -0.3950
 8546SOL    HW237101   4.101   0.483  10.316  1.0540  2.8941 -0.8135
 8547SOL     OW37102   1.795   1.137   8.697 -0.0029  0.3560  0.5640
 8547SOL    HW137103   1.831   1.109   8.781 -1.0760  0.2904  1.0051
 8547SOL    HW237104   1.840   1.089   8.627  1.3652 -0.3516  1.9183
 8548SOL     OW37105   2.192   0.310   6.661 -0.7454 -0.2410 -0.1463
 8548SOL    HW137106   2.259   0.292   6.727  0.6968  2.1097 -0.9982
 8548SOL    HW237107   2.193   0.226   6.614 -0.4421 -0.4846  0.2944
 8549SOL     OW37108   3.158   1.192  11.931 -0.4791 -0.8368  0.0897
 8549SOL    HW137109   3.211   1.261  11.970 -0.2524 -1.5375  1.0118
 8549SOL    HW237110   3.136   1.131  12.001 -1.4946 -1.0751 -0.4405
 8550SOL     OW37111   1.366   3.055  12.273  0.1347  0.1184 -0.1532
 8550SOL    HW137112   1.446   3.098  12.302 -1.2675  1.6488  1.4152
 8550SOL    HW237113   1.341   3.128  12.216 -0.8381 -0.4905 -0.5151
 8551SOL     OW37114   3.385   3.802   4.015 -1.4250 -0.1821  0.4968
 8551SOL    HW137115   3.311   3.784   4.073 -0.2301 -1.5426  1.6348
 8551SOL    HW237116   3.342   3.854   3.948  0.9881  1.3915  0.1811
 8552SOL     OW37117   2.333   2.914   1.860 -0.0074  0.3498  0.4786
 8552SOL    HW137118   2.357   2.907   1.952  2.6945  0.6451 -0.1823
 8552SOL    HW237119   2.358   3.006   1.850 -1.4905  0.6793 -0.1071
 8553SOL     OW37120   0.822   0.043  14.505 -0.3682 -0.1106 -0.0456
 8553SOL    HW137121   0.764   4.688  14.506  0.7640 -0.9934 -0.4668
 8553SOL    HW237122   0.763   0.111  14.534 -0.5310 -1.9020  3.8614
 8554SOL     OW37123   2.653   1.869   5.617 -0.5051  0.5347 -0.2842
 8554SOL    HW137124   2.747   1.877   5.599 -0.5188 -1.3916 -1.2099
 8554SOL    HW237125   2.627   1.886   5.526 -0.0086  1.4544 -0.2568
 8555SOL     OW37126   1.743   1.625   3.029  0.4238  0.3431 -0.4195
 8555SOL    HW137127   1.781   1.537   3.030  2.0365  1.0282  0.7092
 8555SOL    HW237128   1.698   1.634   2.945 -0.2529 -1.6782 -0.2541
 8556SOL     OW37129   0.940   0.889   7.307  0.3105 -0.0658 -0.1318
 8556SOL    HW137130   1.006   0.823   7.288  1.1149  0.8164 -0.3724
 8556SOL    HW237131   0.873   0.841   7.356 -0.8234  1.6544 -0.0019
 8557SOL     OW37132   1.529   1.929   2.810 -0.4497 -0.3935 -0.1387
 8557SOL    HW137133   1.503   1.990   2.741 -1.6153 -1.4897 -0.6849
 8557SOL    HW237134   1.624   1.923   2.797 -0.6739 -0.5733 -1.6545
 8558SOL     OW37135   3.928   2.663   5.667 -0.0510  0.3440  0.1763
 8558SOL    HW137136   3.958   2.587   5.619 -1.2890  0.4777 -0.7896
 8558SOL    HW237137   3.983   2.673   5.745  0.6687  0.8483 -0.3984
 8559SOL     OW37138   1.400   0.452   0.616 -0.2230 -0.4246  0.0034
 8559SOL    HW137139   1.367   0.466   0.705 -0.3816  0.2092 -0.1546
 8559SOL    HW237140   1.384   0.358   0.608 -0.6987 -0.4425  1.1059
 8560SOL     OW37141   2.702   1.040   3.492 -0.5162 -0.0514 -0.3321
 8560SOL    HW137142   2.691   0.951   3.523 -0.1698  0.0150 -0.0202
 8560SOL    HW237143   2.750   1.023   3.411  0.5427 -1.1349  0.5347
 8561SOL     OW37144   0.411   2.656  15.087  0.3075 -0.3093 -0.5661
 8561SOL    HW137145   0.361   2.585  15.047 -1.0459  1.2039 -1.5356
 8561SOL    HW237146   0.494   2.609  15.080  0.4226 -0.0714 -0.7973
 8562SOL     OW37147   4.691   2.705   0.084  0.4529  0.2426 -0.2872
 8562SOL    HW137148   4.703   2.667  17.686  1.8991 -1.1397  0.5056
 8562SOL    HW237149   0.062   2.713   0.109  1.0544 -1.1395 -2.1082
 8563SOL     OW37150   2.214   2.737   3.841  0.3592 -0.9552 -0.0079
 8563SOL    HW137151   2.255   2.696   3.916 -0.4497 -1.3095  0.2459
 8563SOL    HW237152   2.120   2.723   3.858  0.1036  2.4167  1.4554
 8564SOL     OW37153   3.493   0.359   6.122 -0.2651 -0.1591  0.1315
 8564SOL    HW137154   3.527   0.298   6.187  1.5492  1.4153  0.6675
 8564SOL    HW237155   3.577   0.397   6.095 -1.2180  1.5552 -0.4339
 8565SOL     OW37156   2.990   3.514   4.562 -0.3693  0.1759 -0.3419
 8565SOL    HW137157   2.970   3.598   4.602  0.0846  0.4028 -0.5960
 8565SOL    HW237158   3.076   3.530   4.525 -0.0605  0.2539  0.4014
 8566SOL     OW37159   1.652   1.150   0.263 -0.2271  0.1041 -0.2592
 8566SOL    HW137160   1.594   1.102   0.205  0.8652 -0.9784 -0.4492
 8566SOL    HW237161   1.734   1.127   0.219  0.6075  0.5057  1.0676
 8567SOL     OW37162   0.578   0.704   6.686 -0.3414  0.2313 -0.1594
 8567SOL    HW137163   0.523   0.747   6.751  0.7903  2.9707 -1.0299
 8567SOL    HW237164   0.660   0.700   6.736 -1.1810 -1.8989  1.0602
 8568SOL     OW37165   2.953   2.647  16.480  0.0999  0.4543  0.4998
 8568SOL    HW137166   2.998   2.563  16.471 -1.5849 -0.7409  3.2118
 8568SOL    HW237167   2.916   2.646  16.392  0.5216  0.4007  0.3258
 8569SOL     OW37168   0.483   0.447   6.692  0.4613 -0.1384  0.1759
 8569SOL    HW137169   0.493   0.448   6.597  1.5432 -0.2910  0.2830
 8569SOL    HW237170   0.493   0.540   6.711 -1.4672  0.3685 -1.2260
 8570SOL     OW37171   2.015   1.534  15.615  0.3264 -0.0660  0.1118
 8570SOL    HW137172   1.999   1.455  15.564  2.4239  1.2486 -2.5751
 8570SOL    HW237173   1.936   1.585  15.595  1.0298  1.1777  0.4642
 8571SOL     OW37174   1.818   0.808  14.966 -0.1339  0.5130 -0.3892
 8571SOL    HW137175   1.911   0.811  14.991 -0.5813  0.1121  1.3160
 8571SOL    HW237176   1.806   0.721  14.930 -0.9263  0.3295  0.3180
 8572SOL     OW37177   2.180   1.757   5.126 -0.0831  0.4285 -0.6614
 8572SOL    HW137178   2.198   1.666   5.147 -0.9513  0.3613 -0.1926
 8572SOL    HW237179   2.213   1.806   5.201 -2.5481 -0.8680  1.2701
 8573SOL     OW37180   1.263   3.710   3.539  0.1371  0.2535 -0.3197
 8573SOL    HW137181   1.258   3.615   3.543  0.2887  0.2178 -0.9256
 8573SOL    HW237182   1.169   3.722   3.549  0.6901  4.0299  0.3732
 8574SOL     OW37183   2.755   2.811   2.486 -0.7218 -0.5987 -0.0519
 8574SOL    HW137184   2.721   2.873   2.422  0.5513 -0.3472 -0.4697
 8574SOL    HW237185   2.825   2.858   2.530 -1.6260  1.2653 -0.5992
 8575SOL     OW37186   0.079   0.500   6.792  0.2850 -0.7861 -0.5411
 8575SOL    HW137187   0.025   0.423   6.809  0.9540 -1.3665 -1.0551
 8575SOL    HW237188   0.010   0.565   6.777  0.0970 -0.2092  2.7124
 8576SOL     OW37189   2.096   0.748   8.339 -0.9523 -0.4086  0.2018
 8576SOL    HW137190   2.064   0.745   8.429  0.8727 -1.3123  0.8332
 8576SOL    HW237191   2.029   0.713   8.281 -2.2101  1.1117  0.7460
 8577SOL     OW37192   1.543   1.170   3.876  0.2640 -0.4100 -0.9509
 8577SOL    HW137193   1.598   1.092   3.870  2.0989  0.9004 -0.9720
 8577SOL    HW237194   1.611   1.230   3.845  2.3734 -2.4016 -0.1580
 8578SOL     OW37195   0.401   3.061   6.527  0.5387  0.6962  0.0243
 8578SOL    HW137196   0.368   2.996   6.466  1.6994  1.8542 -1.8283
 8578SOL    HW237197   0.453   3.012   6.590  0.0020 -0.6075 -0.5519
 8579SOL     OW37198   4.344   4.239   7.134  0.0884 -0.3864  0.0136
 8579SOL    HW137199   4.374   4.294   7.207 -0.9810 -3.0872  2.4770
 8579SOL    HW237200   4.294   4.302   7.081  0.2950  0.4654  0.8251
 8580SOL     OW37201   1.309   0.816   6.407 -0.0106  0.0202 -0.1601
 8580SOL    HW137202   1.224   0.802   6.449 -0.1074  0.2898 -0.2661
 8580SOL    HW237203   1.302   0.764   6.327 -1.4083  0.0454 -0.0541
 8581SOL     OW37204   2.228   1.579  14.092 -0.5402  0.2067 -0.0817
 8581SOL    HW137205   2.194   1.637  14.024 -0.6143  0.7846  0.4560
 8581SOL    HW237206   2.279   1.528  14.030 -0.9946 -0.2742 -0.0667
 8582SOL     OW37207   0.903   1.596   7.454 -0.2369 -0.0240  0.4957
 8582SOL    HW137208   0.986   1.597   7.405 -1.9572 -0.4423 -2.4120
 8582SOL    HW237209   0.929   1.528   7.516  0.1148  0.8400  1.3028
 8583SOL     OW37210   2.623   2.671   0.024  0.1372 -0.0902 -0.0238
 8583SOL    HW137211   2.574   2.720   0.090 -0.3303 -1.5161  0.6958
 8583SOL    HW237212   2.552   2.630  17.664 -0.5541  1.1058 -0.0023
 8584SOL     OW37213   1.698   1.236   4.357  0.0354 -0.5465  0.0544
 8584SOL    HW137214   1.758   1.254   4.429  1.4287  2.0822 -1.7874
 8584SOL    HW237215   1.684   1.320   4.312  1.2236 -0.4409 -0.1290
 8585SOL     OW37216   4.409   2.813   6.402  0.4106  0.2391  0.0641
 8585SOL    HW137217   4.382   2.899   6.371 -0.8863  0.4292  1.7107
 8585SOL    HW237218   4.365   2.809   6.487  0.0009 -0.5869 -0.1848
 8586SOL     OW37219   1.645   1.384   4.996 -0.5034 -0.0923  0.3232
 8586SOL    HW137220   1.600   1.458   4.956  2.0642  1.0706 -0.3810
 8586SOL    HW237221   1.595   1.314   4.952 -1.5519  1.0843 -0.3646
 8587SOL     OW37222   4.420   2.022   1.940 -0.5739  0.2930  0.1929
 8587SOL    HW137223   4.498   1.970   1.958 -0.8047 -0.0294  0.2533
 8587SOL    HW237224   4.402   2.058   2.027 -0.3067  0.0812  0.3348
 8588SOL     OW37225   1.072   3.805   4.676  0.0422  0.0139  0.0719
 8588SOL    HW137226   1.064   3.721   4.722 -3.0151  0.4626  0.3578
 8588SOL    HW237227   0.981   3.820   4.650  0.0644 -0.7143 -0.4261
 8589SOL     OW37228   2.537   1.423  17.266  0.4173 -0.5732  0.1791
 8589SOL    HW137229   2.487   1.494  17.224 -1.7607 -1.6610  0.9485
 8589SOL    HW237230   2.468   1.359  17.283 -1.0021  0.8551 -0.1984
 8590SOL     OW37231   3.097   1.662  10.228  0.0709 -0.1570 -0.2433
 8590SOL    HW137232   3.064   1.739  10.180 -1.3114 -0.5101  0.1614
 8590SOL    HW237233   3.065   1.594  10.169  2.9467 -0.7478 -1.1095
 8591SOL     OW37234   0.312   1.327   2.594  0.1491  0.2541 -0.0570
 8591SOL    HW137235   0.303   1.340   2.499 -2.1640  0.2471  0.1735
 8591SOL    HW237236   0.222   1.295   2.600  1.3407 -2.9610  0.2427
 8592SOL     OW37237   2.272   2.302   0.694  0.2212 -0.7851 -0.0707
 8592SOL    HW137238   2.262   2.207   0.687  0.3997 -0.5839 -2.9539
 8592SOL    HW237239   2.319   2.317   0.612 -0.5028  1.8601 -0.0034
 8593SOL     OW37240   3.170   2.723   8.236 -0.0622  0.2200 -0.0432
 8593SOL    HW137241   3.200   2.688   8.152  2.7262  1.4757  0.4169
 8593SOL    HW237242   3.093   2.669   8.255  1.3172 -1.4386  0.8125
 8594SOL     OW37243   1.936   3.099  14.795  0.7731 -0.3017  0.0008
 8594SOL    HW137244   1.920   3.121  14.703  0.2362 -1.7912 -0.2519
 8594SOL    HW237245   1.926   3.185  14.837 -0.6776  1.0422 -3.0905
 8595SOL     OW37246   1.047   0.354   5.071 -0.1387 -0.0084 -0.3433
 8595SOL    HW137247   1.053   0.438   5.117  2.1267 -0.1964 -0.2802
 8595SOL    HW237248   0.971   0.313   5.111  0.8801 -0.4666  1.1116
 8596SOL     OW37249   2.343   3.822   8.686 -0.1539 -0.0933  0.2043
 8596SOL    HW137250   2.282   3.866   8.627 -0.9928 -1.9963 -0.3598
 8596SOL    HW237251   2.346   3.731   8.658  1.9161  0.8288 -2.6433
 8597SOL     OW37252   3.448   1.039   7.744 -0.0817 -0.4986 -0.3674
 8597SOL    HW137253   3.414   1.127   7.732  0.2623  0.1986  3.9715
 8597SOL    HW237254   3.490   1.045   7.830  0.3682  0.9177 -0.6952
 8598SOL     OW37255   3.187   2.401   3.110  0.1846  0.0542 -0.2631
 8598SOL    HW137256   3.183   2.333   3.043 -0.4193  0.4193 -0.5894
 8598SOL    HW237257   3.172   2.349   3.189  1.3851  0.0742 -0.0134
 8599SOL     OW37258   4.291   4.052   3.479  0.2006 -0.4427 -0.7190
 8599SOL    HW137259   4.196   4.060   3.492  0.3346  0.6879 -0.4405
 8599SOL    HW237260   4.304   3.968   3.437 -0.4481 -0.7685 -0.2701
 8600SOL     OW37261   0.314   3.522   8.443 -0.4247 -0.3368  0.6301
 8600SOL    HW137262   0.378   3.513   8.513  0.8979  1.6787 -0.3265
 8600SOL    HW237263   0.300   3.616   8.435 -1.6110 -0.4321  1.7020
 8601SOL     OW37264   2.407   0.831   5.226 -0.0289  0.1629  0.3576
 8601SOL    HW137265   2.336   0.873   5.178 -0.3103 -1.2443 -0.4702
 8601SOL    HW237266   2.479   0.845   5.164  0.0477 -1.1540  0.1531
 8602SOL     OW37267   4.539   1.304  16.315  0.0652 -0.0856  1.2654
 8602SOL    HW137268   4.575   1.385  16.279 -0.2015  0.5633  2.4686
 8602SOL    HW237269   4.444   1.318  16.313  0.4082  2.2930  0.6215
 8603SOL     OW37270   0.187   3.523  16.942 -0.3227 -0.6354 -0.5173
 8603SOL    HW137271   0.248   3.590  16.913  1.8359 -2.5928 -0.5103
 8603SOL    HW237272   0.137   3.568  17.011  0.1298 -1.9682  0.6782
 8604SOL     OW37273   0.637   1.602   7.172  0.2568  0.3815 -0.4658
 8604SOL    HW137274   0.685   1.678   7.204 -2.2170  1.6014  0.3873
 8604SOL    HW237275   0.552   1.635   7.142  0.8386  2.2705 -0.0255
 8605SOL     OW37276   1.526   2.941   3.428  0.6916  0.0352 -0.4212
 8605SOL    HW137277   1.479   3.022   3.409  0.1565 -0.1741 -0.0059
 8605SOL    HW237278   1.478   2.897   3.499  0.7537 -0.2739 -0.5695
 8606SOL     OW37279   0.838   1.937   3.912 -0.4110  0.0891 -0.8069
 8606SOL    HW137280   0.776   1.893   3.970  0.5136 -0.2690 -0.0803
 8606SOL    HW237281   0.789   1.946   3.831  2.0311  0.4881 -2.2142
 8607SOL     OW37282   2.255   3.272  13.943 -0.3230 -0.2542  0.3813
 8607SOL    HW137283   2.252   3.364  13.920 -1.3601  0.3004  2.7111
 8607SOL    HW237284   2.329   3.272  14.004 -0.8801  0.5011  1.0578
 8608SOL     OW37285   4.664   2.938  14.342 -0.1782  0.1917 -0.7306
 8608SOL    HW137286   0.018   2.889  14.309  0.0676  0.4496 -0.5530
 8608SOL    HW237287   4.623   2.951  14.256 -1.4626  2.4998  0.2254
 8609SOL     OW37288   1.051   2.021   9.880  0.2458 -0.6312 -0.4588
 8609SOL    HW137289   1.086   1.989   9.798  1.6930  2.3384 -1.0205
 8609SOL    HW237290   0.965   1.978   9.882 -0.0384 -0.2224 -4.0727
 8610SOL     OW37291   0.205   3.137  11.000  0.2627 -0.7199  0.2742
 8610SOL    HW137292   0.217   3.042  11.006  0.2457 -0.8555 -1.6827
 8610SOL    HW237293   0.166   3.173  11.080 -1.4928 -0.2048 -0.7945
 8611SOL     OW37294   1.446   4.414   7.825  0.0265 -0.3013  0.0734
 8611SOL    HW137295   1.451   4.458   7.910 -0.5106 -0.6992  0.3146
 8611SOL    HW237296   1.352   4.404   7.810 -0.0661  3.5488 -1.8595
 8612SOL     OW37297   1.047   2.974   7.085  0.9953  0.7566  0.0320
 8612SOL    HW137298   1.096   2.958   7.004 -0.4861  0.6130 -0.8420
 8612SOL    HW237299   1.060   2.895   7.137  1.1327  1.2592  0.7642
 8613SOL     OW37300   4.358   4.308  13.176 -0.2600  0.2828  0.2526
 8613SOL    HW137301   4.388   4.304  13.267  0.2657  0.9869  0.0983
 8613SOL    HW237302   4.434   4.351  13.139 -0.3762  0.8202  0.6494
 8614SOL     OW37303   1.731   2.047  15.407  0.1179 -0.0481  0.3711
 8614SOL    HW137304   1.738   1.961  15.367  1.2512 -0.2295  0.9460
 8614SOL    HW237305   1.656   2.033  15.464  0.5357 -2.8339  0.1991
 8615SOL     OW37306   3.029   2.756   5.487 -0.1949  0.3291  0.3601
 8615SOL    HW137307   2.966   2.745   5.558  1.4822 -1.2033  1.5932
 8615SOL    HW237308   2.985   2.737   5.404 -1.7538  2.2324  0.7401
 8616SOL     OW37309   0.261   4.522   4.645 -0.2169 -0.4850  0.6630
 8616SOL    HW137310   0.288   4.450   4.587  1.2826 -0.0383  0.8006
 8616SOL    HW237311   0.305   4.593   4.597 -2.0455  0.1197 -0.1515
 8617SOL     OW37312   0.231   2.707   8.509 -0.4998  0.0247 -0.3910
 8617SOL    HW137313   0.215   2.664   8.425  0.3016  0.8682 -0.9666
 8617SOL    HW237314   0.185   2.647   8.568  1.3293 -0.5628  0.4516
 8618SOL     OW37315   0.224   0.152  13.872  0.2782  0.1658 -0.3830
 8618SOL    HW137316   0.181   0.191  13.948 -0.7176 -0.6806 -0.5106
 8618SOL    HW237317   0.282   0.219  13.836 -0.4462  1.9971  1.8277
 8619SOL     OW37318   1.339   3.742   3.014  0.0591 -0.3515  0.0709
 8619SOL    HW137319   1.314   3.687   3.088  0.4498  0.1171  0.5525
 8619SOL    HW237320   1.321   3.821   3.064 -2.3187 -1.5818  1.1636
 8620SOL     OW37321   3.011   2.266  10.985  0.6184 -0.7659  0.5519
 8620SOL    HW137322   3.049   2.198  11.042  0.4962  0.3334  1.9390
 8620SOL    HW237323   3.073   2.268  10.912  2.9065 -1.8058  2.4449
 8621SOL     OW37324   1.463   3.734  16.927  0.2092 -0.3384  0.6934
 8621SOL    HW137325   1.498   3.814  16.966 -0.8993 -0.0865  1.1707
 8621SOL    HW237326   1.497   3.739  16.838 -1.3822  0.0112  0.1019
 8622SOL     OW37327   3.448   1.027   5.767 -0.1292 -0.0742  0.9159
 8622SOL    HW137328   3.513   0.975   5.719 -0.7013 -0.0863  0.1421
 8622SOL    HW237329   3.501   1.055   5.841  1.4586 -1.2362  0.2229
 8623SOL     OW37330   0.391   0.225   7.753  0.1613  0.4567 -0.4719
 8623SOL    HW137331   0.470   0.198   7.708  1.2300  0.4755  1.3793
 8623SOL    HW237332   0.405   0.319   7.762  0.4823  0.3763 -0.1392
 8624SOL     OW37333   1.351   4.249  17.404 -0.7141 -1.0024 -0.2738
 8624SOL    HW137334   1.340   4.274  17.312 -0.7987  0.8355  0.2264
 8624SOL    HW237335   1.288   4.313  17.439  1.7555  0.6495  1.1522
 8625SOL     OW37336   0.813   1.410   5.021 -0.1131  0.1774 -0.1629
 8625SOL    HW137337   0.834   1.477   4.955 -0.5094  2.0726  1.6129
 8625SOL    HW237338   0.738   1.366   4.981  0.5786  1.6866 -3.1524
 8626SOL     OW37339   4.197   0.852   4.813  0.3501  0.0743 -0.3527
 8626SOL    HW137340   4.251   0.823   4.886 -0.0908  1.4970  0.5519
 8626SOL    HW237341   4.141   0.914   4.860  0.4615 -0.4426  0.4423
 8627SOL     OW37342   4.485   3.239   9.834  0.1107  0.3515 -0.2342
 8627SOL    HW137343   4.468   3.144   9.834 -0.5730  0.4740  0.4260
 8627SOL    HW237344   4.450   3.269   9.917 -0.8642  0.7487 -0.7886
 8628SOL     OW37345   1.863   0.826   5.686 -0.8027  0.4158 -0.1942
 8628SOL    HW137346   1.827   0.765   5.750 -1.0599  0.8729  0.0979
 8628SOL    HW237347   1.942   0.868   5.723  0.4404 -2.1833  0.0890
 8629SOL     OW37348   1.838   2.074   3.811 -0.1427  0.1412 -0.4962
 8629SOL    HW137349   1.744   2.094   3.808 -0.2617 -0.4554 -0.7948
 8629SOL    HW237350   1.857   2.127   3.888 -1.0544 -1.6313  0.9391
 8630SOL     OW37351   0.420   3.731   2.325  0.0278 -0.0384 -0.1192
 8630SOL    HW137352   0.434   3.640   2.296  0.4406 -0.6613  2.0784
 8630SOL    HW237353   0.325   3.723   2.332 -0.4805  1.1433 -5.1511
 8631SOL     OW37354   3.967   2.182   8.562 -0.5627 -0.7969  0.5151
 8631SOL    HW137355   3.895   2.118   8.571  0.3317 -1.6972  1.2633
 8631SOL    HW237356   3.935   2.254   8.616  0.9493 -0.8825  1.5043
 8632SOL     OW37357   0.601   2.921   0.938 -0.0556  0.2648  0.2209
 8632SOL    HW137358   0.671   2.943   0.877 -0.6385  0.0909 -0.5084
 8632SOL    HW237359   0.595   2.826   0.937 -0.8073  0.3100  0.4737
 8633SOL     OW37360   4.311   3.823   0.042  0.8233 -0.3685 -0.0228
 8633SOL    HW137361   4.353   3.803   0.126 -0.2928  1.8021  1.0709
 8633SOL    HW237362   4.272   3.908   0.065 -1.7334 -1.7339  0.7898
 8634SOL     OW37363   2.843   2.863   0.230 -0.7980  1.0500 -0.1997
 8634SOL    HW137364   2.764   2.816   0.256 -0.0860 -0.0579 -0.0923
 8634SOL    HW237365   2.856   2.933   0.294 -0.1401 -0.6385  1.4625
 8635SOL     OW37366   3.277   0.819  16.021 -0.3865  0.5168  0.2273
 8635SOL    HW137367   3.294   0.797  15.930  0.7706  0.1305  0.5417
 8635SOL    HW237368   3.182   0.831  16.011 -0.0190  3.1037 -0.0919
 8636SOL     OW37369   1.986   2.914   4.058  0.1664  0.0439  0.3383
 8636SOL    HW137370   1.953   2.918   3.968  0.5013  1.4274  0.2840
 8636SOL    HW237371   2.031   2.999   4.057  1.5337 -0.6712  1.4605
 8637SOL     OW37372   3.002   3.215  11.869  0.7740  0.2634  0.1872
 8637SOL    HW137373   3.064   3.149  11.836 -0.0110 -0.0290 -0.7062
 8637SOL    HW237374   2.969   3.180  11.951  0.6210 -1.2159 -0.5051
 8638SOL     OW37375   3.164   2.376   7.776 -0.1663  0.1258  0.1390
 8638SOL    HW137376   3.089   2.319   7.791  0.1802 -0.0375  1.2405
 8638SOL    HW237377   3.140   2.445   7.714  1.1026 -1.0146 -1.6443
 8639SOL     OW37378   3.365   2.150   8.273  0.6365  0.1185  0.3072
 8639SOL    HW137379   3.345   2.056   8.270 -2.0855  0.6897  0.6646
 8639SOL    HW237380   3.370   2.168   8.179  0.1516  0.5832  0.3680
 8640SOL     OW37381   4.627   2.188   2.121 -0.2922  0.3102 -0.4136
 8640SOL    HW137382   4.717   2.209   2.146 -0.5187  2.1983 -1.1680
 8640SOL    HW237383   4.605   2.264   2.067  0.1138 -0.9354 -2.3213
 8641SOL     OW37384   0.850   3.871  12.552  0.0708 -0.1073  0.2931
 8641SOL    HW137385   0.814   3.947  12.506 -0.5841  0.6593  2.1119
 8641SOL    HW237386   0.775   3.813  12.548  0.7622 -1.0054  0.4054
 8642SOL     OW37387   1.527   4.194   3.623  0.2270  0.1290  0.3240
 8642SOL    HW137388   1.589   4.215   3.553 -0.7944  2.0998  0.0070
 8642SOL    HW237389   1.588   4.138   3.671  2.1829  1.8238 -0.1972
 8643SOL     OW37390   0.605   0.867   5.725 -0.2884  0.0971  0.1821
 8643SOL    HW137391   0.514   0.886   5.703  0.0740  1.3128 -0.2657
 8643SOL    HW237392   0.625   0.944   5.778 -0.3555  0.7308 -0.7144
 8644SOL     OW37393   0.762   0.312   5.442 -0.1460  0.8138 -0.1939
 8644SOL    HW137394   0.844   0.268   5.466  0.9262  1.6748 -2.2785
 8644SOL    HW237395   0.703   0.237   5.440 -1.6802  1.9874  0.8784
 8645SOL     OW37396   1.018   1.374   4.719 -0.3809  0.1906  0.0618
 8645SOL    HW137397   0.947   1.335   4.769 -0.8634 -0.7170 -1.3456
 8645SOL    HW237398   1.006   1.330   4.635  1.2996 -0.0210 -0.0761
 8646SOL     OW37399   2.679   3.619   2.078  0.4299 -0.5347  0.0632
 8646SOL    HW137400   2.637   3.651   1.999 -2.0930 -3.4115  0.2432
 8646SOL    HW237401   2.771   3.631   2.054  0.2895  3.4307  1.4079
 8647SOL     OW37402   2.123   2.487   3.594  0.3776  0.4908 -0.0629
 8647SOL    HW137403   2.042   2.523   3.556  0.7271  0.1985 -1.0958
 8647SOL    HW237404   2.094   2.396   3.581 -0.7353  0.9230 -0.6326
 8648SOL     OW37405   3.150   1.821   3.927  0.1816  0.1525 -0.1952
 8648SOL    HW137406   3.197   1.844   4.007 -0.6360  3.3645 -0.6390
 8648SOL    HW237407   3.080   1.885   3.941 -1.0522 -1.3194  0.3562
 8649SOL     OW37408   1.430   0.473   6.666  0.4747  0.0946  0.2250
 8649SOL    HW137409   1.499   0.420   6.705 -1.6719 -2.0836  1.0212
 8649SOL    HW237410   1.371   0.476   6.741 -0.9154  1.9595 -0.9346
 8650SOL     OW37411   0.613   1.454   6.705 -0.0464 -0.2098  0.6196
 8650SOL    HW137412   0.595   1.548   6.702 -0.9638 -0.3678  1.4155
 8650SOL    HW237413   0.605   1.430   6.612 -2.3369 -0.9197  1.0137
 8651SOL     OW37414   1.986   2.436   4.015 -0.4757 -0.0030 -0.7419
 8651SOL    HW137415   2.063   2.452   4.070 -1.0448 -1.5636  0.4985
 8651SOL    HW237416   1.985   2.341   4.014 -1.0608  0.0032 -0.1338
 8652SOL     OW37417   4.361   1.537   4.607 -0.5056 -0.0712 -0.4591
 8652SOL    HW137418   4.389   1.625   4.581 -3.4965  0.8840 -0.4128
 8652SOL    HW237419   4.318   1.552   4.692  0.4836  1.5992 -0.2554
 8653SOL     OW37420   0.708   4.426   5.425 -0.1155 -0.3474 -0.5097
 8653SOL    HW137421   0.751   4.341   5.427  1.1950  0.3472  2.4124
 8653SOL    HW237422   0.653   4.411   5.348  1.7366 -0.8957 -1.7041
 8654SOL     OW37423   1.134   3.133   8.422 -0.1732  0.6961  0.4254
 8654SOL    HW137424   1.091   3.147   8.506  0.9100  0.1677  1.0695
 8654SOL    HW237425   1.165   3.042   8.422 -1.3341  0.3130 -0.1580
 8655SOL     OW37426   4.721   3.462  13.901 -0.6004  0.0942  0.2864
 8655SOL    HW137427   0.087   3.442  13.933 -1.1726 -0.0670  1.7527
 8655SOL    HW237428   4.706   3.547  13.941 -1.0972  0.3686 -0.4870
 8656SOL     OW37429   1.621   4.384   6.334 -0.0089  0.2313  0.0864
 8656SOL    HW137430   1.681   4.314   6.312  3.0195  2.3416  1.6904
 8656SOL    HW237431   1.612   4.360   6.427  2.1560  0.1104  0.2574
 8657SOL     OW37432   0.945   1.155   7.356 -0.7044 -0.4140  0.5284
 8657SOL    HW137433   0.942   1.061   7.335 -3.3065 -0.2848  0.3901
 8657SOL    HW237434   0.985   1.197   7.281  0.3054 -3.2648 -0.5453
 8658SOL     OW37435   0.789   1.143   2.208  0.0631  0.3647  0.3992
 8658SOL    HW137436   0.783   1.047   2.202 -0.2210  0.5186 -2.0561
 8658SOL    HW237437   0.760   1.164   2.119 -1.2219  1.9201  1.2020
 8659SOL     OW37438   0.917   4.317   0.473  0.2246  0.6354  0.1492
 8659SOL    HW137439   0.965   4.240   0.443  0.5213  0.4585  1.0893
 8659SOL    HW237440   0.879   4.357   0.394  1.0896 -0.4065 -0.7978
 8660SOL     OW37441   0.434   4.687  13.814  0.4197  0.2081 -0.2249
 8660SOL    HW137442   0.349   0.001  13.838  0.8461  1.9346 -1.2802
 8660SOL    HW237443   0.490   0.041  13.799 -0.0357  0.3853 -1.0156
 8661SOL     OW37444   2.733   3.614  13.868  0.2044  0.3916  0.0755
 8661SOL    HW137445   2.670   3.669  13.914 -0.3672 -0.3298  0.1528
 8661SOL    HW237446   2.720   3.528  13.909  0.8767 -0.6774 -1.9561
 8662SOL     OW37447   1.542   2.044   3.564 -0.3401  0.6652  0.1993
 8662SOL    HW137448   1.608   2.004   3.507 -0.0207  2.6695 -0.8108
 8662SOL    HW237449   1.485   1.968   3.572  0.8754 -0.3356 -0.6233
 8663SOL     OW37450   3.221   3.513   9.418 -0.3596  0.7696 -0.7692
 8663SOL    HW137451   3.192   3.452   9.485  0.6553  2.5242  1.2489
 8663SOL    HW237452   3.282   3.563   9.472 -1.4078  0.6372  0.5390
 8664SOL     OW37453   2.784   3.393  12.592  0.1639 -0.4837 -0.0552
 8664SOL    HW137454   2.755   3.463  12.651 -0.7677 -0.1799 -0.8652
 8664SOL    HW237455   2.722   3.397  12.519  0.5502 -2.6041 -0.5073
 8665SOL     OW37456   2.613   0.897  17.497  0.1692  0.5126  0.1543
 8665SOL    HW137457   2.673   0.971  17.496 -1.7734  2.0841 -1.2168
 8665SOL    HW237458   2.673   0.831  17.461 -0.5941 -1.1532  1.9019
 8666SOL     OW37459   3.116   4.399   3.789 -0.4454 -0.3390  0.4175
 8666SOL    HW137460   3.167   4.377   3.710 -2.4277  2.7322 -1.7035
 8666SOL    HW237461   3.051   4.459   3.752 -1.2687 -0.7096  1.2817
 8667SOL     OW37462   1.295   1.099   5.774  0.8582  0.2611 -0.0310
 8667SOL    HW137463   1.224   1.157   5.800  0.0552 -0.9506  0.4955
 8667SOL    HW237464   1.370   1.159   5.771  0.5021  0.6843 -0.5963
 8668SOL     OW37465   3.875   1.504   4.178  0.2280 -0.3143  0.1668
 8668SOL    HW137466   3.953   1.549   4.144 -0.9726  1.5958 -0.0446
 8668SOL    HW237467   3.871   1.431   4.117 -1.2320  1.1243 -1.4452
 8669SOL     OW37468   3.255   3.251   4.842  0.1805  0.4850 -0.1643
 8669SOL    HW137469   3.278   3.201   4.764  0.0242 -0.8467  0.6570
 8669SOL    HW237470   3.160   3.236   4.841  0.2433  0.0967  0.0378
 8670SOL     OW37471   1.240   1.431  12.494  0.2071 -0.1389  0.1417
 8670SOL    HW137472   1.325   1.475  12.500 -0.1206  0.5660 -0.3424
 8670SOL    HW237473   1.225   1.420  12.588  0.8102 -0.4161  0.2083
 8671SOL     OW37474   2.655   0.782  11.256  0.7732  0.0969  0.1762
 8671SOL    HW137475   2.694   0.864  11.227 -1.6944  0.9427 -0.7837
 8671SOL    HW237476   2.612   0.815  11.335  1.7122  1.8490 -0.0458
 8672SOL     OW37477   1.750   0.050  13.061 -0.6036  0.8175 -0.4038
 8672SOL    HW137478   1.683   0.012  13.118 -0.7393 -0.8620 -1.6793
 8672SOL    HW237479   1.799   0.093  13.131  1.7905 -2.4177 -0.0988
 8673SOL     OW37480   2.321   2.127   3.211  0.2260 -0.5272 -0.3159
 8673SOL    HW137481   2.272   2.124   3.129  0.4208  0.2957 -0.4634
 8673SOL    HW237482   2.313   2.218   3.241 -0.0385 -0.5410 -0.3426
 8674SOL     OW37483   1.435   3.637   7.760  1.0498  0.2777 -0.3451
 8674SOL    HW137484   1.384   3.566   7.798  0.6363  1.1618  0.7196
 8674SOL    HW237485   1.487   3.678   7.829  1.1616 -1.6913  0.7305
 8675SOL     OW37486   4.343   1.480   5.081  0.2908 -0.1150  0.4488
 8675SOL    HW137487   4.336   1.570   5.048  1.3888  1.1355  3.6063
 8675SOL    HW237488   4.279   1.436   5.025 -0.7920  1.7416  0.2033
 8676SOL     OW37489   0.900   1.696  14.175 -0.1203 -0.2542 -0.0505
 8676SOL    HW137490   0.915   1.603  14.157 -1.2194 -0.3716 -0.3643
 8676SOL    HW237491   0.883   1.719  14.083 -1.6458 -2.0131 -0.2166
 8677SOL     OW37492   1.465   3.271   2.560 -0.2841  0.2070 -0.0441
 8677SOL    HW137493   1.411   3.336   2.514 -2.0696 -1.3183 -0.0823
 8677SOL    HW237494   1.468   3.208   2.488  0.3858  3.8622 -3.2073
 8678SOL     OW37495   4.571   0.442   1.276  0.2421  0.3647  0.2114
 8678SOL    HW137496   4.662   0.411   1.277 -0.7020 -2.3984 -0.5014
 8678SOL    HW237497   4.574   0.533   1.305 -1.8864  0.0942  1.3049
 8679SOL     OW37498   3.825   1.048   6.740  0.8926 -0.0110  0.2938
 8679SOL    HW137499   3.776   0.967   6.731 -0.4158  0.7819  0.3602
 8679SOL    HW237500   3.792   1.097   6.666  1.1416 -1.4533 -0.7694
 8680SOL     OW37501   2.668   3.651   3.901  0.0046 -0.3568 -0.1141
 8680SOL    HW137502   2.698   3.566   3.868  0.1815  0.7090 -2.7010
 8680SOL    HW237503   2.574   3.636   3.898 -0.2820  0.8688  2.7208
 8681SOL     OW37504   0.803   0.289   3.566  0.3213  0.3459 -0.2964
 8681SOL    HW137505   0.801   0.373   3.612 -1.9940 -1.6787  3.3764
 8681SOL    HW237506   0.708   0.275   3.563  0.4297 -0.2695 -0.8340
 8682SOL     OW37507   2.123   3.781   0.825  0.2820 -0.1952  0.1660
 8682SOL    HW137508   2.195   3.843   0.834  0.7823 -0.7597  0.0555
 8682SOL    HW237509   2.136   3.749   0.736 -2.3510 -0.2237 -0.1996
 8683SOL     OW37510   1.584   0.063   8.510 -0.1632  0.5693 -0.2250
 8683SOL    HW137511   1.657   0.099   8.560 -1.0988  0.5338  1.1505
 8683SOL    HW237512   1.533   0.140   8.484 -1.8339 -0.8318 -1.1370
 8684SOL     OW37513   2.060   2.313  11.357  0.1937 -0.4725 -0.6832
 8684SOL    HW137514   1.999   2.347  11.422  4.3113  2.3353  1.6817
 8684SOL    HW237515   2.021   2.227  11.339 -1.2379  0.1440 -0.5433
 8685SOL     OW37516   3.957   2.136   6.126 -0.1364  0.0782 -0.0635
 8685SOL    HW137517   3.980   2.066   6.065  0.5162  3.1829 -3.3894
 8685SOL    HW237518   4.031   2.122   6.186  1.4388  0.9644 -1.7954
 8686SOL     OW37519   0.553   1.608   5.517 -0.3382  0.3313  0.1253
 8686SOL    HW137520   0.641   1.643   5.503  0.2413 -0.0086  2.9586
 8686SOL    HW237521   0.572   1.547   5.588 -0.4804 -0.6960 -0.7123
 8687SOL     OW37522   0.798   1.616   8.363 -0.6374  0.4986 -0.5215
 8687SOL    HW137523   0.792   1.576   8.277  0.2315  0.2563 -0.4662
 8687SOL    HW237524   0.818   1.545   8.424 -0.0663 -0.0157 -1.3227
 8688SOL     OW37525   2.036   0.853   6.542  0.1374 -0.5170 -0.3098
 8688SOL    HW137526   2.121   0.810   6.555  0.7436  0.2827 -1.5853
 8688SOL    HW237527   2.027   0.863   6.637 -0.8663 -0.5077 -0.4112
 8689SOL     OW37528   4.078   3.987   4.513 -0.0869  0.3291 -0.4634
 8689SOL    HW137529   4.089   4.009   4.421 -1.9876 -1.1351 -1.0470
 8689SOL    HW237530   4.120   3.901   4.516 -0.1480  0.3666  1.7760
 8690SOL     OW37531   0.118   0.920  15.757  0.0934  0.3435 -0.5932
 8690SOL    HW137532   0.181   0.866  15.805 -0.4146 -0.7484 -1.1497
 8690SOL    HW237533   0.185   0.980  15.724  0.4249 -0.9281 -2.3009
 8691SOL     OW37534   2.478   2.360   6.622  0.2944  0.1729  0.3542
 8691SOL    HW137535   2.536   2.284   6.617  1.1067  0.7505  0.8993
 8691SOL    HW237536   2.453   2.366   6.714 -0.1783  0.4438  0.2084
 8692SOL     OW37537   3.066   1.514  14.280 -0.4037  0.4335  0.4605
 8692SOL    HW137538   3.145   1.476  14.241 -0.9388 -1.0392  0.8283
 8692SOL    HW237539   3.106   1.589  14.324  0.3854  0.1867  0.1554
 8693SOL     OW37540   2.774   2.422  16.867  0.5342 -0.3509 -0.2303
 8693SOL    HW137541   2.734   2.491  16.920 -2.3772 -1.9719 -0.2805
 8693SOL    HW237542   2.712   2.397  16.798 -1.0031  2.2009  0.2558
 8694SOL     OW37543   0.260   2.663  15.309 -0.4749  0.6139  0.3641
 8694SOL    HW137544   0.253   2.569  15.324 -2.1065  0.8161  0.8927
 8694SOL    HW237545   0.315   2.657  15.231  0.6463 -0.4317  1.2362
 8695SOL     OW37546   2.301   1.852   5.345  0.2739 -0.2997  0.2832
 8695SOL    HW137547   2.276   1.858   5.438 -1.0191  1.7103 -0.1833
 8695SOL    HW237548   2.396   1.852   5.338  0.2274  0.1619 -0.3173
 8696SOL     OW37549   1.249   2.631   0.654  0.3194 -0.2355  0.2854
 8696SOL    HW137550   1.200   2.648   0.573 -0.2680  0.2076  0.7336
 8696SOL    HW237551   1.302   2.561   0.614 -1.0139 -1.3396  0.4312
 8697SOL     OW37552   1.209   1.089  13.173 -0.6727  0.3503  0.4161
 8697SOL    HW137553   1.260   1.169  13.187  0.6955  0.0583 -3.0202
 8697SOL    HW237554   1.268   1.034  13.123  0.3416  0.4939  1.4319
 8698SOL     OW37555   2.078   3.174   6.766  0.0557 -0.1525 -0.1178
 8698SOL    HW137556   2.066   3.244   6.702 -1.2759 -0.3843 -0.1194
 8698SOL    HW237557   2.036   3.217   6.841 -1.2524 -0.7347 -0.5064
 8699SOL     OW37558   2.145   0.808   4.855  0.3465 -0.2553  0.5094
 8699SOL    HW137559   2.075   0.770   4.802  1.6264 -2.2009  0.2161
 8699SOL    HW237560   2.140   0.901   4.831  0.5379 -0.5330 -0.6019
 8700SOL     OW37561   2.550   3.428   3.164  0.0993  0.9201  0.1415
 8700SOL    HW137562   2.588   3.361   3.107  0.3309  0.0627  1.2951
 8700SOL    HW237563   2.504   3.379   3.232 -0.1858 -0.7150 -1.2120
 8701SOL     OW37564   3.806   1.288   3.971  0.7093 -0.6184 -0.5956
 8701SOL    HW137565   3.883   1.296   3.915  0.3569  2.4275 -0.6833
 8701SOL    HW237566   3.740   1.266   3.906 -0.1008 -2.3664  0.8221
 8702SOL     OW37567   4.253   1.944  15.402 -0.1525 -0.1873  0.2405
 8702SOL    HW137568   4.207   1.876  15.353 -1.7715  0.7366  0.4786
 8702SOL    HW237569   4.182   1.975  15.459 -1.4421  0.6881 -1.8430
 8703SOL     OW37570   1.754   1.803  16.043 -0.6107 -0.0766 -0.2651
 8703SOL    HW137571   1.759   1.833  15.952 -0.9623 -0.2371 -0.3365
 8703SOL    HW237572   1.660   1.785  16.055 -0.3233 -1.1218  0.3704
 8704SOL     OW37573   0.160   0.330   9.360 -0.0647  0.2347 -0.2720
 8704SOL    HW137574   0.154   0.252   9.304 -1.3333  1.5346 -1.9727
 8704SOL    HW237575   0.069   0.333   9.391 -0.6908  2.3539 -2.2998
 8705SOL     OW37576   4.444   4.228  14.714  0.4962 -0.2411 -0.2966
 8705SOL    HW137577   4.377   4.264  14.656 -1.5452 -0.6991  1.8164
 8705SOL    HW237578   4.393   4.187  14.783 -1.1943  2.2100 -0.1060
 8706SOL     OW37579   0.351   0.382   3.848 -0.0311 -0.2476  0.5471
 8706SOL    HW137580   0.370   0.476   3.855 -1.3983 -0.0054  0.9956
 8706SOL    HW237581   0.304   0.385   3.765 -0.5465  0.2105  0.8569
 8707SOL     OW37582   3.801   0.738   4.199  0.2408 -0.3004  0.2851
 8707SOL    HW137583   3.755   0.822   4.191  1.4049  0.4453  1.4133
 8707SOL    HW237584   3.869   0.758   4.263  0.4878  0.5450 -0.2359
 8708SOL     OW37585   0.699   3.079   9.340  0.4575  0.1788 -0.5522
 8708SOL    HW137586   0.645   3.017   9.390 -0.9354  2.7707  1.1520
 8708SOL    HW237587   0.628   3.108   9.282  0.8811  1.4298 -0.4413
 8709SOL     OW37588   0.738   1.439   3.541  0.0565 -0.6082  0.0183
 8709SOL    HW137589   0.651   1.401   3.547 -0.6766  1.1326  0.6305
 8709SOL    HW237590   0.716   1.524   3.581  1.6638  0.0798 -0.5284
 8710SOL     OW37591   0.865   4.197   2.728 -0.0250  0.1302 -0.3823
 8710SOL    HW137592   0.907   4.122   2.771  2.6957  1.7060 -0.2382
 8710SOL    HW237593   0.774   4.196   2.757 -0.4258  1.2416 -1.5880
 8711SOL     OW37594   2.057   0.300  13.432  0.4471  0.0601  0.2152
 8711SOL    HW137595   2.149   0.276  13.430  0.3413 -0.2034 -1.8511
 8711SOL    HW237596   2.035   0.263  13.517 -1.6592  2.0042  0.5229
 8712SOL     OW37597   4.426   2.554   1.275 -0.4354  0.5549 -0.0058
 8712SOL    HW137598   4.479   2.500   1.334  0.6241 -0.8361 -2.2514
 8712SOL    HW237599   4.337   2.565   1.307 -0.2473  1.1051  0.3184
 8713SOL     OW37600   2.073   0.964   8.741 -0.0470  0.2279  0.4674
 8713SOL    HW137601   2.130   1.041   8.749 -3.3794  2.7061  0.5744
 8713SOL    HW237602   2.008   0.991   8.806 -2.2632  0.5105 -1.8542
 8714SOL     OW37603   3.538   3.470   3.108  0.1391 -0.3697  0.1436
 8714SOL    HW137604   3.596   3.395   3.095  1.7034  0.8430  0.2345
 8714SOL    HW237605   3.508   3.480   3.017  1.3834  3.5430  0.1833
 8715SOL     OW37606   2.346   1.002   5.464  0.1665  0.0139  0.6432
 8715SOL    HW137607   2.381   0.913   5.469  1.2285  0.5015  1.8461
 8715SOL    HW237608   2.258   0.993   5.429  0.0601  2.7306  0.1714
 8716SOL     OW37609   0.770   0.410   7.991  0.1796 -0.3336  0.2018
 8716SOL    HW137610   0.824   0.484   7.964  1.8688 -1.2532  1.1145
 8716SOL    HW237611   0.737   0.423   8.080  1.9525 -1.7956  1.0758
 8717SOL     OW37612   2.227   3.172  12.647 -0.0212  0.5876  0.2799
 8717SOL    HW137613   2.218   3.205  12.737  2.6419  5.5810 -1.2518
 8717SOL    HW237614   2.270   3.088  12.662 -1.4872 -0.4198 -1.1489
 8718SOL     OW37615   1.539   3.479   4.261 -0.3002  0.3251 -0.3871
 8718SOL    HW137616   1.482   3.441   4.328 -1.3182  1.2151 -0.7362
 8718SOL    HW237617   1.593   3.538   4.313 -1.5135  1.7129 -0.6810
 8719SOL     OW37618   0.829   2.990   1.987  0.4287  1.1390 -0.2604
 8719SOL    HW137619   0.744   3.026   2.013 -0.4585 -0.1758 -1.3541
 8719SOL    HW237620   0.809   2.937   1.910  2.0684  0.2350 -0.0727
 8720SOL     OW37621   2.369   2.444  14.004  1.0101  0.1623 -0.1060
 8720SOL    HW137622   2.373   2.447  14.100 -0.4116 -0.8375 -0.0230
 8720SOL    HW237623   2.393   2.532  13.974 -0.2044  0.2152 -0.9164
 8721SOL     OW37624   2.396   1.569   2.882  0.2093 -0.0095 -0.7454
 8721SOL    HW137625   2.309   1.574   2.842  0.2076 -1.4007 -0.9081
 8721SOL    HW237626   2.447   1.611   2.813 -2.5617  2.1984 -1.4796
 8722SOL     OW37627   1.376   3.151   7.090  0.5596  0.3627 -0.0998
 8722SOL    HW137628   1.443   3.084   7.101  0.1396  0.4284  2.8527
 8722SOL    HW237629   1.328   3.135   7.171  0.5763  1.5773  0.1435
 8723SOL     OW37630   1.703   3.300   3.453 -0.0543 -0.6489 -0.1869
 8723SOL    HW137631   1.716   3.394   3.444 -2.0694 -0.2769  0.8591
 8723SOL    HW237632   1.698   3.278   3.360  2.8143  1.9187 -0.9472
 8724SOL     OW37633   1.059   2.009   2.232 -0.1554  0.3487  0.1250
 8724SOL    HW137634   1.026   2.095   2.204  0.4162 -0.5377 -3.2580
 8724SOL    HW237635   1.125   1.989   2.166 -0.4158 -0.3575  0.0799
 8725SOL     OW37636   0.923   2.426   8.409  0.0821 -0.0194  0.6617
 8725SOL    HW137637   0.933   2.332   8.393 -1.8793  0.0386 -0.8588
 8725SOL    HW237638   0.865   2.426   8.486 -1.5441  1.7160 -0.5843
 8726SOL     OW37639   1.566   2.782   7.811  0.5642  0.9324 -0.9091
 8726SOL    HW137640   1.493   2.758   7.869  0.7047  0.3617 -0.9633
 8726SOL    HW237641   1.591   2.868   7.845 -2.7100  0.9638  1.5209
 8727SOL     OW37642   4.338   0.609  10.581 -0.5143 -0.0052 -0.3655
 8727SOL    HW137643   4.385   0.536  10.542 -0.4922  1.6133 -3.3466
 8727SOL    HW237644   4.255   0.600  10.535 -0.2124  2.4687 -1.3998
 8728SOL     OW37645   1.625   0.440   3.016  0.2896  0.0673 -0.1199
 8728SOL    HW137646   1.544   0.492   3.016  0.9195  1.0676 -1.7822
 8728SOL    HW237647   1.685   0.491   3.071 -0.5427  1.0186 -0.0922
 8729SOL     OW37648   3.761   2.852   6.221  0.0386  0.1747 -1.0210
 8729SOL    HW137649   3.753   2.887   6.132  2.6876  0.0760 -1.3214
 8729SOL    HW237650   3.674   2.817   6.238  0.6283 -0.6348  0.2993
 8730SOL     OW37651   1.242   3.607   3.230 -0.2867  0.5787  0.1963
 8730SOL    HW137652   1.314   3.546   3.249 -0.5748  0.2285  0.1506
 8730SOL    HW237653   1.171   3.544   3.240 -0.9166  0.8176 -2.9738
 8731SOL     OW37654   1.091   0.013   7.857 -0.7434 -0.3471 -0.1621
 8731SOL    HW137655   1.029   0.050   7.794  1.8982 -1.2336 -3.2775
 8731SOL    HW237656   1.174   0.009   7.809 -0.6872 -1.1705 -0.0034
 8732SOL     OW37657   2.832   1.218  17.272  0.0226 -0.2727  0.0969
 8732SOL    HW137658   2.803   1.298  17.316  0.5294 -0.4168  0.6951
 8732SOL    HW237659   2.922   1.247  17.262  0.5615 -1.3342  1.9517
 8733SOL     OW37660   0.329   3.792   5.721 -0.0746  0.5051 -0.1809
 8733SOL    HW137661   0.236   3.775   5.706  0.1854 -1.5090  0.5027
 8733SOL    HW237662   0.339   3.868   5.778 -1.3328  0.0179  0.6799
 8734SOL     OW37663   1.780   1.440   0.337  0.3209  0.3837  0.2778
 8734SOL    HW137664   1.831   1.516   0.366  2.3764 -0.5891 -0.8037
 8734SOL    HW237665   1.697   1.459   0.381 -0.6366  3.0307 -2.6333
 8735SOL     OW37666   3.813   0.310   3.859  0.1507 -0.5088  0.0593
 8735SOL    HW137667   3.867   0.330   3.936  0.5454  0.6485 -0.5168
 8735SOL    HW237668   3.858   0.230   3.832  2.1256  1.5767 -2.8566
 8736SOL     OW37669   0.050   0.008  16.210 -0.2663  0.0983  0.0740
 8736SOL    HW137670   0.005   4.650  16.180  2.0323 -1.1757 -0.0388
 8736SOL    HW237671   4.701   0.047  16.261 -0.7192  1.1009 -1.3473
 8737SOL     OW37672   1.347   1.743   9.369  0.0895 -0.5076 -0.2283
 8737SOL    HW137673   1.442   1.731   9.369  0.0043 -1.1141  0.9705
 8737SOL    HW237674   1.314   1.660   9.402 -0.5395 -0.0822  0.2345
 8738SOL     OW37675   4.407   3.882   3.800  0.3948 -0.2338 -0.0144
 8738SOL    HW137676   4.350   3.819   3.842  0.0953 -0.3086 -0.5279
 8738SOL    HW237677   4.413   3.850   3.710 -0.7608 -0.3406 -0.0469
 8739SOL     OW37678   1.001   1.885  13.700  0.4502  0.0357  0.4261
 8739SOL    HW137679   0.990   1.919  13.611  1.5327 -0.8510 -0.0522
 8739SOL    HW237680   0.958   1.956  13.747 -0.0476 -0.8863  1.3660
 8740SOL     OW37681   4.364   1.749   3.879 -0.1016 -0.2874 -0.4125
 8740SOL    HW137682   4.436   1.693   3.909 -0.8708  0.5985  3.1689
 8740SOL    HW237683   4.336   1.688   3.811 -0.3980  0.4915 -0.9878
 8741SOL     OW37684   2.281   3.883   6.521  0.2860 -0.6199  0.1892
 8741SOL    HW137685   2.305   3.912   6.433 -0.7459  2.0317  0.7926
 8741SOL    HW237686   2.189   3.858   6.516  0.1250  0.3643 -1.6797
 8742SOL     OW37687   2.243   0.452   3.832 -0.5901  0.4156 -0.3309
 8742SOL    HW137688   2.275   0.398   3.760  0.7855 -0.9222  1.2660
 8742SOL    HW237689   2.222   0.386   3.898 -1.0148 -0.8808 -1.7587
 8743SOL     OW37690   2.522   4.393   5.983 -0.4517 -0.1102  0.5045
 8743SOL    HW137691   2.542   4.313   6.030  1.7282 -0.1571 -0.5015
 8743SOL    HW237692   2.612   4.427   5.981  0.5119 -2.6036  1.1543
 8744SOL     OW37693   1.365   4.160   6.534  0.6803  0.0825  0.0835
 8744SOL    HW137694   1.299   4.101   6.571  1.9647  0.1618  2.5328
 8744SOL    HW237695   1.294   4.223   6.521  0.2883 -0.5178 -0.6765
 8745SOL     OW37696   0.733   4.376   9.679 -0.4458  0.2419  0.5580
 8745SOL    HW137697   0.796   4.385   9.750  0.1066  0.4909  0.0453
 8745SOL    HW237698   0.665   4.433   9.712 -1.5407 -0.0278 -1.2330
 8746SOL     OW37699   1.860   0.449   3.481  0.3476  0.2741  0.6269
 8746SOL    HW137700   1.802   0.418   3.550  1.0533 -0.3071  0.9479
 8746SOL    HW237701   1.902   0.522   3.527 -0.1001  1.1560 -0.3477
 8747SOL     OW37702   4.055   2.376   4.050 -0.7104  0.1949  0.4629
 8747SOL    HW137703   3.985   2.379   3.986  0.8317  0.6797 -1.1927
 8747SOL    HW237704   4.004   2.380   4.131  2.3073  0.0155  2.4000
 8748SOL     OW37705   1.855   1.543   5.972  0.0922 -0.4557  0.1107
 8748SOL    HW137706   1.790   1.490   6.018  0.7801 -1.0263  0.4402
 8748SOL    HW237707   1.809   1.613   5.926  0.4171 -0.1834  0.1995
 8749SOL     OW37708   0.957   2.396   4.703  0.0133 -0.1932  0.2619
 8749SOL    HW137709   0.909   2.337   4.761  0.4810 -0.1971  0.6448
 8749SOL    HW237710   1.022   2.342   4.658  0.6975  0.2139  0.7603
 8750SOL     OW37711   2.558   1.548   6.946 -0.8090 -0.1317 -0.4493
 8750SOL    HW137712   2.543   1.474   7.005  1.5834 -0.6344 -0.4432
 8750SOL    HW237713   2.472   1.580   6.919 -0.7622 -0.9386 -1.5648
 8751SOL     OW37714   4.174   0.848   2.678 -0.1103  0.0653  0.4410
 8751SOL    HW137715   4.159   0.817   2.589  1.4373 -1.3862  0.7006
 8751SOL    HW237716   4.087   0.834   2.716 -0.5842 -2.6939 -1.6161
 8752SOL     OW37717   0.806   2.894   6.202 -0.4760  0.4817 -0.7775
 8752SOL    HW137718   0.729   2.940   6.237  0.3108  1.0778  0.1654
 8752SOL    HW237719   0.769   2.808   6.182  0.0654  0.1917 -0.5260
 8753SOL     OW37720   2.387   2.754  12.432 -0.3118  0.2285  0.4863
 8753SOL    HW137721   2.450   2.816  12.469  1.0862 -0.4846 -0.7157
 8753SOL    HW237722   2.303   2.774  12.473  0.4632 -0.5717  2.4643
 8754SOL     OW37723   4.704   3.807   1.666  0.7125  0.1028  0.2368
 8754SOL    HW137724   4.720   3.726   1.617  3.8320 -0.1837  1.7125
 8754SOL    HW237725   4.653   3.777   1.741  2.5493  0.6491  1.6974
 8755SOL     OW37726   2.473   1.577   6.610  0.5254 -0.0672  0.3653
 8755SOL    HW137727   2.443   1.659   6.649  1.7218  0.4959  0.0981
 8755SOL    HW237728   2.421   1.568   6.531  0.3147 -0.7828  0.5838
 8756SOL     OW37729   1.939   2.207  17.655  0.1247  0.1773  0.1932
 8756SOL    HW137730   1.942   2.244  17.567  0.5383  2.1871  1.0710
 8756SOL    HW237731   2.019   2.252  17.682  0.6588 -0.2555 -0.6855
 8757SOL     OW37732   0.703   2.295   6.305  0.1382  0.2249  0.0512
 8757SOL    HW137733   0.741   2.305   6.217 -0.5041 -3.0250 -0.6079
 8757SOL    HW237734   0.762   2.229   6.342 -1.9978 -0.5858  1.9892
 8758SOL     OW37735   1.503   1.129   5.157  0.6747  0.1389 -0.0283
 8758SOL    HW137736   1.572   1.063   5.156 -0.1253 -0.6853  0.1876
 8758SOL    HW237737   1.427   1.080   5.128 -0.5831  0.4638  2.7168
 8759SOL     OW37738   0.338   2.144  17.516 -0.1974  0.3120 -0.7294
 8759SOL    HW137739   0.271   2.078  17.533 -0.4381  1.2085  1.7969
 8759SOL    HW237740   0.350   2.130  17.422 -0.7754 -3.2261 -0.2787
 8760SOL     OW37741   0.265   2.548  15.917 -0.0448  0.2964 -0.1582
 8760SOL    HW137742   0.304   2.554  15.829 -0.2690 -2.2620 -0.4358
 8760SOL    HW237743   0.304   2.625  15.958  0.2572 -0.2099  0.4994
 8761SOL     OW37744   4.274   3.445   7.507  0.6537 -0.4793 -0.3558
 8761SOL    HW137745   4.258   3.358   7.469 -1.1544  1.3912 -3.8553
 8761SOL    HW237746   4.361   3.433   7.544  0.3473  0.5854  0.7170
 8762SOL     OW37747   0.626   0.413   4.599  0.5250 -0.1370  0.6749
 8762SOL    HW137748   0.531   0.411   4.610  0.5052 -0.1089  0.5111
 8762SOL    HW237749   0.632   0.418   4.503  0.0259  2.0229  0.7584
 8763SOL     OW37750   1.983   4.240   9.015  0.2033  0.6108 -0.3578
 8763SOL    HW137751   1.893   4.211   9.031  0.2919  1.5543  1.8412
 8763SOL    HW237752   1.984   4.246   8.920  1.5584  1.0556 -0.3109
 8764SOL     OW37753   1.443   3.578   4.870 -0.1427  0.2389 -0.4317
 8764SOL    HW137754   1.505   3.650   4.876  0.0966  0.1198 -1.6497
 8764SOL    HW237755   1.500   3.502   4.860 -1.0465 -0.1841 -2.3244
 8765SOL     OW37756   0.248   2.552   2.536  0.1061  0.8333 -0.3583
 8765SOL    HW137757   0.204   2.544   2.621  0.0713 -2.0925 -0.6343
 8765SOL    HW237758   0.182   2.517   2.476  0.9600  0.9840 -1.3835
 8766SOL     OW37759   0.414   1.638   5.839  0.0500  0.4969  0.2063
 8766SOL    HW137760   0.497   1.671   5.806  0.9920 -2.5360 -0.5028
 8766SOL    HW237761   0.390   1.588   5.761  1.5942  1.2573 -0.7521
 8767SOL     OW37762   2.146   4.138  14.306 -0.6284 -0.1030 -0.1839
 8767SOL    HW137763   2.104   4.101  14.228 -1.3348  0.4593 -0.0613
 8767SOL    HW237764   2.169   4.055  14.347 -0.9151 -1.8155 -3.4426
 8768SOL     OW37765   1.143   2.273   8.252  0.3505  0.9794 -0.4978
 8768SOL    HW137766   1.168   2.334   8.322 -0.2722  0.0851  0.5194
 8768SOL    HW237767   1.138   2.192   8.304  1.4661 -0.4304 -2.5952
 8769SOL     OW37768   3.274   4.578   4.264  0.2171 -0.1970 -0.2599
 8769SOL    HW137769   3.368   4.585   4.250  0.6681 -1.5377  2.1984
 8769SOL    HW237770   3.244   4.588   4.173  0.3370 -2.2845 -0.5390
 8770SOL     OW37771   3.922   0.699   2.487  0.2639 -0.0024  0.0437
 8770SOL    HW137772   4.010   0.720   2.458  0.3658 -2.2776 -1.2800
 8770SOL    HW237773   3.885   0.700   2.399  1.6647 -2.7522 -0.5744
 8771SOL     OW37774   0.779   2.482  17.460 -0.3015  0.5753 -0.2566
 8771SOL    HW137775   0.705   2.423  17.472  0.2924  0.1710  1.5045
 8771SOL    HW237776   0.739   2.567  17.447  0.6803  0.7754 -1.9706
 8772SOL     OW37777   1.950   2.068   8.490  0.0030  0.0722  0.0543
 8772SOL    HW137778   1.968   2.109   8.574  0.5605 -1.3280  0.6165
 8772SOL    HW237779   2.006   1.991   8.499  1.6444  1.1820 -0.7847
 8773SOL     OW37780   3.913   0.308   1.781 -0.0470 -0.5094 -0.7972
 8773SOL    HW137781   3.964   0.265   1.712 -0.0731 -0.8917 -0.5789
 8773SOL    HW237782   3.979   0.364   1.823 -1.1783  0.0009  0.2824
 8774SOL     OW37783   4.556   4.452   7.810  0.1934 -0.4144  0.0133
 8774SOL    HW137784   4.623   4.423   7.872 -1.2919  0.9802  2.2745
 8774SOL    HW237785   4.591   4.539   7.791 -0.7081 -0.1462 -0.4283
 8775SOL     OW37786   4.618   3.961   8.334  0.6234  0.2175  0.2021
 8775SOL    HW137787   4.581   3.951   8.246 -1.0083  0.9000  0.8081
 8775SOL    HW237788   4.679   3.888   8.324  0.8557  0.4101  0.2121
 8776SOL     OW37789   2.917   2.529   2.981 -0.2264 -0.1761  0.3936
 8776SOL    HW137790   3.002   2.496   3.008 -0.1428  1.9738  2.8369
 8776SOL    HW237791   2.930   2.591   2.909  0.3469 -0.5157  0.2107
 8777SOL     OW37792   2.401   1.249   7.539 -0.3236 -0.5612 -0.0433
 8777SOL    HW137793   2.489   1.286   7.535 -0.2247 -0.8236 -0.2660
 8777SOL    HW237794   2.410   1.163   7.581 -1.8413 -0.1114  1.1984
 8778SOL     OW37795   3.347   3.377   3.394  0.0934 -0.0615  0.2332
 8778SOL    HW137796   3.317   3.364   3.304  0.1754 -1.3242  0.3951
 8778SOL    HW237797   3.308   3.299   3.435 -1.1438 -0.2216 -1.2385
 8779SOL     OW37798   2.905   3.803   8.618  0.6262 -0.2734 -0.4198
 8779SOL    HW137799   2.945   3.747   8.685  2.8023  0.0207 -1.4736
 8779SOL    HW237800   2.869   3.742   8.554 -0.9205 -0.3141  0.4960
 8780SOL     OW37801   2.976   1.651   5.158 -0.1319  0.1127 -0.0417
 8780SOL    HW137802   2.937   1.667   5.072  1.4350 -0.9369 -0.9445
 8780SOL    HW237803   2.977   1.555   5.165 -1.2917 -0.1724 -4.1354
 8781SOL     OW37804   1.817   0.548  17.261 -0.5675 -0.0440  0.4902
 8781SOL    HW137805   1.815   0.485  17.189  0.2536 -1.0564  1.3456
 8781SOL    HW237806   1.760   0.615  17.224  2.6272  1.2823 -1.9540
 8782SOL     OW37807   2.363   3.961   5.327 -0.3209 -0.7821 -0.0212
 8782SOL    HW137808   2.377   4.005   5.244  0.7530 -1.4742 -0.2182
 8782SOL    HW237809   2.310   4.028   5.370  0.5930  1.1769 -1.9704
 8783SOL     OW37810   1.371   3.776   2.260  0.0673 -0.6153  0.6669
 8783SOL    HW137811   1.435   3.727   2.208 -0.4423  0.3946 -0.9274
 8783SOL    HW237812   1.295   3.719   2.261  0.4634 -1.1559  0.2305
 8784SOL     OW37813   1.499   4.269   8.905 -0.3103 -0.2904  0.1021
 8784SOL    HW137814   1.517   4.183   8.868  0.8803 -0.1194  0.2898
 8784SOL    HW237815   1.452   4.310   8.832 -1.0090  0.4144  0.9454
 8785SOL     OW37816   0.207   4.336   4.302 -0.4447 -0.0846 -0.3212
 8785SOL    HW137817   0.272   4.358   4.368  0.1808 -2.2992 -0.2049
 8785SOL    HW237818   0.246   4.385   4.229  0.1139  0.3139  0.2524
 8786SOL     OW37819   3.040   3.902   6.855  0.1754 -0.2942  0.4399
 8786SOL    HW137820   3.094   3.828   6.826 -1.0821  0.1296 -3.0196
 8786SOL    HW237821   3.074   3.958   6.785  0.1903  0.3887  0.9980
 8787SOL     OW37822   0.514   2.722   9.864 -0.4661 -0.1030 -0.7004
 8787SOL    HW137823   0.463   2.730   9.945  0.1138 -1.3120 -0.2237
 8787SOL    HW237824   0.462   2.663   9.810  1.1963 -1.1211 -1.1783
 8788SOL     OW37825   2.212   3.474  17.518 -0.3595  0.5727 -0.4490
 8788SOL    HW137826   2.219   3.503  17.609  2.0719  0.9050 -0.7360
 8788SOL    HW237827   2.121   3.495  17.495 -1.0235 -1.4500  0.2977
 8789SOL     OW37828   0.721   2.983   5.578  0.0123 -0.1876  0.2961
 8789SOL    HW137829   0.755   2.897   5.600  0.1419 -1.4188 -4.7377
 8789SOL    HW237830   0.640   2.970   5.628 -0.7234  0.8247 -0.6213
 8790SOL     OW37831   4.515   0.497   1.752 -0.0124 -0.3322  0.3511
 8790SOL    HW137832   4.606   0.482   1.727 -0.6344 -0.7479 -1.6340
 8790SOL    HW237833   4.531   0.482   1.845 -0.9587  0.1739  0.5975
 8791SOL     OW37834   1.670   0.833   8.851  0.2473  0.4268 -0.2675
 8791SOL    HW137835   1.600   0.784   8.895 -1.3420  1.6366 -1.4462
 8791SOL    HW237836   1.752   0.803   8.890 -0.1427 -1.2005 -0.6926
 8792SOL     OW37837   4.409   0.727   3.918 -0.3272 -0.1568 -0.2042
 8792SOL    HW137838   4.431   0.733   3.825  1.0764  0.6016  0.1770
 8792SOL    HW237839   4.315   0.732   3.902 -0.1106 -1.3808 -1.8455
 8793SOL     OW37840   1.651   1.717  17.173 -0.2270  0.0659  0.0401
 8793SOL    HW137841   1.653   1.772  17.251 -1.3816  0.7354 -0.4018
 8793SOL    HW237842   1.659   1.627  17.204  1.5242  0.6802  1.3481
 8794SOL     OW37843   4.086   2.686  12.566  0.1053  0.3463  0.3763
 8794SOL    HW137844   4.048   2.601  12.589  2.1264 -1.3396 -2.4480
 8794SOL    HW237845   4.147   2.664  12.495  0.2085  0.2172  0.5053
 8795SOL     OW37846   0.544   3.748  17.614  0.7835 -0.0021 -0.4292
 8795SOL    HW137847   0.613   3.731  17.677 -0.3316  2.1064  1.3554
 8795SOL    HW237848   0.468   3.771  17.668  1.1092 -0.2900  0.1433
 8796SOL     OW37849   0.440   1.950   3.858  0.4442 -0.1723  0.3630
 8796SOL    HW137850   0.407   1.936   3.770  2.1519 -2.4015  0.0840
 8796SOL    HW237851   0.385   1.888   3.906 -0.0722 -0.5862 -0.7795
 8797SOL     OW37852   1.791   1.031  13.647  0.2909  0.5000 -0.3683
 8797SOL    HW137853   1.859   1.058  13.709 -0.1981  0.5087  0.1762
 8797SOL    HW237854   1.750   1.116  13.628 -3.5718 -1.2240  0.3170
 8798SOL     OW37855   2.773   0.348  15.391 -0.0645  0.2726 -0.2778
 8798SOL    HW137856   2.755   0.438  15.420  2.1597  0.9679 -0.9904
 8798SOL    HW237857   2.733   0.303  15.465 -0.1240 -0.0675 -0.5177
 8799SOL     OW37858   4.474   3.080   8.135 -0.1666 -0.4074  0.8807
 8799SOL    HW137859   4.448   2.993   8.105  0.5644 -0.7391  1.2063
 8799SOL    HW237860   4.439   3.074   8.224 -1.4692  0.8246  0.4532
 8800SOL     OW37861   2.475   0.103   1.586  0.5185 -0.0916 -0.1374
 8800SOL    HW137862   2.401   0.096   1.526  1.1997 -2.2742 -0.7286
 8800SOL    HW237863   2.530   0.029   1.560  0.4182  0.0871 -0.8542
 8801SOL     OW37864   3.413   2.735  12.028  0.4479  0.5351  0.4699
 8801SOL    HW137865   3.469   2.811  12.013 -1.9159  1.7995 -1.9602
 8801SOL    HW237866   3.467   2.666  11.990  0.5249  1.7563 -1.6723
 8802SOL     OW37867   2.838   0.815   2.606 -0.5876  0.2390 -0.1220
 8802SOL    HW137868   2.855   0.895   2.557  0.6273 -0.9174 -1.5608
 8802SOL    HW237869   2.760   0.781   2.563  0.9855 -2.6298 -0.7056
 8803SOL     OW37870   0.302   1.021   4.494 -0.2668 -0.3011  0.0683
 8803SOL    HW137871   0.229   1.016   4.433  1.3813  0.1437 -1.9301
 8803SOL    HW237872   0.297   0.951   4.559  1.0948 -0.6973 -0.2532
 8804SOL     OW37873   1.982   0.065   8.370  0.6445 -0.3221  0.0991
 8804SOL    HW137874   1.966   0.046   8.462  0.7264 -2.3002 -0.3038
 8804SOL    HW237875   2.069   0.103   8.378  0.8678  0.0749 -4.2713
 8805SOL     OW37876   4.261   2.237   4.641 -0.3823 -0.1430 -0.0030
 8805SOL    HW137877   4.309   2.156   4.627 -0.9593 -0.2152 -1.5733
 8805SOL    HW237878   4.326   2.298   4.607 -1.7059  0.6970 -1.0444
 8806SOL     OW37879   0.437   4.035  12.568  0.0018  0.3864 -0.2292
 8806SOL    HW137880   0.418   4.025  12.475  0.9926 -1.5623 -0.2308
 8806SOL    HW237881   0.346   4.030  12.597 -0.4426 -0.5972 -1.7622
 8807SOL     OW37882   0.935   0.923   6.269  0.2985  0.0848 -0.1074
 8807SOL    HW137883   0.916   0.882   6.185 -0.6742  1.0406 -0.3440
 8807SOL    HW237884   0.846   0.904   6.301 -0.0568  0.4423 -0.8967
 8808SOL     OW37885   4.510   4.391   3.718 -0.3153  0.0809 -0.0347
 8808SOL    HW137886   4.480   4.319   3.775  0.2717 -0.7378 -0.7612
 8808SOL    HW237887   4.537   4.339   3.642  0.6862 -1.6461  1.4864
 8809SOL     OW37888   0.359   4.311   1.135 -0.1121 -0.3049 -0.1704
 8809SOL    HW137889   0.350   4.355   1.050  3.0780 -0.0688 -0.3843
 8809SOL    HW237890   0.320   4.381   1.188 -1.1737  0.5826 -2.0889
 8810SOL     OW37891   3.291   0.763   2.495 -0.1081  0.2542 -0.4175
 8810SOL    HW137892   3.342   0.796   2.422 -0.3070 -1.4999 -1.3529
 8810SOL    HW237893   3.307   0.670   2.478  0.2023  0.2723 -0.2207
 8811SOL     OW37894   2.990   3.417   7.941  0.3669  0.1313 -0.6241
 8811SOL    HW137895   2.983   3.504   7.902 -0.3172  1.4176  2.3513
 8811SOL    HW237896   2.914   3.370   7.907  1.1092 -0.4898 -1.4358
 8812SOL     OW37897   3.467   2.693   3.273 -0.4330 -0.1673  0.4357
 8812SOL    HW137898   3.518   2.637   3.333  1.1366 -2.4574 -3.0455
 8812SOL    HW237899   3.526   2.686   3.198  1.7971 -1.9703  2.3228
 8813SOL     OW37900   1.095   4.096   7.800 -0.4602 -0.3109 -0.3219
 8813SOL    HW137901   1.121   4.099   7.708  2.5206 -2.3589  0.4212
 8813SOL    HW237902   1.121   4.004   7.810 -1.6559 -0.3908  2.0991
 8814SOL     OW37903   4.289   1.655   3.212 -0.0734  0.3650  0.0453
 8814SOL    HW137904   4.332   1.713   3.150  0.7153  1.1615  1.3603
 8814SOL    HW237905   4.197   1.639   3.191 -0.0792 -1.4260  1.4239
 8815SOL     OW37906   4.164   4.241   4.550  0.3618 -0.3940 -0.1672
 8815SOL    HW137907   4.083   4.269   4.508  0.3671  3.2414  2.2078
 8815SOL    HW237908   4.138   4.152   4.575  2.2573 -0.8102  0.3196
 8816SOL     OW37909   0.943   0.582   6.347 -0.4625 -0.2194 -0.5154
 8816SOL    HW137910   0.880   0.651   6.368 -1.1489 -1.6019  1.9288
 8816SOL    HW237911   1.013   0.643   6.322 -0.4996  0.8665  2.0031
 8817SOL     OW37912   4.485   0.796   8.734 -0.4000 -0.3257  0.2781
 8817SOL    HW137913   4.447   0.806   8.647  0.6660 -0.4970 -0.2059
 8817SOL    HW237914   4.482   0.701   8.746  0.4507 -0.0393  2.7974
 8818SOL     OW37915   4.675   2.488   3.250 -0.2779 -0.1268 -0.0480
 8818SOL    HW137916   0.042   2.463   3.277  0.4979 -0.4562 -2.9186
 8818SOL    HW237917   4.678   2.584   3.256 -0.3831 -0.1268  0.0093
 8819SOL     OW37918   0.985   1.783   2.082  0.0503  0.0007  0.6061
 8819SOL    HW137919   1.033   1.865   2.092  1.8517 -1.0563  0.7050
 8819SOL    HW237920   0.921   1.808   2.016  2.0849 -0.0592 -1.4098
 8820SOL     OW37921   1.485   3.405   0.320  0.5914  0.0294 -0.0971
 8820SOL    HW137922   1.551   3.428   0.385  0.6244 -0.8255  0.1688
 8820SOL    HW237923   1.455   3.322   0.358 -2.5014  1.4945  0.6654
 8821SOL     OW37924   1.987   2.166   4.036 -0.3027 -0.7898 -0.1725
 8821SOL    HW137925   2.055   2.116   3.990  1.6370 -0.4620  2.3301
 8821SOL    HW237926   2.011   2.151   4.128 -0.6047  0.0242  0.0369
 8822SOL     OW37927   3.796   3.048   5.471 -0.1986  0.2520 -0.1296
 8822SOL    HW137928   3.815   3.001   5.552  0.8226 -1.4877 -1.3658
 8822SOL    HW237929   3.878   3.094   5.458  0.1730 -0.7592 -1.4041
 8823SOL     OW37930   4.368   3.795   0.307  0.0222 -0.8027  0.1898
 8823SOL    HW137931   4.320   3.842   0.375  0.3999 -0.1480 -0.0019
 8823SOL    HW237932   4.449   3.846   0.306  0.0383 -0.8083  1.9127
 8824SOL     OW37933   0.746   1.163   3.210  0.1475 -0.2644  0.1634
 8824SOL    HW137934   0.702   1.191   3.130 -0.3381 -0.2026  0.4495
 8824SOL    HW237935   0.770   1.248   3.246  1.0605 -1.4045  2.2340
 8825SOL     OW37936   1.558   2.746   6.039 -0.9110  0.3505  0.6050
 8825SOL    HW137937   1.559   2.757   6.135  1.2121  0.7876  0.5430
 8825SOL    HW237938   1.473   2.784   6.018 -0.2476  1.4823 -0.0578
 8826SOL     OW37939   3.646   1.249   3.711  0.4313  0.4641 -0.0881
 8826SOL    HW137940   3.574   1.298   3.673  1.4356  1.1953 -1.0609
 8826SOL    HW237941   3.604   1.166   3.735 -0.7292  1.4146  1.1434
 8827SOL     OW37942   3.119   0.713   8.350  0.0981  0.5246 -0.1208
 8827SOL    HW137943   3.172   0.765   8.411  0.2218 -0.9669  1.0263
 8827SOL    HW237944   3.026   0.698   8.365  0.5542 -0.1321  2.0359
 8828SOL     OW37945   3.017   4.706  13.635  0.3908  0.3367  0.1317
 8828SOL    HW137946   2.965   4.629  13.610  2.2825 -1.7717  2.7911
 8828SOL    HW237947   2.956   0.058  13.628  2.2256  1.8512 -0.0590
 8829SOL     OW37948   4.220   0.796   8.286 -0.2884 -0.5168  0.1214
 8829SOL    HW137949   4.236   0.765   8.197 -0.5216 -1.6211  0.4651
 8829SOL    HW237950   4.239   0.890   8.289 -0.3628 -0.3731 -5.1396
 8830SOL     OW37951   0.061   0.439  10.617 -0.6598 -0.1717 -0.3086
 8830SOL    HW137952   0.010   0.520  10.616  1.8577  1.4261  1.0326
 8830SOL    HW237953   4.716   0.370  10.618 -0.1041 -0.7551 -2.0396
 8831SOL     OW37954   0.596   3.185   4.113 -0.5196  0.1515  0.7691
 8831SOL    HW137955   0.549   3.257   4.072  2.0019  2.2472  1.5322
 8831SOL    HW237956   0.528   3.150   4.171 -0.0184  0.1586  1.3612
 8832SOL     OW37957   2.175   0.822  15.531  0.2777 -0.4025  0.3936
 8832SOL    HW137958   2.082   0.827  15.509  1.2753  2.0187 -3.3215
 8832SOL    HW237959   2.175   0.893  15.595  1.2025 -1.1689  1.2400
 8833SOL     OW37960   1.555   0.702  16.789 -0.0045 -0.1118  0.0327
 8833SOL    HW137961   1.564   0.624  16.735  0.8049 -1.2171  1.7557
 8833SOL    HW237962   1.568   0.767  16.720 -0.3286  1.9784  1.9438
 8834SOL     OW37963   1.614   1.389   7.829  0.0927  0.2392 -0.0764
 8834SOL    HW137964   1.604   1.356   7.740 -1.9881  0.4956  0.0601
 8834SOL    HW237965   1.694   1.441   7.831  0.0289  0.3754 -1.2646
 8835SOL     OW37966   0.961   4.280   5.227 -0.1804 -0.5596  0.6066
 8835SOL    HW137967   1.036   4.230   5.260 -0.3976 -1.5774 -0.3930
 8835SOL    HW237968   0.896   4.260   5.294 -0.3666  1.1583  0.9223
 8836SOL     OW37969   2.282   3.532   1.468 -0.8398 -0.0779 -0.7877
 8836SOL    HW137970   2.375   3.544   1.484 -0.7416  0.1269 -1.5069
 8836SOL    HW237971   2.284   3.510   1.375  1.6749  0.1766 -0.7906
 8837SOL     OW37972   0.183   1.863   5.984 -0.0209 -0.4141 -0.3496
 8837SOL    HW137973   0.253   1.928   5.977 -0.9284  0.4696 -1.3009
 8837SOL    HW237974   0.126   1.897   6.053 -0.1427  0.8903 -1.0773
 8838SOL     OW37975   2.460   2.052   6.184 -0.0147  0.1714 -0.3170
 8838SOL    HW137976   2.372   2.017   6.172  0.6097 -0.0367 -4.2934
 8838SOL    HW237977   2.498   2.015   6.104 -0.7238  1.1443 -1.1049
 8839SOL     OW37978   1.478   0.928  12.100  0.1496 -0.0369 -0.0227
 8839SOL    HW137979   1.490   0.851  12.045  0.7042  0.2477 -0.2918
 8839SOL    HW237980   1.518   0.903  12.184 -1.1756  0.5834  0.7948
 8840SOL     OW37981   4.504   3.930   5.893  0.3886 -0.2576 -0.0138
 8840SOL    HW137982   4.479   3.957   5.804  0.8227 -1.0508 -0.3764
 8840SOL    HW237983   4.542   4.011   5.927 -2.9209  1.0420  0.6113
 8841SOL     OW37984   4.088   2.872  17.297 -0.3487  0.0319  0.2980
 8841SOL    HW137985   4.002   2.877  17.256  0.6360 -0.5159 -1.8233
 8841SOL    HW237986   4.096   2.965  17.318 -0.1855  0.0778  0.0313
 8842SOL     OW37987   4.044   4.198   7.632 -0.0480 -0.0026 -0.3723
 8842SOL    HW137988   4.024   4.171   7.542 -0.3776 -3.2851  0.6991
 8842SOL    HW237989   4.121   4.144   7.649  0.2373  0.5055 -0.0749
 8843SOL     OW37990   2.825   2.239  12.794 -0.2014  0.1096  0.1588
 8843SOL    HW137991   2.778   2.183  12.732  0.7008  0.3828 -0.7725
 8843SOL    HW237992   2.755   2.295  12.828 -0.6593  0.9734 -2.2217
 8844SOL     OW37993   1.695   2.723   7.584 -0.6519 -0.3644 -0.6036
 8844SOL    HW137994   1.671   2.796   7.527  0.4978  0.7597  0.3701
 8844SOL    HW237995   1.651   2.735   7.668 -0.8698 -1.1930 -0.6004
 8845SOL     OW37996   1.168   0.277   4.295  0.3044  0.2197 -0.4954
 8845SOL    HW137997   1.122   0.292   4.378  0.6220 -1.3148 -0.0404
 8845SOL    HW237998   1.206   0.364   4.287 -1.3663  1.1278  1.5228
 8846SOL     OW37999   1.767   2.205   8.359 -0.0608 -0.4810 -0.2786
 8846SOL    HW138000   1.828   2.139   8.390  0.2950  0.5003  1.1571
 8846SOL    HW238001   1.702   2.217   8.429  0.3935  0.1300  0.0393
 8847SOL     OW38002   4.303   4.442  11.670 -0.3843 -0.3080 -0.3852
 8847SOL    HW138003   4.272   4.493  11.595 -2.3428  0.7889  1.1891
 8847SOL    HW238004   4.252   4.485  11.738  0.3758  0.9417 -0.6091
 8848SOL     OW38005   2.239   4.529  12.784  0.0394  0.2175  0.1979
 8848SOL    HW138006   2.150   4.506  12.759 -0.3494  0.4996  1.3037
 8848SOL    HW238007   2.218   4.620  12.803  2.7676  0.4915  1.9928
 8849SOL     OW38008   3.663   0.345   0.856 -0.5385  0.5940  0.0945
 8849SOL    HW138009   3.714   0.373   0.932 -1.3729  0.6768  0.6200
 8849SOL    HW238010   3.622   0.426   0.828  4.2506  2.4862 -1.4211
 8850SOL     OW38011   4.411   4.631   1.122  0.1701 -0.3972 -0.6179
 8850SOL    HW138012   4.367   4.694   1.066  2.6394  0.6069 -1.4582
 8850SOL    HW238013   4.455   4.691   1.183 -1.5444  0.7134 -0.4858
 8851SOL     OW38014   1.939   0.931   6.302  0.0865 -0.7530 -0.4109
 8851SOL    HW138015   1.975   0.900   6.385  1.5360 -2.4450 -1.6519
 8851SOL    HW238016   1.857   0.973   6.329 -0.7459 -2.6012 -0.0062
 8852SOL     OW38017   1.635   0.884  11.136 -0.1099 -0.0567  0.0599
 8852SOL    HW138018   1.699   0.934  11.186  1.3924 -1.3856 -0.5494
 8852SOL    HW238019   1.683   0.832  11.072 -0.4811 -1.2173  0.7082
 8853SOL     OW38020   1.057   2.549  13.424 -0.0687  0.3658 -0.5071
 8853SOL    HW138021   1.035   2.642  13.429 -1.8165 -0.0388 -0.6370
 8853SOL    HW238022   1.139   2.554  13.375  1.3582  0.3421  1.8687
 8854SOL     OW38023   3.943   1.520   4.429  0.4122  0.0429  0.3940
 8854SOL    HW138024   3.948   1.615   4.439  1.0000  0.0004  0.5374
 8854SOL    HW238025   3.895   1.520   4.346  0.6457 -1.2615  0.2622
 8855SOL     OW38026   4.038   3.177  17.622  0.3919 -0.0454  0.1597
 8855SOL    HW138027   4.024   3.082  17.625  1.2558 -0.1300  1.3318
 8855SOL    HW238028   4.041   3.191   0.028  0.5350 -0.6685  0.2468
 8856SOL     OW38029   0.417   0.126   3.975 -0.2551 -0.6393  0.2120
 8856SOL    HW138030   0.484   0.074   3.930  1.1815  1.8370 -0.4832
 8856SOL    HW238031   0.402   0.206   3.926 -1.0498 -0.1274  1.3019
 8857SOL     OW38032   2.342   1.018  15.227 -0.3469  0.3326 -0.4530
 8857SOL    HW138033   2.336   0.977  15.141  1.8495 -1.6381  0.3547
 8857SOL    HW238034   2.248   1.033  15.238 -0.3204 -0.6656  1.0242
 8858SOL     OW38035   0.057   0.032   8.797  0.8805  0.2050 -0.2281
 8858SOL    HW138036   0.084   4.704   8.720  0.7786  0.4322 -0.4125
 8858SOL    HW238037   0.062   0.123   8.765  2.2104  0.0843 -0.3650
 8859SOL     OW38038   0.361   1.301   2.856 -0.8117 -0.0591 -0.0764
 8859SOL    HW138039   0.266   1.293   2.867 -0.6897  0.0455  1.1080
 8859SOL    HW238040   0.356   1.337   2.768  0.5885  1.4761  0.4685
 8860SOL     OW38041   1.611   3.877   5.310 -0.3911 -0.2991 -0.6021
 8860SOL    HW138042   1.647   3.800   5.267  1.6100 -1.2020  2.6884
 8860SOL    HW238043   1.530   3.843   5.347 -0.2214 -1.3104 -1.1564
 8861SOL     OW38044   4.665   1.433   2.124  0.2721 -0.4977  0.1775
 8861SOL    HW138045   4.595   1.408   2.065 -2.3233  0.2943  2.9345
 8861SOL    HW238046   4.655   1.527   2.136  1.2518 -0.5936  1.7341
 8862SOL     OW38047   1.842   2.781   0.273 -0.1590  0.6407 -0.3144
 8862SOL    HW138048   1.930   2.785   0.236 -0.4019  1.5752 -0.8123
 8862SOL    HW238049   1.832   2.687   0.283  0.7302  1.0096  4.1325
 8863SOL     OW38050   1.929   0.237   6.376 -0.0735 -0.4481 -0.3647
 8863SOL    HW138051   1.900   0.198   6.459 -1.0152  3.5545  1.1805
 8863SOL    HW238052   1.885   0.178   6.315  1.3010 -1.1019 -0.7335
 8864SOL     OW38053   2.900   4.561   3.683  0.4503 -0.6578  0.0418
 8864SOL    HW138054   2.876   4.643   3.639 -1.4805 -1.2195  0.0459
 8864SOL    HW238055   2.818   4.536   3.726 -0.2561  0.2190 -0.7848
 8865SOL     OW38056   0.990   3.024  15.073  0.1821  0.8500 -0.8350
 8865SOL    HW138057   0.968   2.968  14.999  2.3984 -1.4539  0.2465
 8865SOL    HW238058   0.903   3.060  15.092 -0.9622 -1.9243 -0.8271
 8866SOL     OW38059   0.541   2.663   7.253 -0.2240 -0.0327  0.6863
 8866SOL    HW138060   0.607   2.675   7.322  0.1360  1.7430  0.0163
 8866SOL    HW238061   0.552   2.744   7.203 -0.1246 -1.3773 -1.4609
 8867SOL     OW38062   3.177   3.719   7.782 -0.0685  0.0272 -0.0420
 8867SOL    HW138063   3.091   3.712   7.824 -0.5730 -0.3488 -1.1287
 8867SOL    HW238064   3.242   3.669   7.832  0.4170 -0.5273 -1.2214
 8868SOL     OW38065   4.251   0.090   9.534 -0.6154  0.2314  0.0013
 8868SOL    HW138066   4.335   0.055   9.503 -1.3322 -0.1479 -1.4642
 8868SOL    HW238067   4.267   0.179   9.501  0.2930 -0.1523 -0.5936
 8869SOL     OW38068   3.156   2.240   3.341  0.3417 -0.1997  0.1938
 8869SOL    HW138069   3.178   2.257   3.432  0.3044  0.7345  0.0249
 8869SOL    HW238070   3.195   2.152   3.338 -2.9010 -1.6363  0.4823
 8870SOL     OW38071   2.433   3.455   1.822  0.0171  0.2569 -0.1591
 8870SOL    HW138072   2.456   3.384   1.762 -0.5502 -0.7383  0.8028
 8870SOL    HW238073   2.338   3.468   1.816  0.1276  0.7080 -0.9076
 8871SOL     OW38074   2.799   1.233   9.754 -0.1647 -0.3747  0.2826
 8871SOL    HW138075   2.813   1.169   9.684  0.1805  2.2762 -2.0258
 8871SOL    HW238076   2.885   1.275   9.763  0.3357 -1.3013 -0.1835
 8872SOL     OW38077   1.406   0.734   3.912  0.4110  0.4216  0.2069
 8872SOL    HW138078   1.450   0.659   3.951 -1.4603  1.1185  3.6304
 8872SOL    HW238079   1.357   0.763   3.989 -1.5975  1.0248 -1.2913
 8873SOL     OW38080   1.850   4.181  13.369 -0.0866  0.7898  0.1661
 8873SOL    HW138081   1.802   4.104  13.338 -0.2894  1.0241 -0.0990
 8873SOL    HW238082   1.890   4.210  13.287 -0.8063  0.8911 -0.1522
 8874SOL     OW38083   1.154   0.264   8.433 -0.1473 -0.0314  0.0906
 8874SOL    HW138084   1.146   0.173   8.406 -0.9610 -0.9438  3.3917
 8874SOL    HW238085   1.123   0.262   8.524 -0.2479 -0.9799  0.0360
 8875SOL     OW38086   2.373   4.385  12.587  0.0113  0.0957 -0.1433
 8875SOL    HW138087   2.306   4.385  12.519  0.1070  0.5417 -0.2380
 8875SOL    HW238088   2.332   4.419  12.667  1.0320  0.8644  0.0639
 8876SOL     OW38089   3.065   0.699   7.442 -0.4207 -0.1600 -0.0444
 8876SOL    HW138090   3.127   0.736   7.379 -0.2485 -3.7590 -1.9878
 8876SOL    HW238091   3.120   0.660   7.510 -0.3356  0.7243  0.3927
 8877SOL     OW38092   0.306   3.871   4.749 -0.2632 -0.1655 -0.0087
 8877SOL    HW138093   0.373   3.937   4.732 -0.0368 -0.0101  1.4340
 8877SOL    HW238094   0.227   3.925   4.757  1.7393  2.8664 -0.8003
 8878SOL     OW38095   3.560   2.529  11.756 -0.2339  0.1220 -0.1344
 8878SOL    HW138096   3.473   2.495  11.772  0.3852 -1.6194 -0.5267
 8878SOL    HW238097   3.558   2.556  11.664 -2.0387  0.5373  0.0379
 8879SOL     OW38098   1.939   4.181  15.560 -0.9147 -0.0780 -0.2471
 8879SOL    HW138099   2.004   4.137  15.504  0.1711  2.6574 -1.1120
 8879SOL    HW238100   1.872   4.210  15.498  0.3632  1.2137 -1.0195
 8880SOL     OW38101   0.523   4.249  17.546  0.4109 -0.5826 -0.4374
 8880SOL    HW138102   0.570   4.256  17.628 -0.3732 -1.7996  0.1145
 8880SOL    HW238103   0.541   4.162  17.510 -0.9746 -0.3125 -1.8310
 8881SOL     OW38104   2.203   2.826   3.144  0.0990 -0.5065 -0.3201
 8881SOL    HW138105   2.115   2.845   3.112 -0.1707 -3.1626 -1.1475
 8881SOL    HW238106   2.215   2.733   3.122  0.1276 -0.3611 -0.9032
 8882SOL     OW38107   2.014   0.131   4.805 -0.4397  0.2050 -0.1018
 8882SOL    HW138108   2.068   0.208   4.823  1.8452 -1.4850  0.2548
 8882SOL    HW238109   1.935   0.165   4.763 -0.2719  0.2804 -0.3521
 8883SOL     OW38110   3.092   2.303  12.440  0.1348  0.1065 -0.3586
 8883SOL    HW138111   3.149   2.366  12.483 -0.2062  0.3853 -0.3153
 8883SOL    HW238112   3.051   2.255  12.512 -0.6178 -0.8416 -1.4196
 8884SOL     OW38113   2.362   1.931   8.465 -0.4478  0.4569  0.3839
 8884SOL    HW138114   2.328   1.985   8.536 -2.2339 -3.0697  2.2566
 8884SOL    HW238115   2.406   1.994   8.409 -3.3800  1.4111 -0.8226
 8885SOL     OW38116   4.079   3.855  11.679 -0.2658 -0.1223  0.3571
 8885SOL    HW138117   4.006   3.836  11.737 -0.6038  0.7379  0.2126
 8885SOL    HW238118   4.090   3.762  11.656 -0.3589 -0.3017  1.0546
 8886SOL     OW38119   4.322   3.480   3.407  0.2280 -0.1278  0.3226
 8886SOL    HW138120   4.278   3.486   3.322  0.7938  0.8779  0.0945
 8886SOL    HW238121   4.301   3.395   3.445 -1.1098 -0.1082 -0.3837
 8887SOL     OW38122   2.237   4.694  11.833  0.2474 -0.1114  0.2915
 8887SOL    HW138123   2.252   0.003  11.743 -0.4353  0.1029  0.2510
 8887SOL    HW238124   2.148   4.661  11.820  0.6826  0.0099 -2.9961
 8888SOL     OW38125   4.523   0.332  16.464  0.5226  0.4056  0.2217
 8888SOL    HW138126   4.577   0.408  16.485 -0.7440  2.0133 -2.2582
 8888SOL    HW238127   4.440   0.377  16.448  1.5472  1.2202 -2.8631
 8889SOL     OW38128   1.869   3.933   8.834 -0.0500  0.1625 -0.3668
 8889SOL    HW138129   1.857   3.878   8.911  0.2027  0.4449 -0.1274
 8889SOL    HW238130   1.797   3.996   8.831 -0.4155 -0.1783  1.2610
 8890SOL     OW38131   2.316   1.225   4.149 -0.4994 -0.3959  0.3925
 8890SOL    HW138132   2.229   1.241   4.187  0.0829  0.9513  1.1742
 8890SOL    HW238133   2.318   1.130   4.140 -2.7905 -0.1747 -2.5877
 8891SOL     OW38134   1.659   2.674  14.931  0.3879 -0.7299 -0.6721
 8891SOL    HW138135   1.737   2.629  14.898  0.1978 -0.4188 -1.5512
 8891SOL    HW238136   1.594   2.611  14.899  1.2365 -1.8844 -0.1339
 8892SOL     OW38137   2.589   1.057   0.855  0.2295 -0.1214  0.1529
 8892SOL    HW138138   2.621   1.016   0.936  1.5392 -2.2164 -1.4369
 8892SOL    HW238139   2.528   1.120   0.894 -1.2523 -1.8531  0.6027
 8893SOL     OW38140   3.083   4.541  13.343 -0.6210  0.4256  0.0267
 8893SOL    HW138141   3.150   4.475  13.361 -2.0993 -1.1301 -0.1897
 8893SOL    HW238142   3.025   4.537  13.419  1.0457  1.4485  1.3629
 8894SOL     OW38143   0.575   1.439  14.938  0.2536 -0.1353  0.0196
 8894SOL    HW138144   0.543   1.443  14.848 -1.0206 -2.3835  0.3781
 8894SOL    HW238145   0.625   1.357  14.930  0.2643 -0.1572  0.3133
 8895SOL     OW38146   2.953   1.640   2.501 -1.4311 -0.5028 -0.0213
 8895SOL    HW138147   2.924   1.602   2.584 -0.8177  0.5408  0.6770
 8895SOL    HW238148   3.048   1.626   2.506 -1.5595 -0.7286  1.9052
 8896SOL     OW38149   0.524   3.322   2.444  0.5959 -0.5220  0.1312
 8896SOL    HW138150   0.429   3.317   2.454  0.8667 -3.3098  1.0310
 8896SOL    HW238151   0.551   3.366   2.524  1.3286 -1.6633  0.5114
 8897SOL     OW38152   2.985   4.463   9.271  0.0900  0.3224 -0.1940
 8897SOL    HW138153   3.052   4.515   9.227 -1.0366  0.9110 -1.1799
 8897SOL    HW238154   2.911   4.472   9.212  0.7101  0.0319 -1.0155
 8898SOL     OW38155   3.573   3.255   7.788  0.5188  0.2366  0.2932
 8898SOL    HW138156   3.602   3.344   7.770  1.0784 -0.3041 -1.4824
 8898SOL    HW238157   3.500   3.248   7.727  0.2205  0.2925  0.6433
 8899SOL     OW38158   4.471   2.408   4.578 -0.7413 -0.0547 -0.3982
 8899SOL    HW138159   4.556   2.404   4.535 -0.0448  1.7416  0.8173
 8899SOL    HW238160   4.452   2.501   4.591  0.6156  0.0589  0.7563
 8900SOL     OW38161   3.295   1.806   4.842 -0.2889 -0.0140  0.1613
 8900SOL    HW138162   3.205   1.811   4.873 -0.5593  1.3963 -0.8685
 8900SOL    HW238163   3.300   1.895   4.808 -2.5004 -0.0970 -0.3496
 8901SOL     OW38164   0.338   1.888   8.472  0.1131 -0.3724 -0.3684
 8901SOL    HW138165   0.306   1.821   8.531 -0.1266 -2.0370 -2.3779
 8901SOL    HW238166   0.254   1.930   8.455 -1.4414 -3.9966 -1.6691
 8902SOL     OW38167   1.780   3.789  12.224  0.2969  0.9297 -0.2567
 8902SOL    HW138168   1.727   3.731  12.168  0.3084  1.2463 -0.5935
 8902SOL    HW238169   1.863   3.742  12.223 -0.4686 -0.4414 -0.3450
 8903SOL     OW38170   2.342   1.301  17.041 -0.0863 -0.3128  0.1232
 8903SOL    HW138171   2.334   1.242  17.116  0.7305 -0.1461  0.3331
 8903SOL    HW238172   2.329   1.386  17.084  0.9337  0.9202 -2.0150
 8904SOL     OW38173   3.049   1.434  13.955  0.5019 -0.0077 -0.0030
 8904SOL    HW138174   3.029   1.341  13.951  1.2193 -0.2167  1.4911
 8904SOL    HW238175   2.991   1.454  14.028  0.8893 -0.0465  0.3160
 8905SOL     OW38176   1.690   0.774  13.800 -0.1159 -0.4727 -0.4007
 8905SOL    HW138177   1.681   0.848  13.859  1.2792  0.4532 -1.3655
 8905SOL    HW238178   1.706   0.828  13.723 -0.1217  0.2458  0.1015
 8906SOL     OW38179   3.835   3.710  15.620  0.6148 -0.2684  0.9698
 8906SOL    HW138180   3.925   3.709  15.589  0.6601  0.6518  1.0686
 8906SOL    HW238181   3.801   3.777  15.560 -0.3302 -1.6654 -0.0651
 8907SOL     OW38182   4.635   3.658   7.375  0.4675  0.5949 -0.1323
 8907SOL    HW138183   4.720   3.690   7.346  1.1966 -1.7432 -0.6032
 8907SOL    HW238184   4.664   3.626   7.461  0.6471 -2.0371 -1.1671
 8908SOL     OW38185   2.355   1.018   6.022  0.0735 -0.0703  0.1566
 8908SOL    HW138186   2.283   0.956   6.012  0.9264 -0.9093 -0.6609
 8908SOL    HW238187   2.383   1.036   5.933 -1.7539  0.0287 -0.3964
 8909SOL     OW38188   2.707   4.524  12.865 -0.2572 -0.0265 -0.6629
 8909SOL    HW138189   2.617   4.499  12.845 -0.7109 -0.1312  1.4171
 8909SOL    HW238190   2.703   4.521  12.961  1.2962  1.1489 -0.5550
 8910SOL     OW38191   1.332   0.702   8.795  0.0794  0.3965  0.0753
 8910SOL    HW138192   1.334   0.616   8.754  2.6626  0.3437  0.3264
 8910SOL    HW238193   1.251   0.690   8.843 -0.7114  1.3818 -1.0070
 8911SOL     OW38194   2.171   3.148   6.250  0.1638 -0.2565  0.1082
 8911SOL    HW138195   2.251   3.098   6.234 -0.1332 -0.2240 -1.4764
 8911SOL    HW238196   2.113   3.121   6.179 -0.0962 -0.0163  0.2270
 8912SOL     OW38197   3.802   0.915  11.941  0.0127 -0.5469 -0.9868
 8912SOL    HW138198   3.780   0.970  11.866  1.1140 -0.6949 -1.4230
 8912SOL    HW238199   3.780   0.823  11.924 -2.6453 -0.0395 -0.2196
 8913SOL     OW38200   3.741   4.094  14.590 -0.2238  0.5274 -0.6214
 8913SOL    HW138201   3.821   4.089  14.643  0.3688  1.0678 -1.4795
 8913SOL    HW238202   3.731   4.001  14.570 -0.9624  0.1875  1.2920
 8914SOL     OW38203   1.954   3.287   4.928 -0.0379 -0.0145  0.2117
 8914SOL    HW138204   1.959   3.255   4.838 -0.7039  1.6588 -0.4283
 8914SOL    HW238205   1.977   3.380   4.929  1.0072 -0.2914  1.7173
 8915SOL     OW38206   0.819   2.015   5.971  0.2261  0.2309  0.2003
 8915SOL    HW138207   0.769   1.975   6.041  1.0500  0.7957  1.1146
 8915SOL    HW238208   0.908   1.981   5.980  0.8102  1.1204 -2.0499
 8916SOL     OW38209   2.489   4.017   6.628  0.3972  0.9784 -0.4782
 8916SOL    HW138210   2.510   4.078   6.557 -1.2232 -0.6240 -2.3232
 8916SOL    HW238211   2.410   3.968   6.608 -0.1991  2.3735 -1.5372
 8917SOL     OW38212   3.700   2.609   2.792 -0.2093 -0.4389  0.1649
 8917SOL    HW138213   3.776   2.617   2.735  1.0972  0.2055  1.9706
 8917SOL    HW238214   3.643   2.548   2.746 -1.0976 -0.2688  1.0388
 8918SOL     OW38215   3.711   1.468   8.411  0.5382 -0.2178 -0.5138
 8918SOL    HW138216   3.729   1.376   8.430  0.6227 -0.3761 -1.3442
 8918SOL    HW238217   3.625   1.461   8.370 -0.8105 -0.7734  2.3877
 8919SOL     OW38218   2.796   0.923  10.479 -0.1833 -0.1098  0.6670
 8919SOL    HW138219   2.858   0.929  10.551 -0.3084 -0.1005  0.7750
 8919SOL    HW238220   2.792   0.828  10.466 -1.1227 -0.1009  0.8819
 8920SOL     OW38221   1.732   2.974  10.537  0.3938 -0.3275  0.3501
 8920SOL    HW138222   1.806   3.001  10.591 -0.0161  0.5364  0.4855
 8920SOL    HW238223   1.780   2.900  10.499  0.7978 -0.0814  0.3891
 8921SOL     OW38224   2.007   2.005   1.091 -0.1945 -0.2989 -0.0280
 8921SOL    HW138225   1.989   2.082   1.037 -1.4709 -0.8546 -0.3909
 8921SOL    HW238226   1.971   1.941   1.030 -0.8972  0.5280 -0.4745
 8922SOL     OW38227   3.483   2.058   5.389  0.3950 -0.1161  0.7694
 8922SOL    HW138228   3.568   2.041   5.428  1.0899  1.7343  0.0457
 8922SOL    HW238229   3.469   2.149   5.416 -0.8051  0.7901 -2.8668
 8923SOL     OW38230   0.676   0.948  12.666 -0.3731 -0.1175 -0.4388
 8923SOL    HW138231   0.704   1.031  12.704 -0.7611 -0.1675 -0.0473
 8923SOL    HW238232   0.631   0.979  12.587  0.1907 -0.9775 -1.0947
 8924SOL     OW38233   1.825   0.847   2.091 -0.1277 -0.6327 -0.1515
 8924SOL    HW138234   1.810   0.796   2.011  2.2413 -0.9845 -0.3846
 8924SOL    HW238235   1.907   0.804   2.117 -0.1252  0.4917  1.6753
 8925SOL     OW38236   2.002   3.992   6.697  0.3893  0.3879  0.3248
 8925SOL    HW138237   2.085   4.010   6.742  0.6398 -1.4196  0.5678
 8925SOL    HW238238   2.027   3.946   6.617  1.6579  0.1699  0.8490
 8926SOL     OW38239   1.598   3.683  13.096  0.0199 -0.2865 -0.1686
 8926SOL    HW138240   1.539   3.753  13.070  2.8092  1.5686 -1.4889
 8926SOL    HW238241   1.604   3.696  13.190 -0.4450 -2.3212  0.1424
 8927SOL     OW38242   4.225   2.290   1.280 -0.2155 -0.3568 -0.5523
 8927SOL    HW138243   4.245   2.379   1.310 -1.5481 -0.2692  0.1017
 8927SOL    HW238244   4.177   2.306   1.199  1.2109  0.0997 -1.3045
 8928SOL     OW38245   2.040   1.387   5.028 -0.4350  0.6085  0.7981
 8928SOL    HW138246   2.104   1.317   5.034 -1.1322 -0.0147  0.9202
 8928SOL    HW238247   2.088   1.456   5.074  1.1925  0.2158 -0.3320
 8929SOL     OW38248   4.194   0.190   8.307  0.6291 -0.0008  0.2837
 8929SOL    HW138249   4.100   0.197   8.290  0.4789 -1.4470  0.5088
 8929SOL    HW238250   4.183   0.140   8.388 -1.4088 -0.6986 -0.4170
 8930SOL     OW38251   0.436   3.509   2.181  0.3275 -0.1980  0.3471
 8930SOL    HW138252   0.345   3.531   2.163  0.9453  1.8288 -0.2300
 8930SOL    HW238253   0.432   3.414   2.170  2.2077 -0.0884 -1.2863
 8931SOL     OW38254   1.572   0.914  15.641 -0.3765  0.0158  0.0609
 8931SOL    HW138255   1.653   0.866  15.656  0.2619  0.7163 -1.1482
 8931SOL    HW238256   1.538   0.941  15.726 -0.6452 -1.3104  0.3650
 8932SOL     OW38257   1.860   0.389   4.787 -0.2187 -0.4564  0.5242
 8932SOL    HW138258   1.800   0.338   4.732 -1.9635  0.5286  1.5212
 8932SOL    HW238259   1.914   0.422   4.715  0.8899 -1.8003  0.7311
 8933SOL     OW38260   3.299   3.486   0.238  0.2398 -0.1781  0.0418
 8933SOL    HW138261   3.226   3.540   0.210  1.8379  1.3137 -1.2573
 8933SOL    HW238262   3.292   3.410   0.181 -1.3957  0.0507 -0.0449
 8934SOL     OW38263   2.142   4.309  16.776 -0.4221 -0.3575  0.1013
 8934SOL    HW138264   2.161   4.216  16.789 -0.2749 -0.4598 -0.8129
 8934SOL    HW238265   2.109   4.310  16.686 -0.4648  1.5032  0.1525
 8935SOL     OW38266   2.408   0.436   8.269  0.1654 -0.1218  0.0960
 8935SOL    HW138267   2.385   0.428   8.361 -0.8814  0.8471 -0.0844
 8935SOL    HW238268   2.336   0.389   8.228  1.5257 -1.5926 -0.6272
 8936SOL     OW38269   3.797   0.000  16.102 -0.0287  0.0288  0.2543
 8936SOL    HW138270   3.793   4.715  16.007  1.9327  1.7492  0.0639
 8936SOL    HW238271   3.862   0.070  16.107  2.6801 -2.5356  0.2152
 8937SOL     OW38272   2.712   2.947   2.216  0.3208 -0.1905  0.4567
 8937SOL    HW138273   2.767   2.879   2.177 -1.3161 -1.1889 -0.0958
 8937SOL    HW238274   2.676   2.987   2.137  0.1886 -2.7757 -0.7968
 8938SOL     OW38275   1.568   1.382  14.202 -0.4684  1.0030  0.0276
 8938SOL    HW138276   1.577   1.467  14.244 -0.6145 -0.4442  2.9397
 8938SOL    HW238277   1.577   1.321  14.275 -2.5451  3.5170  2.3867
 8939SOL     OW38278   2.807   1.648   1.195  0.4671  0.0749  0.0482
 8939SOL    HW138279   2.739   1.592   1.231 -0.4012  1.4843  0.6015
 8939SOL    HW238280   2.872   1.626   1.262  0.4122  0.7302  0.3191
 8940SOL     OW38281   2.671   1.918   6.588 -0.3806 -0.0735  0.2395
 8940SOL    HW138282   2.738   1.878   6.643 -0.2582  0.6866  0.6471
 8940SOL    HW238283   2.716   1.908   6.504 -1.9782  1.0846 -0.7656
 8941SOL     OW38284   2.656   1.720   0.206 -0.5212 -0.2654 -0.2540
 8941SOL    HW138285   2.611   1.637   0.191 -0.4544 -0.3542  0.0308
 8941SOL    HW238286   2.598   1.771   0.263 -0.1656 -2.2308  1.8538
 8942SOL     OW38287   3.070   0.005   8.113 -0.2510 -0.3472 -0.0571
 8942SOL    HW138288   3.162   4.704   8.099 -0.1940 -0.2495  0.1646
 8942SOL    HW238289   3.076   0.098   8.090 -0.6194 -0.6046 -1.2015
 8943SOL     OW38290   1.094   1.665   2.805  0.4461 -0.3913 -1.0287
 8943SOL    HW138291   1.103   1.608   2.729  0.5016 -0.8887 -0.6490
 8943SOL    HW238292   1.076   1.745   2.756 -1.1545  0.3121  0.7095
 8944SOL     OW38293   4.221   1.186   5.986  0.3230 -0.3465 -0.3639
 8944SOL    HW138294   4.214   1.277   5.957 -0.1746 -0.2973 -0.0817
 8944SOL    HW238295   4.316   1.172   5.993  0.6300 -0.6198 -4.5235
 8945SOL     OW38296   1.359   0.300   3.970  0.1699 -0.1114  0.4798
 8945SOL    HW138297   1.346   0.221   3.916 -2.1415  0.3315  0.3851
 8945SOL    HW238298   1.339   0.365   3.903  1.4326  0.7227  0.9110
 8946SOL     OW38299   3.757   1.924   1.736  0.6759 -0.1224 -0.0638
 8946SOL    HW138300   3.836   1.974   1.713  0.4041 -0.3180 -1.4685
 8946SOL    HW238301   3.784   1.891   1.821 -0.9661 -2.7944 -0.5890
 8947SOL     OW38302   0.879   2.319   6.085 -0.6512  0.0043 -0.4148
 8947SOL    HW138303   0.973   2.323   6.067 -0.2749  0.0864  1.6463
 8947SOL    HW238304   0.853   2.356   6.000 -0.3105  1.8220  0.2604
 8948SOL     OW38305   0.352   0.934   8.393 -0.1462 -0.1197  0.0424
 8948SOL    HW138306   0.314   1.019   8.370 -0.2387  0.5809  2.7554
 8948SOL    HW238307   0.433   0.941   8.342  1.4055 -0.6200  2.4447
 8949SOL     OW38308   1.598   4.706   7.925 -0.8281 -0.2690 -0.2161
 8949SOL    HW138309   1.611   4.639   7.993  0.6318 -1.9733 -2.1699
 8949SOL    HW238310   1.587   0.066   7.973 -1.4948 -0.2456 -0.4065
 8950SOL     OW38311   3.863   1.429   2.033  0.1965 -0.3847 -0.0122
 8950SOL    HW138312   3.857   1.499   2.099 -2.1227 -0.6049  0.0224
 8950SOL    HW238313   3.851   1.477   1.951 -2.0243  0.8150  0.9937
 8951SOL     OW38314   0.070   2.650   0.371  0.0217  0.4838 -0.2111
 8951SOL    HW138315   0.124   2.689   0.302  0.5486  2.1639  1.1557
 8951SOL    HW238316   0.096   2.708   0.443  1.5913 -1.8039  1.0767
 8952SOL     OW38317   3.863   2.141  13.071  0.3582  0.1662  0.1384
 8952SOL    HW138318   3.839   2.127  12.979 -1.7599 -1.3447  0.9214
 8952SOL    HW238319   3.782   2.152  13.121  0.5243  1.0758  0.2004
 8953SOL     OW38320   4.087   2.308   2.167 -0.4126  0.1872  0.0012
 8953SOL    HW138321   4.100   2.322   2.260 -0.0282 -0.0955 -0.0099
 8953SOL    HW238322   4.165   2.253   2.163 -0.5853 -0.0389 -0.2955
 8954SOL     OW38323   0.491   2.499   3.484 -0.4504 -0.3689 -0.2351
 8954SOL    HW138324   0.545   2.515   3.406  1.5133 -3.6063  0.4775
 8954SOL    HW238325   0.539   2.424   3.520  0.9216  1.5220  1.8906
 8955SOL     OW38326   2.154   3.941  13.320  0.1765 -0.4501  0.0420
 8955SOL    HW138327   2.179   4.010  13.381 -0.7861 -0.8579  0.8917
 8955SOL    HW238328   2.147   3.861  13.371 -0.1703 -0.8888 -0.6865
 8956SOL     OW38329   0.350   2.971   4.667 -0.1782  0.1499  0.4530
 8956SOL    HW138330   0.373   2.891   4.620 -2.8071  0.1039 -0.7758
 8956SOL    HW238331   0.273   2.934   4.710 -0.2084  1.2567  1.3534
 8957SOL     OW38332   1.448   3.439  16.750 -0.0870  0.1018  0.2601
 8957SOL    HW138333   1.449   3.400  16.663 -1.6410  0.5344  0.0398
 8957SOL    HW238334   1.372   3.498  16.751 -1.0508 -1.1343 -0.8580
 8958SOL     OW38335   2.043   4.577   3.454 -0.4364 -0.1502 -0.4347
 8958SOL    HW138336   2.070   4.664   3.482  2.3482 -1.3985  0.8311
 8958SOL    HW238337   2.091   4.578   3.370  0.8073 -0.1754  0.2687
 8959SOL     OW38338   3.251   0.003  11.633  0.0504  1.0980  0.4251
 8959SOL    HW138339   3.230   4.702  11.542  1.6781  2.7904 -0.3873
 8959SOL    HW238340   3.325   0.061  11.614  0.5988  0.0318 -0.6610
 8960SOL     OW38341   3.511   2.792   6.302 -0.6824 -0.4354 -0.0677
 8960SOL    HW138342   3.468   2.749   6.228 -1.9440  1.3891 -0.3979
 8960SOL    HW238343   3.477   2.729   6.365 -1.0861  0.5044  0.6520
 8961SOL     OW38344   1.195   1.616   5.234 -0.2676  0.3611 -0.0604
 8961SOL    HW138345   1.227   1.627   5.323  2.0751  1.1139 -1.0025
 8961SOL    HW238346   1.229   1.532   5.204 -0.6123 -0.6208  2.3253
 8962SOL     OW38347   2.502   0.731   7.563 -0.1593  0.0201 -0.7759
 8962SOL    HW138348   2.456   0.655   7.597 -0.3908  0.1184 -0.8669
 8962SOL    HW238349   2.501   0.722   7.467  0.2523 -1.6273 -0.6204
 8963SOL     OW38350   2.811   1.694   7.001 -0.4811  0.0918 -0.0209
 8963SOL    HW138351   2.736   1.639   7.022  1.5828 -1.2824  3.8840
 8963SOL    HW238352   2.880   1.631   7.021 -1.0518 -0.7616 -0.7709
 8964SOL     OW38353   2.473   0.608   9.730  0.0205 -0.0916 -0.2421
 8964SOL    HW138354   2.496   0.623   9.822  0.7231 -1.2974 -0.2248
 8964SOL    HW238355   2.449   0.515   9.735 -1.2270  0.2792  0.7430
 8965SOL     OW38356   3.027   2.595   6.158 -0.7930 -0.2160 -0.0772
 8965SOL    HW138357   3.049   2.628   6.071  3.4961  1.1379  1.4955
 8965SOL    HW238358   3.108   2.556   6.191 -0.1148  1.6789  0.4973
 8966SOL     OW38359   3.879   2.876   8.234  0.5180  0.0331  0.2274
 8966SOL    HW138360   3.852   2.943   8.296  0.4443  1.3806 -1.2569
 8966SOL    HW238361   3.797   2.828   8.223  1.0156 -0.9996  0.9922
 8967SOL     OW38362   2.469   4.653   7.446  0.0044  0.0622  0.0914
 8967SOL    HW138363   2.544   4.706   7.471 -1.7636  2.8564 -0.5785
 8967SOL    HW238364   2.432   4.642   7.534  1.0182 -1.5595  0.3283
 8968SOL     OW38365   1.194   0.917   6.956  0.4279 -0.5084  0.1055
 8968SOL    HW138366   1.253   0.965   6.897 -1.2866 -1.4125 -2.3275
 8968SOL    HW238367   1.162   0.849   6.897 -0.8235 -0.0254  0.2289
 8969SOL     OW38368   1.892   0.101  11.015 -0.4020 -0.1421 -0.4697
 8969SOL    HW138369   1.953   0.170  11.040  0.0810 -0.1308 -1.7052
 8969SOL    HW238370   1.819   0.134  11.068 -0.3628 -0.4059 -0.2464
 8970SOL     OW38371   3.809   1.761  13.741  0.2496 -0.3260  0.0358
 8970SOL    HW138372   3.823   1.785  13.833  0.5242 -2.2998  0.4996
 8970SOL    HW238373   3.738   1.821  13.716 -0.2141 -0.9499 -0.1545
 8971SOL     OW38374   2.743   3.485   6.039 -0.4467 -0.4160 -0.4086
 8971SOL    HW138375   2.692   3.408   6.066 -0.7047  0.1194  0.6297
 8971SOL    HW238376   2.720   3.494   5.947  2.9282 -0.3826 -1.2461
 8972SOL     OW38377   3.049   0.111   9.414 -0.3149  0.5662 -0.4798
 8972SOL    HW138378   2.958   0.092   9.390 -0.7796 -0.7216  2.3079
 8972SOL    HW238379   3.099   0.031   9.401 -0.4220  0.2065  1.2866
 8973SOL     OW38380   4.673   0.950   2.390 -0.1403  0.7955 -0.0513
 8973SOL    HW138381   0.012   0.975   2.459 -1.1901  2.4404  0.2662
 8973SOL    HW238382   4.702   0.988   2.307  2.0011  3.5103  1.9381
 8974SOL     OW38383   4.272   0.081  12.438 -0.2341 -0.5143 -0.0726
 8974SOL    HW138384   4.346   0.044  12.390 -0.6690  0.4249 -1.4386
 8974SOL    HW238385   4.321   0.134  12.501 -1.8002  0.0724  0.6651
 8975SOL     OW38386   4.458   4.662   7.997  0.5942  0.3050  0.4930
 8975SOL    HW138387   4.519   4.647   8.070  2.2525  0.3979 -0.8730
 8975SOL    HW238388   4.373   4.658   8.041 -0.3566  1.6131 -1.2562
 8976SOL     OW38389   1.046   1.473   4.392  0.2098 -0.1592 -0.3618
 8976SOL    HW138390   1.000   1.518   4.321 -1.5779 -0.2263  0.7529
 8976SOL    HW238391   1.025   1.533   4.463  1.0152 -0.9132  0.5048
 8977SOL     OW38392   2.221   4.320   8.117 -0.2916  0.0305 -0.0531
 8977SOL    HW138393   2.179   4.344   8.200 -2.3254  1.2387 -1.4275
 8977SOL    HW238394   2.146   4.285   8.069  1.6704  0.1248 -3.1638
 8978SOL     OW38395   3.181   1.384   7.396 -0.6193  0.1260  0.0587
 8978SOL    HW138396   3.196   1.387   7.490  0.5332  2.6131 -0.1940
 8978SOL    HW238397   3.090   1.354   7.392 -0.9116  0.8520  1.3745
 8979SOL     OW38398   2.149   3.729   6.121 -0.0270 -0.3233 -0.2056
 8979SOL    HW138399   2.096   3.650   6.114  1.7489 -1.4213 -1.4452
 8979SOL    HW238400   2.222   3.697   6.174  0.0631 -1.4694 -1.0104
 8980SOL     OW38401   3.216   2.566   3.963 -0.0966  0.1101  0.1508
 8980SOL    HW138402   3.239   2.490   3.910  1.3365 -0.7925  2.1169
 8980SOL    HW238403   3.137   2.540   4.011  0.4570 -1.0686  0.3994
 8981SOL     OW38404   2.729   0.629   6.567  0.1701 -0.4578  0.3845
 8981SOL    HW138405   2.730   0.718   6.533  1.1713 -0.3066  0.8164
 8981SOL    HW238406   2.762   0.644   6.655  0.8447 -0.2451  0.0980
 8982SOL     OW38407   1.045   2.782  15.366  0.0823  0.5180 -0.5161
 8982SOL    HW138408   1.084   2.801  15.281 -0.0981  2.5522 -0.1475
 8982SOL    HW238409   1.098   2.717  15.412  0.2202  0.2012 -1.1240
 8983SOL     OW38410   0.448   1.214   8.924  0.7130  0.2010 -0.2571
 8983SOL    HW138411   0.450   1.184   9.015  1.8007 -0.1091 -0.3762
 8983SOL    HW238412   0.377   1.158   8.892  1.0709  0.8719 -2.2209
 8984SOL     OW38413   3.641   0.903   6.170 -0.3256  0.6839  0.5657
 8984SOL    HW138414   3.589   0.834   6.129  4.2892 -2.0424 -0.7407
 8984SOL    HW238415   3.618   0.903   6.263 -2.5837  1.0373  0.0101
 8985SOL     OW38416   1.071   0.914   7.771  0.4052  0.4531  0.1610
 8985SOL    HW138417   0.986   0.959   7.778 -0.5212 -1.2866 -0.0475
 8985SOL    HW238418   1.118   0.984   7.725 -0.4577 -1.0702 -3.0422
 8986SOL     OW38419   2.860   3.044  13.348 -0.0277 -0.1238 -0.3977
 8986SOL    HW138420   2.815   2.960  13.344 -1.0035  0.3078  1.3765
 8986SOL    HW238421   2.833   3.074  13.262 -0.8271  2.0351  0.6082
 8987SOL     OW38422   4.101   3.768   2.949  0.3351 -0.3974  0.8264
 8987SOL    HW138423   4.047   3.704   2.995  0.7723 -1.6994 -0.4978
 8987SOL    HW238424   4.046   3.845   2.959  1.4620  0.8460 -2.5960
 8988SOL     OW38425   0.362   1.559   4.835 -0.2998 -0.0019  0.2806
 8988SOL    HW138426   0.432   1.514   4.787  1.3067  2.3439  0.3968
 8988SOL    HW238427   0.327   1.614   4.765 -1.5156 -0.4028  0.5751
 8989SOL     OW38428   3.433   1.017   8.628 -0.0025 -0.1877  0.1375
 8989SOL    HW138429   3.348   1.060   8.633  1.4131  2.3258  1.9405
 8989SOL    HW238430   3.426   0.993   8.535 -2.1189  1.4828 -0.1319
 8990SOL     OW38431   4.314   0.114   5.061  0.1679  0.0946  0.0212
 8990SOL    HW138432   4.389   0.060   5.084  0.2094  0.6064  1.0707
 8990SOL    HW238433   4.337   0.131   4.970 -0.4947 -1.9703 -0.5375
 8991SOL     OW38434   1.670   0.678   7.589 -0.2115  0.2083  0.5849
 8991SOL    HW138435   1.671   0.629   7.671 -0.0408 -2.7497 -1.1908
 8991SOL    HW238436   1.707   0.612   7.530  3.1352 -0.1212  3.0770
 8992SOL     OW38437   4.699   3.338   6.246  0.3278  0.2352 -0.9000
 8992SOL    HW138438   0.004   3.252   6.279 -0.0907  1.0741  1.5982
 8992SOL    HW238439   4.605   3.319   6.247  0.4379 -0.2642 -0.0559
 8993SOL     OW38440   3.350   3.620  13.027  0.1491  0.0766 -0.5771
 8993SOL    HW138441   3.308   3.630  13.112  0.6800  2.7208 -0.6196
 8993SOL    HW238442   3.361   3.525  13.018 -1.8317 -0.2109 -0.0942
 8994SOL     OW38443   2.241   1.163   6.408 -0.0803 -0.0111 -0.3726
 8994SOL    HW138444   2.229   1.083   6.356  2.4257 -1.0927  0.7429
 8994SOL    HW238445   2.292   1.223   6.354 -0.9650  0.4749 -0.6710
 8995SOL     OW38446   2.633   3.793   8.846 -0.2160  0.3828 -0.1274
 8995SOL    HW138447   2.673   3.709   8.822 -3.3430 -0.5743 -1.9667
 8995SOL    HW238448   2.545   3.779   8.813  0.2645 -1.7063 -0.5130
 8996SOL     OW38449   4.126   4.273  10.111  0.3252 -0.3611  0.3800
 8996SOL    HW138450   4.097   4.359  10.081  0.4877  0.1758  1.7836
 8996SOL    HW238451   4.136   4.293  10.204 -3.7803  2.2350  0.2690
 8997SOL     OW38452   1.295   1.472   7.504  0.1808 -0.4587 -0.2856
 8997SOL    HW138453   1.304   1.396   7.561 -2.1755 -1.3019 -1.0412
 8997SOL    HW238454   1.382   1.486   7.466  0.2449 -1.9517 -0.6639
 8998SOL     OW38455   2.730   4.173   4.463 -0.5951 -0.0888 -0.3791
 8998SOL    HW138456   2.728   4.078   4.458  0.7496 -0.1181 -0.1944
 8998SOL    HW238457   2.661   4.183   4.529 -1.1798 -1.6544 -0.7664
 8999SOL     OW38458   2.945   1.259   2.198  0.1833 -0.1363  0.2321
 8999SOL    HW138459   2.946   1.319   2.123  0.0770  1.9368  1.8935
 8999SOL    HW238460   2.868   1.204   2.181 -0.7525  0.5085  2.4996
 9000SOL     OW38461   3.244   3.845  12.537 -0.2895 -0.1484  0.0404
 9000SOL    HW138462   3.238   3.760  12.581  0.1588 -0.9579 -1.4847
 9000SOL    HW238463   3.286   3.894  12.608  1.3108 -1.1164 -0.2278
 9001SOL     OW38464   0.717   1.256  17.267  0.1208 -0.5587 -0.0599
 9001SOL    HW138465   0.734   1.339  17.223 -2.4064 -0.8557 -1.5412
 9001SOL    HW238466   0.751   1.191  17.206  2.1733 -0.4770  0.9656
 9002SOL     OW38467   3.122   4.296   6.069  0.2149  0.2716  0.1406
 9002SOL    HW138468   3.086   4.353   6.001 -2.4517 -1.5468  0.0365
 9002SOL    HW238469   3.193   4.348   6.107  1.2904  1.8152 -3.8942
 9003SOL     OW38470   2.862   0.605   8.203 -0.5675  0.0609 -0.4990
 9003SOL    HW138471   2.904   0.522   8.226 -1.6856 -0.2909  0.2480
 9003SOL    HW238472   2.773   0.575   8.186 -0.8729  0.8497 -0.3069
 9004SOL     OW38473   0.155   4.401   6.996  0.1388 -0.4759  0.0032
 9004SOL    HW138474   0.104   4.443   6.926 -0.6751  1.0997  1.5643
 9004SOL    HW238475   0.140   4.462   7.068 -2.4917  1.8982 -2.5409
 9005SOL     OW38476   3.756   0.641   2.857  0.6772 -0.1860  1.0897
 9005SOL    HW138477   3.851   0.640   2.871  0.6257  0.6140  1.5243
 9005SOL    HW238478   3.731   0.697   2.931  0.3349  0.9383  0.1282
 9006SOL     OW38479   0.989   4.016   3.679  0.3058 -0.1889  0.0484
 9006SOL    HW138480   0.952   4.073   3.747  2.8315 -0.7941  1.9508
 9006SOL    HW238481   1.068   4.059   3.647 -0.0978  0.3779 -0.1757
 9007SOL     OW38482   2.626   2.585   5.282 -0.0206 -0.2352  0.4324
 9007SOL    HW138483   2.691   2.524   5.317 -1.2262 -1.4861  0.4873
 9007SOL    HW238484   2.679   2.630   5.216  1.0412  0.2895  1.6290
 9008SOL     OW38485   3.127   3.855   5.193 -0.1432  0.2317 -0.3348
 9008SOL    HW138486   3.099   3.774   5.236 -0.5078  0.7619  0.4230
 9008SOL    HW238487   3.049   3.905   5.216 -0.1612  0.7281 -1.4880
 9009SOL     OW38488   1.618   2.050   7.759 -0.4747 -0.6549 -0.0638
 9009SOL    HW138489   1.638   2.076   7.669  1.6358 -0.6743  0.3804
 9009SOL    HW238490   1.700   2.003   7.778 -0.0002  0.6444  1.1810
 9010SOL     OW38491   4.491   4.662  12.676 -0.2832 -0.2136 -0.2145
 9010SOL    HW138492   4.411   4.677  12.726  0.7086  1.1800  0.9799
 9010SOL    HW238493   4.491   0.010  12.610  0.1853  1.5708  1.6915
 9011SOL     OW38494   2.316   0.956   3.999  0.4822 -0.6094 -0.2964
 9011SOL    HW138495   2.349   0.941   3.910  1.2390 -2.0619  0.2398
 9011SOL    HW238496   2.373   0.896   4.046  1.7779 -0.0938 -1.1940
 9012SOL     OW38497   2.512   0.882   9.220 -0.2464 -0.1883  0.6425
 9012SOL    HW138498   2.589   0.863   9.167 -1.4024 -1.4099 -0.5997
 9012SOL    HW238499   2.545   0.900   9.307 -0.2431  0.2011  0.5624
 9013SOL     OW38500   3.832   3.504   8.780 -0.5423 -0.0827  0.1493
 9013SOL    HW138501   3.857   3.412   8.773  2.2177  0.8258 -1.8127
 9013SOL    HW238502   3.913   3.552   8.800 -1.4166  1.3676  0.2082
 9014SOL     OW38503   0.665   4.501   7.452  0.4399  0.6320 -0.1675
 9014SOL    HW138504   0.697   4.451   7.377 -3.2358  1.2557 -2.1852
 9014SOL    HW238505   0.665   4.433   7.519 -0.0384  2.0859  1.3240
 9015SOL     OW38506   0.762   1.168   5.368 -0.1637  0.1970  0.4670
 9015SOL    HW138507   0.682   1.210   5.336 -0.6176 -0.5467  0.6367
 9015SOL    HW238508   0.740   1.141   5.457 -2.0087 -1.0569 -0.3675
 9016SOL     OW38509   4.023   1.794   6.897  0.1602  0.3254 -0.3670
 9016SOL    HW138510   4.002   1.724   6.835  0.3977 -0.2793  0.2407
 9016SOL    HW238511   4.096   1.753   6.943 -1.1723 -1.3869  0.2111
 9017SOL     OW38512   1.502   4.401  10.474  0.0698  0.6544 -0.4678
 9017SOL    HW138513   1.479   4.358  10.391  0.0936  1.5265 -0.9325
 9017SOL    HW238514   1.415   4.392  10.513  0.6362 -2.4536  0.0774
 9018SOL     OW38515   0.083   2.832   2.511 -0.5282 -0.3186 -0.1360
 9018SOL    HW138516   0.030   2.882   2.572  2.4872  0.8873  1.5180
 9018SOL    HW238517   0.162   2.800   2.556  0.5520  1.3606 -0.8345
 9019SOL     OW38518   3.936   0.681  10.471 -0.0033  0.6209 -0.4325
 9019SOL    HW138519   3.855   0.656  10.427 -1.0751  1.3693  1.0937
 9019SOL    HW238520   3.995   0.606  10.461 -0.2591  0.4438 -0.6171
 9020SOL     OW38521   1.654   0.660   4.957  0.4191 -0.3054  0.0061
 9020SOL    HW138522   1.634   0.567   4.966 -1.7666  0.2521  0.7338
 9020SOL    HW238523   1.728   0.666   5.018  1.1281  1.3465 -1.0258
 9021SOL     OW38524   2.610   3.405   2.754 -0.3183  0.4648  0.7629
 9021SOL    HW138525   2.635   3.325   2.708 -0.0265  0.3303  1.1506
 9021SOL    HW238526   2.596   3.376   2.844 -2.6365 -0.0322  0.2514
 9022SOL     OW38527   2.805   3.726  15.634 -0.3221  0.0408 -0.3354
 9022SOL    HW138528   2.796   3.685  15.548  0.6507 -2.7177  0.8815
 9022SOL    HW238529   2.714   3.743  15.660  0.3749 -2.0832  3.4570
 9023SOL     OW38530   2.290   1.448  14.939 -0.2433 -1.1307  0.1239
 9023SOL    HW138531   2.314   1.463  15.031  0.3148 -0.7139 -0.0918
 9023SOL    HW238532   2.257   1.358  14.941 -0.0584 -1.1894  0.5148
 9024SOL     OW38533   1.805   4.402   5.485  0.1413  0.2999  0.4557
 9024SOL    HW138534   1.811   4.497   5.499 -1.6237 -0.1018  4.0275
 9024SOL    HW238535   1.825   4.375   5.575 -0.2628 -0.0849  0.4306
 9025SOL     OW38536   0.910   1.425   6.778  0.1662 -0.3342  0.9287
 9025SOL    HW138537   0.917   1.429   6.874 -0.6319 -1.2066  1.0255
 9025SOL    HW238538   0.816   1.438   6.765  0.8304  3.0981 -0.2314
 9026SOL     OW38539   0.725   0.931   4.665 -0.1946  0.1206 -0.0081
 9026SOL    HW138540   0.709   0.912   4.573 -0.6458 -0.8868  0.2760
 9026SOL    HW238541   0.758   0.848   4.698 -2.6191 -0.2372  1.5582
 9027SOL     OW38542   4.311   3.663   7.342  0.2068 -0.0893 -0.1297
 9027SOL    HW138543   4.285   3.592   7.401  0.5124 -0.3336 -0.2872
 9027SOL    HW238544   4.404   3.642   7.341 -0.0087 -0.9646 -2.4328
 9028SOL     OW38545   0.136   0.485   6.199 -0.9379  0.1514 -0.3339
 9028SOL    HW138546   0.119   0.420   6.131  0.5942 -2.2112  1.5457
 9028SOL    HW238547   0.080   0.462   6.273 -0.0384  0.2931  0.3858
 9029SOL     OW38548   3.148   4.499   9.706 -0.0630 -0.5246  0.0732
 9029SOL    HW138549   3.221   4.442   9.726  0.8530  0.3671 -0.7161
 9029SOL    HW238550   3.191   4.584   9.695 -0.5472 -0.6096 -2.6281
 9030SOL     OW38551   1.676   3.385   2.225  0.6441 -0.5642  0.0767
 9030SOL    HW138552   1.693   3.291   2.230 -0.7954 -0.9293 -1.8700
 9030SOL    HW238553   1.725   3.409   2.303  1.2794  0.7057 -0.7268
 9031SOL     OW38554   3.641   2.196   5.141 -0.0263  0.3548 -0.1045
 9031SOL    HW138555   3.625   2.289   5.123 -0.2976  0.2335 -0.5109
 9031SOL    HW238556   3.604   2.151   5.065 -0.4644 -0.1881  0.4295
 9032SOL     OW38557   1.738   3.013   2.944  0.1750 -0.0983  0.5298
 9032SOL    HW138558   1.709   3.083   2.886  1.1820 -0.4172 -0.3629
 9032SOL    HW238559   1.772   2.942   2.889  0.7175  1.2222 -0.8576
 9033SOL     OW38560   1.541   3.609   2.157  0.8091  0.7436  0.6213
 9033SOL    HW138561   1.591   3.530   2.176 -0.0286 -0.4325 -2.0550
 9033SOL    HW238562   1.523   3.598   2.064  1.2713  2.0812  0.3676
 9034SOL     OW38563   1.280   4.017   2.372 -0.0009  0.0285  0.2997
 9034SOL    HW138564   1.328   3.945   2.332  1.5778  0.5775  1.1964
 9034SOL    HW238565   1.206   3.975   2.417 -0.0918  0.5753  0.6615
 9035SOL     OW38566   0.902   4.318  16.735 -0.1688 -0.7022 -0.3518
 9035SOL    HW138567   0.996   4.312  16.720 -0.0682 -0.6264  0.2829
 9035SOL    HW238568   0.902   4.390  16.798 -0.2902 -1.7097  0.7813
 9036SOL     OW38569   3.448   2.055   3.122  0.0954  0.2652 -0.0833
 9036SOL    HW138570   3.430   2.122   3.187  1.0510 -1.0862  1.5731
 9036SOL    HW238571   3.458   2.108   3.043 -0.8958 -1.5527 -1.4328
 9037SOL     OW38572   1.868   1.601  14.234  0.0773 -0.0377  0.4326
 9037SOL    HW138573   1.861   1.547  14.155 -0.8022  0.5830  0.0930
 9037SOL    HW238574   1.779   1.608  14.268 -0.1612 -3.5880  0.5875
 9038SOL     OW38575   1.677   1.747   5.951 -0.5521 -0.1423  0.4826
 9038SOL    HW138576   1.586   1.773   5.968 -1.0176 -0.7639 -1.0398
 9038SOL    HW238577   1.716   1.828   5.918 -1.1828 -0.1709 -0.3296
 9039SOL     OW38578   3.139   1.148   0.335 -0.4873  0.2242 -0.9033
 9039SOL    HW138579   3.177   1.066   0.303 -0.9167  0.2748 -1.5382
 9039SOL    HW238580   3.055   1.126   0.376  0.4390 -1.1629  0.2523
 9040SOL     OW38581   2.604   4.433   6.464  0.4347  0.3860  0.1044
 9040SOL    HW138582   2.624   4.433   6.557  1.0418 -1.8514 -0.0290
 9040SOL    HW238583   2.570   4.344   6.454  1.2578  0.3256 -2.3589
 9041SOL     OW38584   4.179   3.768  11.028 -0.1564  0.0172 -0.2211
 9041SOL    HW138585   4.086   3.786  11.012 -0.1503 -0.3757 -0.7087
 9041SOL    HW238586   4.196   3.704  10.959  0.6361 -1.3540  1.2455
 9042SOL     OW38587   2.606   1.387   2.520 -0.1096 -0.5198 -0.6037
 9042SOL    HW138588   2.640   1.371   2.608  0.1304  1.4046 -0.3496
 9042SOL    HW238589   2.691   1.390   2.475  1.0484 -0.7160  1.5666
 9043SOL     OW38590   4.597   2.142   8.560 -0.0286 -0.2893  0.4341
 9043SOL    HW138591   4.512   2.097   8.561 -0.4740  0.5911  1.4322
 9043SOL    HW238592   4.573   2.203   8.491 -1.1097 -0.6250  0.5093
 9044SOL     OW38593   0.790   3.573  11.057 -0.1106 -0.4055  0.2910
 9044SOL    HW138594   0.835   3.529  11.129 -1.6241  0.4215  1.7037
 9044SOL    HW238595   0.870   3.584  11.005  0.0428 -1.9842  0.1857
 9045SOL     OW38596   4.492   4.380   8.520 -0.0732  0.5343 -0.4644
 9045SOL    HW138597   4.408   4.424   8.532 -0.7134 -1.3967  2.2679
 9045SOL    HW238598   4.545   4.453   8.488  2.9577 -0.6911  1.6567
 9046SOL     OW38599   3.556   3.836   4.235 -0.2649  0.4125 -0.1821
 9046SOL    HW138600   3.503   3.834   4.155  0.9546  0.5388 -0.9950
 9046SOL    HW238601   3.624   3.895   4.203  0.2417  0.7190  1.4763
 9047SOL     OW38602   0.976   1.915  10.159 -0.1638 -0.5133  0.2552
 9047SOL    HW138603   1.038   1.902  10.230 -1.4806  0.3133  1.5592
 9047SOL    HW238604   0.927   1.833  10.164 -2.0583  0.5981 -0.0475
 9048SOL     OW38605   0.602   2.192   8.354 -0.3715  0.0933  0.3571
 9048SOL    HW138606   0.586   2.286   8.359 -0.7382  0.0334  0.3280
 9048SOL    HW238607   0.534   2.160   8.413 -1.6184  1.4965 -0.3204
 9049SOL     OW38608   2.259   2.160   6.651 -0.0058  0.1039 -0.1822
 9049SOL    HW138609   2.228   2.075   6.682  1.0996 -0.3290 -0.2860
 9049SOL    HW238610   2.340   2.140   6.604  0.5319 -0.3827  0.9653
 9050SOL     OW38611   0.279   3.764  16.853  0.5015  0.4735  0.4701
 9050SOL    HW138612   0.282   3.851  16.894 -1.3282  0.5436  0.4472
 9050SOL    HW238613   0.214   3.777  16.785  2.1121 -0.5096 -1.2572
 9051SOL     OW38614   2.173   0.264   4.025 -0.2433 -0.2558 -0.0446
 9051SOL    HW138615   2.086   0.228   4.045 -1.0165  1.8152  0.3975
 9051SOL    HW238616   2.198   0.272   4.117  0.6414 -0.9837 -0.2310
 9052SOL     OW38617   4.485   3.501   3.794  0.1762  0.0856  0.2268
 9052SOL    HW138618   4.503   3.455   3.876 -1.9118 -1.6115 -0.2877
 9052SOL    HW238619   4.562   3.479   3.741  0.3234 -0.8947  0.8439
 9053SOL     OW38620   3.307   1.855  12.476  0.0113 -0.2293 -0.1573
 9053SOL    HW138621   3.377   1.896  12.427 -0.2490 -0.1672 -0.4770
 9053SOL    HW238622   3.294   1.772  12.431  2.8650  0.1227 -1.5819
 9054SOL     OW38623   0.160   1.017   3.232  0.4536 -0.0717  0.5751
 9054SOL    HW138624   0.109   0.983   3.306 -0.1260 -0.4171  0.0234
 9054SOL    HW238625   0.128   1.108   3.231  0.0133 -0.2332 -0.4902
 9055SOL     OW38626   3.198   0.426   6.535 -0.5215  0.3510  0.7336
 9055SOL    HW138627   3.110   0.400   6.509  0.6748 -3.1662  0.1315
 9055SOL    HW238628   3.182   0.450   6.626 -0.8985 -1.5116  1.1503
 9056SOL     OW38629   2.828   1.056  15.934  0.3256  0.2550 -0.0981
 9056SOL    HW138630   2.835   1.146  15.966  1.3349 -0.3717  1.4393
 9056SOL    HW238631   2.772   1.071  15.858  0.2709  1.2064  0.1282
 9057SOL     OW38632   0.146   1.683  14.469 -0.0892  0.5229 -0.0854
 9057SOL    HW138633   0.145   1.722  14.382 -0.1276  2.7814  0.9075
 9057SOL    HW238634   0.139   1.762  14.524  1.5885  0.6797 -0.0779
 9058SOL     OW38635   1.483   1.304   5.723  0.7028 -0.8552  0.1390
 9058SOL    HW138636   1.502   1.331   5.634  0.5665 -0.7531  0.1399
 9058SOL    HW238637   1.430   1.381   5.745  1.1610 -0.2663 -0.8554
 9059SOL     OW38638   4.692   2.560   9.629 -0.2389  0.5646  0.6801
 9059SOL    HW138639   0.032   2.530   9.696 -0.3983 -0.0059  0.5759
 9059SOL    HW238640   4.633   2.484   9.639  1.5630 -1.0105 -0.6862
 9060SOL     OW38641   1.870   1.118   8.959 -0.3374 -0.0692 -0.1465
 9060SOL    HW138642   1.864   1.203   9.004 -0.6232 -0.0058 -0.3061
 9060SOL    HW238643   1.913   1.057   9.018 -0.3038  0.7830  0.7180
 9061SOL     OW38644   1.605   2.781  12.780  0.1185 -0.7420 -0.4967
 9061SOL    HW138645   1.516   2.809  12.760  0.9960  2.2202 -0.2521
 9061SOL    HW238646   1.627   2.862  12.827 -1.4852 -0.7767  0.3045
 9062SOL     OW38647   3.501   1.835   2.459 -0.2338  0.1783 -0.4426
 9062SOL    HW138648   3.455   1.918   2.462 -1.6610 -0.5915 -0.8676
 9062SOL    HW238649   3.492   1.814   2.552  1.7667 -0.0836 -0.3140
 9063SOL     OW38650   0.535   4.599  11.874  0.4560 -0.4479  0.6657
 9063SOL    HW138651   0.596   4.543  11.922  1.0583 -0.1835  0.2152
 9063SOL    HW238652   0.594   4.672  11.856  1.1977 -1.7010 -2.0481
 9064SOL     OW38653   0.146   1.495   3.856 -0.2891  0.1197  0.8389
 9064SOL    HW138654   0.198   1.416   3.868 -0.7641 -0.3231  0.0347
 9064SOL    HW238655   0.167   1.505   3.763 -1.5113 -1.2126  0.4185
 9065SOL     OW38656   4.425   3.916  15.181  0.1364 -0.1464 -0.0610
 9065SOL    HW138657   4.396   3.980  15.116 -1.1990  1.0498  1.6719
 9065SOL    HW238658   4.514   3.946  15.197  0.4983 -0.6347 -1.1966
 9066SOL     OW38659   1.716   3.835  12.743 -0.5712 -0.4148 -0.0119
 9066SOL    HW138660   1.641   3.784  12.775  1.2580 -1.6699  2.2447
 9066SOL    HW238661   1.708   3.813  12.651 -0.3122 -0.9509  0.0934
 9067SOL     OW38662   3.503   4.343   5.026 -0.1933  0.6388  0.3048
 9067SOL    HW138663   3.422   4.362   5.074 -0.7548  1.8243 -1.1187
 9067SOL    HW238664   3.571   4.355   5.092  1.5018 -2.3319 -0.9297
 9068SOL     OW38665   2.314   4.229   8.633  0.3679  0.4532 -0.6910
 9068SOL    HW138666   2.397   4.184   8.648  1.4976  2.5019 -0.6875
 9068SOL    HW238667   2.338   4.303   8.576 -1.5795  0.8545 -0.9642
 9069SOL     OW38668   4.124   2.333  16.306  0.2175  0.4503  0.3072
 9069SOL    HW138669   4.121   2.246  16.346 -0.0626  0.0326 -0.6404
 9069SOL    HW238670   4.070   2.381  16.369 -0.0206  1.3718 -0.5972
 9070SOL     OW38671   2.604   3.749   4.526 -0.2290 -0.1955 -0.2755
 9070SOL    HW138672   2.611   3.660   4.493 -0.6016 -1.2934  2.5574
 9070SOL    HW238673   2.511   3.769   4.514  0.3829  1.9552 -1.4286
 9071SOL     OW38674   2.805   4.592  11.089 -0.0006 -0.1294  0.7880
 9071SOL    HW138675   2.797   4.686  11.100 -0.6626 -0.3636  2.3190
 9071SOL    HW238676   2.876   4.572  11.028  0.8088  1.1783  1.3136
 9072SOL     OW38677   3.255   4.039  13.658 -0.0057  0.1523  0.0645
 9072SOL    HW138678   3.235   3.991  13.739 -4.0256  0.5525 -0.6652
 9072SOL    HW238679   3.291   4.120  13.692  3.1036 -1.3698  0.3760
 9073SOL     OW38680   4.478   2.138   6.831  0.4486  0.1472 -0.2740
 9073SOL    HW138681   4.398   2.161   6.877  0.6132 -0.5652  0.3678
 9073SOL    HW238682   4.461   2.055   6.786  1.0357 -0.3348  0.3982
 9074SOL     OW38683   0.963   2.458  14.774 -0.6645 -0.1422 -0.1740
 9074SOL    HW138684   0.986   2.370  14.804 -0.0630  0.6076  1.5229
 9074SOL    HW238685   1.003   2.504  14.847  0.3092 -1.9455  0.4229
 9075SOL     OW38686   0.329   1.706  13.911 -0.7751 -0.0802  0.3511
 9075SOL    HW138687   0.338   1.734  13.820 -0.5663 -0.0082  0.3928
 9075SOL    HW238688   0.267   1.636  13.894 -1.2126 -0.0145  1.6142
 9076SOL     OW38689   0.072   1.824   8.704 -0.3522 -0.3076 -0.6971
 9076SOL    HW138690   0.128   1.757   8.665 -1.0782 -0.9980 -0.5517
 9076SOL    HW238691   4.706   1.788   8.718  0.0610 -0.9745  0.1219
 9077SOL     OW38692   3.590   4.086  12.561 -0.6607 -0.6099  0.3270
 9077SOL    HW138693   3.506   4.101  12.604  0.7544  0.8396  2.6059
 9077SOL    HW238694   3.562   4.100  12.470  0.3319 -0.0642  0.1016
 9078SOL     OW38695   0.482   2.674   0.774  0.1436 -0.1433  0.4682
 9078SOL    HW138696   0.416   2.610   0.803  0.0779 -0.2132  0.1599
 9078SOL    HW238697   0.550   2.651   0.837  1.3124 -0.2184 -0.8153
 9079SOL     OW38698   1.931   0.907   6.791 -0.4682 -0.9346  0.6604
 9079SOL    HW138699   1.922   1.000   6.773  1.2460 -1.0407 -0.6755
 9079SOL    HW238700   1.995   0.910   6.862  1.1041 -0.9539 -0.7386
 9080SOL     OW38701   2.901   4.705   1.803 -0.3982  0.3699  0.3157
 9080SOL    HW138702   2.977   4.660   1.840 -0.9257  0.3032  1.3000
 9080SOL    HW238703   2.837   4.684   1.870  0.4176  0.1281  1.0246
 9081SOL     OW38704   3.075   2.865  16.201 -0.1481 -0.5698 -0.0303
 9081SOL    HW138705   3.126   2.851  16.121  4.0204 -0.0493  2.5348
 9081SOL    HW238706   2.991   2.877  16.156  1.9633  0.9117 -3.6085
 9082SOL     OW38707   2.014   2.876   6.365 -0.1680  0.1442  0.2920
 9082SOL    HW138708   2.027   2.903   6.456  2.7810  2.1402 -0.7269
 9082SOL    HW238709   2.081   2.928   6.321 -0.7785 -1.6280 -2.7377
 9083SOL     OW38710   1.109   4.614   4.571  0.7432 -0.4480 -0.0292
 9083SOL    HW138711   1.110   4.579   4.482 -1.0653  1.3163 -0.7512
 9083SOL    HW238712   1.041   4.681   4.574  0.6756 -0.6118  2.2486
 9084SOL     OW38713   0.396   0.775   7.734  0.3620  0.0777  0.0711
 9084SOL    HW138714   0.385   0.839   7.663  1.9288  0.4429  0.1650
 9084SOL    HW238715   0.334   0.798   7.803  2.8412 -1.2095  2.7284
 9085SOL     OW38716   4.569   3.391   3.314 -0.1711  0.0742  0.2814
 9085SOL    HW138717   4.497   3.419   3.370 -1.0097  0.2533 -0.8859
 9085SOL    HW238718   4.547   3.443   3.236 -0.1845  1.1438  0.9949
 9086SOL     OW38719   3.576   2.752   7.627  0.0743  0.2527 -0.5043
 9086SOL    HW138720   3.626   2.794   7.557  0.0117  0.6755 -0.2964
 9086SOL    HW238721   3.578   2.819   7.695 -0.6179 -1.1603  0.9060
 9087SOL     OW38722   4.694   2.657  16.538  0.2839 -0.1184  0.1877
 9087SOL    HW138723   0.025   2.680  16.461 -0.3888 -1.5621 -0.6842
 9087SOL    HW238724   0.049   2.659  16.597  0.5318  2.7292 -0.2183
 9088SOL     OW38725   1.692   4.620   3.855 -0.2397 -0.3826  0.9055
 9088SOL    HW138726   1.750   4.603   3.781 -1.7191  0.1401 -0.3782
 9088SOL    HW238727   1.623   4.667   3.808 -0.8120 -1.5799  0.5561
 9089SOL     OW38728   0.591   1.509  12.582 -0.3661 -0.3592  0.1527
 9089SOL    HW138729   0.666   1.551  12.538  1.3659 -2.0250  1.5075
 9089SOL    HW238730   0.519   1.566  12.555  2.0474  1.6580 -2.0409
 9090SOL     OW38731   4.535   1.256   6.182 -0.4374 -0.5021 -0.8053
 9090SOL    HW138732   4.605   1.193   6.199 -0.1112  0.5723  1.9024
 9090SOL    HW238733   4.492   1.248   6.267 -2.9636  2.2982 -1.8067
 9091SOL     OW38734   2.472   4.715   3.591 -0.1066 -0.0919 -0.1232
 9091SOL    HW138735   2.452   4.653   3.520  1.3202 -0.4138 -0.2552
 9091SOL    HW238736   2.426   4.673   3.664 -2.6057  1.0307 -1.0608
 9092SOL     OW38737   4.100   3.718   1.800  0.1258  0.0193  0.6849
 9092SOL    HW138738   4.132   3.633   1.829 -2.3926 -1.6398 -1.4157
 9092SOL    HW238739   4.178   3.771   1.818 -0.7294  0.4815  2.9475
 9093SOL     OW38740   1.028   1.299   7.123 -0.0963 -0.3182  0.3282
 9093SOL    HW138741   0.949   1.353   7.121  0.5520  0.6064 -0.1021
 9093SOL    HW238742   1.083   1.356   7.069  1.0428 -0.0051  1.8258
 9094SOL     OW38743   2.235   3.629   6.962 -0.6629  0.2622 -0.3793
 9094SOL    HW138744   2.203   3.670   7.043  0.0227 -1.5602  0.8270
 9094SOL    HW238745   2.281   3.555   7.004 -0.4178  1.4833  1.5259
 9095SOL     OW38746   1.527   4.149   7.849  0.2121 -0.0247 -0.1921
 9095SOL    HW138747   1.505   4.241   7.863 -1.5482 -0.4014 -0.5382
 9095SOL    HW238748   1.463   4.106   7.906 -1.3832  3.5630  0.7109
 9096SOL     OW38749   2.745   1.634   7.520 -0.1245 -0.3113 -0.0058
 9096SOL    HW138750   2.827   1.660   7.477 -2.2510  1.9952 -2.6872
 9096SOL    HW238751   2.690   1.711   7.504  1.1710  0.8893  1.2815
 9097SOL     OW38752   1.795   4.399   8.634  0.3481 -0.1449  0.4064
 9097SOL    HW138753   1.823   4.456   8.706 -0.0711 -1.7366  1.8328
 9097SOL    HW238754   1.784   4.454   8.557 -0.9273  0.4778  1.0289
 9098SOL     OW38755   2.523   3.047  15.134 -0.3053  0.4135  0.3553
 9098SOL    HW138756   2.433   3.016  15.127 -0.1283 -0.4154  1.8249
 9098SOL    HW238757   2.514   3.100  15.213  1.4207  0.4898  0.5123
 9099SOL     OW38758   4.071   1.556   5.700  0.0321 -0.2002  0.1085
 9099SOL    HW138759   4.146   1.509   5.663  0.3424 -0.8612  1.5744
 9099SOL    HW238760   4.054   1.499   5.775 -0.2476  2.7625  2.3256
 9100SOL     OW38761   2.217   2.796  17.687 -0.1570  0.0867 -0.2818
 9100SOL    HW138762   2.267   2.837  17.616 -0.4254  0.4092 -0.2868
 9100SOL    HW238763   2.265   2.713  17.687 -0.3375 -0.0111 -1.0281
 9101SOL     OW38764   1.324   0.526   7.821 -0.0676 -0.6096 -0.2686
 9101SOL    HW138765   1.272   0.451   7.849  0.9006 -1.2548 -0.1740
 9101SOL    HW238766   1.315   0.582   7.899 -1.3252  2.2680 -2.4582
 9102SOL     OW38767   2.132   1.640  14.800  0.6938  0.3761  0.2900
 9102SOL    HW138768   2.185   1.579  14.852 -0.1586 -0.8177 -0.2255
 9102SOL    HW238769   2.053   1.629  14.854  0.8627 -1.6016  0.1407
 9103SOL     OW38770   2.602   4.066   3.642  0.9362 -0.6220  0.4122
 9103SOL    HW138771   2.586   3.978   3.610  0.2100 -0.1474 -0.5369
 9103SOL    HW238772   2.524   4.096   3.690  0.1541 -1.3189 -0.4230
 9104SOL     OW38773   3.688   0.195   3.070 -0.7335 -0.4750 -0.0742
 9104SOL    HW138774   3.627   0.126   3.043 -0.6345 -0.4120 -0.4486
 9104SOL    HW238775   3.775   0.158   3.058 -0.9517 -0.7705 -0.7278
 9105SOL     OW38776   1.329   4.526   8.616  0.3139 -0.1934 -0.0822
 9105SOL    HW138777   1.280   4.489   8.689 -0.9350  1.4565 -0.0935
 9105SOL    HW238778   1.330   4.619   8.638 -2.6809 -0.4992  1.2422
 9106SOL     OW38779   4.055   3.499   8.325  0.3048 -0.2793  0.2728
 9106SOL    HW138780   4.023   3.410   8.334 -1.6775  0.4594  0.6206
 9106SOL    HW238781   3.990   3.551   8.278 -0.4734 -0.8289  0.7427
 9107SOL     OW38782   4.669   2.870   8.189  0.3783 -0.1105  0.3243
 9107SOL    HW138783   4.632   2.941   8.242 -0.6625 -2.0938  2.2274
 9107SOL    HW238784   4.598   2.805   8.195 -1.0219  1.2905 -0.9823
 9108SOL     OW38785   1.417   2.534   3.314  0.1010 -0.3018  0.1502
 9108SOL    HW138786   1.430   2.454   3.263 -2.8083 -0.8374  0.2248
 9108SOL    HW238787   1.321   2.529   3.314  0.0684  0.4003  1.2886
 9109SOL     OW38788   2.709   0.798   5.900 -0.4562 -0.3084 -0.1828
 9109SOL    HW138789   2.653   0.777   5.825  0.3788  0.2545 -0.9620
 9109SOL    HW238790   2.752   0.712   5.908 -1.4354 -0.8794 -1.0662
 9110SOL     OW38791   4.668   3.148   3.306  0.4521  0.1691  0.3710
 9110SOL    HW138792   4.629   3.118   3.388  0.5690 -0.0933  0.3292
 9110SOL    HW238793   4.645   3.241   3.312 -1.4527  0.0060 -4.0468
 9111SOL     OW38794   3.089   2.018   5.844  0.2151  0.0909  0.0081
 9111SOL    HW138795   3.049   2.043   5.928 -0.2070 -1.3963  0.2535
 9111SOL    HW238796   3.123   1.931   5.867 -1.5569 -0.1112  1.8994
 9112SOL     OW38797   2.192   3.432   7.670 -0.0417 -0.1866  0.2276
 9112SOL    HW138798   2.105   3.471   7.682  0.3636  0.9643 -0.4984
 9112SOL    HW238799   2.220   3.398   7.756  0.9975  1.1819  0.4390
 9113SOL     OW38800   1.740   4.130  14.050 -0.2499  0.1750  0.0633
 9113SOL    HW138801   1.745   4.178  14.133  1.1263  0.0932  0.0311
 9113SOL    HW238802   1.650   4.132  14.016 -0.3843  1.7401  0.4681
 9114SOL     OW38803   4.297   3.224  10.831 -0.0651  0.2005 -0.0131
 9114SOL    HW138804   4.281   3.305  10.783 -0.8013  0.2779  0.3568
 9114SOL    HW238805   4.283   3.163  10.759 -0.3713  0.5031 -0.2076
 9115SOL     OW38806   0.286   2.453   6.975 -0.4242  0.2093 -0.2197
 9115SOL    HW138807   0.339   2.373   6.979 -3.3187 -1.6053  2.0709
 9115SOL    HW238808   0.217   2.420   7.033  2.4779 -1.7360  2.1387
 9116SOL     OW38809   3.249   2.425  13.344  0.0559  0.4646  0.4500
 9116SOL    HW138810   3.272   2.500  13.398 -2.2486  1.5445 -0.0215
 9116SOL    HW238811   3.153   2.427  13.339  0.1102  0.8259 -0.4961
 9117SOL     OW38812   1.625   2.633   4.706 -0.1307  0.4108  0.5295
 9117SOL    HW138813   1.689   2.654   4.639  1.2612 -2.3590  0.9696
 9117SOL    HW238814   1.614   2.713   4.757  0.6295  0.3607  0.7697
 9118SOL     OW38815   3.488   2.238  10.086  0.1774 -0.2401 -0.0841
 9118SOL    HW138816   3.430   2.310  10.108 -0.9975 -0.5071 -2.2915
 9118SOL    HW238817   3.574   2.280  10.082 -0.5345  1.0525 -1.8496
 9119SOL     OW38818   3.109   3.761  12.852  0.2188  0.0527 -0.1333
 9119SOL    HW138819   3.165   3.838  12.861 -1.9998  1.7869 -1.1788
 9119SOL    HW238820   3.175   3.699  12.819  1.5441  2.1776 -1.4503
 9120SOL     OW38821   1.109   4.018   0.025 -0.0506 -0.6586 -0.4359
 9120SOL    HW138822   1.161   4.010  17.633  0.1921 -1.9882 -0.1503
 9120SOL    HW238823   1.033   3.975  17.673  0.3802 -0.6933 -1.2137
 9121SOL     OW38824   1.280   4.110   7.995  0.0612 -0.4141 -0.6400
 9121SOL    HW138825   1.192   4.078   7.976  0.4214 -0.7098 -1.8259
 9121SOL    HW238826   1.269   4.201   7.967  1.2356  0.6224  2.2785
 9122SOL     OW38827   1.561   0.537  17.100  0.2522 -0.0343  0.3075
 9122SOL    HW138828   1.504   0.594  17.152 -0.6686 -0.2433 -0.4695
 9122SOL    HW238829   1.528   0.450  17.124 -2.6245  0.7332 -0.8000
 9123SOL     OW38830   4.350   0.738   3.040  0.4753 -0.0036 -0.3305
 9123SOL    HW138831   4.354   0.690   3.122 -1.1607  1.1102  0.4076
 9123SOL    HW238832   4.257   0.760   3.038  0.2011 -1.0180  1.7663
 9124SOL     OW38833   0.723   4.554  17.412 -0.0581  0.0895  0.1106
 9124SOL    HW138834   0.787   4.589  17.351 -0.1849  1.0135  0.5126
 9124SOL    HW238835   0.659   4.624  17.427 -1.6567 -0.9345 -1.8685
 9125SOL     OW38836   0.646   0.555  11.483  0.1468  0.8820 -0.3288
 9125SOL    HW138837   0.722   0.511  11.445 -0.8551 -2.9235  2.0641
 9125SOL    HW238838   0.620   0.484  11.541  1.5719  0.4576 -0.2111
 9126SOL     OW38839   1.994   2.451   5.326  0.1700 -0.3753 -0.2903
 9126SOL    HW138840   1.937   2.429   5.252 -2.0348  2.5383  0.5472
 9126SOL    HW238841   1.950   2.422   5.406  1.9300 -1.8148  0.1496
 9127SOL     OW38842   1.816   2.813   2.783 -0.0587 -0.1890  0.1249
 9127SOL    HW138843   1.767   2.760   2.720 -0.0576  1.2742 -1.1301
 9127SOL    HW238844   1.903   2.819   2.743 -0.6673  3.1551 -0.7158
 9128SOL     OW38845   0.310   3.317   4.252 -0.0756  0.6757 -0.5789
 9128SOL    HW138846   0.386   3.358   4.293 -0.3470  1.3162 -0.7041
 9128SOL    HW238847   0.318   3.331   4.157  2.5149  0.9263 -0.3225
 9129SOL     OW38848   0.939   3.496  11.281 -0.0575 -0.0650 -0.7313
 9129SOL    HW138849   1.030   3.501  11.253 -0.1813 -0.1319 -1.1493
 9129SOL    HW238850   0.960   3.476  11.372  0.6558  0.7873 -0.7152
 9130SOL     OW38851   0.751   0.736   7.468 -0.0674 -0.3172 -0.2685
 9130SOL    HW138852   0.798   0.654   7.482  0.8849  0.4801  1.2179
 9130SOL    HW238853   0.749   0.770   7.558  2.2852  0.2159 -0.3978
 9131SOL     OW38854   2.962   4.554  12.774  0.3135 -0.2196 -0.5501
 9131SOL    HW138855   3.005   4.596  12.849  2.4492 -0.3242 -1.7071
 9131SOL    HW238856   2.871   4.554  12.803  0.7044  0.5292  0.6802
 9132SOL     OW38857   1.374   3.429   6.332 -0.0473  0.7975  0.1517
 9132SOL    HW138858   1.303   3.483   6.298 -1.1861  0.2278  1.6516
 9132SOL    HW238859   1.411   3.397   6.249 -1.6283  0.3754 -0.3844
 9133SOL     OW38860   3.141   2.410   2.761  0.4897  0.3890  0.1969
 9133SOL    HW138861   3.069   2.353   2.735 -0.1147  1.3642 -0.2687
 9133SOL    HW238862   3.104   2.492   2.728 -1.2734 -0.4957 -0.0204
 9134SOL     OW38863   3.453   1.668   1.520 -0.6991  0.1924 -0.3913
 9134SOL    HW138864   3.522   1.609   1.489  0.2685  1.8998 -1.5116
 9134SOL    HW238865   3.374   1.618   1.501 -0.1488 -0.9069  0.2488
 9135SOL     OW38866   2.092   4.398   8.350 -0.0376  0.3819  0.2083
 9135SOL    HW138867   2.007   4.433   8.323  0.4309  3.8674  3.3021
 9135SOL    HW238868   2.075   4.304   8.354 -2.0800  0.7707  0.6739
 9136SOL     OW38869   2.315   0.065   6.562  0.3285 -0.0029  0.3079
 9136SOL    HW138870   2.338   0.003   6.493  2.7004  1.5388 -0.2764
 9136SOL    HW238871   2.371   0.034   6.633  0.5671 -0.1420  0.0582
 9137SOL     OW38872   3.922   1.604   6.616 -0.0596  0.4904 -0.0061
 9137SOL    HW138873   3.878   1.523   6.589  1.2590  0.7442 -2.9329
 9137SOL    HW238874   3.852   1.651   6.662 -0.3167  0.9762 -0.8941
 9138SOL     OW38875   4.686   2.091   0.297 -0.0314 -0.0243 -0.4118
 9138SOL    HW138876   4.709   1.998   0.296  1.0702  0.2674 -1.8556
 9138SOL    HW238877   4.593   2.073   0.285 -0.1219 -1.8597  3.2096
 9139SOL     OW38878   1.256   2.858   5.306  0.3504 -0.4042 -0.8321
 9139SOL    HW138879   1.307   2.905   5.372 -0.8626 -1.0356  0.5544
 9139SOL    HW238880   1.308   2.778   5.298  1.3810 -0.0994  2.4941
 9140SOL     OW38881   0.712   4.655  13.582  0.1704 -0.1720  0.5823
 9140SOL    HW138882   0.629   4.607  13.594  0.1576 -0.8080 -2.0965
 9140SOL    HW238883   0.701   4.693  13.495 -1.5479 -1.9931 -0.0169
 9141SOL     OW38884   0.249   0.624   6.634  0.1497 -0.0694 -0.3372
 9141SOL    HW138885   0.184   0.575   6.684 -0.3402  0.2812 -0.6287
 9141SOL    HW238886   0.270   0.559   6.567 -0.7799 -0.0551 -0.6444
 9142SOL     OW38887   4.626   4.446  11.444  0.2468  0.5644 -0.1099
 9142SOL    HW138888   4.690   4.420  11.378 -0.2178  0.6307 -0.5851
 9142SOL    HW238889   4.663   4.415  11.527 -0.9033  2.3633  1.0976
 9143SOL     OW38890   3.578   1.646  15.684  0.2340  0.3056  0.0125
 9143SOL    HW138891   3.631   1.597  15.620  2.0607 -0.6443  2.2547
 9143SOL    HW238892   3.530   1.702  15.623 -0.9482  1.3781  1.9559
 9144SOL     OW38893   4.643   3.531   0.305  0.1859  0.4709  0.3894
 9144SOL    HW138894   4.597   3.481   0.373 -0.8421 -0.9191 -1.3462
 9144SOL    HW238895   4.565   3.560   0.259  1.7305  1.5227 -1.5413
 9145SOL     OW38896   1.228   1.660   9.074 -0.6295 -0.5205 -0.4873
 9145SOL    HW138897   1.148   1.649   9.125  0.5101  2.4513  1.8907
 9145SOL    HW238898   1.244   1.566   9.059  0.2145 -0.4714  0.0875
 9146SOL     OW38899   3.725   0.955   7.662 -0.2670  0.2428  0.1193
 9146SOL    HW138900   3.688   0.892   7.600  3.1422 -1.6431 -0.0298
 9146SOL    HW238901   3.660   1.024   7.654  0.4477  0.9369  0.3040
 9147SOL     OW38902   0.781   4.174   5.050 -0.5749 -0.1761 -0.5646
 9147SOL    HW138903   0.844   4.240   5.081 -1.1796  0.7433 -1.3005
 9147SOL    HW238904   0.782   4.116   5.126  2.4333  0.7182  0.0602
 9148SOL     OW38905   2.372   0.200  11.548 -0.0898 -0.1200  0.3565
 9148SOL    HW138906   2.417   0.265  11.493 -0.0934  0.2754  0.8229
 9148SOL    HW238907   2.310   0.262  11.585 -0.9012 -0.5817 -0.2268
 9149SOL     OW38908   4.135   2.340   8.124  0.1793  0.1055  0.9254
 9149SOL    HW138909   4.115   2.379   8.039 -0.0675  0.0094  0.9408
 9149SOL    HW238910   4.230   2.343   8.109 -0.1492  2.4361 -0.7219
 9150SOL     OW38911   1.178   3.608   0.569 -0.5025  0.4156  0.3381
 9150SOL    HW138912   1.265   3.571   0.554 -0.0589  2.2434 -1.5569
 9150SOL    HW238913   1.205   3.681   0.625  2.8492  0.2053 -1.0113
 9151SOL     OW38914   1.483   4.050   4.305 -0.2740 -0.3331  0.0898
 9151SOL    HW138915   1.548   4.043   4.235 -1.2015 -1.8765 -0.6072
 9151SOL    HW238916   1.509   4.136   4.337 -0.2018 -0.6896  0.9944
 9152SOL     OW38917   0.262   0.828  14.231 -0.5719 -0.0059  0.3764
 9152SOL    HW138918   0.321   0.788  14.166  0.3966  1.0752  0.5755
 9152SOL    HW238919   0.176   0.811  14.194 -0.0209  0.3638 -1.0746
 9153SOL     OW38920   2.648   2.637   7.709  0.0937 -0.3087 -0.6344
 9153SOL    HW138921   2.606   2.722   7.700  0.5301 -0.2865 -2.5008
 9153SOL    HW238922   2.653   2.630   7.805 -0.4192  1.1287 -0.4962
 9154SOL     OW38923   2.161   1.945   6.408 -0.2146 -0.0537  0.3634
 9154SOL    HW138924   2.095   1.887   6.446  0.2834 -2.0094 -1.7387
 9154SOL    HW238925   2.104   2.009   6.366 -2.5805 -1.8611  0.8130
 9155SOL     OW38926   3.626   2.350   3.176  0.3762  0.5897  0.0380
 9155SOL    HW138927   3.617   2.429   3.124  1.3492  0.1537 -0.8009
 9155SOL    HW238928   3.720   2.334   3.165  0.1804 -1.1750  0.8353
 9156SOL     OW38929   1.986   3.652   2.231 -0.0144 -0.1154 -0.5311
 9156SOL    HW138930   1.951   3.573   2.273 -0.6279  0.2192 -0.4239
 9156SOL    HW238931   2.072   3.623   2.198  1.1705  0.9518  1.5936
 9157SOL     OW38932   3.258   4.043  14.158 -0.2708  0.7025 -0.3215
 9157SOL    HW138933   3.232   4.134  14.141 -1.4275  0.2543 -1.0130
 9157SOL    HW238934   3.170   4.006  14.149  0.3257  0.0034 -3.3245
 9158SOL     OW38935   4.387   0.589   7.475  0.1363 -0.0399 -0.4309
 9158SOL    HW138936   4.368   0.561   7.564  0.3223  2.5126  0.4213
 9158SOL    HW238937   4.403   0.683   7.484  1.6703 -0.3562  0.1107
 9159SOL     OW38938   4.124   1.271   2.051  0.0930 -0.3476  0.2059
 9159SOL    HW138939   4.196   1.330   2.073 -0.0571 -0.4560  0.9717
 9159SOL    HW238940   4.051   1.330   2.033  1.0171  0.5533 -0.5461
 9160SOL     OW38941   2.152   0.261  16.801  1.4884  0.5181  0.4474
 9160SOL    HW138942   2.222   0.197  16.815  0.7863 -0.0163  1.4744
 9160SOL    HW238943   2.159   0.321  16.875  0.9226  0.2556  0.7158
 9161SOL     OW38944   1.538   3.337   9.334  0.2716  0.2005 -0.3972
 9161SOL    HW138945   1.499   3.296   9.256 -2.5083  1.1430  0.5027
 9161SOL    HW238946   1.552   3.260   9.388 -0.4821  1.2516  1.2832
 9162SOL     OW38947   0.929   0.546   8.644 -0.0527  0.3480  0.5757
 9162SOL    HW138948   0.980   0.541   8.725  1.1644 -1.1160 -0.2741
 9162SOL    HW238949   0.840   0.517   8.664 -0.4106  1.9479  1.2564
 9163SOL     OW38950   4.401   1.498   7.422  0.2204  0.0526 -0.3167
 9163SOL    HW138951   4.494   1.507   7.404  0.3045  2.7019  1.4318
 9163SOL    HW238952   4.359   1.549   7.354  0.0380  0.0046 -0.2407
 9164SOL     OW38953   1.023   4.070  17.279 -0.0951 -0.5280 -0.3955
 9164SOL    HW138954   0.953   4.103  17.223 -0.5738 -1.2632 -0.2304
 9164SOL    HW238955   1.060   4.152  17.313 -1.7372 -1.4008  3.4965
 9165SOL     OW38956   4.498   1.662   5.808 -0.8388 -0.7728  0.2902
 9165SOL    HW138957   4.538   1.665   5.721  1.0376 -1.3125  1.1391
 9165SOL    HW238958   4.551   1.596   5.854  1.4256  3.1948  3.3206
 9166SOL     OW38959   0.253   3.379   4.563 -0.3767  0.8726  0.5258
 9166SOL    HW138960   0.308   3.383   4.485 -0.7429 -2.5741  0.0906
 9166SOL    HW238961   0.213   3.466   4.563 -0.3807  0.8629 -1.0581
 9167SOL     OW38962   0.277   2.880  17.339 -0.7305  0.6728  0.3560
 9167SOL    HW138963   0.264   2.909  17.249  0.6385 -0.2843 -0.1512
 9167SOL    HW238964   0.348   2.938  17.365 -1.5717  1.5195  0.7604
 9168SOL     OW38965   0.135   4.646   2.764 -0.2492 -0.3911  0.4554
 9168SOL    HW138966   0.192   4.584   2.809 -0.9288 -1.0231  0.4552
 9168SOL    HW238967   0.068   4.590   2.726 -0.0296 -1.6988  2.0145
 9169SOL     OW38968   4.195   1.678   5.319  1.0972 -0.1093 -0.1433
 9169SOL    HW138969   4.155   1.633   5.245  1.1769  1.7024 -1.2925
 9169SOL    HW238970   4.122   1.678   5.381 -0.1578 -1.3965 -1.6155
 9170SOL     OW38971   0.155   2.246   2.226 -0.1781  0.2122 -0.0323
 9170SOL    HW138972   0.235   2.228   2.276 -0.4854  0.1604  0.4419
 9170SOL    HW238973   0.190   2.215   2.143 -0.7905  1.1825 -0.6588
 9171SOL     OW38974   3.424   3.144  12.665 -0.0797  0.1659 -0.0993
 9171SOL    HW138975   3.471   3.211  12.616  0.1627  0.6443  0.7840
 9171SOL    HW238976   3.490   3.089  12.707  2.3468  2.9949 -0.1664
 9172SOL     OW38977   4.115   3.573   6.176  0.4611  0.0939  0.0208
 9172SOL    HW138978   4.047   3.581   6.108  1.2515 -1.3148 -0.9155
 9172SOL    HW238979   4.120   3.479   6.192  1.6791 -0.0664 -1.3141
 9173SOL     OW38980   1.374   3.851  16.626  0.1908  0.2269 -0.2773
 9173SOL    HW138981   1.348   3.813  16.542  0.0717  0.1305 -0.1961
 9173SOL    HW238982   1.454   3.804  16.651  1.5187  3.1042  0.9026
 9174SOL     OW38983   1.546   0.136  12.330  0.0753  1.1511  0.3522
 9174SOL    HW138984   1.575   0.121  12.420 -1.5186 -0.0614  0.6711
 9174SOL    HW238985   1.583   0.223  12.318  0.0351  0.9731 -0.9825
 9175SOL     OW38986   2.033   4.341   4.451 -1.0903  0.2145  0.1556
 9175SOL    HW138987   2.092   4.323   4.378  2.0160  0.3461  2.6211
 9175SOL    HW238988   1.984   4.258   4.450 -2.4684  0.9751  2.6931
 9176SOL     OW38989   4.377   0.426   1.492  0.1317  0.5694 -0.7175
 9176SOL    HW138990   4.415   0.491   1.552 -0.3424  0.9484 -0.8269
 9176SOL    HW238991   4.454   0.394   1.445  0.2195  0.7763 -0.7178
 9177SOL     OW38992   1.527   2.305   3.203  0.0325 -0.0601 -0.0697
 9177SOL    HW138993   1.553   2.308   3.111  2.2147  0.2488  0.5649
 9177SOL    HW238994   1.604   2.352   3.235 -0.9979  0.6178  1.4038
 9178SOL     OW38995   0.780   4.690   3.474  0.0940 -0.0521 -0.1475
 9178SOL    HW138996   0.870   4.697   3.441 -0.1213 -0.0797 -0.7327
 9178SOL    HW238997   0.796   4.697   3.568 -0.4262 -0.6705 -0.0170
 9179SOL     OW38998   4.425   0.216   4.515 -0.2077 -0.3418  0.6323
 9179SOL    HW138999   4.330   0.225   4.525 -0.1561  0.1392  0.6765
 9179SOL    HW239000   4.433   0.140   4.458 -0.2237  0.7972 -0.8896
 9180SOL     OW39001   0.270   1.810   4.204 -0.0944 -0.0271  0.4840
 9180SOL    HW139002   0.275   1.741   4.270  1.6552  0.5427  0.9685
 9180SOL    HW239003   0.293   1.770   4.119 -3.3297 -0.0234 -0.3791
 9181SOL     OW39004   2.191   1.188   8.781 -0.1842 -0.1661 -0.5053
 9181SOL    HW139005   2.285   1.210   8.776 -0.0553 -0.6525 -0.1671
 9181SOL    HW239006   2.156   1.273   8.808  0.6403 -0.2051  0.6744
 9182SOL     OW39007   2.436   1.853   6.715  0.1934  0.0646 -0.0121
 9182SOL    HW139008   2.513   1.900   6.683  0.5207 -1.6681 -1.8088
 9182SOL    HW239009   2.374   1.920   6.686  1.1351  0.4124 -1.1833
 9183SOL     OW39010   4.698   4.477   6.178 -0.6941 -0.0017 -0.0505
 9183SOL    HW139011   4.647   4.473   6.097  0.2595 -0.4467 -0.6294
 9183SOL    HW239012   4.700   4.572   6.188 -0.8754  0.2882 -2.6578
 9184SOL     OW39013   0.565   1.256   7.591  0.1204 -0.8030  0.6372
 9184SOL    HW139014   0.540   1.319   7.659  2.5113  0.6631  0.1782
 9184SOL    HW239015   0.623   1.306   7.534  0.1437 -2.0494 -0.4211
 9185SOL     OW39016   0.797   3.866   6.882 -0.0088  0.0330  0.1572
 9185SOL    HW139017   0.814   3.875   6.788 -1.6352  0.5283 -0.0905
 9185SOL    HW239018   0.783   3.771   6.889 -0.0900 -0.0812 -1.4852
 9186SOL     OW39019   0.888   3.499   2.487  0.1182 -0.4169 -0.0534
 9186SOL    HW139020   0.862   3.411   2.462  2.7382 -1.3625  0.4860
 9186SOL    HW239021   0.830   3.558   2.440 -1.0983 -0.7269  1.0642
 9187SOL     OW39022   1.638   2.043  10.627 -0.1312 -0.4569 -0.0270
 9187SOL    HW139023   1.706   2.108  10.607 -1.8224  1.1813 -0.4734
 9187SOL    HW239024   1.670   1.962  10.588 -0.6289 -0.3295 -0.6887
 9188SOL     OW39025   2.978   2.927  16.541  0.0393 -0.6212 -0.1774
 9188SOL    HW139026   3.068   2.952  16.518  0.2706 -0.9012  0.4060
 9188SOL    HW239027   2.967   2.833  16.528 -0.7539 -0.8125  1.9906
 9189SOL     OW39028   3.805   1.720   9.416  0.1456  0.0198  0.2534
 9189SOL    HW139029   3.789   1.626   9.408  1.2716 -0.0964 -0.6837
 9189SOL    HW239030   3.727   1.749   9.368 -0.7943 -1.5959  0.8012
 9190SOL     OW39031   3.604   3.651  15.750 -0.3954  0.2752 -0.0980
 9190SOL    HW139032   3.623   3.699  15.830  1.4985  0.8838 -0.9071
 9190SOL    HW239033   3.692   3.649  15.712  0.7912  0.8322  2.5827
 9191SOL     OW39034   3.743   4.084   7.369 -0.4540  0.1673  0.0482
 9191SOL    HW139035   3.730   3.995   7.335  0.8166  1.1352 -3.0231
 9191SOL    HW239036   3.660   4.084   7.417  0.4173 -2.6379  1.5663
 9192SOL     OW39037   2.763   4.695   1.576  0.4985 -0.1203 -0.1999
 9192SOL    HW139038   2.820   4.628   1.539  0.9586  0.2226 -0.1181
 9192SOL    HW239039   2.819   0.015   1.642  1.5665 -3.5291  1.0361
 9193SOL     OW39040   0.759   4.152   5.410  0.3926  0.0764 -0.4375
 9193SOL    HW139041   0.771   4.123   5.501 -1.4059  0.1965 -0.1696
 9193SOL    HW239042   0.744   4.069   5.365  2.5332 -1.7525  2.1937
 9194SOL     OW39043   1.841   3.720   8.559  0.3018  0.1587  0.2834
 9194SOL    HW139044   1.770   3.705   8.622  0.8711  0.2568  0.9555
 9194SOL    HW239045   1.781   3.767   8.501 -0.1370  1.0392  1.4536
 9195SOL     OW39046   4.188   1.309   6.747 -0.0514  0.4196  0.2646
 9195SOL    HW139047   4.157   1.295   6.657  0.0852  0.0984  0.2680
 9195SOL    HW239048   4.263   1.253   6.766 -1.4584 -1.3025  0.7338
 9196SOL     OW39049   2.607   1.230   6.475 -0.6034  0.5338  0.1336
 9196SOL    HW139050   2.631   1.162   6.411  1.6788  0.1785  1.3867
 9196SOL    HW239051   2.545   1.178   6.525  1.2463 -2.6113 -0.7919
 9197SOL     OW39052   2.444   0.206   6.230  0.2485 -0.6071  0.4281
 9197SOL    HW139053   2.523   0.152   6.236 -0.3958 -1.5940  0.0573
 9197SOL    HW239054   2.377   0.154   6.276  0.0773 -0.6338  0.1501
 9198SOL     OW39055   4.659   1.321   1.582  0.2590  0.1650 -0.2321
 9198SOL    HW139056   4.666   1.414   1.605  0.0430  0.6941 -2.3637
 9198SOL    HW239057   4.572   1.320   1.541  0.7333 -1.6010 -1.1727
 9199SOL     OW39058   3.788   2.023  15.045  0.0521 -0.6188  0.1654
 9199SOL    HW139059   3.717   2.050  14.987  1.2436  0.4776 -0.7650
 9199SOL    HW239060   3.749   1.959  15.105 -1.9713 -0.3736 -0.8905
 9200SOL     OW39061   3.410   0.415   4.443 -0.0415 -0.3692  0.2392
 9200SOL    HW139062   3.474   0.387   4.378  2.9766  3.1582  1.6644
 9200SOL    HW239063   3.395   0.509   4.431 -0.1357 -0.4439 -0.2532
 9201SOL     OW39064   4.456   2.927  10.672  0.3047 -0.3738 -0.5979
 9201SOL    HW139065   4.521   2.889  10.731  2.3696  2.8846 -0.8017
 9201SOL    HW239066   4.416   2.845  10.641  0.4510  0.0497 -1.8967
 9202SOL     OW39067   2.963   1.657   2.785  0.2938 -0.3140 -0.0661
 9202SOL    HW139068   3.009   1.732   2.747  1.2681 -1.6753 -1.5731
 9202SOL    HW239069   3.028   1.614   2.840 -0.7406 -1.7269  0.0648
 9203SOL     OW39070   2.192   1.342   3.386 -0.1273  0.1909 -0.2853
 9203SOL    HW139071   2.286   1.357   3.375 -0.0373 -0.5227 -0.5058
 9203SOL    HW239072   2.202   1.280   3.458 -1.4887  1.1792  0.7472
 9204SOL     OW39073   1.476   0.056   7.485  0.3441 -0.3436  0.1344
 9204SOL    HW139074   1.551   0.068   7.544  1.1236  1.0207 -1.1506
 9204SOL    HW239075   1.510   4.714   7.422  1.6423 -0.7316  1.2102
 9205SOL     OW39076   2.077   1.455   8.826 -0.0807  0.1198 -0.1866
 9205SOL    HW139077   2.162   1.489   8.851 -0.2285 -0.5937  1.2835
 9205SOL    HW239078   2.014   1.469   8.896  0.3807 -1.2416  0.5101
 9206SOL     OW39079   3.956   3.875   2.578  0.2585 -0.0399 -0.1103
 9206SOL    HW139080   3.949   3.810   2.509  1.9053 -1.1809  0.7880
 9206SOL    HW239081   3.936   3.818   2.652 -1.6299 -0.0445 -0.6470
 9207SOL     OW39082   3.704   4.174  10.884  0.0637 -0.4054  0.2493
 9207SOL    HW139083   3.689   4.130  10.800  0.2197 -1.1816  0.6272
 9207SOL    HW239084   3.616   4.173  10.922 -0.0340  0.7058  0.0634
 9208SOL     OW39085   2.409   0.788  15.364 -0.1783 -0.3323  0.3693
 9208SOL    HW139086   2.326   0.784  15.413 -0.7802  0.4897 -0.5989
 9208SOL    HW239087   2.385   0.861  15.307  1.0481 -1.4738 -1.6018
 9209SOL     OW39088   0.929   1.006   8.247  0.1890  0.2165 -0.3955
 9209SOL    HW139089   1.017   0.968   8.252 -0.5964 -1.4366  0.7981
 9209SOL    HW239090   0.915   1.026   8.340  0.1533  1.0149 -0.5700
 9210SOL     OW39091   4.261   0.772   5.964 -0.0933 -0.4355 -0.6169
 9210SOL    HW139092   4.219   0.833   5.903  0.9858  0.0739 -0.8377
 9210SOL    HW239093   4.188   0.710   5.970  0.4825 -0.9754  0.6642
 9211SOL     OW39094   3.073   4.466   1.020  0.0339 -0.1193 -0.1039
 9211SOL    HW139095   3.113   4.553   1.021  1.7422 -0.8797 -1.0419
 9211SOL    HW239096   3.115   4.443   0.937  0.1570 -1.4055  0.3086
 9212SOL     OW39097   2.819   0.632   3.059  0.7352 -0.0809 -0.0496
 9212SOL    HW139098   2.889   0.660   3.001  1.7834  0.3978  1.4405
 9212SOL    HW239099   2.740   0.659   3.012  1.6512  1.4340 -0.7118
 9213SOL     OW39100   0.647   4.374   0.864 -0.8926  0.2503  0.3139
 9213SOL    HW139101   0.649   4.373   0.960 -2.4865  0.4579  0.3485
 9213SOL    HW239102   0.685   4.288   0.849 -0.9611  0.6248 -1.9552
 9214SOL     OW39103   0.013   3.456   0.846 -0.3273 -0.3591 -0.2954
 9214SOL    HW139104   0.082   3.412   0.896 -1.1587 -0.3324  0.8757
 9214SOL    HW239105   0.029   3.435   0.754  0.0707 -0.1489 -0.2753
 9215SOL     OW39106   4.226   4.648   6.519  0.6690 -0.1400 -0.3537
 9215SOL    HW139107   4.313   4.609   6.509 -0.0916 -1.9423  0.1256
 9215SOL    HW239108   4.177   4.566   6.524  1.2520 -0.4252  0.6398
 9216SOL     OW39109   1.664   0.256   8.059 -0.3860  0.1312  0.3852
 9216SOL    HW139110   1.704   0.256   8.146 -1.4968  1.6594  0.8999
 9216SOL    HW239111   1.581   0.298   8.082 -1.2021 -1.0234 -0.4631
 9217SOL     OW39112   0.510   2.938  16.944 -0.8400  0.1398  0.0248
 9217SOL    HW139113   0.511   3.011  16.882 -0.7116  1.2485  1.3350
 9217SOL    HW239114   0.435   2.950  17.003 -1.6866 -2.0375 -0.5688
 9218SOL     OW39115   4.113   3.082   3.745 -0.2943  0.0496 -0.1838
 9218SOL    HW139116   4.147   3.029   3.674  2.6317  0.8243  0.6641
 9218SOL    HW239117   4.198   3.119   3.768 -0.1340 -0.6264  0.3023
 9219SOL     OW39118   1.471   1.289   5.411 -0.5043  0.5734  0.1047
 9219SOL    HW139119   1.553   1.319   5.372 -0.9885  4.0286  1.7734
 9219SOL    HW239120   1.434   1.226   5.349 -2.0266  1.6656 -0.0820
 9220SOL     OW39121   3.370   4.659   7.739 -0.2874 -0.3802 -0.3277
 9220SOL    HW139122   3.412   4.642   7.655  0.4478  1.6404 -0.3669
 9220SOL    HW239123   3.277   4.665   7.715  0.3964  1.8123 -2.3891
 9221SOL     OW39124   2.403   3.389  12.779 -0.0481 -0.3960 -0.1492
 9221SOL    HW139125   2.367   3.333  12.847  0.0042 -1.2070 -0.7855
 9221SOL    HW239126   2.476   3.421  12.831 -1.0063 -1.6214  1.9288
 9222SOL     OW39127   0.598   1.039   3.443  0.4718 -0.3340  0.5506
 9222SOL    HW139128   0.541   1.075   3.375 -0.8999 -0.6242  1.5452
 9222SOL    HW239129   0.668   1.019   3.382  0.7626 -2.4226  1.5674
 9223SOL     OW39130   2.732   2.306  10.977  0.2279  0.2520  0.0996
 9223SOL    HW139131   2.821   2.318  10.943  0.7841  0.2736  1.5590
 9223SOL    HW239132   2.752   2.338  11.065  0.1484  1.1441 -0.2030
 9224SOL     OW39133   3.106   3.337   9.000 -0.3596  0.5755 -0.0194
 9224SOL    HW139134   3.150   3.317   9.083  1.3508 -1.8277 -1.5118
 9224SOL    HW239135   3.099   3.431   9.016  2.8954  1.0056 -0.9626
 9225SOL     OW39136   2.099   0.539   7.522  0.3187  0.7014  0.3266
 9225SOL    HW139137   2.103   0.492   7.605 -0.4792  1.0341  0.5582
 9225SOL    HW239138   2.073   0.625   7.556  0.0344  0.8976 -0.3926
 9226SOL     OW39139   1.931   3.150   7.142  0.7127  0.4962 -0.1271
 9226SOL    HW139140   1.908   3.082   7.079  1.8122  1.0925 -1.1778
 9226SOL    HW239141   2.026   3.139   7.142  0.4640 -1.5126 -0.6798
 9227SOL     OW39142   3.883   3.758   6.915 -0.4472 -0.7894 -0.2659
 9227SOL    HW139143   3.810   3.780   6.857  0.5966  0.5067 -1.1133
 9227SOL    HW239144   3.892   3.842   6.960 -2.6871 -0.5804 -0.2265
 9228SOL     OW39145   0.395   1.069  14.933  0.8544  0.4066 -0.6710
 9228SOL    HW139146   0.491   1.071  14.927  0.8259 -0.3901 -1.3289
 9228SOL    HW239147   0.383   1.092  15.025 -1.5682  0.6683 -1.0520
 9229SOL     OW39148   2.166   0.453   8.731 -0.1124 -0.0127 -0.0021
 9229SOL    HW139149   2.096   0.478   8.791 -1.1366  0.2324 -1.2944
 9229SOL    HW239150   2.237   0.441   8.793  0.1986  0.8683 -0.1896
 9230SOL     OW39151   2.647   3.169   5.735 -0.0863 -0.0388  0.1126
 9230SOL    HW139152   2.579   3.103   5.724 -0.8176  0.8989 -0.9265
 9230SOL    HW239153   2.708   3.153   5.663 -0.3951 -0.3748 -0.0722
 9231SOL     OW39154   1.279   4.618   4.793 -0.5958  0.0186  0.9732
 9231SOL    HW139155   1.234   4.591   4.713 -0.9782  2.6057  0.3129
 9231SOL    HW239156   1.292   4.531   4.831 -0.9886  0.2727  1.7030
 9232SOL     OW39157   1.643   2.771  13.093  0.0853 -0.2662 -0.0856
 9232SOL    HW139158   1.584   2.741  13.162 -1.2032 -0.0296 -1.0859
 9232SOL    HW239159   1.593   2.846  13.060  0.7524 -0.0681 -0.6301
 9233SOL     OW39160   3.618   0.269   6.397  0.2412  0.8211  0.0564
 9233SOL    HW139161   3.656   0.204   6.338 -1.5498  0.4135 -0.6590
 9233SOL    HW239162   3.701   0.292   6.439 -1.4601  1.4818  3.0785
 9234SOL     OW39163   4.435   2.939   5.341  0.3433  0.9185  0.7335
 9234SOL    HW139164   4.368   3.007   5.335 -0.5974  0.2453  3.5905
 9234SOL    HW239165   4.506   2.984   5.388  0.7494 -1.2395  2.1836
 9235SOL     OW39166   1.312   0.094   3.561 -0.0399 -0.6808 -0.1892
 9235SOL    HW139167   1.301   0.181   3.523 -0.4387  1.0859  3.9448
 9235SOL    HW239168   1.227   0.091   3.606  0.6231  2.8081  1.3168
 9236SOL     OW39169   1.958   2.668   2.273  0.0336 -0.2750 -0.2654
 9236SOL    HW139170   1.867   2.643   2.255 -0.6881  1.7690  0.5453
 9236SOL    HW239171   1.950   2.717   2.355 -0.0971 -2.2517  0.8843
 9237SOL     OW39172   4.094   2.105  17.231 -0.3995 -0.3068  0.0196
 9237SOL    HW139173   4.130   2.185  17.269  2.1936 -1.7205  0.5698
 9237SOL    HW239174   4.122   2.038  17.295  0.6571  2.0743  2.0478
 9238SOL     OW39175   3.342   2.563   2.880 -0.1950 -0.6846 -0.1243
 9238SOL    HW139176   3.386   2.536   2.800  1.2785 -1.1043  0.8211
 9238SOL    HW239177   3.265   2.507   2.880  2.0579 -3.7504 -1.6918
 9239SOL     OW39178   0.515   4.401   9.824  0.3528 -0.4403  0.1608
 9239SOL    HW139179   0.465   4.428   9.900  0.4238  1.4091 -0.4552
 9239SOL    HW239180   0.521   4.308   9.846  0.6987  0.3361  3.2895
 9240SOL     OW39181   0.239   3.529   0.298  0.1054  0.2087  0.7007
 9240SOL    HW139182   0.195   3.542   0.382  3.5061 -0.2533  2.5581
 9240SOL    HW239183   0.312   3.590   0.304 -1.4469  1.9189  2.0980
 9241SOL     OW39184   1.811   2.772   8.684  0.0890  0.1039  0.2278
 9241SOL    HW139185   1.863   2.784   8.763 -0.9952 -1.5179  1.1869
 9241SOL    HW239186   1.824   2.678   8.670  0.2325 -0.2132  2.4919
 9242SOL     OW39187   2.689   4.213   1.143 -0.1896  0.2542  0.1877
 9242SOL    HW139188   2.676   4.231   1.236  0.5944 -2.8367  0.8798
 9242SOL    HW239189   2.604   4.222   1.100  0.2709  2.3168 -0.2884
 9243SOL     OW39190   2.036   2.596  11.245 -0.6338 -0.2078 -0.1198
 9243SOL    HW139191   2.057   2.529  11.311  0.5078 -0.8396 -1.1238
 9243SOL    HW239192   1.993   2.549  11.174 -2.1815  2.0989 -0.6934
 9244SOL     OW39193   1.912   3.055   2.069  0.1393  0.2438  0.2767
 9244SOL    HW139194   1.879   3.092   1.987  1.4487  1.0785  0.1197
 9244SOL    HW239195   1.935   2.967   2.040  1.4931  0.4498  0.7182
 9245SOL     OW39196   0.595   0.962   7.318 -0.2696  0.0358 -0.0006
 9245SOL    HW139197   0.547   0.998   7.392 -1.7412  2.2793 -2.0519
 9245SOL    HW239198   0.651   0.896   7.359  0.5182  0.3584 -0.5491
 9246SOL     OW39199   4.026   0.672  15.582 -0.4874  0.3154  0.3062
 9246SOL    HW139200   4.000   0.636  15.667  0.5241 -2.1309 -0.4116
 9246SOL    HW239201   4.117   0.641  15.584 -1.1205 -1.5109  0.6790
 9247SOL     OW39202   3.234   4.361   6.428 -0.4293 -0.3091  0.1151
 9247SOL    HW139203   3.139   4.357   6.425 -0.3817 -1.7836  0.5492
 9247SOL    HW239204   3.256   4.402   6.512 -0.0379  1.9252 -1.0974
 9248SOL     OW39205   3.936   1.615  14.347 -0.2340  0.2629 -0.1131
 9248SOL    HW139206   3.999   1.581  14.410  0.2669 -1.6718 -1.6585
 9248SOL    HW239207   3.986   1.615  14.265 -1.8510  0.7739 -1.0921
 9249SOL     OW39208   0.591   3.846   1.819 -0.1006  0.0900  0.5788
 9249SOL    HW139209   0.537   3.802   1.753  2.2407 -0.0660 -1.2261
 9249SOL    HW239210   0.525   3.852   1.888  1.4357 -3.1902  2.3225
 9250SOL     OW39211   3.893   0.293   9.298 -0.1794  0.5273  0.4510
 9250SOL    HW139212   3.946   0.268   9.223  1.4723  1.9066  1.1767
 9250SOL    HW239213   3.889   0.387   9.283 -1.5113  0.5510  0.9362
 9251SOL     OW39214   0.428   1.103   9.557 -0.2956  0.4068  0.3175
 9251SOL    HW139215   0.381   1.037   9.609 -1.9407 -0.8057 -2.6862
 9251SOL    HW239216   0.510   1.058   9.539 -0.1660  0.4364  0.8342
 9252SOL     OW39217   3.404   0.133   4.215  0.5422  0.3668  0.3873
 9252SOL    HW139218   3.312   0.118   4.238  0.1076  2.7562  0.1914
 9252SOL    HW239219   3.404   0.204   4.150 -0.6878  0.4523  0.4844
 9253SOL     OW39220   3.311   2.756   4.823 -0.3523  0.0736  0.7171
 9253SOL    HW139221   3.248   2.808   4.874  0.9805  0.5914  1.8159
 9253SOL    HW239222   3.359   2.828   4.782  0.1549 -0.5740  0.1960
 9254SOL     OW39223   4.683   3.282   8.185 -0.0151  0.0163  0.5236
 9254SOL    HW139224   4.611   3.220   8.173 -1.1109  0.9688  2.2904
 9254SOL    HW239225   4.708   3.243   8.269  1.6676  2.4018  1.1473
 9255SOL     OW39226   4.300   2.211   5.862 -0.0454  0.2672  0.3688
 9255SOL    HW139227   4.220   2.251   5.895 -1.0053 -0.6537 -0.8269
 9255SOL    HW239228   4.331   2.276   5.799  0.9932 -0.8513 -0.2714
 9256SOL     OW39229   0.271   3.229   1.586  0.0112 -0.0089 -0.3054
 9256SOL    HW139230   0.194   3.188   1.547 -0.2457  2.2337 -2.1242
 9256SOL    HW239231   0.335   3.160   1.570 -2.1121 -1.9417 -0.4209
 9257SOL     OW39232   0.864   4.475  17.085 -0.3171  0.3565 -0.5382
 9257SOL    HW139233   0.850   4.531  17.009  1.3869  1.9946  0.3557
 9257SOL    HW239234   0.946   4.511  17.119  0.0173 -1.4009  0.5210
 9258SOL     OW39235   2.867   3.923  16.119  0.1463  0.0572  0.1133
 9258SOL    HW139236   2.959   3.897  16.115  0.4876  0.5602  3.8203
 9258SOL    HW239237   2.865   4.016  16.096  0.1661  0.7905  3.0659
 9259SOL     OW39238   2.816   3.117   3.309 -0.1633  0.1662  0.3725
 9259SOL    HW139239   2.795   3.109   3.216  1.2534 -1.6434  0.2020
 9259SOL    HW239240   2.894   3.062   3.313  0.3661  0.8058 -1.5542
 9260SOL     OW39241   2.149   3.192   5.624 -0.0858 -0.8307 -0.0337
 9260SOL    HW139242   2.119   3.235   5.544 -1.3951 -0.1049  0.8294
 9260SOL    HW239243   2.095   3.113   5.630  0.1692 -0.9030  1.2629
 9261SOL     OW39244   4.653   0.044   7.244 -0.0846  0.2517 -0.3732
 9261SOL    HW139245   4.710   0.118   7.263  0.4076 -0.2126 -0.0167
 9261SOL    HW239246   4.642   0.011   7.333 -0.1655 -3.9817 -1.9343
 9262SOL     OW39247   1.368   1.469  12.197 -0.4880 -0.2478  0.0754
 9262SOL    HW139248   1.361   1.546  12.254 -1.4590 -0.2201 -0.0746
 9262SOL    HW239249   1.380   1.399  12.260 -0.2730 -0.8773 -0.6688
 9263SOL     OW39250   3.107   1.351   4.060  0.1192  0.2661  0.3030
 9263SOL    HW139251   3.023   1.357   4.014 -0.9416 -1.6098  2.0115
 9263SOL    HW239252   3.086   1.326   4.150  1.4487  0.0732  0.5473
 9264SOL     OW39253   2.261   1.564   6.418  0.3148  0.3464  0.0696
 9264SOL    HW139254   2.307   1.494   6.371  1.2986  1.4707 -0.6514
 9264SOL    HW239255   2.172   1.560   6.382  1.1999  0.2073 -2.0731
 9265SOL     OW39256   3.798   2.935   0.535  0.4060 -0.5285  0.5210
 9265SOL    HW139257   3.799   2.840   0.539  3.1242 -0.5611 -0.5001
 9265SOL    HW239258   3.768   2.945   0.445  2.1776  0.3032  0.0133
 9266SOL     OW39259   4.044   3.685  15.406 -0.0178  0.1844 -0.5337
 9266SOL    HW139260   4.041   3.691  15.310 -1.6089  0.7363 -0.4610
 9266SOL    HW239261   4.130   3.644  15.411  0.0280 -0.0468 -3.3579
 9267SOL     OW39262   3.802   0.544   5.252  0.0246  0.0555  0.3524
 9267SOL    HW139263   3.897   0.546   5.245  0.0028 -2.0833 -0.7109
 9267SOL    HW239264   3.783   0.637   5.265 -0.9952  0.0264 -0.8488
 9268SOL     OW39265   0.047   2.469   8.829 -0.0886  0.4388  0.5471
 9268SOL    HW139266   0.028   2.562   8.818  1.6058  0.8434  1.0467
 9268SOL    HW239267   0.089   2.474   8.915  1.4722 -1.3411 -0.1126
 9269SOL     OW39268   1.927   3.673   3.426 -0.3820  0.3337  0.7566
 9269SOL    HW139269   1.912   3.696   3.334 -1.5069  1.4043  1.2059
 9269SOL    HW239270   1.869   3.732   3.473 -2.3894  0.1498 -1.5020
 9270SOL     OW39271   2.173   4.104  13.833 -0.2149  0.2655  0.1889
 9270SOL    HW139272   2.155   4.014  13.807 -0.4467 -0.0294  1.3779
 9270SOL    HW239273   2.159   4.099  13.928  0.2590 -3.6446  0.0364
 9271SOL     OW39274   3.105   3.276  15.393 -0.0886  0.1057  0.5209
 9271SOL    HW139275   3.087   3.226  15.314 -2.2108 -3.0975  3.0467
 9271SOL    HW239276   3.042   3.257  15.463  0.5487 -0.9554  0.7975
 9272SOL     OW39277   3.202   0.616   6.964 -0.3323 -0.1493 -0.2458
 9272SOL    HW139278   3.228   0.698   6.923 -0.8024 -0.4507 -1.1311
 9272SOL    HW239279   3.263   0.604   7.037 -1.0044 -0.0038  0.3437
 9273SOL     OW39280   3.599   0.452   7.132 -0.0336  0.2800  0.4598
 9273SOL    HW139281   3.538   0.378   7.125 -0.1180  0.4164 -0.2169
 9273SOL    HW239282   3.542   0.519   7.170 -2.6717 -0.4714 -2.1211
 9274SOL     OW39283   0.432   2.838  10.596  0.5595  0.1014 -0.1435
 9274SOL    HW139284   0.357   2.866  10.649  2.3858  0.6998  2.1019
 9274SOL    HW239285   0.503   2.879  10.644  0.5356  0.3474 -0.3161
 9275SOL     OW39286   4.088   0.158   7.764  0.0924 -0.2890  0.9445
 9275SOL    HW139287   4.113   0.202   7.845 -2.4159  0.5582  1.2771
 9275SOL    HW239288   4.121   0.070   7.783 -0.1538 -0.3598  1.0506
 9276SOL     OW39289   4.091   3.792   3.254 -0.1522  0.2279 -0.6731
 9276SOL    HW139290   4.187   3.797   3.255 -0.2552  2.4091 -0.9562
 9276SOL    HW239291   4.061   3.781   3.344  2.2537 -0.1198  0.0846
 9277SOL     OW39292   4.498   1.702   8.421 -0.1940 -0.1274  0.6641
 9277SOL    HW139293   4.468   1.629   8.474 -0.9436 -1.0468 -1.0363
 9277SOL    HW239294   4.429   1.764   8.445 -0.1099  0.3679 -0.3565
 9278SOL     OW39295   1.115   2.307   7.706  0.2186 -0.1816 -0.0153
 9278SOL    HW139296   1.091   2.246   7.776  0.3414 -0.6793 -0.4009
 9278SOL    HW239297   1.175   2.250   7.657 -0.1602 -0.0966 -0.5893
 9279SOL     OW39298   0.509   2.305  15.178 -0.2044 -0.3610 -0.3396
 9279SOL    HW139299   0.583   2.294  15.238 -0.9901 -1.9950  0.3301
 9279SOL    HW239300   0.549   2.350  15.103  2.3143  0.8026  1.7000
 9280SOL     OW39301   3.530   2.429   2.682  0.0070 -0.3168 -0.1706
 9280SOL    HW139302   3.479   2.349   2.693  1.4829 -1.3604 -0.8488
 9280SOL    HW239303   3.595   2.400   2.618  0.9352 -0.9036  1.0359
 9281SOL     OW39304   3.061   1.571   7.205  0.0368  0.6599 -0.4666
 9281SOL    HW139305   3.106   1.501   7.252  0.4308  0.2484 -1.4585
 9281SOL    HW239306   3.091   1.558   7.115  0.5900  0.2726 -0.2277
 9282SOL     OW39307   1.399   1.838   6.828 -0.1143  0.0220  0.0749
 9282SOL    HW139308   1.341   1.913   6.818  1.2259  1.1997  1.0598
 9282SOL    HW239309   1.352   1.770   6.877 -1.2214  1.5610  1.1583
 9283SOL     OW39310   3.976   3.806   4.104  0.1009 -0.2317  0.0621
 9283SOL    HW139311   3.910   3.858   4.057 -0.4914  0.5151  1.7306
 9283SOL    HW239312   3.933   3.722   4.093  1.1239 -0.7623  0.0953
 9284SOL     OW39313   1.961   2.723   5.317 -0.2383  0.3033 -0.7645
 9284SOL    HW139314   1.979   2.630   5.304 -1.5051  0.0948 -1.0517
 9284SOL    HW239315   1.968   2.749   5.225  0.9001  2.2873 -0.1121
 9285SOL     OW39316   0.955   3.702  11.630  0.3068  0.0181 -0.4185
 9285SOL    HW139317   0.954   3.798  11.637 -0.3483 -0.1012  1.0893
 9285SOL    HW239318   0.861   3.687  11.628  0.2463  0.4723 -1.0138
 9286SOL     OW39319   0.249   2.076   7.262  0.0619  0.0457  0.0188
 9286SOL    HW139320   0.171   2.026   7.237 -0.5212  1.4671 -1.0363
 9286SOL    HW239321   0.265   2.069   7.356 -0.5152  0.7448  0.1677
 9287SOL     OW39322   0.115   1.714   5.335  0.0921 -0.4834  0.0211
 9287SOL    HW139323   0.210   1.709   5.347 -0.0789  2.0713  2.3850
 9287SOL    HW239324   0.099   1.630   5.291  1.2241  0.0216 -1.3451
 9288SOL     OW39325   0.452   3.117   9.201  0.4732 -0.1409  0.0585
 9288SOL    HW139326   0.375   3.174   9.200 -0.2727 -1.1477  0.2424
 9288SOL    HW239327   0.413   3.032   9.182  0.8514  0.0498 -1.4971
 9289SOL     OW39328   4.269   3.807   7.022  0.6575 -0.4602  0.1980
 9289SOL    HW139329   4.354   3.852   7.018  0.4460 -0.0326  0.5140
 9289SOL    HW239330   4.301   3.739   6.962 -1.8957  0.4616 -2.2104
 9290SOL     OW39331   0.406   1.534   7.788  0.4924 -0.1649  0.2702
 9290SOL    HW139332   0.378   1.578   7.868 -1.9215  1.7573 -1.6864
 9290SOL    HW239333   0.501   1.523   7.802  0.9077 -0.1025 -2.5654
 9291SOL     OW39334   0.772   3.908  11.285 -0.1437  0.7268 -0.4956
 9291SOL    HW139335   0.859   3.948  11.279  0.8485 -1.1600  1.6012
 9291SOL    HW239336   0.727   3.970  11.342  0.6243  0.1395  0.7343
 9292SOL     OW39337   0.629   3.637  14.484 -0.2826  0.2843 -0.3159
 9292SOL    HW139338   0.562   3.653  14.418 -1.1153 -0.5618  0.3199
 9292SOL    HW239339   0.675   3.568  14.435 -0.0342 -0.0248  0.3598
 9293SOL     OW39340   3.017   4.598   5.983 -0.5006  0.5802 -0.0181
 9293SOL    HW139341   2.999   4.688   5.954  0.4983  0.8835  0.2936
 9293SOL    HW239342   3.068   4.608   6.063 -0.5958  0.4027  0.0654
 9294SOL     OW39343   0.939   4.064  13.336  0.2895  0.1585  0.1552
 9294SOL    HW139344   0.883   3.995  13.371 -0.3083  0.5855  0.0390
 9294SOL    HW239345   0.940   4.037  13.244  0.7593 -0.4191  0.3280
 9295SOL     OW39346   4.309   3.817   4.549  0.0062  0.1088  0.5820
 9295SOL    HW139347   4.397   3.786   4.528 -0.9535 -0.9360 -1.8816
 9295SOL    HW239348   4.268   3.733   4.570 -0.7480  0.1989 -0.5509
 9296SOL     OW39349   3.388   1.389   6.108  0.5726 -0.1648  0.4716
 9296SOL    HW139350   3.353   1.382   6.196 -0.8129  0.2378 -0.0540
 9296SOL    HW239351   3.397   1.484   6.115  1.1110 -0.2177  0.5185
 9297SOL     OW39352   3.344   1.844   5.308 -0.1885  0.5302  0.4675
 9297SOL    HW139353   3.389   1.913   5.356  1.8325 -0.1389 -0.4579
 9297SOL    HW239354   3.265   1.884   5.271 -0.6563 -0.8506 -0.0292
 9298SOL     OW39355   3.782   2.557   7.580  0.1292  0.4186 -0.2550
 9298SOL    HW139356   3.737   2.639   7.598 -0.6165  0.4036 -2.0619
 9298SOL    HW239357   3.815   2.524   7.664 -0.2293  0.1532 -0.2193
 9299SOL     OW39358   0.389   3.834   3.916 -0.2887  0.8166  0.9471
 9299SOL    HW139359   0.330   3.897   3.875 -0.8805 -0.5332 -0.2887
 9299SOL    HW239360   0.474   3.870   3.891  0.1423  0.0013  1.2193
 9300SOL     OW39361   0.682   1.680   5.809 -0.2303  0.6420 -0.0912
 9300SOL    HW139362   0.724   1.649   5.889  1.4296  1.3180 -0.6804
 9300SOL    HW239363   0.741   1.642   5.743 -0.8507 -0.2532 -0.1242
 9301SOL     OW39364   0.367   4.500   0.081  0.1584  0.2758  0.5409
 9301SOL    HW139365   0.361   4.564   0.010  0.4994  0.0530  0.3133
 9301SOL    HW239366   0.361   4.554   0.159 -0.8707  0.1185  0.5782
 9302SOL     OW39367   2.927   1.372  16.561  0.4085 -0.3725 -0.3713
 9302SOL    HW139368   2.997   1.335  16.507  0.6812 -0.2659 -0.0832
 9302SOL    HW239369   2.951   1.464  16.559  0.6114 -0.4115  0.5681
 9303SOL     OW39370   0.613   2.673   7.810 -0.3077  0.0126  0.6364
 9303SOL    HW139371   0.657   2.590   7.831  1.9070  0.9382 -0.4124
 9303SOL    HW239372   0.533   2.640   7.770 -1.2908  1.3793  1.4988
 9304SOL     OW39373   1.331   0.204   5.825  0.2476  0.4610 -0.3211
 9304SOL    HW139374   1.329   0.149   5.903  1.7023  3.0153  1.5582
 9304SOL    HW239375   1.335   0.138   5.756 -1.5283 -0.5798  0.5762
 9305SOL     OW39376   1.100   1.868   0.146 -0.4543 -0.4275 -0.1445
 9305SOL    HW139377   1.183   1.827   0.123 -0.0093  0.8513 -0.8270
 9305SOL    HW239378   1.046   1.840   0.072 -0.0404 -0.0433 -0.5932
 9306SOL     OW39379   3.041   2.776   7.574  0.6054 -0.0293 -0.3437
 9306SOL    HW139380   3.109   2.711   7.592  0.6088  0.1553  0.2777
 9306SOL    HW239381   2.970   2.715   7.551  0.8582 -0.9517  1.3314
 9307SOL     OW39382   2.165   3.933  11.808 -0.1345 -0.8948  0.0980
 9307SOL    HW139383   2.164   3.975  11.894  2.8323 -1.2925  0.3261
 9307SOL    HW239384   2.252   3.960  11.777 -1.3812  1.3328 -1.4394
 9308SOL     OW39385   1.807   1.470   9.982  0.0087  0.2731 -0.1541
 9308SOL    HW139386   1.887   1.417   9.982 -0.0402  0.2306  2.0638
 9308SOL    HW239387   1.793   1.480   9.887  2.2157  1.4322 -0.3388
 9309SOL     OW39388   1.331   0.058   6.078 -0.4320 -0.0858  0.0235
 9309SOL    HW139389   1.358   4.708   6.135 -1.0277 -0.2066  0.1501
 9309SOL    HW239390   1.258   0.011   6.039 -0.5280  2.8025 -3.3106
 9310SOL     OW39391   0.922   3.910   6.347  0.3613 -0.2770 -0.4598
 9310SOL    HW139392   0.904   3.884   6.257  0.4865 -0.4173 -0.4432
 9310SOL    HW239393   1.009   3.950   6.344 -0.0388  0.6588  0.5549
 9311SOL     OW39394   3.849   3.721   5.593 -0.5131  0.2171  0.4880
 9311SOL    HW139395   3.819   3.630   5.582  0.9126 -0.2286  0.3346
 9311SOL    HW239396   3.794   3.770   5.532 -0.3281 -0.9404 -0.6259
 9312SOL     OW39397   0.351   3.144   3.822 -0.1324  1.0883 -0.8165
 9312SOL    HW139398   0.312   3.135   3.909  2.3913 -1.0518  0.0956
 9312SOL    HW239399   0.307   3.072   3.777 -0.0951  0.7681 -0.3367
 9313SOL     OW39400   4.254   0.820   5.623 -0.2841  0.1610  0.1033
 9313SOL    HW139401   4.190   0.856   5.684  0.2791  1.8638 -0.2924
 9313SOL    HW239402   4.332   0.860   5.661  1.5304 -1.7943 -1.5545
 9314SOL     OW39403   3.079   0.570   2.852  0.2501 -0.1864  0.0597
 9314SOL    HW139404   3.048   0.573   2.762 -1.5544 -1.6554  0.6268
 9314SOL    HW239405   3.160   0.620   2.839  0.7717 -1.2709 -0.8353
 9315SOL     OW39406   3.347   1.687  12.687  1.0349 -0.0856 -0.1961
 9315SOL    HW139407   3.358   1.743  12.610  1.7918  2.9795  2.1199
 9315SOL    HW239408   3.390   1.747  12.749 -1.8381  1.9040 -0.0890
 9316SOL     OW39409   1.701   3.301   1.962 -0.0736 -0.0484  0.1408
 9316SOL    HW139410   1.755   3.375   1.934  2.3901  0.0589  5.0477
 9316SOL    HW239411   1.689   3.321   2.055  0.7706  2.2477 -0.2551
 9317SOL     OW39412   1.440   3.836   1.466 -0.3359  0.1429  0.1133
 9317SOL    HW139413   1.435   3.856   1.560 -0.7254  3.4432 -0.6127
 9317SOL    HW239414   1.535   3.839   1.467 -0.3251 -0.2271  0.1896
 9318SOL     OW39415   1.841   4.356  13.566 -0.1737  0.6306  0.0267
 9318SOL    HW139416   1.866   4.301  13.641  0.5112  1.5908  0.4880
 9318SOL    HW239417   1.860   4.305  13.487 -0.5284  2.0521 -0.9730
 9319SOL     OW39418   1.875   1.158  14.349  0.2970 -0.3734 -0.5080
 9319SOL    HW139419   1.964   1.165  14.315  0.5165 -1.9976 -0.2806
 9319SOL    HW239420   1.891   1.184  14.439 -1.5762 -0.6971 -0.0849
 9320SOL     OW39421   3.686   2.987   6.516 -0.3132  0.0570 -0.2047
 9320SOL    HW139422   3.677   2.902   6.473 -2.9896 -0.0033  0.4949
 9320SOL    HW239423   3.758   3.032   6.472  0.0421 -0.2679  0.0448
 9321SOL     OW39424   2.645   3.075   1.990  0.0663  0.0625 -0.2827
 9321SOL    HW139425   2.706   3.045   1.922  1.0237  0.8354  0.2212
 9321SOL    HW239426   2.646   3.168   1.966 -0.1388  0.2339  0.3659
 9322SOL     OW39427   4.704   2.561   6.946  0.7613  0.1335  0.3306
 9322SOL    HW139428   4.659   2.509   7.013 -0.5721  1.2809  0.3239
 9322SOL    HW239429   0.057   2.591   6.998  1.3764  1.0433 -1.0798
 9323SOL     OW39430   4.325   0.337   2.533  0.0312  0.1705  0.3966
 9323SOL    HW139431   4.331   0.260   2.590 -2.7770 -1.8077 -1.9889
 9323SOL    HW239432   4.341   0.412   2.591  1.8674  1.1380 -1.3378
 9324SOL     OW39433   3.942   3.372  14.272 -1.0561  0.2710 -0.2632
 9324SOL    HW139434   3.912   3.393  14.360 -0.0636 -0.8178  0.3275
 9324SOL    HW239435   3.860   3.349  14.229 -0.1161 -1.7259 -0.9813
 9325SOL     OW39436   0.554   1.854   2.596  0.9280  0.2253  0.3534
 9325SOL    HW139437   0.483   1.889   2.544 -0.7434  0.6382  2.8871
 9325SOL    HW239438   0.591   1.939   2.619  1.9409  0.8278 -3.5883
 9326SOL     OW39439   2.404   1.935   2.160  0.1653 -0.0242  0.7104
 9326SOL    HW139440   2.456   2.006   2.199 -0.8483  0.2124  1.6177
 9326SOL    HW239441   2.395   1.968   2.071 -0.4661  0.8840  1.1140
 9327SOL     OW39442   3.447   2.374   7.743  0.3515  0.4476 -0.1896
 9327SOL    HW139443   3.481   2.378   7.832  2.8721  1.2953 -1.1842
 9327SOL    HW239444   3.357   2.345   7.753  0.4480  0.4405  0.6276
 9328SOL     OW39445   0.435   1.774   0.089  0.4971 -0.2009 -0.5302
 9328SOL    HW139446   0.507   1.817   0.135  1.0903  0.0233 -1.6769
 9328SOL    HW239447   0.478   1.723   0.020  3.1170  0.6367  0.4688
 9329SOL     OW39448   0.864   3.801  13.473 -0.3613  0.7285  0.1647
 9329SOL    HW139449   0.771   3.819  13.489 -0.7747 -0.5811 -0.7542
 9329SOL    HW239450   0.855   3.720  13.423  0.6758  0.9406 -0.3655
 9330SOL     OW39451   4.550   0.620   8.154 -0.3314  0.0787 -0.8437
 9330SOL    HW139452   4.481   0.555   8.168  0.8282 -0.8845  0.4785
 9330SOL    HW239453   4.560   0.614   8.059  0.3475  1.9798 -0.8962
 9331SOL     OW39454   1.252   1.714   4.570  0.1901  0.1963 -0.4205
 9331SOL    HW139455   1.230   1.777   4.639 -0.5918 -0.4021 -0.1315
 9331SOL    HW239456   1.171   1.662   4.568  1.3900 -1.6833 -0.1312
 9332SOL     OW39457   0.226   2.997   0.073 -0.0911 -0.1756 -0.0662
 9332SOL    HW139458   0.223   3.085   0.111 -0.2064 -0.4748  0.6038
 9332SOL    HW239459   0.315   2.972   0.097  0.0322 -2.1269 -2.5362
 9333SOL     OW39460   3.438   3.567  15.574  0.4019  0.0522 -0.1618
 9333SOL    HW139461   3.507   3.589  15.637  1.4525  0.3225 -1.4149
 9333SOL    HW239462   3.402   3.487  15.612  0.7539  0.1057  0.2851
 9334SOL     OW39463   1.469   2.874   7.395 -0.0581 -0.4372  0.2528
 9334SOL    HW139464   1.379   2.861   7.423 -0.3361  0.2083 -0.3590
 9334SOL    HW239465   1.478   2.819   7.318 -0.2572 -0.4761  0.2596
 9335SOL     OW39466   1.884   1.675   1.431 -0.0769  0.5871  0.4657
 9335SOL    HW139467   1.819   1.696   1.498  1.8498  0.6711  2.3027
 9335SOL    HW239468   1.873   1.747   1.368  0.1377 -0.7189 -1.0747
 9336SOL     OW39469   2.225   3.492   3.025  0.1074  0.3680  0.5609
 9336SOL    HW139470   2.205   3.428   3.093 -0.7669  0.3959  0.3218
 9336SOL    HW239471   2.242   3.431   2.953 -2.6058 -0.1068  0.3313
 9337SOL     OW39472   3.222   4.447   5.513 -0.0819  0.3973  0.4101
 9337SOL    HW139473   3.195   4.378   5.452  3.7282 -2.4124  1.8920
 9337SOL    HW239474   3.149   4.450   5.574 -2.5500 -1.6794 -2.4133
 9338SOL     OW39475   3.943   2.447   3.451  0.1608  0.0998 -0.1571
 9338SOL    HW139476   3.994   2.454   3.370  0.1296 -0.1501 -0.1977
 9338SOL    HW239477   3.863   2.486   3.416 -0.7602  0.2950  2.2006
 9339SOL     OW39478   4.280   2.466   3.117 -0.4774 -0.0265  0.0120
 9339SOL    HW139479   4.341   2.393   3.115 -1.3622 -0.7975  1.6833
 9339SOL    HW239480   4.258   2.488   3.026 -0.2453 -4.0738 -1.0160
 9340SOL     OW39481   4.210   2.382   7.353 -0.0846 -0.3145 -0.3414
 9340SOL    HW139482   4.179   2.381   7.444  0.9212 -1.1581 -0.0160
 9340SOL    HW239483   4.278   2.447   7.370 -3.1445  2.5353  1.0208
 9341SOL     OW39484   1.838   3.496   1.538  0.3091  0.1516 -0.2603
 9341SOL    HW139485   1.893   3.442   1.482  1.5451  2.3613 -1.1460
 9341SOL    HW239486   1.890   3.576   1.540 -1.0582  1.0138  1.1697
 9342SOL     OW39487   2.740   1.489   6.156 -0.3369  0.2038 -0.8949
 9342SOL    HW139488   2.752   1.394   6.154 -0.8460  0.1329 -0.5681
 9342SOL    HW239489   2.816   1.528   6.198  0.2462 -1.2953 -0.5640
 9343SOL     OW39490   4.187   4.071   0.115 -0.6538  0.1968  0.4578
 9343SOL    HW139491   4.146   4.057   0.030  2.0435 -2.2245 -0.4678
 9343SOL    HW239492   4.242   4.143   0.086 -0.3727  0.5006  1.7204
 9344SOL     OW39493   1.313   3.388   2.343 -0.3497  0.4000 -0.1481
 9344SOL    HW139494   1.369   3.346   2.278 -2.6245 -1.8710 -0.6594
 9344SOL    HW239495   1.242   3.425   2.290  0.6058  1.3022 -0.7938
 9345SOL     OW39496   2.761   2.502   2.189 -0.2750  0.1234  0.8861
 9345SOL    HW139497   2.682   2.544   2.155  0.3463  2.5204  2.4154
 9345SOL    HW239498   2.774   2.422   2.139  0.2252  1.0940 -0.5139
 9346SOL     OW39499   3.398   0.696   6.509  0.2185  0.0856  0.2647
 9346SOL    HW139500   3.334   0.625   6.513  0.6471 -0.3863 -1.4138
 9346SOL    HW239501   3.376   0.745   6.588 -0.9512 -0.6928  0.4112
 9347SOL     OW39502   2.753   3.297  15.024  0.0256  0.1838  0.1600
 9347SOL    HW139503   2.760   3.208  14.989  0.4499  0.0567  0.5696
 9347SOL    HW239504   2.839   3.335  15.011 -0.0968 -0.0749 -1.5179
 9348SOL     OW39505   4.255   0.849   3.709 -0.2755  0.5231 -0.1527
 9348SOL    HW139506   4.264   0.919   3.773 -0.9921  0.1587  0.3441
 9348SOL    HW239507   4.181   0.797   3.743 -1.6599  1.1376 -2.1684
 9349SOL     OW39508   1.773   1.465  14.893 -0.3695  0.1562  0.0372
 9349SOL    HW139509   1.842   1.503  14.947  0.8620 -0.0876 -1.3620
 9349SOL    HW239510   1.811   1.474  14.806  1.5328 -2.7601  0.5779
 9350SOL     OW39511   2.448   3.686  16.154  0.0257  0.8038 -0.1311
 9350SOL    HW139512   2.513   3.733  16.102  0.6175  0.7737  0.5833
 9350SOL    HW239513   2.491   3.607  16.187  1.4737  2.6585  2.4145
 9351SOL     OW39514   1.287   1.104  15.958 -0.2828 -0.0028  0.0412
 9351SOL    HW139515   1.238   1.154  15.893  1.0056  3.4757  1.8072
 9351SOL    HW239516   1.361   1.062  15.913 -1.6753  0.1932 -2.4391
 9352SOL     OW39517   3.609   2.374   1.572  0.0927  0.2157  0.2410
 9352SOL    HW139518   3.537   2.394   1.632 -0.6153 -0.8061 -0.2725
 9352SOL    HW239519   3.682   2.365   1.633 -0.1294 -0.5096  0.3982
 9353SOL     OW39520   1.821   4.533   3.607 -0.4603  0.0333  0.0717
 9353SOL    HW139521   1.779   4.606   3.563  0.0765  0.5887  0.4864
 9353SOL    HW239522   1.905   4.542   3.561 -1.1671  0.0564 -1.1904
 9354SOL     OW39523   2.327   2.845   2.562  0.4718  0.7411 -0.1685
 9354SOL    HW139524   2.404   2.801   2.597 -0.0220  1.4006  1.7648
 9354SOL    HW239525   2.314   2.923   2.616  0.4437 -0.3507  1.3934
 9355SOL     OW39526   0.533   0.650   8.223  0.0430  0.3207 -0.1972
 9355SOL    HW139527   0.587   0.636   8.301  0.6701 -0.1137 -0.7100
 9355SOL    HW239528   0.495   0.563   8.211 -1.4493  0.7697  1.3866
 9356SOL     OW39529   0.762   1.231   4.702  0.2111 -0.4117 -0.0094
 9356SOL    HW139530   0.796   1.227   4.613  1.9179  1.1365  0.5817
 9356SOL    HW239531   0.733   1.141   4.714  1.0334 -1.0142 -2.7094
 9357SOL     OW39532   0.334   2.989   0.953 -0.5333 -0.6104 -0.6103
 9357SOL    HW139533   0.324   3.033   1.037  1.6048 -0.6054 -0.3818
 9357SOL    HW239534   0.417   2.943   0.965  0.7214  1.4808 -1.3941
 9358SOL     OW39535   1.646   0.192   1.267  0.4988 -0.5354 -0.2979
 9358SOL    HW139536   1.654   0.282   1.297 -0.6400 -1.0423  1.5022
 9358SOL    HW239537   1.570   0.161   1.316  1.3806 -0.5966  1.0204
 9359SOL     OW39538   1.526   2.591   5.801  0.4039  0.0793  0.0663
 9359SOL    HW139539   1.478   2.629   5.727 -0.9914 -1.8631 -0.0178
 9359SOL    HW239540   1.555   2.664   5.856 -1.6241 -0.7777  2.2536
 9360SOL     OW39541   1.103   1.116   6.174  0.2886 -0.0914 -0.0511
 9360SOL    HW139542   1.153   1.050   6.126  1.6367  0.3218  0.7725
 9360SOL    HW239543   1.045   1.057   6.224  0.6006  0.1403  0.5892
 9361SOL     OW39544   0.931   4.115  16.334 -0.4485  0.2186  0.3825
 9361SOL    HW139545   1.003   4.076  16.383  0.0524 -1.6360 -1.7974
 9361SOL    HW239546   0.985   4.186  16.297 -0.4650  1.5380  2.9032
 9362SOL     OW39547   1.342   4.483   7.346  0.1227 -0.2339  0.1076
 9362SOL    HW139548   1.288   4.498   7.269  0.5214 -0.5106 -0.2280
 9362SOL    HW239549   1.426   4.521   7.320  0.1570 -0.0350  0.5156
 9363SOL     OW39550   0.381   1.281   8.023  0.4285 -0.1552 -0.5237
 9363SOL    HW139551   0.364   1.220   7.951 -1.1320  1.4669 -1.5354
 9363SOL    HW239552   0.377   1.365   7.977  0.6084  0.5322  0.7264
 9364SOL     OW39553   2.072   3.909   4.052  0.1555  0.6007  0.4337
 9364SOL    HW139554   1.993   3.934   4.004 -1.0260 -2.3628  0.8490
 9364SOL    HW239555   2.039   3.935   4.137 -1.7932  0.2466 -0.2249
 9365SOL     OW39556   4.206   4.368   2.009 -0.3581 -0.2611  0.6129
 9365SOL    HW139557   4.119   4.399   1.985  0.3606  0.0156 -1.6962
 9365SOL    HW239558   4.199   4.372   2.104 -1.5459 -0.4978  0.5335
 9366SOL     OW39559   4.237   0.471  16.874 -0.2653 -0.1713  0.2895
 9366SOL    HW139560   4.303   0.539  16.888  0.0843  0.0330 -2.2440
 9366SOL    HW239561   4.291   0.395  16.852 -0.8687  0.1799 -2.3904
 9367SOL     OW39562   1.215   2.557  14.675  0.1917  0.3014 -0.8516
 9367SOL    HW139563   1.181   2.641  14.707  0.8704 -0.0285  0.7234
 9367SOL    HW239564   1.210   2.568  14.580  2.2381 -0.1871 -1.0166
 9368SOL     OW39565   0.125   0.187   7.763  0.4159  0.1892  0.3555
 9368SOL    HW139566   0.102   0.276   7.737 -0.0306 -0.0506 -0.0576
 9368SOL    HW239567   0.220   0.199   7.761  0.8372 -2.7921  2.4531
 9369SOL     OW39568   2.212   0.595  12.831  0.0669 -0.0581 -0.7440
 9369SOL    HW139569   2.162   0.662  12.785 -0.6435  0.1373  0.2958
 9369SOL    HW239570   2.235   0.534  12.762 -0.0039  0.2014 -0.9964
 9370SOL     OW39571   4.663   2.214   4.890  0.4479 -0.1094 -0.1022
 9370SOL    HW139572   4.596   2.146   4.902 -0.0933  0.2578 -1.0271
 9370SOL    HW239573   0.028   2.176   4.882  0.2700 -0.7144  0.8574
 9371SOL     OW39574   2.889   2.634  12.160 -0.3698  0.3128 -0.2299
 9371SOL    HW139575   2.973   2.610  12.121  0.2090 -0.5150  1.5189
 9371SOL    HW239576   2.871   2.553  12.209  0.2297 -0.1380 -0.7451
 9372SOL     OW39577   0.985   0.519  16.196  0.6163 -0.5049  0.1788
 9372SOL    HW139578   0.919   0.518  16.127  0.0888 -2.0720  0.7177
 9372SOL    HW239579   0.936   0.580  16.251  2.9710  2.9444 -1.5217
 9373SOL     OW39580   1.265   4.428  17.017 -0.4399  0.3023 -0.3590
 9373SOL    HW139581   1.345   4.470  16.986  0.5057 -1.6970 -0.5637
 9373SOL    HW239582   1.233   4.374  16.945 -1.0847  1.2064 -0.7635
 9374SOL     OW39583   1.441   1.576  17.016 -0.0341  0.3603  0.4846
 9374SOL    HW139584   1.460   1.498  16.964  1.6860  0.9495  0.2251
 9374SOL    HW239585   1.528   1.598  17.049 -0.7060  0.8412  1.9459
 9375SOL     OW39586   3.304   3.196   2.540  0.2889  0.2015 -0.3810
 9375SOL    HW139587   3.337   3.147   2.615 -1.1513  0.5263  0.4700
 9375SOL    HW239588   3.216   3.161   2.552 -0.3691  2.0167  0.1657
 9376SOL     OW39589   4.380   4.528   4.075  0.0641 -0.2363  0.6624
 9376SOL    HW139590   4.347   4.502   4.161  0.5119 -2.4214  0.1882
 9376SOL    HW239591   4.308   4.493   4.022 -0.2936  0.9577  0.3581
 9377SOL     OW39592   4.259   2.914   8.053 -0.0032  0.2942 -0.0901
 9377SOL    HW139593   4.219   2.882   7.972  0.4498 -2.7012  0.8651
 9377SOL    HW239594   4.221   3.002   8.048 -0.1830  0.3762  2.7062
 9378SOL     OW39595   2.911   3.235   8.381  0.1653  0.0257 -0.2592
 9378SOL    HW139596   2.961   3.210   8.303 -1.5507 -2.0981 -0.6600
 9378SOL    HW239597   2.960   3.186   8.447  1.1818  2.4845  0.8372
 9379SOL     OW39598   4.368   2.397  10.530 -0.1421  0.5469 -0.2065
 9379SOL    HW139599   4.376   2.311  10.487 -1.8979  0.3635 -0.1576
 9379SOL    HW239600   4.335   2.444  10.454 -0.4555 -1.4422 -1.2954
 9380SOL     OW39601   2.220   0.140   7.536  0.0556  0.1420 -0.2983
 9380SOL    HW139602   2.277   0.095   7.474  0.7388 -0.3035  0.6627
 9380SOL    HW239603   2.133   0.109   7.510 -0.4191  0.0970  1.3195
 9381SOL     OW39604   0.214   2.230   6.611  0.0287  0.6653  0.0637
 9381SOL    HW139605   0.140   2.285   6.586 -0.3072 -0.0032 -0.4307
 9381SOL    HW239606   0.282   2.270   6.556  1.3866  0.1636  1.3788
 9382SOL     OW39607   2.126   0.717   0.128  0.1334 -0.2732  0.2358
 9382SOL    HW139608   2.105   0.701   0.036 -0.8721  0.8407  0.2679
 9382SOL    HW239609   2.187   0.789   0.113 -1.5102  1.1520  0.3920
 9383SOL     OW39610   4.103   3.580   7.918  0.2485 -0.3939 -0.5363
 9383SOL    HW139611   4.045   3.656   7.927  2.2825  1.0754  0.2921
 9383SOL    HW239612   4.081   3.548   7.831 -1.0818  0.4886 -0.5207
 9384SOL     OW39613   4.489   2.193   7.308 -0.1378  0.0370 -0.1164
 9384SOL    HW139614   4.396   2.216   7.313 -0.4768 -1.4340  0.4021
 9384SOL    HW239615   4.492   2.148   7.223 -0.9235 -0.4516  0.1139
 9385SOL     OW39616   0.471   1.687   6.622 -0.1176  0.7983  0.1451
 9385SOL    HW139617   0.418   1.677   6.702 -1.0958  0.6340 -0.5176
 9385SOL    HW239618   0.415   1.634   6.564  1.7975  0.6041 -1.5121
 9386SOL     OW39619   4.336   0.866   7.494 -0.5263  0.2138  0.4122
 9386SOL    HW139620   4.263   0.928   7.484 -0.4103  0.1852 -0.5619
 9386SOL    HW239621   4.404   0.905   7.439 -1.2719  2.5755  1.1176
 9387SOL     OW39622   4.591   4.168   7.590 -0.4490 -0.4119 -0.0444
 9387SOL    HW139623   4.512   4.222   7.600  1.4847  2.8239 -2.3481
 9387SOL    HW239624   4.560   4.092   7.540  0.9648  1.1231 -3.2380
 9388SOL     OW39625   2.553   2.674   6.956  0.8632 -0.2117  0.0826
 9388SOL    HW139626   2.615   2.744   6.937  1.1791  0.0528  2.0485
 9388SOL    HW239627   2.491   2.691   6.885 -0.1849 -1.8773  0.6201
 9389SOL     OW39628   1.679   3.211   4.666 -0.1420 -0.8427  0.2102
 9389SOL    HW139629   1.753   3.163   4.704 -0.7157 -1.5748  0.3994
 9389SOL    HW239630   1.718   3.245   4.586  0.0995 -2.1875 -0.2486
 9390SOL     OW39631   3.133   0.475   3.407  0.0919 -0.3111 -0.2192
 9390SOL    HW139632   3.194   0.448   3.338  1.2622 -0.3062  0.8148
 9390SOL    HW239633   3.084   0.393   3.418 -0.1466  0.1136  1.8584
 9391SOL     OW39634   0.089   2.297   7.155  0.1480  0.4042 -0.1236
 9391SOL    HW139635   0.136   2.229   7.205  1.0036  0.3343 -1.0157
 9391SOL    HW239636   0.019   2.255   7.106 -0.4794  0.7710  0.4708
 9392SOL     OW39637   3.357   0.787  17.011  0.4157 -0.5165 -0.1350
 9392SOL    HW139638   3.278   0.832  17.041 -1.0978 -1.9345 -1.9751
 9392SOL    HW239639   3.423   0.855  17.003 -0.0292 -0.2963 -1.8535
 9393SOL     OW39640   0.757   0.150  16.784  0.4877 -0.1662 -0.0379
 9393SOL    HW139641   0.738   0.118  16.696 -0.9543 -0.5238  0.4032
 9393SOL    HW239642   0.851   0.160  16.770  1.0578 -1.6897  2.5948
 9394SOL     OW39643   4.568   0.259   7.523 -0.3568  0.6499  0.2792
 9394SOL    HW139644   4.547   0.188   7.584  1.6052  0.9850  1.3280
 9394SOL    HW239645   4.610   0.209   7.454 -1.5632  0.0152  0.0011
 9395SOL     OW39646   0.703   0.003   0.918 -0.4191 -0.1835  0.2585
 9395SOL    HW139647   0.611   0.026   0.932 -0.9314 -1.9559 -0.1932
 9395SOL    HW239648   0.747   0.080   0.882  1.0269 -0.4648  1.4710
 9396SOL     OW39649   4.308   0.079   2.678 -0.1124  0.4726 -0.2907
 9396SOL    HW139650   4.316   4.710   2.649 -0.6073  0.1150  0.6817
 9396SOL    HW239651   4.214   0.096   2.678 -0.0956  0.5462 -1.9737
 9397SOL     OW39652   3.198   2.042  13.040 -0.2885 -0.0755  0.1449
 9397SOL    HW139653   3.201   2.089  13.123  1.9726  1.1567 -0.6374
 9397SOL    HW239654   3.161   2.101  12.975  1.7972 -0.3805 -1.3560
 9398SOL     OW39655   3.991   4.181  11.323 -0.2361  0.1683 -0.2409
 9398SOL    HW139656   4.001   4.241  11.397  3.4294  0.2123 -0.7893
 9398SOL    HW239657   4.059   4.198  11.259 -1.7696 -1.7406 -2.3653
 9399SOL     OW39658   0.658   3.723   0.442 -0.1254  0.6568  0.4203
 9399SOL    HW139659   0.684   3.760   0.526 -1.5641  0.6773  0.8652
 9399SOL    HW239660   0.744   3.730   0.402 -0.7710  1.1906 -0.8555
 9400SOL     OW39661   3.244   2.955  16.394  0.5319  0.1161  0.1256
 9400SOL    HW139662   3.270   2.881  16.449 -0.1858  0.3437  0.7622
 9400SOL    HW239663   3.184   2.917  16.330  0.0828 -0.7192  1.0357
 9401SOL     OW39664   1.584   2.962  15.530 -0.0788  0.2886  0.2993
 9401SOL    HW139665   1.649   3.005  15.586 -1.4635  0.1916  2.0063
 9401SOL    HW239666   1.514   3.026  15.520  0.1582  0.6952  1.2121
 9402SOL     OW39667   4.370   1.569   6.777  0.2522  0.1053  0.6437
 9402SOL    HW139668   4.305   1.541   6.713 -0.0700  1.5530  0.3478
 9402SOL    HW239669   4.446   1.515   6.755  0.6113  1.3553 -1.1810
 9403SOL     OW39670   3.146   2.844   3.530  0.2415 -0.2254 -0.3047
 9403SOL    HW139671   3.223   2.795   3.500 -0.4402 -0.9698 -0.8193
 9403SOL    HW239672   3.146   2.829   3.625 -0.2128 -0.5664 -0.3602
 9404SOL     OW39673   2.934   3.166   0.081  0.1336 -0.1596 -0.8456
 9404SOL    HW139674   2.978   3.164   0.166 -0.2637  0.6590 -0.6169
 9404SOL    HW239675   2.956   3.258   0.065  3.4311 -0.5394  1.4953
 9405SOL     OW39676   1.108   3.412   1.497  0.3035 -0.2806 -0.2823
 9405SOL    HW139677   1.065   3.378   1.419 -0.5418 -3.0424  1.3877
 9405SOL    HW239678   1.179   3.459   1.452  2.5550 -2.8572  0.5731
 9406SOL     OW39679   0.989   0.581   6.639  0.0352  0.0606  0.1402
 9406SOL    HW139680   0.972   0.607   6.548  0.6690  0.5460  0.1614
 9406SOL    HW239681   1.006   0.488   6.623  1.1836  0.1464  0.8952
 9407SOL     OW39682   4.457   3.254  15.532  0.4115 -0.5200  0.0250
 9407SOL    HW139683   4.419   3.341  15.538  1.1409 -0.2083  0.0185
 9407SOL    HW239684   4.431   3.212  15.615  1.6431 -0.6541  0.3413
 9408SOL     OW39685   3.036   4.304   8.059  0.3737  0.6208  0.0215
 9408SOL    HW139686   3.012   4.357   8.135 -1.9530 -0.4700  0.0621
 9408SOL    HW239687   3.066   4.374   8.001  0.8512  1.8125  1.7046
 9409SOL     OW39688   2.010   2.233   3.592  0.3319 -0.3096 -0.3278
 9409SOL    HW139689   1.973   2.204   3.508 -1.2633 -0.8075  0.5415
 9409SOL    HW239690   1.942   2.202   3.652 -0.3917  2.0258  0.0671
 9410SOL     OW39691   4.357   4.122   6.156 -0.8994 -0.5393 -0.0690
 9410SOL    HW139692   4.384   4.097   6.245 -0.3831 -0.9027 -0.3274
 9410SOL    HW239693   4.416   4.086   6.091 -0.4097  0.1007  0.0186
 9411SOL     OW39694   0.726   2.109   3.136 -0.0221 -0.9805  0.0648
 9411SOL    HW139695   0.814   2.119   3.173  0.2411  2.5960 -1.4738
 9411SOL    HW239696   0.733   2.016   3.118  0.6030 -0.9572  0.1898
 9412SOL     OW39697   1.908   1.224   9.526  0.1145 -0.5284  0.7316
 9412SOL    HW139698   1.927   1.136   9.560 -2.5798 -1.3952  0.0039
 9412SOL    HW239699   1.969   1.247   9.456  2.0010  0.6785  2.7673
 9413SOL     OW39700   4.067   2.572   3.254 -0.0251 -0.4764 -0.0200
 9413SOL    HW139701   4.146   2.536   3.213  0.1477 -0.5256  0.3564
 9413SOL    HW239702   4.039   2.632   3.185  1.0467 -0.3598 -0.3543
 9414SOL     OW39703   0.942   0.672   7.759 -0.5681 -0.3559  0.5040
 9414SOL    HW139704   0.997   0.622   7.698 -0.8356 -1.5964  1.2730
 9414SOL    HW239705   1.004   0.740   7.786 -0.5719  0.1456 -0.7199
 9415SOL     OW39706   4.125   2.944  10.387 -0.0533 -0.4267  0.9691
 9415SOL    HW139707   4.102   2.861  10.345 -2.1218  0.5408  0.2168
 9415SOL    HW239708   4.078   2.946  10.470 -1.5555 -0.3532  0.1156
 9416SOL     OW39709   1.598   3.917  11.952  0.2029  0.0214 -0.8660
 9416SOL    HW139710   1.564   4.004  11.930  2.6725  1.3591  0.5117
 9416SOL    HW239711   1.591   3.869  11.870  0.5674 -3.2690  1.0529
 9417SOL     OW39712   2.182   3.587   8.350  0.0125 -0.1523 -0.6941
 9417SOL    HW139713   2.139   3.578   8.264 -1.5176 -2.0349  0.2652
 9417SOL    HW239714   2.274   3.591   8.324 -0.3250  1.2464 -1.6981
 9418SOL     OW39715   3.267   3.966  12.868 -0.4212 -0.5733 -0.1222
 9418SOL    HW139716   3.325   3.954  12.942 -0.5870 -3.7475 -0.4903
 9418SOL    HW239717   3.317   4.028  12.815 -0.9763 -0.2673 -0.2923
 9419SOL     OW39718   3.027   0.694  14.157 -0.2119  0.3658 -0.4659
 9419SOL    HW139719   3.025   0.650  14.241 -2.0305  1.6279  0.1551
 9419SOL    HW239720   3.119   0.698  14.132  0.5983  1.1042  2.6267
 9420SOL     OW39721   2.318   2.514   6.056  0.3175  0.8733 -0.1729
 9420SOL    HW139722   2.396   2.485   6.009  1.0210  2.2841  0.1209
 9420SOL    HW239723   2.357   2.513   6.144  1.2067 -1.6032 -0.5802
 9421SOL     OW39724   2.797   1.920   1.815  0.4963 -0.0883 -0.1782
 9421SOL    HW139725   2.872   1.906   1.872  0.8087  0.7535 -0.3823
 9421SOL    HW239726   2.736   1.953   1.880  0.6046  0.4683 -0.3490
 9422SOL     OW39727   0.249   2.525  14.889 -0.0465 -0.5456 -0.0694
 9422SOL    HW139728   0.155   2.524  14.908  0.7462 -3.2745  3.6793
 9422SOL    HW239729   0.266   2.454  14.827  1.4895  0.3666 -0.6823
 9423SOL     OW39730   4.539   1.268   3.278  0.5321 -0.2285 -0.0334
 9423SOL    HW139731   4.454   1.300   3.309  1.0595  1.1026  0.0447
 9423SOL    HW239732   4.520   1.255   3.185 -3.2906  2.4408  0.3568
 9424SOL     OW39733   3.053   2.544   7.241  0.2724 -0.5804 -0.2244
 9424SOL    HW139734   2.977   2.544   7.300  0.8982 -2.0009  0.5938
 9424SOL    HW239735   3.108   2.615   7.275 -0.3156 -0.2203 -0.0211
 9425SOL     OW39736   3.819   1.776   6.034  0.0900  0.2592  0.4645
 9425SOL    HW139737   3.881   1.849   6.027  1.0725 -0.7312 -1.2099
 9425SOL    HW239738   3.754   1.807   5.970  2.1416 -1.4354 -2.4678
 9426SOL     OW39739   2.421   3.324  12.131 -0.1904  0.3795 -0.0530
 9426SOL    HW139740   2.481   3.254  12.158 -0.3755  1.4007  3.0059
 9426SOL    HW239741   2.486   3.381  12.090 -0.8939  0.7851 -0.6016
 9427SOL     OW39742   2.889   1.391   3.857  0.5970  0.5912 -0.6992
 9427SOL    HW139743   2.798   1.417   3.869  0.5080  0.9538 -2.1862
 9427SOL    HW239744   2.876   1.350   3.772 -0.9158 -1.1950  0.3997
 9428SOL     OW39745   1.050   4.573  14.997  0.6379 -0.1738 -0.2783
 9428SOL    HW139746   1.113   4.637  15.031  0.0938  1.1290 -1.7562
 9428SOL    HW239747   1.012   4.625  14.926 -1.9860  0.0033  1.2752
 9429SOL     OW39748   4.389   3.368   9.613  0.5206  0.4216 -0.3710
 9429SOL    HW139749   4.420   3.444   9.662  2.7254 -1.0852  0.5964
 9429SOL    HW239750   4.419   3.298   9.670  0.3968 -0.8881 -1.8927
 9430SOL     OW39751   2.599   1.471   1.314  0.2698 -0.1273 -0.5721
 9430SOL    HW139752   2.660   1.435   1.379 -1.0144 -1.5101 -0.1339
 9430SOL    HW239753   2.552   1.533   1.369  0.2965  0.0003 -0.6943
 9431SOL     OW39754   3.188   4.468  14.814 -0.0027  0.2047 -0.4852
 9431SOL    HW139755   3.232   4.514  14.743  0.8657  0.8281  0.4405
 9431SOL    HW239756   3.220   4.513  14.893 -0.5636 -1.5413  0.7247
 9432SOL     OW39757   2.252   0.052  17.379  0.0113  0.1594  0.1911
 9432SOL    HW139758   2.247   4.688  17.337 -1.1084  1.1551 -1.7090
 9432SOL    HW239759   2.172   0.101  17.359 -1.9319 -2.6981  0.8236
 9433SOL     OW39760   1.541   0.280   3.477 -0.7060  0.5058  0.1348
 9433SOL    HW139761   1.453   0.297   3.510 -0.3206  2.2034  0.2699
 9433SOL    HW239762   1.524   0.278   3.383  1.9819 -1.5871 -0.3225
 9434SOL     OW39763   4.675   1.037   4.705  0.3270  0.5499  0.3534
 9434SOL    HW139764   4.613   1.082   4.763  0.9758  1.0599  0.6579
 9434SOL    HW239765   0.037   1.047   4.751  0.3329 -1.0424  0.7023
 9435SOL     OW39766   4.527   3.654   2.491  0.1539  0.4437  0.3094
 9435SOL    HW139767   4.620   3.651   2.512  0.2950 -2.2486 -0.6533
 9435SOL    HW239768   4.532   3.696   2.406  1.0963 -0.7301 -0.2278
 9436SOL     OW39769   3.573   3.989  16.667 -0.1586 -0.3206 -0.0822
 9436SOL    HW139770   3.538   4.047  16.599 -3.0790 -0.4183  1.3078
 9436SOL    HW239771   3.572   4.043  16.747  0.8642  0.8585 -0.8554
 9437SOL     OW39772   1.514   4.704   6.697 -0.2677 -0.0536 -0.1241
 9437SOL    HW139773   1.540   0.026   6.616 -0.7028 -0.5163 -0.5126
 9437SOL    HW239774   1.453   4.644   6.655 -2.3072  0.9695  1.4341
 9438SOL     OW39775   3.916   0.235   8.206  0.2861 -0.2738 -0.2630
 9438SOL    HW139776   3.888   0.305   8.146  0.5597  0.0028 -0.0635
 9438SOL    HW239777   3.852   0.234   8.276  1.9565 -1.0257  1.2453
 9439SOL     OW39778   2.366   1.113   6.858  0.1929  0.2980 -0.6010
 9439SOL    HW139779   2.353   1.201   6.823  1.2944  1.1272  1.0488
 9439SOL    HW239780   2.388   1.054   6.786  2.7971  1.8315 -1.0523
 9440SOL     OW39781   2.991   3.883  15.834  0.2637  0.5263 -0.1337
 9440SOL    HW139782   3.050   3.878  15.909  0.8796  1.2455 -0.5683
 9440SOL    HW239783   3.041   3.940  15.774  1.7365 -1.1694 -0.5191
 9441SOL     OW39784   0.048   1.764  13.671  0.4032 -0.5657 -0.4905
 9441SOL    HW139785   0.064   1.693  13.733  1.3337 -2.0295 -2.4106
 9441SOL    HW239786   0.041   1.709  13.593 -0.4317  0.8402 -1.3992
 9442SOL     OW39787   2.018   2.521   6.114  0.7119 -0.5817  0.2376
 9442SOL    HW139788   1.974   2.447   6.074  0.0452  1.1477 -2.2454
 9442SOL    HW239789   2.101   2.536   6.068  1.6034 -1.7432  1.4445
 9443SOL     OW39790   1.372   2.495   4.631  0.7441  0.7921  0.2438
 9443SOL    HW139791   1.455   2.539   4.650  2.1605 -1.0417 -1.6715
 9443SOL    HW239792   1.365   2.448   4.715 -0.4725  0.8037  0.1505
 9444SOL     OW39793   2.349   0.029   3.946  0.1109 -0.3674  0.2572
 9444SOL    HW139794   2.278   4.715   3.893  0.5317 -1.6660  0.5729
 9444SOL    HW239795   2.311   0.115   3.965  0.3612 -0.8343  3.0033
 9445SOL     OW39796   3.463   1.607   7.887 -0.4962  0.1468 -0.5053
 9445SOL    HW139797   3.554   1.613   7.858 -0.1596 -1.9641  0.1816
 9445SOL    HW239798   3.466   1.689   7.937  1.9568 -1.6298  2.1782
 9446SOL     OW39799   4.611   1.642   4.424  0.1044 -0.1876  0.1655
 9446SOL    HW139800   4.664   1.663   4.347 -0.7203 -1.1222 -0.6519
 9446SOL    HW239801   4.665   1.690   4.487 -0.3167  0.0221  0.3626
 9447SOL     OW39802   0.350   4.463   8.735  0.1302  0.3644 -0.8421
 9447SOL    HW139803   0.439   4.428   8.739  1.2842  3.4921  1.0876
 9447SOL    HW239804   0.352   4.534   8.799 -1.4065 -0.7339  0.4050
 9448SOL     OW39805   1.773   3.989   1.826  0.1574 -0.1755  0.0373
 9448SOL    HW139806   1.785   3.915   1.886 -0.8627 -0.5496 -0.2315
 9448SOL    HW239807   1.865   4.010   1.807  0.1804 -0.2499  0.0630
 9449SOL     OW39808   2.719   3.448   4.483  0.0982 -0.0552 -0.0001
 9449SOL    HW139809   2.815   3.453   4.485  0.0380  1.6516 -1.3991
 9449SOL    HW239810   2.702   3.381   4.550  0.7526  0.0437  0.2669
 9450SOL     OW39811   3.851   2.851   6.780  0.3842  0.6266  0.3988
 9450SOL    HW139812   3.870   2.941   6.752  1.9694  0.2885  0.3752
 9450SOL    HW239813   3.941   2.833   6.809  0.0904 -3.6383 -1.4065
 9451SOL     OW39814   1.256   2.927  15.265  0.0101 -0.3694  0.1098
 9451SOL    HW139815   1.246   2.943  15.359 -1.7462 -1.3193  0.0788
 9451SOL    HW239816   1.235   3.015  15.234 -0.5727 -1.2056 -1.8671
 9452SOL     OW39817   0.391   3.375   3.999  0.7343 -0.0963  0.0620
 9452SOL    HW139818   0.434   3.450   3.959  2.3992 -0.0445  1.9196
 9452SOL    HW239819   0.372   3.321   3.922  0.2547  1.7994 -1.1596
 9453SOL     OW39820   1.498   2.430   3.870  0.0420 -0.7187  0.2323
 9453SOL    HW139821   1.527   2.480   3.794  0.4340 -1.3088 -0.0091
 9453SOL    HW239822   1.534   2.343   3.854 -0.9761 -0.7460 -1.8990
 9454SOL     OW39823   3.077   1.130  13.986 -0.6322 -0.5448  0.2110
 9454SOL    HW139824   3.111   1.073  13.916  1.4342 -0.1307  0.8681
 9454SOL    HW239825   3.156   1.184  13.992 -0.7840 -0.1792 -0.9891
 9455SOL     OW39826   1.164   1.094   7.558  0.0534  0.2146 -0.2383
 9455SOL    HW139827   1.203   1.022   7.508  1.1937  1.3556 -0.9806
 9455SOL    HW239828   1.088   1.113   7.503  0.2820 -0.0660 -0.6521
 9456SOL     OW39829   1.576   3.265  14.228  0.0320 -0.3665 -0.1516
 9456SOL    HW139830   1.608   3.345  14.270 -2.9261  1.4996 -1.4167
 9456SOL    HW239831   1.623   3.200  14.280  0.6334  0.4694  0.3391
 9457SOL     OW39832   2.138   1.179  12.737 -0.1115  0.4190  0.3014
 9457SOL    HW139833   2.233   1.183  12.724  0.1023 -0.1613  1.6876
 9457SOL    HW239834   2.121   1.194  12.830 -0.1680 -0.4106  0.4240
 9458SOL     OW39835   1.603   4.030   8.833 -0.2099  0.1033 -0.5124
 9458SOL    HW139836   1.572   3.981   8.757  0.1146  0.6260 -0.9728
 9458SOL    HW239837   1.545   3.988   8.897 -0.7085  1.4708 -0.0742
 9459SOL     OW39838   3.027   3.774   9.585 -0.0209  0.0954 -0.6570
 9459SOL    HW139839   3.008   3.788   9.677 -1.8243 -0.7848 -0.8722
 9459SOL    HW239840   3.109   3.820   9.566 -0.1563  1.1349  1.3354
 9460SOL     OW39841   2.205   2.560   1.143  0.1257 -0.0871 -0.2655
 9460SOL    HW139842   2.197   2.543   1.049 -0.2122 -0.5643 -0.1500
 9460SOL    HW239843   2.279   2.620   1.142  2.0263 -2.4650 -0.4724
 9461SOL     OW39844   2.505   0.984   0.466 -0.5209 -0.2859 -0.1090
 9461SOL    HW139845   2.482   0.898   0.431  0.2213 -0.7181  0.4825
 9461SOL    HW239846   2.448   0.994   0.542 -0.0211  1.4513  0.0340
 9462SOL     OW39847   0.878   3.194   1.430 -0.5394  0.0535  0.2008
 9462SOL    HW139848   0.899   3.236   1.514 -0.4164 -1.9231  1.1623
 9462SOL    HW239849   0.817   3.125   1.457  0.9211 -0.1605  2.9874
 9463SOL     OW39850   0.071   2.944   0.475  0.1173  0.2812  0.0766
 9463SOL    HW139851   0.000   2.999   0.441  1.3846  0.7638 -1.8014
 9463SOL    HW239852   0.023   2.904   0.547  1.7011 -0.4177  0.7390
 9464SOL     OW39853   2.514   3.671   9.254  0.4953  0.4442 -0.0606
 9464SOL    HW139854   2.527   3.762   9.280 -0.1319  0.9557 -1.5589
 9464SOL    HW239855   2.423   3.672   9.225  0.0931  1.5963  1.2319
 9465SOL     OW39856   4.640   0.333   6.330 -0.3606 -0.0015  0.1348
 9465SOL    HW139857   4.578   0.288   6.273 -2.9202  1.4234  1.8034
 9465SOL    HW239858   4.582   0.389   6.381  0.5786  1.7765 -0.7508
 9466SOL     OW39859   4.457   2.421   0.977 -0.1747 -0.5939 -0.2976
 9466SOL    HW139860   4.365   2.429   1.001  0.0561  1.3367 -0.0521
 9466SOL    HW239861   4.498   2.465   1.051  2.8298 -2.0463 -1.0999
 9467SOL     OW39862   2.649   3.437   8.222  0.2468 -0.2172 -0.0326
 9467SOL    HW139863   2.629   3.344   8.236  2.1706 -0.4950  0.8244
 9467SOL    HW239864   2.744   3.435   8.230  0.3240  1.3561 -0.5307
 9468SOL     OW39865   1.667   0.787  14.214  0.3453  0.3474  0.2622
 9468SOL    HW139866   1.685   0.828  14.129  1.5351 -1.0513 -0.1600
 9468SOL    HW239867   1.655   0.864  14.269  0.0694  0.5805 -0.1197
 9469SOL     OW39868   0.194   4.367   8.972 -0.0595 -0.3881  0.4204
 9469SOL    HW139869   0.125   4.342   8.911  2.0551 -1.1985 -1.6684
 9469SOL    HW239870   0.266   4.376   8.909 -0.2987 -3.2216 -0.2705
 9470SOL     OW39871   1.826   1.479   1.267 -0.2514  0.1335 -0.3991
 9470SOL    HW139872   1.811   1.531   1.188  1.6956  1.6369  0.2277
 9470SOL    HW239873   1.854   1.551   1.324 -0.9201  0.8426 -0.9738
 9471SOL     OW39874   4.710   1.085   8.021 -0.3796 -0.0252 -0.1434
 9471SOL    HW139875   4.633   1.059   8.072 -0.0623 -1.8710 -0.6442
 9471SOL    HW239876   0.061   1.057   8.077 -2.9811 -0.5417  2.9809
 9472SOL     OW39877   0.896   1.325  17.632  0.2660 -0.1389 -0.4700
 9472SOL    HW139878   0.814   1.343  17.677 -0.1263  0.0114 -1.2334
 9472SOL    HW239879   0.923   1.417  17.633 -0.1459 -0.0213 -0.4053
 9473SOL     OW39880   2.807   2.603   4.761  1.0067  0.3374 -0.2044
 9473SOL    HW139881   2.739   2.638   4.704 -0.6171 -2.2870  0.1096
 9473SOL    HW239882   2.810   2.507   4.752  1.9312  0.4408 -0.8831
 9474SOL     OW39883   3.232   0.442  14.486  0.4111 -0.1060  0.0341
 9474SOL    HW139884   3.209   0.350  14.480 -1.0321  0.3811 -1.9649
 9474SOL    HW239885   3.280   0.453  14.403  0.1989  2.2388  0.2115
 9475SOL     OW39886   0.030   3.363   4.325  0.1069 -0.3819 -0.4294
 9475SOL    HW139887   0.048   3.376   4.232  1.2509 -1.8874 -0.4272
 9475SOL    HW239888   0.122   3.369   4.350  0.0239 -0.0461 -0.2114
 9476SOL     OW39889   3.733   4.518   5.966  0.2028  0.1733 -0.6476
 9476SOL    HW139890   3.747   4.564   5.884 -0.6074  0.5257 -0.5828
 9476SOL    HW239891   3.665   4.458   5.934  0.3709 -0.2389 -0.2427
 9477SOL     OW39892   1.519   1.935   7.125  0.4183 -0.6133  0.0048
 9477SOL    HW139893   1.491   1.872   7.058 -1.3469  1.5933 -1.3234
 9477SOL    HW239894   1.604   1.962   7.091  0.7711  0.5647  1.8273
 9478SOL     OW39895   4.512   1.106   4.921 -0.4953 -0.3404 -0.6856
 9478SOL    HW139896   4.488   1.018   4.951 -1.3602 -0.0867 -0.6209
 9478SOL    HW239897   4.447   1.158   4.968  1.7935 -0.2804  2.3848
 9479SOL     OW39898   3.165   3.560   5.838  0.0376 -0.0462 -0.1413
 9479SOL    HW139899   3.082   3.538   5.797  0.0644  0.7062 -0.6127
 9479SOL    HW239900   3.133   3.637   5.885 -0.8035 -0.9905  0.8151
 9480SOL     OW39901   2.080   1.915  11.658 -0.2886 -0.1471  0.1743
 9480SOL    HW139902   1.988   1.922  11.634 -0.4670 -1.2685  0.5404
 9480SOL    HW239903   2.110   1.846  11.598  0.3321  2.2269 -2.2273
 9481SOL     OW39904   2.153   1.038   7.638 -0.3074  0.2576  0.0801
 9481SOL    HW139905   2.149   1.084   7.722 -0.2415  0.1861  0.1225
 9481SOL    HW239906   2.244   1.011   7.639 -0.1293  0.8962  1.2373
 9482SOL     OW39907   3.302   1.597   5.473  0.2552 -0.2557 -0.0840
 9482SOL    HW139908   3.337   1.685   5.458 -1.4429 -0.0658 -2.8955
 9482SOL    HW239909   3.362   1.559   5.537  1.0726  1.8949  0.4393
 9483SOL     OW39910   2.140   4.636   3.776 -0.2918 -0.3978  0.5554
 9483SOL    HW139911   2.114   4.689   3.700 -3.0444 -0.8856  1.1471
 9483SOL    HW239912   2.081   4.668   3.844 -1.6597 -1.5442 -0.0931
 9484SOL     OW39913   3.668   2.383   7.133 -0.6561 -0.3039 -0.5217
 9484SOL    HW139914   3.693   2.358   7.221 -0.4006 -0.7670 -0.7269
 9484SOL    HW239915   3.745   2.418   7.088 -0.0701  0.2770  0.9568
 9485SOL     OW39916   2.124   2.649   1.399  0.0363  0.0876  0.0626
 9485SOL    HW139917   2.194   2.601   1.443 -0.0791 -0.8775 -0.8138
 9485SOL    HW239918   2.096   2.608   1.317 -0.8752 -1.3268  1.0961
 9486SOL     OW39919   0.994   2.085  13.184  0.2754 -0.1870 -0.2824
 9486SOL    HW139920   1.068   2.135  13.149  0.9635 -0.9022  0.1474
 9486SOL    HW239921   1.017   1.997  13.153 -1.6987 -1.1903  1.0666
 9487SOL     OW39922   1.721   2.457   0.417 -0.2348 -0.2045  0.1733
 9487SOL    HW139923   1.734   2.449   0.323 -0.0271  1.0280  0.0982
 9487SOL    HW239924   1.745   2.367   0.434 -0.9672 -0.4343  0.0074
 9488SOL     OW39925   1.615   3.041   5.880 -0.1157  0.3715 -0.1176
 9488SOL    HW139926   1.642   3.108   5.817 -3.5732  0.4274 -1.5639
 9488SOL    HW239927   1.521   3.050   5.896  0.7120  1.4445  3.9783
 9489SOL     OW39928   0.199   0.085   1.428  0.3500 -0.1719  0.4264
 9489SOL    HW139929   0.130   0.020   1.423  0.1413  0.0688  0.1443
 9489SOL    HW239930   0.211   0.100   1.522  1.5345  0.5798  0.1623
 9490SOL     OW39931   2.477   1.472   9.263 -0.0396 -0.2724  0.0559
 9490SOL    HW139932   2.489   1.397   9.205 -2.1695  0.0983 -0.8366
 9490SOL    HW239933   2.559   1.522   9.255 -0.9132  1.0006 -0.9971
 9491SOL     OW39934   3.288   1.881   4.161 -0.4636  0.2850  0.4263
 9491SOL    HW139935   3.253   1.841   4.241  1.0481 -1.3897  0.2433
 9491SOL    HW239936   3.380   1.888   4.188 -0.3821 -0.5155  0.3648
 9492SOL     OW39937   4.671   0.309   4.522  0.0809 -0.1332 -0.7393
 9492SOL    HW139938   4.580   0.285   4.504 -0.2784  1.4652 -1.0980
 9492SOL    HW239939   4.659   0.335   4.613 -2.1303  1.4682 -1.5038
 9493SOL     OW39940   1.969   1.153   3.152 -0.2585 -0.4143  0.6268
 9493SOL    HW139941   2.024   1.231   3.156 -0.0116 -0.7437  3.5424
 9493SOL    HW239942   1.880   1.181   3.176 -1.6202 -1.1252 -3.4155
 9494SOL     OW39943   1.312   2.724  15.100  0.0734  0.2775 -0.1375
 9494SOL    HW139944   1.367   2.681  15.165 -1.5101  0.5608  1.3875
 9494SOL    HW239945   1.274   2.795  15.152  1.6950  0.2697  1.0361
 9495SOL     OW39946   1.662   3.002   7.990  0.1102 -0.1587 -0.0739
 9495SOL    HW139947   1.606   3.079   8.005 -0.0326  0.1603 -2.2498
 9495SOL    HW239948   1.723   3.042   7.929 -1.5579  4.0360  0.9862
 9496SOL     OW39949   2.596   2.502   0.243  0.5066 -0.3302 -0.2672
 9496SOL    HW139950   2.613   2.555   0.166  2.4888  0.2694  0.5697
 9496SOL    HW239951   2.676   2.452   0.261 -0.1828 -1.2534  0.2459
 9497SOL     OW39952   2.611   1.010   2.649  0.3231  0.6823  0.4800
 9497SOL    HW139953   2.516   0.999   2.651  0.2724  1.2050  0.8954
 9497SOL    HW239954   2.619   1.057   2.566  0.3929 -0.7725 -0.3472
 9498SOL     OW39955   3.553   0.824   1.123 -0.4338 -0.6786 -0.1708
 9498SOL    HW139956   3.639   0.789   1.098  0.5020  1.3811  0.1789
 9498SOL    HW239957   3.512   0.845   1.040 -0.0340  1.0650  0.0817
 9499SOL     OW39958   2.962   3.622   2.337 -0.7317 -0.1642  0.1823
 9499SOL    HW139959   2.871   3.648   2.342 -0.1085  2.1526 -0.4845
 9499SOL    HW239960   2.979   3.598   2.245  1.4584  0.3611  0.4398
 9500SOL     OW39961   0.266   4.103   3.931 -0.4119 -0.3860  0.5207
 9500SOL    HW139962   0.343   4.120   3.986  0.1856  0.0076 -0.4479
 9500SOL    HW239963   0.231   4.192   3.924  2.2021  0.4698 -1.7164
 9501SOL     OW39964   3.211   4.171  16.222  0.3061  0.2600  0.7085
 9501SOL    HW139965   3.125   4.192  16.186  0.6893 -0.5112 -0.6746
 9501SOL    HW239966   3.226   4.248  16.275  0.3484  0.5905  0.2202
 9502SOL     OW39967   0.252   4.409  11.494 -0.5752  0.1330  0.2410
 9502SOL    HW139968   0.208   4.403  11.579  0.4611  0.0375  0.7606
 9502SOL    HW239969   0.190   4.354  11.446  0.3608 -0.1091 -0.6730
 9503SOL     OW39970   3.524   2.030   4.935 -0.1309  0.1730  0.0177
 9503SOL    HW139971   3.614   2.026   4.902 -0.2300 -0.8458 -0.1079
 9503SOL    HW239972   3.517   1.943   4.974  0.8672  0.0401 -0.1112
 9504SOL     OW39973   1.753   2.959   6.264 -0.2844 -0.0760  0.1673
 9504SOL    HW139974   1.830   2.938   6.317 -1.0372  2.2251  2.1734
 9504SOL    HW239975   1.697   2.881   6.262  0.0521 -0.3704  2.5024
 9505SOL     OW39976   3.389   1.571  11.220  0.1676  0.2692 -0.6457
 9505SOL    HW139977   3.409   1.484  11.186  0.3481  1.0701 -2.6112
 9505SOL    HW239978   3.294   1.571  11.220  0.1651 -1.6857 -2.3854
 9506SOL     OW39979   2.212   0.400  11.283 -0.1162 -0.1129 -0.2497
 9506SOL    HW139980   2.215   0.474  11.344  0.1702  1.1999 -1.8349
 9506SOL    HW239981   2.292   0.410  11.231 -1.0463 -0.9370 -1.8065
 9507SOL     OW39982   2.156   4.600  14.846  0.3048  0.2588 -0.5445
 9507SOL    HW139983   2.117   4.513  14.861 -2.9294  1.2099 -3.3743
 9507SOL    HW239984   2.177   4.583  14.754 -2.5434 -0.3585 -1.0872
 9508SOL     OW39985   0.490   3.455   8.998 -0.3339 -0.5278 -0.3029
 9508SOL    HW139986   0.565   3.399   9.015  0.9693  0.7112 -2.0535
 9508SOL    HW239987   0.531   3.542   8.992  0.7184 -1.0080 -0.0194
 9509SOL     OW39988   0.240   4.542   3.648 -0.2845  0.0957 -0.5095
 9509SOL    HW139989   0.153   4.570   3.675 -0.5602 -0.3512 -0.9310
 9509SOL    HW239990   0.254   4.625   3.603 -0.6783  1.2160  1.4597
 9510SOL     OW39991   4.599   1.721   2.711  0.4628  0.6323 -0.6587
 9510SOL    HW139992   4.551   1.675   2.780 -0.9256  0.8058 -1.5188
 9510SOL    HW239993   4.521   1.767   2.681 -0.5562 -0.0868  0.8562
 9511SOL     OW39994   3.407   3.496   3.998  0.0484 -0.2137  0.4481
 9511SOL    HW139995   3.418   3.581   4.040  3.4753 -0.1111 -0.6437
 9511SOL    HW239996   3.493   3.481   3.959 -0.3648 -0.8211 -0.2256
 9512SOL     OW39997   4.482   3.066   4.918  0.1314 -0.1180 -0.3882
 9512SOL    HW139998   4.429   2.991   4.890 -0.5686 -0.8580  2.8608
 9512SOL    HW239999   4.528   3.028   4.993  0.1909  0.5527 -0.0917
 9513SOL     OW40000   3.038   1.570   4.314 -0.1741 -0.4077  0.8223
 9513SOL    HW140001   3.014   1.642   4.254  0.5812 -0.3704  0.5483
 9513SOL    HW240002   2.959   1.518   4.303 -0.5044  0.4003 -0.6360
 9514SOL     OW40003   3.617   0.252   9.747 -0.4524  0.0933  0.0616
 9514SOL    HW140004   3.554   0.293   9.687 -1.0568 -0.7050  0.1535
 9514SOL    HW240005   3.694   0.251   9.691 -1.5952 -2.1462 -1.4662
 9515SOL     OW40006   3.506   3.384   2.829  0.9310 -0.5583 -0.6382
 9515SOL    HW140007   3.497   3.319   2.759  0.0367 -0.8413 -0.2566
 9515SOL    HW240008   3.601   3.385   2.843  0.8911  2.6210 -0.6511
 9516SOL     OW40009   4.225   3.452   3.162  0.2780  0.2164  0.7648
 9516SOL    HW140010   4.218   3.453   3.066 -2.9812  1.4526  1.0161
 9516SOL    HW240011   4.218   3.359   3.183  1.0511  0.1025  0.5060
 9517SOL     OW40012   3.799   4.680  12.694 -0.0022 -0.0453 -0.4409
 9517SOL    HW140013   3.709   4.711  12.701  1.1621  3.6849 -1.7819
 9517SOL    HW240014   3.795   4.615  12.625  0.2913 -1.0949  0.5232
 9518SOL     OW40015   3.045   0.218   0.945  0.0406  0.4394  0.2251
 9518SOL    HW140016   3.038   0.311   0.966 -1.0957  0.9296 -2.3004
 9518SOL    HW240017   2.957   0.192   0.972 -1.6181  1.5170 -4.1440
 9519SOL     OW40018   3.323   4.288   9.807 -0.3859  0.6623 -0.3490
 9519SOL    HW140019   3.358   4.286   9.896  1.5202  1.5662 -1.0928
 9519SOL    HW240020   3.397   4.297   9.748  0.1269 -2.2339 -0.1817
 9520SOL     OW40021   2.225   3.449   4.101  0.3788  0.9184  0.5733
 9520SOL    HW140022   2.169   3.429   4.176  0.3236 -1.3484 -0.0908
 9520SOL    HW240023   2.171   3.420   4.028  0.3579 -0.2988  1.0732
 9521SOL     OW40024   2.809   2.045  12.572  0.3650 -0.0049  0.6581
 9521SOL    HW140025   2.781   1.954  12.570 -0.3868  0.2100  1.4794
 9521SOL    HW240026   2.886   2.042  12.629  1.4928  3.0913 -0.7047
 9522SOL     OW40027   4.345   4.629   1.626  0.3286 -0.2453  0.1797
 9522SOL    HW140028   4.301   4.658   1.706 -0.6797 -0.9200 -0.1409
 9522SOL    HW240029   4.276   4.639   1.561  1.5398 -2.2300 -1.3919
 9523SOL     OW40030   3.139   3.777   3.219 -0.3735  0.6271  0.9763
 9523SOL    HW140031   3.088   3.741   3.146  0.7129 -1.0493  1.0514
 9523SOL    HW240032   3.095   3.734   3.292 -0.9718  2.2668  1.5836
 9524SOL     OW40033   2.079   0.296  14.881  0.1632 -0.0083  0.6479
 9524SOL    HW140034   2.060   0.357  14.810  1.1262 -2.0403 -1.3606
 9524SOL    HW240035   2.005   0.305  14.941 -0.8752 -0.9251 -0.4836
 9525SOL     OW40036   1.241   2.835  14.764  0.1059  0.0227 -0.3800
 9525SOL    HW140037   1.318   2.840  14.820  0.2701 -1.6629 -0.4508
 9525SOL    HW240038   1.273   2.868  14.680  1.5067 -2.9745 -1.0445
 9526SOL     OW40039   0.975   2.845  14.837 -0.2976  0.6072  0.0808
 9526SOL    HW140040   0.965   2.895  14.756  1.8813 -0.7397 -1.0193
 9526SOL    HW240041   1.056   2.800  14.811  0.5516  0.5167  2.8478
 9527SOL     OW40042   3.820   4.067  11.535  0.2862 -0.0223  0.3611
 9527SOL    HW140043   3.789   3.993  11.483 -2.2230  1.4950 -0.2832
 9527SOL    HW240044   3.790   4.133  11.473  1.9173 -0.3375 -0.7803
 9528SOL     OW40045   2.866   1.067   4.363 -0.3800  0.4526 -0.0667
 9528SOL    HW140046   2.897   1.026   4.445 -0.3375  2.2572  0.8042
 9528SOL    HW240047   2.940   1.124   4.343 -0.9285 -0.0479 -3.5765
 9529SOL     OW40048   0.183   1.445   4.555 -0.1990 -0.2213  0.3425
 9529SOL    HW140049   0.214   1.356   4.571  0.3579 -0.4006 -1.7861
 9529SOL    HW240050   0.171   1.469   4.647  2.2900 -1.4588  0.9823
 9530SOL     OW40051   1.278   4.108   5.601 -0.0675  0.4099  0.7662
 9530SOL    HW140052   1.293   4.026   5.648  0.6778  0.8346  1.2681
 9530SOL    HW240053   1.303   4.092   5.510 -2.1784 -0.4983  0.3556
 9531SOL     OW40054   1.028   3.177   1.892  0.4641  0.6765  0.5301
 9531SOL    HW140055   1.079   3.162   1.972 -0.9889 -0.9461  1.1324
 9531SOL    HW240056   0.961   3.113   1.916  1.1125 -0.7754 -1.5297
 9532SOL     OW40057   1.862   0.616  15.290 -0.3715 -0.6312 -0.3574
 9532SOL    HW140058   1.801   0.646  15.224  0.3751 -0.1687 -0.8407
 9532SOL    HW240059   1.929   0.585  15.229 -1.5023  1.5274 -2.6708
 9533SOL     OW40060   2.250   0.278   6.041  0.4191  0.0543 -0.3224
 9533SOL    HW140061   2.303   0.252   6.116  0.0342 -0.1756 -0.1273
 9533SOL    HW240062   2.166   0.294   6.085  0.6822  1.1435 -0.2138
 9534SOL     OW40063   1.847   1.436  14.650  0.2525  0.0165  0.6641
 9534SOL    HW140064   1.817   1.349  14.624 -0.7245  0.6807 -0.5011
 9534SOL    HW240065   1.921   1.449  14.590  0.2806 -1.2296  0.4306
 9535SOL     OW40066   0.453   3.322   1.367  0.0288 -0.1141 -0.5330
 9535SOL    HW140067   0.477   3.409   1.398 -2.2292  0.3912 -0.1830
 9535SOL    HW240068   0.461   3.331   1.272 -0.4840 -0.7573 -0.6395
 9536SOL     OW40069   0.265   0.137  12.050  0.0715 -0.4598  0.6940
 9536SOL    HW140070   0.202   0.167  12.115  1.8857  1.7565  1.4400
 9536SOL    HW240071   0.344   0.130  12.103  0.0188  1.7413  1.0653
 9537SOL     OW40072   3.016   0.895   2.861 -0.0229 -0.8136 -0.6121
 9537SOL    HW140073   2.984   0.985   2.861  0.6614 -0.5734 -0.2688
 9537SOL    HW240074   2.985   0.867   2.775  0.3147 -2.5562 -0.1655
 9538SOL     OW40075   0.039   0.313  14.050 -0.3527 -0.0140  0.1688
 9538SOL    HW140076   4.696   0.244  14.067 -1.3154  0.7028 -0.5570
 9538SOL    HW240077   0.055   0.356  14.133  0.5471 -0.3898  0.1845
 9539SOL     OW40078   0.679   2.451   2.408  0.1719  0.1735  0.2575
 9539SOL    HW140079   0.758   2.489   2.369 -1.3318  2.5393 -0.5322
 9539SOL    HW240080   0.705   2.359   2.409  0.6182  0.2944 -0.2025
 9540SOL     OW40081   4.204   4.186   6.783 -0.0467  0.3686 -0.5007
 9540SOL    HW140082   4.274   4.228   6.732 -1.2200  1.7909 -0.9622
 9540SOL    HW240083   4.192   4.250   6.853  0.2037 -0.5054  0.3383
 9541SOL     OW40084   4.489   3.429   0.502 -0.1397 -0.3157  0.7213
 9541SOL    HW140085   4.539   3.355   0.536 -0.8907 -1.5052 -0.8117
 9541SOL    HW240086   4.399   3.412   0.528 -0.2335 -0.1861  0.4798
 9542SOL     OW40087   0.808   2.117   5.548 -0.2015 -0.9122  0.5425
 9542SOL    HW140088   0.825   2.195   5.601  1.3328 -0.0123 -1.2560
 9542SOL    HW240089   0.892   2.104   5.504 -1.1924 -0.1959 -1.5812
 9543SOL     OW40090   2.727   3.428  16.505 -0.0855 -0.2553 -0.0140
 9543SOL    HW140091   2.778   3.348  16.494  0.1808 -0.2891  1.4975
 9543SOL    HW240092   2.646   3.391  16.539 -0.7636 -1.2927 -2.7411
 9544SOL     OW40093   1.026   2.436  14.506  0.2517  0.3704 -0.0088
 9544SOL    HW140094   1.003   2.343  14.499 -2.2313  0.8963  1.1266
 9544SOL    HW240095   1.033   2.440  14.602 -0.0737  0.6349  0.0031
 9545SOL     OW40096   0.294   2.423   3.675 -0.4114 -0.0244  0.4483
 9545SOL    HW140097   0.200   2.422   3.662 -0.3657 -0.0092  0.1045
 9545SOL    HW240098   0.319   2.427   3.582  0.0971 -1.1847  0.5406
 9546SOL     OW40099   0.642   1.292   3.922 -0.2442  0.4279 -0.3597
 9546SOL    HW140100   0.704   1.239   3.872 -1.0364 -0.1306 -0.7486
 9546SOL    HW240101   0.594   1.222   3.967 -1.1505  0.2135 -1.6712
 9547SOL     OW40102   0.160   1.547   3.568 -0.1419 -0.1497 -0.2843
 9547SOL    HW140103   0.101   1.602   3.517 -1.6661 -0.3280  1.3007
 9547SOL    HW240104   0.201   1.505   3.493  0.9059  1.9206 -0.8637
 9548SOL     OW40105   1.792   0.512   4.135  0.0293 -0.0231 -0.8075
 9548SOL    HW140106   1.771   0.571   4.207  0.5111 -0.9340  0.0877
 9548SOL    HW240107   1.829   0.438   4.184  0.7852 -1.0885 -2.9858
 9549SOL     OW40108   4.505   3.957  10.510  0.0181 -0.3847  0.6863
 9549SOL    HW140109   4.598   3.938  10.503  0.0902  0.7001 -1.3433
 9549SOL    HW240110   4.474   3.868  10.526 -0.8127 -0.9001 -3.7851
 9550SOL     OW40111   3.300   0.189   2.473 -0.0999  0.2966  0.0322
 9550SOL    HW140112   3.227   0.135   2.503 -0.7765  0.0236 -2.0635
 9550SOL    HW240113   3.340   0.210   2.557 -1.2998  2.4421  0.0790
 9551SOL     OW40114   0.550   2.302   8.722 -0.7286  0.3162 -0.4877
 9551SOL    HW140115   0.579   2.217   8.690 -0.4081 -0.0110  0.6903
 9551SOL    HW240116   0.478   2.275   8.779  1.1685 -0.1953  1.6504
 9552SOL     OW40117   2.963   4.169   9.007 -0.1386  0.4589  0.1805
 9552SOL    HW140118   3.042   4.118   8.990 -0.3453  0.1106  0.2516
 9552SOL    HW240119   2.908   4.110   9.059 -1.0756 -0.4835 -1.8863
 9553SOL     OW40120   3.737   2.185  11.991  0.0496  0.2352 -0.1541
 9553SOL    HW140121   3.791   2.139  12.056 -1.4209  0.7878  1.4408
 9553SOL    HW240122   3.802   2.168  11.922 -1.8521  1.2991 -2.2065
 9554SOL     OW40123   2.547   2.520   0.633  0.1985  0.0258  0.1703
 9554SOL    HW140124   2.631   2.475   0.622  0.1155 -0.2341  0.5980
 9554SOL    HW240125   2.493   2.481   0.564 -1.7933  1.0758  1.1210
 9555SOL     OW40126   1.606   3.120   5.218 -0.0015  0.0288 -0.3572
 9555SOL    HW140127   1.625   3.029   5.242 -1.5522 -0.3741 -0.6489
 9555SOL    HW240128   1.549   3.101   5.143 -2.2467 -2.3976  1.9574
 9556SOL     OW40129   1.661   0.146   3.037  0.1782 -0.6319  0.0703
 9556SOL    HW140130   1.680   0.238   3.019  0.4242 -0.2839  2.1298
 9556SOL    HW240131   1.633   0.112   2.952 -1.5874 -2.0532  1.2358
 9557SOL     OW40132   1.185   1.194  17.505 -0.9317  0.7243 -0.4071
 9557SOL    HW140133   1.216   1.105  17.521 -2.9308  0.0535 -0.2636
 9557SOL    HW240134   1.198   1.239  17.589  1.8614 -0.8911  0.0123
 9558SOL     OW40135   2.107   2.398  14.555 -0.2554 -0.4164  0.1782
 9558SOL    HW140136   2.137   2.324  14.608  1.3309 -0.1414 -0.3264
 9558SOL    HW240137   2.191   2.440  14.536 -0.0768 -0.3046  1.2258
 9559SOL     OW40138   4.598   0.206   1.570 -0.0369  0.2008 -0.5287
 9559SOL    HW140139   4.629   0.280   1.623 -1.8718 -0.5525  1.5867
 9559SOL    HW240140   4.635   0.129   1.615 -0.4719 -1.8117 -3.6378
 9560SOL     OW40141   0.348   3.554  11.029 -0.0243  0.2062 -0.8690
 9560SOL    HW140142   0.321   3.644  11.011 -2.9375 -0.7534 -1.3203
 9560SOL    HW240143   0.436   3.549  10.991  0.8150  0.6956  1.0426
 9561SOL     OW40144   3.368   2.257   8.945 -0.4113  0.3994  0.1592
 9561SOL    HW140145   3.278   2.275   8.973  0.1027  2.6539  0.4122
 9561SOL    HW240146   3.423   2.332   8.969 -0.9042  0.4210  1.2321
 9562SOL     OW40147   2.064   1.035   8.226 -0.0613  0.7848  0.1252
 9562SOL    HW140148   1.974   1.010   8.245  0.6230 -0.9632  0.9959
 9562SOL    HW240149   2.095   1.054   8.314 -1.1622 -1.4433  0.9782
 9563SOL     OW40150   2.677   1.563   9.559 -0.5285 -0.1500  0.6890
 9563SOL    HW140151   2.733   1.573   9.482  0.3528 -0.8850  1.2488
 9563SOL    HW240152   2.646   1.654   9.555  1.7653  0.5107 -2.3379
 9564SOL     OW40153   3.772   3.289   4.485  0.5231  0.4865 -0.0265
 9564SOL    HW140154   3.681   3.319   4.484  0.1003 -0.9206 -3.4960
 9564SOL    HW240155   3.806   3.359   4.540  1.5555  0.9962 -1.3421
 9565SOL     OW40156   0.490   4.188   4.074  0.0410  0.0907 -0.2717
 9565SOL    HW140157   0.559   4.189   4.008 -0.0392 -0.1693 -0.3610
 9565SOL    HW240158   0.441   4.269   4.061  0.8805  0.6543  0.1293
 9566SOL     OW40159   2.457   1.416  13.595 -0.5313  0.5111 -0.6594
 9566SOL    HW140160   2.384   1.389  13.540 -1.6370  0.7598  0.6939
 9566SOL    HW240161   2.473   1.505  13.561 -2.0755  0.9237 -0.3033
 9567SOL     OW40162   2.388   3.356   8.899 -0.3365 -0.0243 -0.0031
 9567SOL    HW140163   2.326   3.429   8.901  1.4810  1.4754  2.0997
 9567SOL    HW240164   2.401   3.346   8.993  0.4026 -2.1319 -0.3367
 9568SOL     OW40165   2.936   1.299   5.429  0.3538  0.4996  0.2766
 9568SOL    HW140166   2.844   1.325   5.428 -0.0127 -0.7736  1.0773
 9568SOL    HW240167   2.963   1.334   5.344 -2.6365  0.1927 -0.7885
   4.72159   4.72159  17.68863
